 Entering Gaussian System, Link 0=g09
 Input=/home/lpassaglia.iquir/Link1/03_RSRS_THC_003.gjc
 Output=/home/lpassaglia.iquir/Link1/03_RSRS_THC_003.log
 Initial command:
 /share/apps/Gaussian09/EM64T.SSE4.2-enabled/g09/l1.exe /tmp/Gau-57616.inp -scrdir=/tmp/
 Entering Link 1 = /share/apps/Gaussian09/EM64T.SSE4.2-enabled/g09/l1.exe PID=     57621.
  
 Copyright (c) 1988,1990,1992,1993,1995,1998,2003,2009,2011,
            Gaussian, Inc.  All Rights Reserved.
  
 This is part of the Gaussian(R) 09 program.  It is based on
 the Gaussian(R) 03 system (copyright 2003, Gaussian, Inc.),
 the Gaussian(R) 98 system (copyright 1998, Gaussian, Inc.),
 the Gaussian(R) 94 system (copyright 1995, Gaussian, Inc.),
 the Gaussian 92(TM) system (copyright 1992, Gaussian, Inc.),
 the Gaussian 90(TM) system (copyright 1990, Gaussian, Inc.),
 the Gaussian 88(TM) system (copyright 1988, Gaussian, Inc.),
 the Gaussian 86(TM) system (copyright 1986, Carnegie Mellon
 University), and the Gaussian 82(TM) system (copyright 1983,
 Carnegie Mellon University). Gaussian is a federally registered
 trademark of Gaussian, Inc.
  
 This software contains proprietary and confidential information,
 including trade secrets, belonging to Gaussian, Inc.
  
 This software is provided under written license and may be
 used, copied, transmitted, or stored only in accord with that
 written license.
  
 The following legend is applicable only to US Government
 contracts under FAR:
  
                    RESTRICTED RIGHTS LEGEND
  
 Use, reproduction and disclosure by the US Government is
 subject to restrictions as set forth in subparagraphs (a)
 and (c) of the Commercial Computer Software - Restricted
 Rights clause in FAR 52.227-19.
  
 Gaussian, Inc.
 340 Quinnipiac St., Bldg. 40, Wallingford CT 06492
  
  
 ---------------------------------------------------------------
 Warning -- This program may not be used in any manner that
 competes with the business of Gaussian, Inc. or will provide
 assistance to any competitor of Gaussian, Inc.  The licensee
 of this program is prohibited from giving any competitor of
 Gaussian, Inc. access to this program.  By using this program,
 the user acknowledges that Gaussian, Inc. is engaged in the
 business of creating and licensing software in the field of
 computational chemistry and represents and warrants to the
 licensee that it is not a competitor of Gaussian, Inc. and that
 it will not use this program in any manner prohibited above.
 ---------------------------------------------------------------
  

 Cite this work as:
 Gaussian 09, Revision C.01,
 M. J. Frisch, G. W. Trucks, H. B. Schlegel, G. E. Scuseria, 
 M. A. Robb, J. R. Cheeseman, G. Scalmani, V. Barone, B. Mennucci, 
 G. A. Petersson, H. Nakatsuji, M. Caricato, X. Li, H. P. Hratchian, 
 A. F. Izmaylov, J. Bloino, G. Zheng, J. L. Sonnenberg, M. Hada, 
 M. Ehara, K. Toyota, R. Fukuda, J. Hasegawa, M. Ishida, T. Nakajima, 
 Y. Honda, O. Kitao, H. Nakai, T. Vreven, J. A. Montgomery, Jr., 
 J. E. Peralta, F. Ogliaro, M. Bearpark, J. J. Heyd, E. Brothers, 
 K. N. Kudin, V. N. Staroverov, T. Keith, R. Kobayashi, J. Normand, 
 K. Raghavachari, A. Rendell, J. C. Burant, S. S. Iyengar, J. Tomasi, 
 M. Cossi, N. Rega, J. M. Millam, M. Klene, J. E. Knox, J. B. Cross, 
 V. Bakken, C. Adamo, J. Jaramillo, R. Gomperts, R. E. Stratmann, 
 O. Yazyev, A. J. Austin, R. Cammi, C. Pomelli, J. W. Ochterski, 
 R. L. Martin, K. Morokuma, V. G. Zakrzewski, G. A. Voth, 
 P. Salvador, J. J. Dannenberg, S. Dapprich, A. D. Daniels, 
 O. Farkas, J. B. Foresman, J. V. Ortiz, J. Cioslowski, 
 and D. J. Fox, Gaussian, Inc., Wallingford CT, 2010.
 
 ******************************************
 Gaussian 09:  EM64L-G09RevC.01 23-Sep-2011
                23-Dec-2022 
 ******************************************
 %chk=03_RSRS_THC_003_optB_NMR
 %nprocshared=4
 Will use up to    4 processors via shared memory.
 ------------------------------------------------
 # mPW1PW91/6-31+G** scrf=(PCM,solvent=water) nmr
 ------------------------------------------------
 1/38=1/1;
 2/12=2,17=6,18=5,40=1/2;
 3/5=1,6=6,7=111,11=2,16=1,25=1,30=1,70=2201,72=1,74=-7/1,2,8,3;
 4//1;
 5/5=2,38=5,53=1/2;
 8/6=1,10=90,11=11/1;
 10/13=100,45=16/2;
 6/7=2,8=2,9=2,10=2,28=1/1;
 99/9=1/99;
 -------
 comment
 -------
 Charge =  0 Multiplicity = 1
 Symbolic Z-Matrix:
 6                     0.3467    2.13755  -2.02135 
 6                    -0.08045   3.32512  -1.15218 
 1                     0.75832   4.02574  -1.04865 
 1                    -0.89605   3.87285  -1.6412 
 6                    -0.55452   2.92392   0.24366 
 1                    -0.69887   3.84201   0.8297 
 6                     0.44594   2.01098   0.98224 
 1                     1.31468   2.67684   1.12357 
 6                     0.99844   0.82315   0.12424 
 1                     1.9669    0.63038   0.61053 
 6                     1.41127   1.28665  -1.30033 
 1                     2.31483   1.90306  -1.19624 
 6                     0.28789  -0.53783   0.18174 
 6                    -0.87314  -3.13122   0.5149 
 6                     1.07138  -1.69927   0.36502 
 6                    -1.09201  -0.74629   0.08875 
 6                    -1.66743  -2.0084    0.2766 
 6                     0.51206  -2.97098   0.53437 
 1                    -2.7493   -2.10579   0.21211 
 1                     1.14601  -3.84189   0.67392 
 8                    -1.9827    0.23297  -0.2334 
 1                    -1.60259   0.72671  -0.99346 
 8                     2.44092  -1.58601   0.33652 
 1                     2.82297  -2.4366    0.61391 
 8                     1.77643   0.18045  -2.1391 
 1                     2.27813  -0.44387  -1.57749 
 6                     0.85739   2.64758  -3.37581 
 1                     0.08455   3.23704  -3.88274 
 1                     1.09985   1.81973  -4.05131 
 1                     1.74854   3.273    -3.26018 
 8                    -0.79346   1.30898  -2.29185 
 1                    -0.42472   0.54358  -2.78692 
 1                    -1.54772   2.48058   0.16789 
 6                     0.04504   1.61435   2.40714 
 6                    -1.21452   1.63073   2.87646 
 1                    -1.4442    1.33971   3.89712 
 1                    -2.06433   1.89963   2.25814 
 6                     1.17616   1.20422   3.31709 
 1                     0.83409   1.01221   4.33986 
 1                     1.92965   1.99692   3.36782 
 1                     1.655     0.28972   2.95526 
 6                    -1.49892  -4.48976   0.68856 
 1                    -0.88426  -5.09449   1.36649 
 1                    -2.47577  -4.38641   1.17662 
 6                    -1.66199  -5.2128   -0.63971 
 1                    -2.118    -6.19531  -0.48216 
 1                    -0.69508  -5.36249  -1.13201 
 1                    -2.30314  -4.64695  -1.32413 
 
                          Input orientation:                          
 ---------------------------------------------------------------------
 Center     Atomic      Atomic             Coordinates (Angstroms)
 Number     Number       Type             X           Y           Z
 ---------------------------------------------------------------------
      1          6           0        0.346702    2.137550   -2.021352
      2          6           0       -0.080448    3.325122   -1.152181
      3          1           0        0.758318    4.025735   -1.048653
      4          1           0       -0.896054    3.872845   -1.641197
      5          6           0       -0.554517    2.923915    0.243656
      6          1           0       -0.698870    3.842006    0.829697
      7          6           0        0.445943    2.010984    0.982236
      8          1           0        1.314685    2.676844    1.123568
      9          6           0        0.998445    0.823146    0.124239
     10          1           0        1.966898    0.630377    0.610529
     11          6           0        1.411273    1.286654   -1.300325
     12          1           0        2.314833    1.903060   -1.196236
     13          6           0        0.287890   -0.537833    0.181742
     14          6           0       -0.873137   -3.131222    0.514898
     15          6           0        1.071385   -1.699268    0.365022
     16          6           0       -1.092009   -0.746292    0.088754
     17          6           0       -1.667433   -2.008397    0.276600
     18          6           0        0.512063   -2.970976    0.534372
     19          1           0       -2.749300   -2.105787    0.212110
     20          1           0        1.146007   -3.841893    0.673916
     21          8           0       -1.982700    0.232973   -0.233396
     22          1           0       -1.602589    0.726715   -0.993458
     23          8           0        2.440917   -1.586009    0.336516
     24          1           0        2.822969   -2.436601    0.613905
     25          8           0        1.776428    0.180450   -2.139102
     26          1           0        2.278128   -0.443868   -1.577490
     27          6           0        0.857390    2.647584   -3.375810
     28          1           0        0.084553    3.237041   -3.882736
     29          1           0        1.099846    1.819731   -4.051313
     30          1           0        1.748542    3.272996   -3.260177
     31          8           0       -0.793460    1.308983   -2.291847
     32          1           0       -0.424720    0.543576   -2.786922
     33          1           0       -1.547718    2.480581    0.167895
     34          6           0        0.045042    1.614346    2.407140
     35          6           0       -1.214523    1.630730    2.876463
     36          1           0       -1.444198    1.339712    3.897116
     37          1           0       -2.064327    1.899634    2.258138
     38          6           0        1.176165    1.204224    3.317090
     39          1           0        0.834091    1.012212    4.339860
     40          1           0        1.929648    1.996923    3.367821
     41          1           0        1.654999    0.289716    2.955262
     42          6           0       -1.498922   -4.489762    0.688560
     43          1           0       -0.884264   -5.094488    1.366487
     44          1           0       -2.475767   -4.386414    1.176616
     45          6           0       -1.661988   -5.212800   -0.639712
     46          1           0       -2.118003   -6.195311   -0.482159
     47          1           0       -0.695075   -5.362492   -1.132008
     48          1           0       -2.303137   -4.646953   -1.324131
 ---------------------------------------------------------------------
                    Distance matrix (angstroms):
                    1          2          3          4          5
     1  C    0.000000
     2  C    1.532397   0.000000
     3  H    2.163519   1.097773   0.000000
     4  H    2.167997   1.097429   1.763925   0.000000
     5  C    2.561411   1.527766   2.146534   2.137705   0.000000
     6  H    3.482365   2.139499   2.384398   2.478941   1.098714
     7  C    3.007892   2.561208   2.877727   3.485669   1.542682
     8  H    3.334420   2.746943   2.616792   3.736537   2.080675
     9  C    2.599229   3.008844   3.419052   4.000820   2.615183
    10  H    3.438517   3.815812   3.967620   4.876511   3.428184
    11  C    1.541822   2.530322   2.827058   3.482576   2.988115
    12  H    2.146938   2.785960   2.636336   3.793131   3.368769
    13  C    3.466231   4.103345   4.749877   4.917205   3.563310
    14  C    5.973319   6.715049   7.505224   7.328454   6.069578
    15  C    4.576147   5.373371   5.905264   6.240527   4.902255
    16  C    3.852140   4.374881   5.243057   4.936351   3.712588
    17  C    5.150360   5.745116   6.637117   6.233938   5.056418
    18  C    5.714553   6.544951   7.177784   7.318045   5.997654
    19  H    5.707845   6.203131   7.175547   6.527888   5.487802
    20  H    6.607353   7.496995   8.063320   8.309450   6.989497
    21  O    3.500045   3.744878   4.750039   4.051095   3.083578
    22  H    2.616631   3.015597   4.057150   3.288905   2.730676
    23  O    4.879567   5.717754   6.020092   6.696702   5.414856
    24  H    5.830896   6.689271   6.984889   7.663272   6.346624
    25  O    2.426567   3.782984   4.124542   4.585178   4.317111
    26  H    3.254404   4.466436   4.750457   5.358498   4.762606
    27  C    1.534761   2.506616   2.706432   2.754036   3.894916
    28  H    2.177694   2.736953   3.017950   2.527911   4.187310
    29  H    2.188373   3.473364   3.741532   3.742667   4.733170
    30  H    2.188396   2.791338   2.537321   3.158291   4.207467
    31  O    1.435152   2.423229   3.366643   2.647123   3.015605
    32  H    1.929234   3.244673   4.067750   3.552306   3.855809
    33  H    2.915356   2.146796   3.030725   2.374001   1.090290
    34  C    4.469484   3.951110   4.273882   4.730276   2.599059
    35  C    5.165548   4.515204   5.003468   5.053489   3.006594
    36  H    6.234752   5.594378   6.043710   6.114747   4.080319
    37  H    4.917692   4.195005   4.839679   4.523630   2.717869
    38  C    5.482524   5.104084   5.214905   6.000020   3.924105
    39  H    6.478345   6.028967   6.174394   6.851982   4.728819
    40  H    5.618601   5.122013   4.999334   6.049292   4.097658
    41  H    5.467433   5.394122   5.549164   6.361928   4.378787
    42  C    7.393999   8.153086   8.979240   8.701978   7.486819
    43  H    8.080539   8.824944   9.576505   9.458296   8.103349
    44  H    7.794578   8.404084   9.283070   8.868536   7.615939
    45  C    7.744121   8.698275   9.559061   9.172708   8.259113
    46  H    8.824991   9.759057  10.633152  10.208051   9.280710
    47  H    7.624098   8.709351   9.500427   9.251547   8.400997
    48  H    7.316915   8.277916   9.201300   8.641029   7.926769
                    6          7          8          9         10
     6  H    0.000000
     7  C    2.164834   0.000000
     8  H    2.344859   1.103655   0.000000
     9  C    3.534411   1.566007   2.129522   0.000000
    10  H    4.179582   2.087473   2.208307   1.100699   0.000000
    11  C    3.939482   2.581977   2.795929   1.553915   2.095419
    12  H    4.116591   2.872305   2.642069   2.154704   2.237226
    13  C    4.536136   2.676236   3.503640   1.536378   2.089890
    14  C    6.982505   5.329227   6.236239   4.392318   4.714294
    15  C    5.835704   3.812886   4.448027   2.534929   2.507880
    16  C    4.664336   3.281186   4.310554   2.614267   3.394757
    17  C    5.955774   4.595618   5.617995   3.892011   4.503665
    18  C    6.926060   5.002488   5.734913   3.847095   3.884854
    19  H    6.321544   5.267873   6.341947   4.757306   5.466979
    20  H    7.903806   5.902654   6.536404   4.699629   4.547426
    21  O    3.975362   3.246135   4.322800   3.059972   4.058258
    22  H    3.720973   3.122371   4.098205   2.832652   3.914497
    23  O    6.290058   4.163560   4.478813   2.815993   2.283012
    24  H    7.202140   5.056376   5.355558   3.767574   3.184215
    25  O    5.324271   3.855360   4.134031   2.478110   2.792702
    26  H    5.746806   3.991917   4.238252   2.477659   2.457294
    27  C    4.640569   4.423473   4.522652   3.949534   4.603371
    28  H    4.815263   5.030087   5.185569   4.766334   5.525156
    29  H    5.581149   5.079448   5.249781   4.294031   4.888672
    30  H    4.800069   4.613839   4.445318   4.244842   4.691852
    31  O    4.021093   3.570511   4.240328   3.047036   4.062495
    32  H    4.902523   4.137378   4.782081   3.252448   4.155724
    33  H    1.735512   2.204169   3.024100   3.038412   3.996462
    34  C    2.829170   1.532447   2.094863   2.597424   2.808832
    35  C    3.056941   2.547516   3.250213   3.622728   4.031948
    36  H    4.028157   3.538328   4.134238   4.524151   4.789612
    37  H    2.770871   2.818116   3.648153   3.884961   4.536122
    38  C    4.081761   2.575971   2.645626   3.220420   2.877505
    39  H    4.762242   3.524463   3.653286   4.223057   3.916243
    40  H    4.093350   2.809375   2.424282   3.572914   3.077579
    41  H    4.762089   2.883992   3.028085   2.954709   2.389792
    42  C    8.371282   6.791793   7.711411   5.897651   6.183351
    43  H    8.954520   7.239118   8.080098   6.332942   6.440083
    44  H    8.425237   7.035686   8.016231   6.349579   6.725022
    45  C    9.223679   7.697866   8.614883   6.640343   6.991039
    46  H   10.221675   8.721328   9.647634   7.703162   8.029346
    47  H    9.411221   7.755005   8.588229   6.535157   6.785058
    48  H    8.903655   7.563392   8.527477   6.551351   7.058776
                   11         12         13         14         15
    11  C    0.000000
    12  H    1.098732   0.000000
    13  C    2.605238   3.459087   0.000000
    14  C    5.294449   6.199607   2.860882   0.000000
    15  C    3.435787   4.118308   1.412936   2.419529   0.000000
    16  C    3.511243   4.502981   1.398650   2.432570   2.380075
    17  C    4.777288   5.772970   2.448437   1.395861   2.757626
    18  C    4.722511   5.477337   2.468763   1.394574   1.399558
    19  H    5.577319   6.610578   3.418176   2.159441   3.845292
    20  H    5.501817   6.153708   3.448973   2.146458   2.166063
    21  O    3.710476   4.710100   2.433528   3.620619   3.663207
    22  H    3.080756   4.095254   2.560094   4.206057   3.857589
    23  O    3.462890   3.812982   2.399616   3.660937   1.374504
    24  H    4.418121   4.729427   3.196672   3.762113   1.916677
    25  O    1.435470   2.036238   2.849209   5.003107   3.209527
    26  H    1.955240   2.377977   2.657964   4.640089   2.608756
    27  C    2.542942   2.725619   4.809094   7.178226   5.738879
    28  H    3.497577   3.737772   5.550766   7.798149   6.586686
    29  H    2.819413   3.103966   4.912854   7.018182   5.646962
    30  H    2.810752   2.541115   5.338794   7.882791   6.190639
    31  O    2.417532   3.348847   3.270884   5.253531   4.425626
    32  H    2.476491   3.447265   3.238861   4.960568   4.147702
    33  H    3.512373   4.136869   3.532771   5.662845   4.936567
    34  C    3.964753   4.268445   3.105358   5.190766   4.025377
    35  C    4.945579   5.396054   3.771132   5.326324   4.756217
    36  H    5.930424   6.355305   4.508803   5.635136   5.295209
    37  H    5.011806   5.577611   3.973108   5.455945   5.135043
    38  C    4.624132   4.706915   3.695160   5.554099   4.141974
    39  H    5.676279   5.799531   4.471121   5.891775   4.817444
    40  H    4.750241   4.581243   4.389927   6.503279   4.838930
    41  H    4.377592   4.502577   3.200975   4.904046   3.317530
    42  C    6.766970   7.678891   4.366613   1.505788   3.807626
    43  H    7.286998   8.109713   4.851873   2.140032   4.044133
    44  H    7.309447   8.254560   4.841400   2.140514   4.523464
    45  C    7.219712   8.170697   5.131483   2.507663   4.563521
    46  H    8.312941   9.259782   6.183538   3.454338   5.577124
    47  H    6.976831   7.864599   5.096027   2.778951   4.333669
    48  H    7.000364   8.015278   5.085857   2.779275   4.788474
                   16         17         18         19         20
    16  C    0.000000
    17  C    1.399753   0.000000
    18  C    2.778641   2.396500   0.000000
    19  H    2.147105   1.088154   3.389527   0.000000
    20  H    3.864437   3.381569   1.086210   4.289609   0.000000
    21  O    1.362377   2.320178   4.132626   2.501190   5.216949
    22  H    1.897794   3.016304   4.525366   3.285028   5.586331
    23  O    3.639791   4.130441   2.382805   5.217663   2.622908
    24  H    4.296508   4.523366   2.373218   5.596522   2.188755
    25  O    3.748350   4.742030   4.321755   5.589034   4.948712
    26  H    3.771690   4.631722   3.737006   5.589246   4.230496
    27  C    5.227021   6.433738   6.853976   6.962465   7.654861
    28  H    5.746649   6.919838   7.631061   7.303719   8.485345
    29  H    5.341241   6.406499   6.657693   6.957183   7.374545
    30  H    5.953045   7.216009   7.410443   7.824236   8.152410
    31  O    3.159200   4.285529   5.292443   4.664308   6.252104
    32  H    3.221575   4.176370   4.925509   4.627849   5.803182
    33  H    3.259854   4.491890   5.839220   4.741364   6.891001
    34  C    3.498630   4.538286   4.974992   5.144502   5.829814
    35  C    3.665592   4.495293   5.444465   4.838996   6.353969
    36  H    4.356497   4.936375   5.806637   5.210952   6.629269
    37  H    3.557043   4.399628   5.773387   4.549596   6.766176
    38  C    4.401281   5.258475   5.061309   6.000529   5.696541
    39  H    4.987394   5.647281   5.518263   6.292927   6.090876
    40  H    5.235257   6.207835   5.892198   6.977341   6.477885
    41  H    4.103198   4.847175   4.218901   5.714995   4.746979
    42  C    3.812993   2.520968   2.524787   2.733822   2.723159
    43  H    4.536801   3.365288   2.674219   3.707192   2.484079
    44  H    4.043355   2.668033   3.367948   2.491255   3.696817
    45  C    4.561275   3.332845   3.336277   3.400202   3.389666
    46  H    5.574084   4.278899   4.283330   4.195802   4.186746
    47  H    4.791359   3.765582   3.154894   4.078310   2.993854
    48  H    4.321832   3.150942   3.766734   3.002769   4.066559
                   21         22         23         24         25
    21  O    0.000000
    22  H    0.982832   0.000000
    23  O    4.816833   4.844322   0.000000
    24  H    5.562283   5.672367   0.972839   0.000000
    25  O    4.214916   3.609524   3.112974   3.939956   0.000000
    26  H    4.518777   4.095280   2.234816   3.011652   0.978204
    27  C    4.875574   3.926428   5.849122   6.755018   2.908750
    28  H    5.159035   4.182836   6.827617   7.740086   3.904543
    29  H    5.157167   4.224726   5.714069   6.545975   2.607980
    30  H    5.685535   4.780339   6.084859   6.983009   3.289594
    31  O    2.609465   1.636930   5.074492   5.962496   2.810915
    32  H    3.007369   2.153469   4.743720   5.567277   2.323056
    33  H    2.324218   2.104234   5.698667   6.593976   4.654331
    34  C    3.604492   3.881577   4.502219   5.229029   5.071694
    35  C    3.495003   3.993010   5.491902   6.161469   6.017059
    36  H    4.309987   4.931386   6.027589   6.576376   6.939182
    37  H    2.998694   3.487380   6.011619   6.737366   6.086273
    38  C    4.850537   5.150758   4.274204   4.824394   5.583768
    39  H    5.427356   5.870536   5.035812   5.452768   6.599756
    40  H    5.602388   5.754205   4.720975   5.295112   5.800798
    41  H    4.837728   5.137629   3.315696   3.778745   5.096983
    42  C    4.836142   5.481930   4.906940   4.785372   6.366669
    43  H    5.669922   6.322320   4.942378   4.623236   6.869745
    44  H    4.854893   5.622788   5.720299   5.674065   7.066215
    45  C    5.470318   5.950336   5.562415   5.421593   6.569476
    46  H    6.434518   6.959994   6.534497   6.304162   7.652606
    47  H    5.811601   6.158020   5.123752   4.897518   6.151973
    48  H    5.010594   5.429219   5.884996   5.909196   6.372664
                   26         27         28         29         30
    26  H    0.000000
    27  C    3.848315   0.000000
    28  H    4.865699   1.096226   0.000000
    29  H    3.554157   1.095641   1.751573   0.000000
    30  H    4.114241   1.094835   1.777001   1.777268   0.000000
    31  O    3.607969   2.385819   2.649386   2.634614   3.355113
    32  H    3.121404   2.533268   2.952105   2.356175   3.520905
    33  H    5.122096   4.286057   4.432172   5.024742   4.821299
    34  C    5.010009   5.930430   6.495940   6.547244   6.145853
    35  C    6.028289   6.664663   7.067857   7.306580   7.009646
    36  H    6.856250   7.739721   8.152486   8.359432   8.072052
    37  H    6.249876   6.390401   6.642038   7.058863   6.846597
    38  C    5.280856   6.854183   7.560520   7.394460   6.918661
    39  H    6.262622   7.887112   8.551184   8.434127   7.981724
    40  H    5.525848   6.859275   7.583722   7.467497   6.752149
    41  H    4.633819   6.802808   7.609944   7.193138   6.894955
    42  C    5.980831   8.544765   9.116339   8.308411   9.295104
    43  H    6.347911   9.244588   9.894813   9.005313   9.917281
    44  H    6.762269   9.017297   9.501019   8.867496   9.807980
    45  C    6.256728   8.695926   9.217778   8.289948   9.513531
    46  H    7.321530   9.768468  10.265693   9.345283  10.597943
    47  H    5.764655   8.462039   9.062356   7.957915   9.223449
    48  H    6.222386   8.210273   8.625827   7.799731   9.104393
                   31         32         33         34         35
    31  O    0.000000
    32  H    0.983319   0.000000
    33  H    2.826991   3.707298   0.000000
    34  C    4.782971   5.324050   2.881227   0.000000
    35  C    5.195406   5.820621   2.858252   1.344261   0.000000
    36  H    6.223155   6.808049   3.901203   2.124450   1.085898
    37  H    4.760917   5.475384   2.230134   2.133783   1.084805
    38  C    5.945634   6.344939   4.355004   1.508525   2.468086
    39  H    6.834949   7.252258   5.023387   2.172687   2.592473
    40  H    6.318260   6.748046   4.750318   2.149654   3.203333
    41  H    5.879286   6.112476   4.777730   2.155700   3.168388
    42  C    6.557892   6.210264   6.989933   6.526675   6.506015
    43  H    7.375370   7.017816   7.697952   6.852373   6.900555
    44  H    6.877350   6.649904   7.002458   6.624031   6.378577
    45  C    6.783623   6.267153   7.736498   7.668584   7.706985
    46  H    7.832229   7.320637   8.718882   8.603346   8.564085
    47  H    6.772258   6.139500   7.995658   7.858092   8.077303
    48  H    6.220030   5.710498   7.321103   7.657689   7.631473
                   36         37         38         39         40
    36  H    0.000000
    37  H    1.839653   0.000000
    38  C    2.687208   3.479333   0.000000
    39  H    2.343903   3.677215   1.095418   0.000000
    40  H    3.477774   4.146407   1.094843   1.764868   0.000000
    41  H    3.405084   4.112323   1.093858   1.764369   1.777693
    42  C    6.654366   6.603609   6.818119   7.003332   7.810929
    43  H    6.936608   7.148799   6.908255   7.006103   7.887429
    44  H    6.422910   6.391665   7.012380   7.078590   8.059531
    45  C    7.972806   7.690652   8.055407   8.353282   8.996680
    46  H    8.741203   8.546359   8.946449   9.160520   9.915569
    47  H    8.412657   8.130585   8.149710   8.539118   9.016574
    48  H    7.989953   7.466424   8.239099   8.599369   9.169077
                   41         42         43         44         45
    41  H    0.000000
    42  C    6.158618   0.000000
    43  H    6.161308   1.096851   0.000000
    44  H    6.487912   1.096862   1.752227   0.000000
    45  C    7.362331   1.521078   2.154921   2.155040   0.000000
    46  H    8.252696   2.159338   2.480205   2.480250   1.094578
    47  H    7.360440   2.173084   2.519940   3.074628   1.095301
    48  H    7.638766   2.173107   3.074559   2.520202   1.095301
                   46         47         48
    46  H    0.000000
    47  H    1.772178   0.000000
    48  H    1.772175   1.770528   0.000000
 Stoichiometry    C18H26O4
 Framework group  C1[X(C18H26O4)]
 Deg. of freedom   138
 Full point group                 C1      NOp   1
 Largest Abelian subgroup         C1      NOp   1
 Largest concise Abelian subgroup C1      NOp   1
                         Standard orientation:                         
 ---------------------------------------------------------------------
 Center     Atomic      Atomic             Coordinates (Angstroms)
 Number     Number       Type             X           Y           Z
 ---------------------------------------------------------------------
      1          6           0        2.505157   -1.525933   -0.237259
      2          6           0        3.415015   -0.422974   -0.788511
      3          1           0        4.233249   -0.233540   -0.081606
      4          1           0        3.874820   -0.752106   -1.729043
      5          6           0        2.688538    0.894070   -1.056270
      6          1           0        3.442774    1.652310   -1.308012
      7          6           0        1.867124    1.387526    0.152716
      8          1           0        2.650812    1.605686    0.898567
      9          6           0        0.978989    0.288541    0.827863
     10          1           0        0.891521    0.674608    1.854917
     11          6           0        1.759007   -1.041327    1.021961
     12          1           0        2.508250   -0.871065    1.807364
     13          6           0       -0.480825    0.123220    0.378341
     14          6           0       -3.265462    0.016627   -0.269024
     15          6           0       -1.484719    0.036882    1.368861
     16          6           0       -0.929360    0.068354   -0.945301
     17          6           0       -2.291105    0.042248   -1.268224
     18          6           0       -2.849360   -0.010079    1.061760
     19          1           0       -2.580512    0.020139   -2.316954
     20          1           0       -3.593640   -0.075318    1.850204
     21          8           0       -0.097078   -0.010389   -2.021022
     22          1           0        0.587540   -0.681510   -1.804567
     23          8           0       -1.108425   -0.044981    2.688316
     24          1           0       -1.905801    0.042663    3.238702
     25          8           0        0.910421   -2.095480    1.500746
     26          1           0        0.303728   -1.692557    2.153785
     27          6           0        3.336313   -2.783590    0.050787
     28          1           0        3.847771   -3.124633   -0.856854
     29          1           0        2.703872   -3.617612    0.374598
     30          1           0        4.089822   -2.599605    0.823470
     31          8           0        1.535509   -1.886860   -1.231832
     32          1           0        0.955364   -2.539086   -0.779118
     33          1           0        2.084168    0.789699   -1.957700
     34          6           0        1.153873    2.729887   -0.041536
     35          6           0        0.845251    3.262486   -1.236579
     36          1           0        0.338678    4.219514   -1.318155
     37          1           0        1.052410    2.755080   -2.172756
     38          6           0        0.812270    3.480444    1.221643
     39          1           0        0.379393    4.464735    1.012529
     40          1           0        1.712483    3.640506    1.823870
     41          1           0        0.085530    2.924122    1.820710
     42          6           0       -4.727396   -0.039085   -0.625454
     43          1           0       -5.314288    0.475332    0.145269
     44          1           0       -4.901346    0.512927   -1.557189
     45          6           0       -5.219974   -1.470260   -0.776393
     46          1           0       -6.283610   -1.479045   -1.034663
     47          1           0       -5.091902   -2.034762    0.153455
     48          1           0       -4.674519   -1.997029   -1.566759
 ---------------------------------------------------------------------
 Rotational constants (GHZ):      0.3953238      0.2205361      0.1916548
 Standard basis: 6-31+G(d,p) (6D, 7F)
 There are   548 symmetry adapted basis functions of A   symmetry.
 Integral buffers will be    131072 words long.
 Raffenetti 2 integral format.
 Two-electron integral symmetry is turned on.
   548 basis functions,   886 primitive gaussians,   548 cartesian basis functions
    83 alpha electrons       83 beta electrons
       nuclear repulsion energy      2014.8808344498 Hartrees.
 NAtoms=   48 NActive=   48 NUniq=   48 SFac= 1.00D+00 NAtFMM=   60 NAOKFM=F Big=F
 ------------------------------------------------------------------------------
 Polarizable Continuum Model (PCM)
 =================================
 Model                : PCM.
 Atomic radii         : UFF (Universal Force Field).
 Polarization charges : Total charges.
 Charge compensation  : None.
 Solution method      : Matrix inversion.
 Cavity type          : Scaled VdW (van der Waals Surface) (Alpha=1.100).
 Cavity algorithm     : GePol (No added spheres)
                        Default sphere list used, NSphG=   48.
                        Lebedev-Laikov grids with approx.  5.0 points / Ang**2.
                        Smoothing algorithm: Karplus/York (Gamma=1.0000).
                        Polarization charges: spherical gaussians, with
                                              point-specific exponents (IZeta= 3).
                        Self-potential: point-specific (ISelfS= 7).
                        Self-field    : sphere-specific E.n sum rule (ISelfD= 2).
 Solvent              : Water, Eps=  78.355300 Eps(inf)=   1.777849
 ------------------------------------------------------------------------------
 One-electron integrals computed using PRISM.
 NBasis=   548 RedAO= T  NBF=   548
 NBsUse=   546 1.00D-06 NBFU=   546
 Harris functional with IExCor=  908 diagonalized for initial guess.
 ExpMin= 4.38D-02 ExpMax= 5.48D+03 ExpMxC= 8.25D+02 IAcc=2 IRadAn=         4 AccDes= 0.00D+00
 HarFok:  IExCor=  908 AccDes= 0.00D+00 IRadAn=         4 IDoV= 1
 ScaDFX=  1.000000  1.000000  1.000000  1.000000
 FoFCou: FMM=F IPFlag=           0 FMFlag=      100000 FMFlg1=           0
         NFxFlg=           0 DoJE=T BraDBF=F KetDBF=T FulRan=T
         Omega=  0.000000  0.000000  1.000000  0.000000  0.000000 ICntrl=     500 IOpCl=  0
         NMat0=    1 NMatS0=    1 NMatT0=    0 NMatD0=    1 NMtDS0=    0 NMtDT0=    0
         I1Cent=           4 NGrid=           0.
 Petite list used in FoFCou.
 Initial guess orbital symmetries:
       Occupied  (A) (A) (A) (A) (A) (A) (A) (A) (A) (A) (A) (A)
                 (A) (A) (A) (A) (A) (A) (A) (A) (A) (A) (A) (A)
                 (A) (A) (A) (A) (A) (A) (A) (A) (A) (A) (A) (A)
                 (A) (A) (A) (A) (A) (A) (A) (A) (A) (A) (A) (A)
                 (A) (A) (A) (A) (A) (A) (A) (A) (A) (A) (A) (A)
                 (A) (A) (A) (A) (A) (A) (A) (A) (A) (A) (A) (A)
                 (A) (A) (A) (A) (A) (A) (A) (A) (A) (A) (A)
       Virtual   (A) (A) (A) (A) (A) (A) (A) (A) (A) (A) (A) (A)
                 (A) (A) (A) (A) (A) (A) (A) (A) (A) (A) (A) (A)
                 (A) (A) (A) (A) (A) (A) (A) (A) (A) (A) (A) (A)
                 (A) (A) (A) (A) (A) (A) (A) (A) (A) (A) (A) (A)
                 (A) (A) (A) (A) (A) (A) (A) (A) (A) (A) (A) (A)
                 (A) (A) (A) (A) (A) (A) (A) (A) (A) (A) (A) (A)
                 (A) (A) (A) (A) (A) (A) (A) (A) (A) (A) (A) (A)
                 (A) (A) (A) (A) (A) (A) (A) (A) (A) (A) (A) (A)
                 (A) (A) (A) (A) (A) (A) (A) (A) (A) (A) (A) (A)
                 (A) (A) (A) (A) (A) (A) (A) (A) (A) (A) (A) (A)
                 (A) (A) (A) (A) (A) (A) (A) (A) (A) (A) (A) (A)
                 (A) (A) (A) (A) (A) (A) (A) (A) (A) (A) (A) (A)
                 (A) (A) (A) (A) (A) (A) (A) (A) (A) (A) (A) (A)
                 (A) (A) (A) (A) (A) (A) (A) (A) (A) (A) (A) (A)
                 (A) (A) (A) (A) (A) (A) (A) (A) (A) (A) (A) (A)
                 (A) (A) (A) (A) (A) (A) (A) (A) (A) (A) (A) (A)
                 (A) (A) (A) (A) (A) (A) (A) (A) (A) (A) (A) (A)
                 (A) (A) (A) (A) (A) (A) (A) (A) (A) (A) (A) (A)
                 (A) (A) (A) (A) (A) (A) (A) (A) (A) (A) (A) (A)
                 (A) (A) (A) (A) (A) (A) (A) (A) (A) (A) (A) (A)
                 (A) (A) (A) (A) (A) (A) (A) (A) (A) (A) (A) (A)
                 (A) (A) (A) (A) (A) (A) (A) (A) (A) (A) (A) (A)
                 (A) (A) (A) (A) (A) (A) (A) (A) (A) (A) (A) (A)
                 (A) (A) (A) (A) (A) (A) (A) (A) (A) (A) (A) (A)
                 (A) (A) (A) (A) (A) (A) (A) (A) (A) (A) (A) (A)
                 (A) (A) (A) (A) (A) (A) (A) (A) (A) (A) (A) (A)
                 (A) (A) (A) (A) (A) (A) (A) (A) (A) (A) (A) (A)
                 (A) (A) (A) (A) (A) (A) (A) (A) (A) (A) (A) (A)
                 (A) (A) (A) (A) (A) (A) (A) (A) (A) (A) (A) (A)
                 (A) (A) (A) (A) (A) (A) (A) (A) (A) (A) (A) (A)
                 (A) (A) (A) (A) (A) (A) (A) (A) (A) (A) (A) (A)
                 (A) (A) (A) (A) (A) (A) (A) (A) (A) (A) (A) (A)
                 (A) (A) (A) (A) (A) (A) (A) (A) (A) (A) (A) (A)
                 (A) (A) (A) (A) (A) (A) (A) (A) (A) (A) (A) (A)
                 (A) (A) (A) (A) (A) (A) (A) (A) (A) (A) (A) (A)
                 (A) (A) (A) (A) (A) (A) (A) (A) (A) (A) (A) (A)
                 (A) (A) (A) (A) (A) (A) (A) (A) (A) (A) (A) (A)
                 (A) (A) (A) (A) (A) (A) (A) (A) (A) (A) (A) (A)
                 (A) (A) (A) (A) (A) (A) (A)
 The electronic state of the initial guess is 1-A.
 Requested convergence on RMS density matrix=1.00D-08 within 128 cycles.
 Requested convergence on MAX density matrix=1.00D-06.
 Requested convergence on             energy=1.00D-06.
 No special actions if energy rises.
 CoulSu:  requested number of processors reduced to:   2 ShMem   1 Linda.
 CoulSu:  requested number of processors reduced to:   2 ShMem   1 Linda.
 Error on total polarization charges =  0.01925
 SCF Done:  E(RmPW1PW91) =  -1002.30677670     A.U. after   14 cycles
             Convg  =    0.5364D-08             -V/T =  2.0093
 Range of M.O.s used for correlation:     1   546
 NBasis=   548 NAE=    83 NBE=    83 NFC=     0 NFV=     0
 NROrb=    546 NOA=    83 NOB=    83 NVA=   463 NVB=   463

 **** Warning!!: The largest alpha MO coefficient is  0.18111118D+03

 NEqPCM:  Using equilibrium solvation (IEInf=0, Eps=  78.3553, EpsInf=   1.7778)
          Differentiating once with respect to magnetic field using GIAOs.
          Electric field/nuclear overlap derivatives assumed to be zero.
 FoFCou: FMM=F IPFlag=           0 FMFlag=    10101102 FMFlg1=           0
         NFxFlg=    40000000 DoJE=F BraDBF=F KetDBF=T FulRan=T
         Omega=  0.000000  0.000000  1.000000  0.000000  0.000000 ICntrl=    6100 IOpCl=  0
         NMat0=    1 NMatS0=    1 NMatT0=    0 NMatD0=    1 NMtDS0=    0 NMtDT0=    0
         I1Cent=           7 NGrid=        3001.
 Symmetry not used in FoFCou.
          There are     3 degrees of freedom in the 1st order CPHF.  IDoFFX=0.
      3 vectors produced by pass  0 Test12= 1.28D-12 3.33D-08 XBig12= 7.25D+02 3.01D+00.
 AX will form     3 AO Fock derivatives at one time.
      3 vectors produced by pass  1 Test12= 1.28D-12 3.33D-08 XBig12= 1.74D+00 4.36D-01.
      3 vectors produced by pass  2 Test12= 1.28D-12 3.33D-08 XBig12= 7.28D-03 3.75D-02.
      3 vectors produced by pass  3 Test12= 1.28D-12 3.33D-08 XBig12= 3.75D-05 1.66D-03.
      3 vectors produced by pass  4 Test12= 1.28D-12 3.33D-08 XBig12= 1.25D-07 8.60D-05.
      3 vectors produced by pass  5 Test12= 1.28D-12 3.33D-08 XBig12= 4.79D-10 4.72D-06.
      3 vectors produced by pass  6 Test12= 1.28D-12 3.33D-08 XBig12= 2.24D-12 1.85D-07.
 Inverted reduced A of dimension    21 with in-core refinement.
 Calculating GIAO nuclear magnetic shielding tensors.
 SCF GIAO Magnetic shielding tensor (ppm):
      1  C    Isotropic =   124.4981   Anisotropy =    48.4972
   XX=   127.6533   YX=     1.2435   ZX=    26.2040
   XY=     6.3703   YY=   111.4468   ZY=     7.8499
   XZ=    22.9683   YZ=     3.2925   ZZ=   134.3943
   Eigenvalues:   106.0671   110.5977   156.8296
      2  C    Isotropic =   159.5628   Anisotropy =    24.4671
   XX=   156.8749   YX=     6.0658   ZX=    -3.6527
   XY=     3.2328   YY=   171.2983   ZY=    -5.2540
   XZ=    -6.7295   YZ=   -10.3507   ZZ=   150.5152
   Eigenvalues:   146.5805   156.2336   175.8742
      3  H    Isotropic =    29.7605   Anisotropy =     8.5481
   XX=    34.6327   YX=     0.4446   ZX=     2.8109
   XY=     1.0101   YY=    28.7452   ZY=    -0.8757
   XZ=     2.6238   YZ=    -0.0208   ZZ=    25.9036
   Eigenvalues:    25.0191    28.8032    35.4592
      4  H    Isotropic =    29.4614   Anisotropy =     9.1530
   XX=    29.6922   YX=    -2.7871   ZX=    -5.1858
   XY=    -2.2859   YY=    28.5731   ZY=     0.4433
   XZ=    -4.7587   YZ=     0.6536   ZZ=    30.1189
   Eigenvalues:    24.3686    28.4523    35.5634
      5  C    Isotropic =   170.0570   Anisotropy =    17.0358
   XX=   173.5436   YX=    -0.8481   ZX=   -12.3545
   XY=    -5.3153   YY=   171.4116   ZY=    -1.2476
   XZ=    -7.7848   YZ=     4.1623   ZZ=   165.2159
   Eigenvalues:   158.4629   170.2940   181.4142
      6  H    Isotropic =    30.1987   Anisotropy =    10.4088
   XX=    32.3672   YX=     2.8196   ZX=    -4.2396
   XY=     3.4517   YY=    31.6853   ZY=    -2.4245
   XZ=    -3.4208   YZ=    -2.6406   ZZ=    26.5436
   Eigenvalues:    24.5069    28.9512    37.1379
      7  C    Isotropic =   148.9555   Anisotropy =    22.0438
   XX=   154.3982   YX=    -7.7245   ZX=    -3.4665
   XY=    -6.2378   YY=   158.2575   ZY=     1.1537
   XZ=     0.4195   YZ=     0.3976   ZZ=   134.2109
   Eigenvalues:   134.0936   149.1215   163.6514
      8  H    Isotropic =    28.8900   Anisotropy =     7.4464
   XX=    29.6368   YX=     1.5915   ZX=     2.0759
   XY=     2.4821   YY=    28.4585   ZY=     3.9126
   XZ=     1.0561   YZ=     3.6805   ZZ=    28.5747
   Eigenvalues:    24.6893    28.1265    33.8543
      9  C    Isotropic =   158.5499   Anisotropy =    29.6240
   XX=   166.1087   YX=     0.4160   ZX=     4.1031
   XY=     0.8683   YY=   174.6177   ZY=   -17.9063
   XZ=     0.8653   YZ=    -7.3656   ZZ=   134.9234
   Eigenvalues:   131.0547   166.2959   178.2992
     10  H    Isotropic =    27.1358   Anisotropy =     6.5031
   XX=    26.1943   YX=     1.0146   ZX=    -3.0199
   XY=     1.5874   YY=    25.5531   ZY=     2.1293
   XZ=    -2.5328   YZ=     2.0409   ZZ=    29.6600
   Eigenvalues:    22.8390    27.0972    31.4712
     11  C    Isotropic =   117.6541   Anisotropy =    31.6562
   XX=   123.3639   YX=    11.1393   ZX=   -16.0903
   XY=    10.0919   YY=   125.5746   ZY=   -10.5183
   XZ=    -3.8174   YZ=    -1.5157   ZZ=   104.0237
   Eigenvalues:    99.7197   114.4844   138.7582
     12  H    Isotropic =    27.3602   Anisotropy =     4.5385
   XX=    27.5197   YX=     0.4629   ZX=     2.9339
   XY=     0.1487   YY=    25.7948   ZY=    -0.5926
   XZ=     1.3385   YZ=    -0.5725   ZZ=    28.7661
   Eigenvalues:    25.2502    26.4445    30.3859
     13  C    Isotropic =    92.2295   Anisotropy =   115.6212
   XX=    43.1720   YX=   -11.0087   ZX=    -4.6370
   XY=    -0.5667   YY=   169.0224   ZY=    -4.7358
   XZ=     1.6935   YZ=     1.5406   ZZ=    64.4942
   Eigenvalues:    42.7965    64.5818   169.3103
     14  C    Isotropic =    49.2218   Anisotropy =   192.4612
   XX=   -29.9528   YX=    -3.3120   ZX=   -12.0876
   XY=    -3.6853   YY=   177.4650   ZY=    -1.7928
   XZ=    -8.3151   YZ=     3.3696   ZZ=     0.1531
   Eigenvalues:   -33.1299     3.2660   177.5292
     15  C    Isotropic =    42.6007   Anisotropy =   125.4637
   XX=    37.5143   YX=    -2.1013   ZX=   -21.3195
   XY=    -7.1493   YY=   125.4811   ZY=     6.2333
   XZ=   -15.6459   YZ=     9.9614   ZZ=   -35.1932
   Eigenvalues:   -39.9021    41.4610   126.2432
     16  C    Isotropic =    42.4871   Anisotropy =   127.2322
   XX=     2.7836   YX=     7.1858   ZX=    38.6641
   XY=    12.2913   YY=   126.4981   ZY=     0.7833
   XZ=    28.9608   YZ=   -10.9133   ZZ=    -1.8204
   Eigenvalues:   -34.0769    34.2297   127.3086
     17  C    Isotropic =    82.5766   Anisotropy =   113.4910
   XX=    81.7698   YX=    -2.9638   ZX=   -20.2419
   XY=   -15.0022   YY=   156.7880   ZY=   -17.5237
   XZ=   -20.4560   YZ=    -2.3037   ZZ=     9.1719
   Eigenvalues:     2.9400    86.5525   158.2373
     18  C    Isotropic =    91.9236   Anisotropy =   102.1312
   XX=    62.3633   YX=    -7.1854   ZX=    36.7313
   XY=   -15.3776   YY=   158.6227   ZY=     7.8937
   XZ=    36.8942   YZ=     6.1854   ZZ=    54.7847
   Eigenvalues:    20.3829    95.3767   160.0110
     19  H    Isotropic =    24.7978   Anisotropy =     8.2956
   XX=    29.9901   YX=     0.8404   ZX=    -1.0827
   XY=     1.6595   YY=    20.8599   ZY=    -0.9331
   XZ=    -0.9367   YZ=    -0.1483   ZZ=    23.5434
   Eigenvalues:    20.6341    23.4311    30.3282
     20  H    Isotropic =    25.0384   Anisotropy =     7.0023
   XX=    27.7453   YX=     0.4194   ZX=     2.4414
   XY=     0.5205   YY=    20.8340   ZY=     0.9849
   XZ=     2.3916   YZ=     0.4596   ZZ=    26.5360
   Eigenvalues:    20.7393    24.6694    29.7067
     21  O    Isotropic =   217.5920   Anisotropy =    80.7583
   XX=   188.1527   YX=    10.3674   ZX=   -23.7794
   XY=    17.5121   YY=   269.0403   ZY=    -6.9672
   XZ=   -19.8820   YZ=    10.2678   ZZ=   195.5831
   Eigenvalues:   168.3422   213.0030   271.4309
     22  H    Isotropic =    22.3680   Anisotropy =    29.0317
   XX=    26.5859   YX=   -13.4613   ZX=     5.3966
   XY=   -16.1500   YY=    24.1095   ZY=    -4.0642
   XZ=     4.4074   YZ=    -3.5843   ZZ=    16.4087
   Eigenvalues:    10.4361    14.9455    41.7225
     23  O    Isotropic =   229.7355   Anisotropy =    50.2345
   XX=   189.3319   YX=     2.7603   ZX=     5.7436
   XY=   -18.8881   YY=   243.7773   ZY=    24.2428
   XZ=    25.7680   YZ=    -4.0742   ZZ=   256.0973
   Eigenvalues:   184.0756   241.9057   263.2252
     24  H    Isotropic =    26.2659   Anisotropy =    16.0189
   XX=    30.9191   YX=    -0.9397   ZX=    -5.2535
   XY=    -1.7072   YY=    17.6036   ZY=     1.9391
   XZ=    -7.0758   YZ=     0.6178   ZZ=    30.2751
   Eigenvalues:    17.4285    24.4241    36.9452
     25  O    Isotropic =   291.7643   Anisotropy =    44.1225
   XX=   285.4023   YX=    -9.7770   ZX=   -29.9792
   XY=   -17.7801   YY=   304.7701   ZY=     0.3612
   XZ=   -31.5606   YZ=    -3.4185   ZZ=   285.1206
   Eigenvalues:   252.2189   301.8948   321.1794
     26  H    Isotropic =    28.9614   Anisotropy =    20.0206
   XX=    30.4308   YX=    -4.5518   ZX=   -11.1539
   XY=    -6.3508   YY=    27.1275   ZY=     0.5090
   XZ=   -10.5392   YZ=     2.0285   ZZ=    29.3259
   Eigenvalues:    18.0226    26.5531    42.3085
     27  C    Isotropic =   167.9565   Anisotropy =    45.4170
   XX=   166.7690   YX=   -19.6188   ZX=    15.3984
   XY=   -20.8723   YY=   179.1296   ZY=    -7.6505
   XZ=    11.2133   YZ=    -4.2470   ZZ=   157.9709
   Eigenvalues:   145.9090   159.7261   198.2345
     28  H    Isotropic =    30.4452   Anisotropy =     9.4193
   XX=    30.2353   YX=    -3.6585   ZX=    -3.1459
   XY=    -4.4769   YY=    31.2345   ZY=     2.9286
   XZ=    -2.6678   YZ=     1.5119   ZZ=    29.8658
   Eigenvalues:    26.3823    28.2286    36.7247
     29  H    Isotropic =    30.1035   Anisotropy =     8.5878
   XX=    28.5064   YX=    -1.6775   ZX=    -1.4587
   XY=    -0.4919   YY=    35.1622   ZY=    -2.4223
   XZ=    -1.8199   YZ=    -2.2876   ZZ=    26.6418
   Eigenvalues:    25.0299    29.4518    35.8287
     30  H    Isotropic =    30.5541   Anisotropy =    11.0306
   XX=    33.2139   YX=    -2.3545   ZX=     5.0118
   XY=    -3.5058   YY=    28.2464   ZY=    -1.9255
   XZ=     4.7856   YZ=    -0.9730   ZZ=    30.2019
   Eigenvalues:    26.2557    27.4987    37.9078
     31  O    Isotropic =   278.5107   Anisotropy =    33.9455
   XX=   296.1004   YX=     8.7406   ZX=    20.3797
   XY=    -3.5028   YY=   287.5168   ZY=   -22.8184
   XZ=     7.7801   YZ=   -13.8460   ZZ=   251.9148
   Eigenvalues:   240.6249   293.7661   301.1410
     32  H    Isotropic =    28.6015   Anisotropy =    12.6653
   XX=    28.5276   YX=     7.6950   ZX=    -3.0723
   XY=     6.1722   YY=    30.4931   ZY=    -1.4739
   XZ=    -0.6965   YZ=    -1.4362   ZZ=    26.7836
   Eigenvalues:    22.4517    26.3076    37.0450
     33  H    Isotropic =    28.8968   Anisotropy =     5.7998
   XX=    28.7076   YX=    -0.1520   ZX=     2.1654
   XY=    -0.5471   YY=    26.9381   ZY=    -1.4738
   XZ=     2.4770   YZ=    -1.1336   ZZ=    31.0448
   Eigenvalues:    26.4737    27.4534    32.7634
     34  C    Isotropic =    45.2080   Anisotropy =   177.7487
   XX=   119.8011   YX=    82.6593   ZX=    11.9777
   XY=    84.4109   YY=     2.6636   ZY=   -42.1157
   XZ=    14.4358   YZ=   -43.3144   ZZ=    13.1592
   Eigenvalues:   -65.4830    37.3998   163.7071
     35  C    Isotropic =    87.5934   Anisotropy =   120.8630
   XX=   138.2559   YX=    56.7479   ZX=    24.7224
   XY=    66.1266   YY=    41.6405   ZY=   -39.1560
   XZ=    14.9088   YZ=   -32.2770   ZZ=    82.8837
   Eigenvalues:    -6.7668   101.3782   168.1687
     36  H    Isotropic =    26.3871   Anisotropy =     5.4340
   XX=    24.9468   YX=    -0.2567   ZX=     0.9104
   XY=     1.2057   YY=    26.9161   ZY=    -2.0347
   XZ=     1.3483   YZ=    -3.6540   ZZ=    27.2982
   Eigenvalues:    23.4179    25.7335    30.0097
     37  H    Isotropic =    26.4809   Anisotropy =     8.0939
   XX=    24.2700   YX=     0.5256   ZX=     2.0378
   XY=     0.6237   YY=    27.2155   ZY=    -5.7127
   XZ=     0.4386   YZ=    -2.7616   ZZ=    27.9573
   Eigenvalues:    22.4475    25.1185    31.8768
     38  C    Isotropic =   171.3339   Anisotropy =    40.4391
   XX=   158.8605   YX=   -12.7637   ZX=    -0.2293
   XY=    -7.3470   YY=   170.4810   ZY=    17.0048
   XZ=    -2.6732   YZ=    19.2883   ZZ=   184.6601
   Eigenvalues:   150.4816   165.2268   198.2933
     39  H    Isotropic =    29.8760   Anisotropy =     8.9676
   XX=    26.8745   YX=    -3.1490   ZX=     0.7967
   XY=    -2.3171   YY=    34.9065   ZY=     0.0809
   XZ=    -0.6154   YZ=     1.9026   ZZ=    27.8471
   Eigenvalues:    25.9535    27.8202    35.8544
     40  H    Isotropic =    30.0112   Anisotropy =     8.9913
   XX=    29.6536   YX=     1.3024   ZX=     3.3652
   XY=     2.1758   YY=    30.1083   ZY=     4.1878
   XZ=     3.9321   YZ=     2.6957   ZZ=    30.2719
   Eigenvalues:    25.8576    28.1707    36.0054
     41  H    Isotropic =    29.6715   Anisotropy =     5.3681
   XX=    28.1095   YX=     0.8890   ZX=    -4.6213
   XY=     2.2398   YY=    31.6403   ZY=     1.8306
   XZ=    -4.2440   YZ=     0.0060   ZZ=    29.2646
   Eigenvalues:    23.8110    31.9532    33.2503
     42  C    Isotropic =   164.8938   Anisotropy =    27.4988
   XX=   181.6897   YX=    -5.1961   ZX=     5.0955
   XY=    10.5607   YY=   153.3056   ZY=     1.9695
   XZ=     5.8920   YZ=    -1.3048   ZZ=   159.6862
   Eigenvalues:   153.0485   158.4067   183.2264
     43  H    Isotropic =    29.2115   Anisotropy =     7.3723
   XX=    31.4155   YX=    -1.8021   ZX=    -2.1411
   XY=    -2.9559   YY=    27.8666   ZY=     3.3511
   XZ=    -0.7384   YZ=     3.2651   ZZ=    28.3524
   Eigenvalues:    24.6898    28.8183    34.1263
     44  H    Isotropic =    29.1605   Anisotropy =     7.4435
   XX=    29.6894   YX=    -0.0591   ZX=     2.6929
   XY=    -1.1029   YY=    28.2105   ZY=    -4.8286
   XZ=     1.1485   YZ=    -3.9733   ZZ=    29.5816
   Eigenvalues:    24.3116    29.0471    34.1228
     45  C    Isotropic =   177.9293   Anisotropy =    29.3416
   XX=   179.2898   YX=     6.9158   ZX=     3.0669
   XY=    17.1926   YY=   188.4913   ZY=     4.3064
   XZ=     3.3012   YZ=     2.6843   ZZ=   166.0067
   Eigenvalues:   165.2400   171.0575   197.4903
     46  H    Isotropic =    30.2862   Anisotropy =    12.0640
   XX=    36.4912   YX=     2.3245   ZX=     2.5778
   XY=     4.5900   YY=    27.8427   ZY=     1.1095
   XZ=     2.5951   YZ=     0.5613   ZZ=    26.5248
   Eigenvalues:    25.8935    26.6363    38.3289
     47  H    Isotropic =    30.5933   Anisotropy =     7.3966
   XX=    28.6462   YX=     2.0272   ZX=     0.3194
   XY=     3.2371   YY=    31.7096   ZY=    -4.1247
   XZ=     0.2454   YZ=    -2.8675   ZZ=    31.4241
   Eigenvalues:    26.1636    30.0920    35.5243
     48  H    Isotropic =    30.5088   Anisotropy =     7.0822
   XX=    29.5945   YX=     0.6398   ZX=    -1.5209
   XY=     1.2427   YY=    31.1272   ZY=     5.1679
   XZ=    -1.4182   YZ=     3.3106   ZZ=    30.8049
   Eigenvalues:    25.9231    30.3731    35.2303
 End of Minotr Frequency-dependent properties file   721 does not exist.
 End of Minotr Frequency-dependent properties file   722 does not exist.

 **********************************************************************

            Population analysis using the SCF density.

 **********************************************************************

 Orbital symmetries:
       Occupied  (A) (A) (A) (A) (A) (A) (A) (A) (A) (A) (A) (A)
                 (A) (A) (A) (A) (A) (A) (A) (A) (A) (A) (A) (A)
                 (A) (A) (A) (A) (A) (A) (A) (A) (A) (A) (A) (A)
                 (A) (A) (A) (A) (A) (A) (A) (A) (A) (A) (A) (A)
                 (A) (A) (A) (A) (A) (A) (A) (A) (A) (A) (A) (A)
                 (A) (A) (A) (A) (A) (A) (A) (A) (A) (A) (A) (A)
                 (A) (A) (A) (A) (A) (A) (A) (A) (A) (A) (A)
       Virtual   (A) (A) (A) (A) (A) (A) (A) (A) (A) (A) (A) (A)
                 (A) (A) (A) (A) (A) (A) (A) (A) (A) (A) (A) (A)
                 (A) (A) (A) (A) (A) (A) (A) (A) (A) (A) (A) (A)
                 (A) (A) (A) (A) (A) (A) (A) (A) (A) (A) (A) (A)
                 (A) (A) (A) (A) (A) (A) (A) (A) (A) (A) (A) (A)
                 (A) (A) (A) (A) (A) (A) (A) (A) (A) (A) (A) (A)
                 (A) (A) (A) (A) (A) (A) (A) (A) (A) (A) (A) (A)
                 (A) (A) (A) (A) (A) (A) (A) (A) (A) (A) (A) (A)
                 (A) (A) (A) (A) (A) (A) (A) (A) (A) (A) (A) (A)
                 (A) (A) (A) (A) (A) (A) (A) (A) (A) (A) (A) (A)
                 (A) (A) (A) (A) (A) (A) (A) (A) (A) (A) (A) (A)
                 (A) (A) (A) (A) (A) (A) (A) (A) (A) (A) (A) (A)
                 (A) (A) (A) (A) (A) (A) (A) (A) (A) (A) (A) (A)
                 (A) (A) (A) (A) (A) (A) (A) (A) (A) (A) (A) (A)
                 (A) (A) (A) (A) (A) (A) (A) (A) (A) (A) (A) (A)
                 (A) (A) (A) (A) (A) (A) (A) (A) (A) (A) (A) (A)
                 (A) (A) (A) (A) (A) (A) (A) (A) (A) (A) (A) (A)
                 (A) (A) (A) (A) (A) (A) (A) (A) (A) (A) (A) (A)
                 (A) (A) (A) (A) (A) (A) (A) (A) (A) (A) (A) (A)
                 (A) (A) (A) (A) (A) (A) (A) (A) (A) (A) (A) (A)
                 (A) (A) (A) (A) (A) (A) (A) (A) (A) (A) (A) (A)
                 (A) (A) (A) (A) (A) (A) (A) (A) (A) (A) (A) (A)
                 (A) (A) (A) (A) (A) (A) (A) (A) (A) (A) (A) (A)
                 (A) (A) (A) (A) (A) (A) (A) (A) (A) (A) (A) (A)
                 (A) (A) (A) (A) (A) (A) (A) (A) (A) (A) (A) (A)
                 (A) (A) (A) (A) (A) (A) (A) (A) (A) (A) (A) (A)
                 (A) (A) (A) (A) (A) (A) (A) (A) (A) (A) (A) (A)
                 (A) (A) (A) (A) (A) (A) (A) (A) (A) (A) (A) (A)
                 (A) (A) (A) (A) (A) (A) (A) (A) (A) (A) (A) (A)
                 (A) (A) (A) (A) (A) (A) (A) (A) (A) (A) (A) (A)
                 (A) (A) (A) (A) (A) (A) (A) (A) (A) (A) (A) (A)
                 (A) (A) (A) (A) (A) (A) (A) (A) (A) (A) (A) (A)
                 (A) (A) (A) (A) (A) (A) (A) (A) (A) (A) (A) (A)
                 (A) (A) (A) (A) (A) (A) (A) (A) (A) (A) (A) (A)
                 (A) (A) (A) (A) (A) (A) (A) (A) (A) (A) (A) (A)
                 (A) (A) (A) (A) (A) (A) (A) (A) (A) (A) (A) (A)
                 (A) (A) (A) (A) (A) (A) (A) (A) (A) (A) (A) (A)
                 (A) (A) (A) (A) (A) (A) (A) (A) (A) (A) (A) (A)
                 (A) (A) (A) (A) (A) (A) (A)
 The electronic state is 1-A.
 Alpha  occ. eigenvalues --  -19.29019 -19.27470 -19.25883 -19.24940 -10.32268
 Alpha  occ. eigenvalues --  -10.31914 -10.31107 -10.30919 -10.27091 -10.26615
 Alpha  occ. eigenvalues --  -10.26555 -10.26456 -10.26297 -10.25036 -10.24892
 Alpha  occ. eigenvalues --  -10.24805 -10.24091 -10.24015 -10.23939 -10.23906
 Alpha  occ. eigenvalues --  -10.23694 -10.23499  -1.10433  -1.09143  -1.07173
 Alpha  occ. eigenvalues --   -1.05547  -0.88579  -0.86778  -0.82529  -0.82026
 Alpha  occ. eigenvalues --   -0.78478  -0.77176  -0.75705  -0.74159  -0.70812
 Alpha  occ. eigenvalues --   -0.70210  -0.67239  -0.64546  -0.64078  -0.62868
 Alpha  occ. eigenvalues --   -0.60867  -0.58825  -0.56442  -0.54748  -0.53657
 Alpha  occ. eigenvalues --   -0.52729  -0.51582  -0.50491  -0.49389  -0.48764
 Alpha  occ. eigenvalues --   -0.47612  -0.47279  -0.45626  -0.45438  -0.44688
 Alpha  occ. eigenvalues --   -0.44520  -0.43864  -0.43414  -0.42674  -0.42351
 Alpha  occ. eigenvalues --   -0.41466  -0.40917  -0.40590  -0.39928  -0.39665
 Alpha  occ. eigenvalues --   -0.39001  -0.38502  -0.37848  -0.37484  -0.36724
 Alpha  occ. eigenvalues --   -0.36600  -0.35758  -0.34912  -0.34437  -0.33621
 Alpha  occ. eigenvalues --   -0.33329  -0.31908  -0.31130  -0.30254  -0.29758
 Alpha  occ. eigenvalues --   -0.25970  -0.24408  -0.23289
 Alpha virt. eigenvalues --   -0.00855  -0.00135   0.00364   0.00696   0.01502
 Alpha virt. eigenvalues --    0.01611   0.01775   0.02802   0.03124   0.03360
 Alpha virt. eigenvalues --    0.03889   0.04356   0.04539   0.05118   0.05243
 Alpha virt. eigenvalues --    0.05726   0.06541   0.06614   0.06949   0.07363
 Alpha virt. eigenvalues --    0.07691   0.08279   0.08431   0.08880   0.09482
 Alpha virt. eigenvalues --    0.09752   0.09932   0.10236   0.10727   0.11047
 Alpha virt. eigenvalues --    0.11386   0.11813   0.12226   0.12444   0.12766
 Alpha virt. eigenvalues --    0.13129   0.13522   0.14175   0.14557   0.14734
 Alpha virt. eigenvalues --    0.15401   0.15522   0.15937   0.16059   0.16525
 Alpha virt. eigenvalues --    0.16619   0.17162   0.17355   0.17465   0.17877
 Alpha virt. eigenvalues --    0.18198   0.18357   0.18851   0.18917   0.19205
 Alpha virt. eigenvalues --    0.19559   0.19919   0.20129   0.20446   0.20703
 Alpha virt. eigenvalues --    0.21154   0.21183   0.21719   0.22094   0.22276
 Alpha virt. eigenvalues --    0.22480   0.22613   0.22799   0.23192   0.23716
 Alpha virt. eigenvalues --    0.23955   0.24368   0.24579   0.24802   0.25153
 Alpha virt. eigenvalues --    0.25501   0.25807   0.26024   0.26345   0.26695
 Alpha virt. eigenvalues --    0.26788   0.27152   0.27450   0.27585   0.28297
 Alpha virt. eigenvalues --    0.28472   0.28826   0.28907   0.29273   0.29540
 Alpha virt. eigenvalues --    0.29841   0.29938   0.30005   0.30768   0.31185
 Alpha virt. eigenvalues --    0.32059   0.32264   0.32550   0.32794   0.33511
 Alpha virt. eigenvalues --    0.33711   0.34172   0.34537   0.34824   0.35332
 Alpha virt. eigenvalues --    0.35846   0.36520   0.36754   0.36996   0.37765
 Alpha virt. eigenvalues --    0.37910   0.38391   0.38473   0.38707   0.39682
 Alpha virt. eigenvalues --    0.39838   0.40397   0.41304   0.41937   0.42434
 Alpha virt. eigenvalues --    0.43209   0.43368   0.43898   0.44211   0.45522
 Alpha virt. eigenvalues --    0.46026   0.46657   0.47268   0.47927   0.48977
 Alpha virt. eigenvalues --    0.49354   0.50156   0.51163   0.51599   0.53480
 Alpha virt. eigenvalues --    0.54712   0.56383   0.60115   0.63964   0.65474
 Alpha virt. eigenvalues --    0.67418   0.68656   0.69157   0.70088   0.70280
 Alpha virt. eigenvalues --    0.71432   0.72557   0.73111   0.73673   0.74077
 Alpha virt. eigenvalues --    0.74298   0.75108   0.75276   0.76273   0.76508
 Alpha virt. eigenvalues --    0.77201   0.77699   0.79135   0.79725   0.80126
 Alpha virt. eigenvalues --    0.80772   0.81331   0.82444   0.83270   0.84001
 Alpha virt. eigenvalues --    0.84582   0.85676   0.85841   0.86954   0.87777
 Alpha virt. eigenvalues --    0.88182   0.89434   0.90050   0.90860   0.91644
 Alpha virt. eigenvalues --    0.92372   0.92714   0.94063   0.94772   0.95345
 Alpha virt. eigenvalues --    0.95731   0.96304   0.97197   0.97773   0.98317
 Alpha virt. eigenvalues --    0.99814   1.00458   1.01433   1.01817   1.03040
 Alpha virt. eigenvalues --    1.04318   1.04811   1.05770   1.06923   1.07371
 Alpha virt. eigenvalues --    1.08243   1.09040   1.09974   1.10214   1.10945
 Alpha virt. eigenvalues --    1.12351   1.13260   1.13852   1.14115   1.14209
 Alpha virt. eigenvalues --    1.15985   1.16799   1.17106   1.17976   1.19100
 Alpha virt. eigenvalues --    1.19372   1.19721   1.20038   1.21160   1.22024
 Alpha virt. eigenvalues --    1.22464   1.23376   1.24620   1.25559   1.26629
 Alpha virt. eigenvalues --    1.27143   1.27505   1.29748   1.30060   1.31731
 Alpha virt. eigenvalues --    1.32263   1.32860   1.33236   1.33823   1.34498
 Alpha virt. eigenvalues --    1.35775   1.36606   1.37372   1.38198   1.39711
 Alpha virt. eigenvalues --    1.40320   1.42019   1.42525   1.42786   1.43648
 Alpha virt. eigenvalues --    1.44226   1.45256   1.47238   1.48687   1.50020
 Alpha virt. eigenvalues --    1.52094   1.52591   1.53542   1.54298   1.54674
 Alpha virt. eigenvalues --    1.55264   1.56435   1.58898   1.59498   1.59981
 Alpha virt. eigenvalues --    1.61528   1.62342   1.63146   1.65025   1.65672
 Alpha virt. eigenvalues --    1.67986   1.68575   1.69130   1.70961   1.72457
 Alpha virt. eigenvalues --    1.74097   1.75342   1.77973   1.78366   1.80243
 Alpha virt. eigenvalues --    1.81387   1.82619   1.83954   1.84785   1.85438
 Alpha virt. eigenvalues --    1.85865   1.86021   1.86509   1.87255   1.87421
 Alpha virt. eigenvalues --    1.88444   1.89407   1.89575   1.91773   1.92179
 Alpha virt. eigenvalues --    1.92714   1.93484   1.94306   1.95382   1.96237
 Alpha virt. eigenvalues --    1.96297   1.97145   1.99118   1.99425   2.02006
 Alpha virt. eigenvalues --    2.02527   2.02924   2.04125   2.05636   2.05882
 Alpha virt. eigenvalues --    2.06471   2.06717   2.06936   2.07284   2.08865
 Alpha virt. eigenvalues --    2.09781   2.10640   2.11376   2.12053   2.12769
 Alpha virt. eigenvalues --    2.13176   2.13796   2.14573   2.15044   2.15598
 Alpha virt. eigenvalues --    2.16047   2.16994   2.18794   2.19329   2.19836
 Alpha virt. eigenvalues --    2.20128   2.21727   2.22734   2.24574   2.25337
 Alpha virt. eigenvalues --    2.25996   2.26308   2.27203   2.29031   2.29707
 Alpha virt. eigenvalues --    2.31058   2.32004   2.32842   2.34167   2.35277
 Alpha virt. eigenvalues --    2.36009   2.37307   2.37739   2.38418   2.39981
 Alpha virt. eigenvalues --    2.41368   2.42601   2.43843   2.44786   2.46603
 Alpha virt. eigenvalues --    2.48211   2.48798   2.49384   2.50560   2.51402
 Alpha virt. eigenvalues --    2.51914   2.53548   2.53902   2.54929   2.55561
 Alpha virt. eigenvalues --    2.56784   2.58021   2.58554   2.59377   2.60539
 Alpha virt. eigenvalues --    2.60814   2.62766   2.63002   2.64133   2.64661
 Alpha virt. eigenvalues --    2.66362   2.67441   2.68432   2.68651   2.70047
 Alpha virt. eigenvalues --    2.71532   2.72160   2.72928   2.72997   2.73751
 Alpha virt. eigenvalues --    2.74499   2.75662   2.76317   2.76885   2.77517
 Alpha virt. eigenvalues --    2.79253   2.80214   2.80682   2.81617   2.82579
 Alpha virt. eigenvalues --    2.83562   2.84909   2.86406   2.87221   2.88597
 Alpha virt. eigenvalues --    2.89213   2.89461   2.89984   2.90299   2.91487
 Alpha virt. eigenvalues --    2.92783   2.93154   2.94346   2.95300   2.96144
 Alpha virt. eigenvalues --    2.97244   2.97960   2.99421   3.03225   3.07582
 Alpha virt. eigenvalues --    3.07874   3.09504   3.10141   3.12278   3.13209
 Alpha virt. eigenvalues --    3.18471   3.19283   3.23250   3.27720   3.29439
 Alpha virt. eigenvalues --    3.30175   3.30966   3.36021   3.37035   3.38665
 Alpha virt. eigenvalues --    3.40624   3.42691   3.45438   3.47318   3.48957
 Alpha virt. eigenvalues --    3.49255   3.50141   3.50930   3.51775   3.52662
 Alpha virt. eigenvalues --    3.54125   3.54864   3.57295   3.57854   3.58865
 Alpha virt. eigenvalues --    3.59798   3.62776   3.65776   3.66020   3.74550
 Alpha virt. eigenvalues --    3.80904   4.37707   4.38524   4.40112   4.46546
 Alpha virt. eigenvalues --    4.47791   4.48833   4.53066   4.56279   4.58430
 Alpha virt. eigenvalues --    4.58615   4.62127   4.67259   4.67979   4.70668
 Alpha virt. eigenvalues --    4.71961   4.75971   4.77586   4.87689   4.91002
 Alpha virt. eigenvalues --    4.95426   5.00818   5.07996
          Condensed to atoms (all electrons):
              1          2          3          4          5          6
     1  C   14.487929  -0.764581   0.003682  -0.065884   0.012532   0.037218
     2  C   -0.764581   7.514186   0.359536   0.376857  -0.842614   0.000915
     3  H    0.003682   0.359536   0.517601  -0.024479  -0.049120  -0.006649
     4  H   -0.065884   0.376857  -0.024479   0.517390  -0.041297  -0.001549
     5  C    0.012532  -0.842614  -0.049120  -0.041297   7.949331   0.371920
     6  H    0.037218   0.000915  -0.006649  -0.001549   0.371920   0.540748
     7  C   -0.531293  -0.427922   0.008134   0.029682   0.079007  -0.183643
     8  H   -0.009016   0.032217   0.002957  -0.000023  -0.131182  -0.006583
     9  C    3.930786   0.539010   0.031788  -0.011533  -1.191840   0.087076
    10  H   -0.041723  -0.010461  -0.000061   0.000012   0.025555  -0.000167
    11  C   -7.121066  -0.441856  -0.038333   0.061573   0.960671  -0.014719
    12  H    0.181637  -0.016208   0.001359  -0.000066  -0.018814  -0.000015
    13  C   -2.072332  -0.397338   0.016990   0.004527   0.364613  -0.043257
    14  C    0.076963   0.083400   0.000114  -0.000094  -0.183611   0.000310
    15  C   -0.223695   0.274535   0.001411   0.001417  -0.454881  -0.002375
    16  C    2.042132   0.684164  -0.008258  -0.006406  -1.214538   0.025421
    17  C    0.252057   0.126361  -0.000621  -0.000703  -0.492280   0.000688
    18  C   -0.340180   0.020001   0.000171   0.000175   0.063872  -0.000212
    19  H   -0.000539  -0.000095   0.000000   0.000000  -0.000156   0.000000
    20  H   -0.000041  -0.000024   0.000000   0.000000  -0.000030   0.000000
    21  O   -0.113953   0.010894   0.000010   0.000983   0.000160   0.000745
    22  H    0.109132  -0.048668  -0.000033  -0.000082   0.026054  -0.000004
    23  O   -0.035500   0.002117   0.000008  -0.000003  -0.004670  -0.000008
    24  H    0.002038  -0.000209   0.000000   0.000000   0.000114   0.000000
    25  O   -0.046980   0.088771   0.000088  -0.000400  -0.012390   0.000045
    26  H    0.026698  -0.008775  -0.000002   0.000003   0.004873   0.000000
    27  C   -3.570581  -0.544548  -0.014483  -0.007609   0.005891  -0.005915
    28  H   -0.163907  -0.005463  -0.000055   0.002667   0.000469  -0.000005
    29  H   -0.025154   0.016564   0.000078   0.000006  -0.009777   0.000002
    30  H   -0.101100   0.012392   0.001241   0.000274   0.005815  -0.000003
    31  O   -0.355689  -0.077754   0.007804  -0.004349   0.025146  -0.000508
    32  H    0.164089   0.058038  -0.000197  -0.000029  -0.021629   0.000008
    33  H    0.024379  -0.060329   0.004714  -0.005507   0.399549  -0.030106
    34  C    0.130049  -0.105865  -0.003044  -0.007998   1.145037   0.081250
    35  C   -0.088393   0.056511  -0.002405  -0.002448  -0.391669  -0.022621
    36  H   -0.000497   0.001269   0.000000   0.000000  -0.008468   0.000004
    37  H   -0.001799   0.003249  -0.000003   0.000012   0.016560  -0.000199
    38  C   -0.040480  -0.046357   0.002925   0.000489  -0.018171  -0.002074
    39  H   -0.000725   0.001015   0.000000   0.000000  -0.012530  -0.000005
    40  H   -0.001672   0.002784   0.000001   0.000000  -0.012286   0.000024
    41  H    0.003892  -0.004131   0.000000   0.000000   0.016272  -0.000007
    42  C   -0.000525   0.007191   0.000006   0.000002  -0.023759  -0.000005
    43  H   -0.000004  -0.000001   0.000000   0.000000   0.000009   0.000000
    44  H   -0.000010   0.000004   0.000000   0.000000  -0.000014   0.000000
    45  C   -0.000756  -0.000260   0.000000   0.000000   0.000616   0.000000
    46  H    0.000006   0.000000   0.000000   0.000000   0.000000   0.000000
    47  H    0.000002   0.000002   0.000000   0.000000  -0.000003   0.000000
    48  H    0.000007  -0.000003   0.000000   0.000000   0.000011   0.000000
              7          8          9         10         11         12
     1  C   -0.531293  -0.009016   3.930786  -0.041723  -7.121066   0.181637
     2  C   -0.427922   0.032217   0.539010  -0.010461  -0.441856  -0.016208
     3  H    0.008134   0.002957   0.031788  -0.000061  -0.038333   0.001359
     4  H    0.029682  -0.000023  -0.011533   0.000012   0.061573  -0.000066
     5  C    0.079007  -0.131182  -1.191840   0.025555   0.960671  -0.018814
     6  H   -0.183643  -0.006583   0.087076  -0.000167  -0.014719  -0.000015
     7  C   15.858663   0.244637  -6.013012   0.097636   2.544332  -0.095229
     8  H    0.244637   0.568407   0.033958  -0.010543  -0.037995   0.002381
     9  C   -6.013012   0.033958  25.666934   0.076797 -10.470253   0.359142
    10  H    0.097636  -0.010543   0.076797   0.553933   0.255864  -0.013803
    11  C    2.544332  -0.037995 -10.470253   0.255864  22.098503  -0.170779
    12  H   -0.095229   0.002381   0.359142  -0.013803  -0.170779   0.588867
    13  C   -1.608668   0.096543  -5.859300   0.016283   2.307976   0.135979
    14  C   -0.256680   0.003274  -0.425882  -0.009899  -0.379116   0.000661
    15  C   -0.055926   0.023556  -2.196076   0.045462  -0.640266   0.020576
    16  C   -0.709110  -0.002949   6.098967  -0.175095  -5.071268  -0.012939
    17  C    0.820496   0.002389  -2.645343  -0.000966  -0.004661  -0.002364
    18  C   -0.412116   0.002046  -0.520423   0.056173   0.082430   0.005170
    19  H    0.005101   0.000000   0.006338   0.000002   0.002769   0.000000
    20  H    0.000461   0.000000  -0.008796  -0.000009   0.000956   0.000000
    21  O    0.034709  -0.000414   0.017755   0.001045   0.164665  -0.000045
    22  H   -0.001484   0.000025   0.048065  -0.000137  -0.067060  -0.000091
    23  O    0.062273   0.000388  -0.122191   0.001334   0.110160  -0.000570
    24  H   -0.007064  -0.000001   0.030489   0.000234  -0.007492   0.000003
    25  O   -0.109902   0.000250   0.126177  -0.016670  -0.038615  -0.037590
    26  H    0.022578  -0.000035   0.015264   0.002009   0.026113  -0.004492
    27  C    0.512708   0.008842  -2.150275   0.012267   2.465299  -0.127303
    28  H    0.003220   0.000001  -0.023354   0.000003   0.056450  -0.000002
    29  H   -0.003069   0.000001   0.008217  -0.000001  -0.045284   0.000244
    30  H    0.002042   0.000006   0.004787   0.000000   0.000564   0.001534
    31  O    0.031045  -0.000452  -0.326147   0.000510   0.611837   0.009119
    32  H   -0.005720   0.000002   0.055581  -0.000070  -0.187128   0.000415
    33  H   -0.094508   0.005200   0.049834  -0.000116  -0.045572   0.000035
    34  C   -3.788253  -0.016435   1.471369  -0.075153  -0.717810   0.023744
    35  C   -0.859865   0.028844  -0.290172   0.000359  -0.119047   0.001172
    36  H    0.063717  -0.000127  -0.007672   0.000003   0.000547   0.000000
    37  H   -0.079369   0.000063  -0.021619   0.000002  -0.001642   0.000000
    38  C    0.939427  -0.017170   0.202234   0.012081   0.085871   0.001555
    39  H    0.045419   0.000070   0.007321   0.000002  -0.001593   0.000000
    40  H   -0.060494   0.004609   0.043613   0.000085   0.005821   0.000005
    41  H    0.144386  -0.000712  -0.004646  -0.000622   0.002009   0.000012
    42  C   -0.025692   0.000186  -0.298942  -0.000285   0.027990   0.000033
    43  H   -0.000151   0.000000   0.001792   0.000000   0.000203   0.000000
    44  H   -0.000141   0.000000  -0.001830   0.000000  -0.000102   0.000000
    45  C   -0.000015  -0.000002  -0.001388  -0.000015  -0.001678   0.000004
    46  H    0.000001   0.000000   0.000056   0.000000   0.000008   0.000000
    47  H   -0.000020   0.000000  -0.000823   0.000000  -0.000132   0.000000
    48  H   -0.000075   0.000000   0.000842   0.000000  -0.000003   0.000000
             13         14         15         16         17         18
     1  C   -2.072332   0.076963  -0.223695   2.042132   0.252057  -0.340180
     2  C   -0.397338   0.083400   0.274535   0.684164   0.126361   0.020001
     3  H    0.016990   0.000114   0.001411  -0.008258  -0.000621   0.000171
     4  H    0.004527  -0.000094   0.001417  -0.006406  -0.000703   0.000175
     5  C    0.364613  -0.183611  -0.454881  -1.214538  -0.492280   0.063872
     6  H   -0.043257   0.000310  -0.002375   0.025421   0.000688  -0.000212
     7  C   -1.608668  -0.256680  -0.055926  -0.709110   0.820496  -0.412116
     8  H    0.096543   0.003274   0.023556  -0.002949   0.002389   0.002046
     9  C   -5.859300  -0.425882  -2.196076   6.098967  -2.645343  -0.520423
    10  H    0.016283  -0.009899   0.045462  -0.175095  -0.000966   0.056173
    11  C    2.307976  -0.379116  -0.640266  -5.071268  -0.004661   0.082430
    12  H    0.135979   0.000661   0.020576  -0.012939  -0.002364   0.005170
    13  C   49.417830  -6.059821  -6.063115 -21.917376  -6.647660   2.889460
    14  C   -6.059821  11.752467   0.827606   1.321831   1.811652  -1.134117
    15  C   -6.063115   0.827606  13.181973   1.698770   1.755504  -2.552326
    16  C  -21.917376   1.321831   1.698770  27.168733   0.491340  -2.525554
    17  C   -6.647660   1.811652   1.755504   0.491340  13.499890  -2.874899
    18  C    2.889460  -1.134117  -2.552326  -2.525554  -2.874899  13.423400
    19  H    0.077550   0.047135  -0.012250  -0.082090   0.266489   0.043896
    20  H    0.063925   0.072509  -0.010795  -0.016155   0.022540   0.209221
    21  O    0.339642  -0.074537  -0.141291  -0.034279  -0.241065   0.075229
    22  H   -0.102208  -0.017051  -0.010243   0.063679  -0.010336  -0.008420
    23  O   -0.342378   0.072600   0.269623   0.005144   0.032859  -0.013716
    24  H    0.137844   0.009299   0.012618  -0.012997  -0.002796  -0.154486
    25  O    0.378891  -0.010697  -0.131656  -0.054562  -0.063743   0.026256
    26  H   -0.142558   0.001829   0.027868   0.042620  -0.003492   0.018492
    27  C   -0.155570   0.006084   0.016523  -0.042723   0.188865  -0.060289
    28  H    0.003296   0.000022   0.000785  -0.001857   0.000241   0.000074
    29  H    0.004372  -0.000047  -0.000630  -0.001408  -0.000240   0.000000
    30  H    0.003265  -0.000018   0.000702  -0.002266  -0.000075   0.000106
    31  O    0.507067  -0.052644  -0.068344  -0.420992  -0.098932   0.049585
    32  H   -0.058171   0.005456   0.007055   0.077196   0.011879  -0.003808
    33  H    0.044408   0.004988   0.009852  -0.000816   0.004347   0.001324
    34  C   -1.038549   0.156556  -0.253369   1.043698  -0.313302   0.033059
    35  C    1.971387  -0.081407   0.098722  -1.018596   0.041711   0.123710
    36  H    0.020313  -0.002575   0.000447  -0.011502  -0.000578   0.000394
    37  H    0.096718  -0.008447   0.002358  -0.055500  -0.016009   0.003009
    38  C   -0.331802  -0.002501  -0.131281   0.088631  -0.076461  -0.078794
    39  H   -0.001421  -0.000810   0.003308   0.004887  -0.000120   0.000469
    40  H    0.004900   0.002157   0.010304   0.013711   0.001643  -0.000335
    41  H   -0.022340  -0.010733  -0.036549  -0.013427  -0.005576  -0.015369
    42  C   -1.344403  -1.351252   0.745883  -0.811502   0.799222  -0.251614
    43  H    0.001652  -0.209674   0.058882  -0.024449  -0.097034   0.130130
    44  H   -0.010924  -0.271959  -0.017468   0.018629   0.186496  -0.108732
    45  C    0.062536  -0.058708  -0.026417   0.032266   0.033704   0.030336
    46  H    0.000930   0.015881   0.003592  -0.000780   0.006991   0.006195
    47  H   -0.009025  -0.052149   0.002266  -0.003396   0.022581  -0.026657
    48  H   -0.000033  -0.029238   0.000424   0.001050  -0.019494   0.018812
             19         20         21         22         23         24
     1  C   -0.000539  -0.000041  -0.113953   0.109132  -0.035500   0.002038
     2  C   -0.000095  -0.000024   0.010894  -0.048668   0.002117  -0.000209
     3  H    0.000000   0.000000   0.000010  -0.000033   0.000008   0.000000
     4  H    0.000000   0.000000   0.000983  -0.000082  -0.000003   0.000000
     5  C   -0.000156  -0.000030   0.000160   0.026054  -0.004670   0.000114
     6  H    0.000000   0.000000   0.000745  -0.000004  -0.000008   0.000000
     7  C    0.005101   0.000461   0.034709  -0.001484   0.062273  -0.007064
     8  H    0.000000   0.000000  -0.000414   0.000025   0.000388  -0.000001
     9  C    0.006338  -0.008796   0.017755   0.048065  -0.122191   0.030489
    10  H    0.000002  -0.000009   0.001045  -0.000137   0.001334   0.000234
    11  C    0.002769   0.000956   0.164665  -0.067060   0.110160  -0.007492
    12  H    0.000000   0.000000  -0.000045  -0.000091  -0.000570   0.000003
    13  C    0.077550   0.063925   0.339642  -0.102208  -0.342378   0.137844
    14  C    0.047135   0.072509  -0.074537  -0.017051   0.072600   0.009299
    15  C   -0.012250  -0.010795  -0.141291  -0.010243   0.269623   0.012618
    16  C   -0.082090  -0.016155  -0.034279   0.063679   0.005144  -0.012997
    17  C    0.266489   0.022540  -0.241065  -0.010336   0.032859  -0.002796
    18  C    0.043896   0.209221   0.075229  -0.008420  -0.013716  -0.154486
    19  H    0.516465  -0.000141  -0.006536   0.000195   0.000099  -0.000001
    20  H   -0.000141   0.519916   0.000120   0.000000  -0.017876   0.007983
    21  O   -0.006536   0.000120   8.317000   0.210780  -0.000515   0.000051
    22  H    0.000195   0.000000   0.210780   0.294626  -0.000222   0.000000
    23  O    0.000099  -0.017876  -0.000515  -0.000222   8.285322   0.210170
    24  H   -0.000001   0.007983   0.000051   0.000000   0.210170   0.348904
    25  O   -0.000049  -0.000077   0.001700  -0.002290  -0.008652   0.001302
    26  H    0.000000   0.000003  -0.000444   0.000030   0.006394   0.000013
    27  C    0.000066   0.000018  -0.037279   0.038860   0.002736  -0.000088
    28  H    0.000000   0.000000  -0.000056  -0.000011  -0.000002   0.000000
    29  H    0.000000   0.000000  -0.000002   0.000009   0.000020   0.000000
    30  H    0.000000   0.000000   0.000064  -0.000014   0.000006   0.000000
    31  O   -0.000110   0.000001   0.020579   0.020847   0.003849  -0.000002
    32  H   -0.000001   0.000000  -0.004404  -0.004864  -0.000128   0.000000
    33  H   -0.000005   0.000000  -0.011311   0.000763   0.000018   0.000000
    34  C   -0.004872  -0.000932  -0.048459   0.006997  -0.010158   0.002000
    35  C    0.002491   0.000266   0.050169  -0.002662  -0.002331   0.000248
    36  H    0.000000   0.000000   0.000310  -0.000003  -0.000002   0.000000
    37  H   -0.000005   0.000000   0.002898  -0.000078  -0.000004   0.000000
    38  C    0.000484   0.000111  -0.014408  -0.002024  -0.002518   0.000335
    39  H    0.000000   0.000000  -0.000048   0.000000  -0.000022   0.000000
    40  H    0.000000   0.000000  -0.000018   0.000000   0.000016   0.000000
    41  H    0.000000  -0.000004  -0.000238   0.000002   0.001746  -0.000097
    42  C   -0.034735  -0.017924  -0.030571  -0.001227  -0.001059   0.000473
    43  H    0.000080   0.002194   0.000041   0.000000   0.000029  -0.000001
    44  H    0.001668   0.000086   0.000029   0.000000   0.000033   0.000000
    45  C    0.004527   0.007327   0.001387   0.000045   0.000459   0.000013
    46  H   -0.000029  -0.000029   0.000001   0.000000  -0.000001   0.000000
    47  H    0.000008   0.000193  -0.000001   0.000000   0.000000   0.000001
    48  H    0.000134   0.000013   0.000011   0.000000   0.000005   0.000000
             25         26         27         28         29         30
     1  C   -0.046980   0.026698  -3.570581  -0.163907  -0.025154  -0.101100
     2  C    0.088771  -0.008775  -0.544548  -0.005463   0.016564   0.012392
     3  H    0.000088  -0.000002  -0.014483  -0.000055   0.000078   0.001241
     4  H   -0.000400   0.000003  -0.007609   0.002667   0.000006   0.000274
     5  C   -0.012390   0.004873   0.005891   0.000469  -0.009777   0.005815
     6  H    0.000045   0.000000  -0.005915  -0.000005   0.000002  -0.000003
     7  C   -0.109902   0.022578   0.512708   0.003220  -0.003069   0.002042
     8  H    0.000250  -0.000035   0.008842   0.000001   0.000001   0.000006
     9  C    0.126177   0.015264  -2.150275  -0.023354   0.008217   0.004787
    10  H   -0.016670   0.002009   0.012267   0.000003  -0.000001   0.000000
    11  C   -0.038615   0.026113   2.465299   0.056450  -0.045284   0.000564
[...]
    17  C   -0.070265  -0.001775   0.172162   0.000295  -0.000109  -0.000020
    18  C    0.032314   0.021188  -0.037095  -0.000007   0.000050   0.000176
    19  H   -0.000068   0.000000   0.000124   0.000000   0.000000   0.000000
    20  H   -0.000028   0.000001   0.000007   0.000000   0.000000   0.000000
    21  O   -0.001243  -0.000219  -0.024652  -0.000058  -0.000053   0.000058
    22  H   -0.000975   0.000015   0.025053  -0.000015   0.000017  -0.000016
    23  O   -0.011952   0.008203   0.005009   0.000000   0.000009   0.000006
    24  H    0.001236   0.000035  -0.000089   0.000000   0.000000   0.000000
    25  O    8.389876   0.222732  -0.093728  -0.000557   0.004967  -0.000353
    26  H    0.222732   0.341545   0.004263   0.000000  -0.000086  -0.000033
    27  C   -0.093728   0.004263   9.310490   0.530228   0.467875   0.440647
    28  H   -0.000557   0.000000   0.530228   0.534362  -0.029815  -0.026470
    29  H    0.004967  -0.000086   0.467875  -0.029815   0.532083  -0.026644
    30  H   -0.000353  -0.000033   0.440647  -0.026470  -0.026644   0.526704
    31  O   -0.005122  -0.001785   0.069207   0.001498  -0.009584   0.005679
    32  H    0.022812  -0.000718  -0.074904  -0.000738   0.003584   0.000005
    33  H   -0.000158   0.000000  -0.001605  -0.000004   0.000002  -0.000002
    34  C    0.039275  -0.005557  -0.160180  -0.000365   0.000017  -0.000184
    35  C   -0.000045  -0.000547   0.039524   0.000118  -0.000066   0.000099
    36  H   -0.000001   0.000000  -0.000014   0.000000   0.000000   0.000000
    37  H    0.000007   0.000000  -0.000265   0.000000   0.000000   0.000000
    38  C   -0.001120  -0.000350  -0.037921  -0.000013  -0.000021  -0.000028
    39  H    0.000002   0.000000  -0.000037   0.000000   0.000000   0.000000
    40  H    0.000041   0.000000   0.000106   0.000000   0.000000   0.000000
    41  H   -0.000150   0.000001  -0.000024   0.000000   0.000000   0.000000
    42  C   -0.005115  -0.000126   0.002990   0.000002  -0.000007   0.000002
    43  H   -0.000001   0.000000   0.000000   0.000000   0.000000   0.000000
    44  H    0.000001   0.000000  -0.000003   0.000000   0.000000   0.000000
    45  C    0.000508  -0.000011  -0.000445   0.000000   0.000000   0.000000
    46  H    0.000000   0.000000   0.000000   0.000000   0.000000   0.000000
    47  H    0.000002   0.000000  -0.000003   0.000000   0.000000   0.000000
    48  H    0.000000   0.000000  -0.000004   0.000000   0.000000   0.000000
             31         32         33         34         35         36
     1  C   -0.343434   0.142954   0.030454   0.338356  -0.170531  -0.000439
     2  C   -0.036435   0.034896  -0.079947  -0.203858   0.039496  -0.001236
     3  H    0.006700  -0.000192   0.005122  -0.006451  -0.001652   0.000000
     4  H   -0.001472  -0.000011  -0.006161  -0.012813  -0.005223   0.000000
     5  C    0.004252  -0.014003   0.500682   1.498775  -0.389126  -0.012049
     6  H   -0.000023   0.000009  -0.034127   0.118254  -0.033712   0.000016
     7  C    0.057776  -0.008355  -0.242525  -4.839770  -1.261913   0.047813
     8  H   -0.000223   0.000000   0.005807   0.011617   0.027375  -0.000129
     9  C   -0.306734   0.048129   0.081447   2.905115  -0.803804  -0.006764
    10  H    0.000769  -0.000073  -0.000122  -0.101088  -0.006291   0.000003
    11  C    0.530759  -0.154722  -0.028393  -1.118053   0.030952  -0.000502
    12  H    0.005789   0.000525   0.000034   0.025110   0.000687   0.000000
    13  C    0.334386  -0.057111   0.038371  -2.633252   2.113293   0.020346
    14  C   -0.039039   0.004334   0.005546   0.250034  -0.033521  -0.001797
    15  C   -0.060355  -0.001474   0.010477  -0.202638   0.211103   0.000286
    16  C   -0.286171   0.069077  -0.013891   2.206787  -1.195051  -0.010823
    17  C   -0.038722   0.008995  -0.004150  -0.520678   0.245896   0.000066
    18  C    0.019954  -0.003968   0.003529   0.095060   0.118919   0.000384
    19  H   -0.000145  -0.000001  -0.000005  -0.005356   0.002567   0.000000
    20  H   -0.000001   0.000000   0.000000  -0.000396   0.000358   0.000000
    21  O    0.004347  -0.003231  -0.007955  -0.072261   0.058506   0.000147
    22  H    0.036589  -0.004399   0.000411   0.013935  -0.005465  -0.000002
    23  O    0.003474  -0.000113   0.000017  -0.026958  -0.005512  -0.000001
    24  H   -0.000006   0.000000   0.000000   0.003030   0.000275   0.000000
    25  O   -0.005122   0.022812  -0.000158   0.039275  -0.000045  -0.000001
    26  H   -0.001785  -0.000718   0.000000  -0.005557  -0.000547   0.000000
    27  C    0.069207  -0.074904  -0.001605  -0.160180   0.039524  -0.000014
    28  H    0.001498  -0.000738  -0.000004  -0.000365   0.000118   0.000000
    29  H   -0.009584   0.003584   0.000002   0.000017  -0.000066   0.000000
    30  H    0.005679   0.000005  -0.000002  -0.000184   0.000099   0.000000
    31  O    8.386698   0.249219  -0.000135  -0.002998  -0.006049   0.000000
    32  H    0.249219   0.316695  -0.000003   0.002696   0.000035   0.000000
    33  H   -0.000135  -0.000003   0.560326   0.030680  -0.016569   0.000055
    34  C   -0.002998   0.002696   0.030680  11.095912  -1.464573  -0.191754
    35  C   -0.006049   0.000035  -0.016569  -1.464573   9.200963   0.545336
    36  H    0.000000   0.000000   0.000055  -0.191754   0.545336   0.537312
    37  H    0.000065   0.000000   0.000331  -0.180676   0.650454  -0.037159
    38  C    0.008322  -0.000194   0.003153  -0.956626  -1.299352  -0.038956
    39  H    0.000001   0.000000   0.000002  -0.154375   0.012828   0.003286
    40  H   -0.000008   0.000000   0.000002  -0.071701  -0.000407   0.000249
    41  H    0.000046   0.000000  -0.000007  -0.219108  -0.074738   0.000229
    42  C   -0.005323   0.000044   0.000543   0.005445   0.011247  -0.000092
    43  H    0.000000   0.000000   0.000000   0.000076  -0.000017   0.000000
    44  H   -0.000001   0.000000   0.000000   0.000247  -0.000097   0.000000
    45  C    0.000264  -0.000032  -0.000002  -0.000744  -0.000748   0.000001
    46  H    0.000000   0.000000   0.000000   0.000004  -0.000002   0.000000
    47  H   -0.000002   0.000000   0.000000   0.000001  -0.000001   0.000000
    48  H    0.000004   0.000000   0.000000   0.000056  -0.000020   0.000000
             37         38         39         40         41         42
     1  C   -0.002480   0.005414  -0.000589  -0.002733   0.004211  -0.003333
     2  C   -0.002842  -0.072298   0.000135   0.005544  -0.005808   0.009077
     3  H   -0.000002   0.002244   0.000000   0.000000   0.000000   0.000009
     4  H    0.000013   0.000576   0.000000   0.000000   0.000000   0.000001
     5  C    0.003531  -0.071528  -0.014707  -0.016861   0.014907  -0.019814
     6  H   -0.000298   0.003585  -0.000005   0.000022  -0.000009  -0.000016
     7  C   -0.092106   1.050892   0.014953  -0.050884   0.141500  -0.028732
     8  H    0.000094  -0.030341   0.000129   0.004106  -0.000747   0.000125
     9  C   -0.035057   0.339444  -0.004690   0.035984   0.031750  -0.261845
    10  H    0.000005   0.019912   0.000027   0.000043  -0.000761  -0.000604
    11  C   -0.001617  -0.023945  -0.006458   0.008239   0.016686   0.035728
    12  H    0.000000   0.000342   0.000000   0.000006   0.000008  -0.000003
    13  C    0.114643  -0.291991   0.013959  -0.016653  -0.007635  -1.332069
    14  C   -0.007957  -0.029637  -0.000427   0.002448  -0.015102  -1.153701
    15  C    0.004353  -0.217507   0.004906   0.004191  -0.057705   0.842402
    16  C   -0.067654   0.098620   0.003232   0.028317  -0.043159  -0.945195
    17  C   -0.010881  -0.107890   0.000853   0.002565  -0.011984   0.400863
    18  C    0.002617  -0.101179   0.000835  -0.003884  -0.004453  -0.056646
    19  H   -0.000006   0.000301   0.000000   0.000000   0.000000  -0.016402
    20  H    0.000000  -0.000007   0.000000   0.000000  -0.000003  -0.027015
    21  O    0.004605  -0.021266  -0.000051  -0.000100  -0.000017  -0.023241
    22  H   -0.000100  -0.000866   0.000000   0.000000   0.000001  -0.002275
    23  O   -0.000010   0.008372   0.000002   0.000099   0.002319   0.001323
    24  H    0.000000  -0.000109   0.000000   0.000001  -0.000110  -0.000229
    25  O    0.000007  -0.001120   0.000002   0.000041  -0.000150  -0.005115
    26  H    0.000000  -0.000350   0.000000   0.000000   0.000001  -0.000126
    27  C   -0.000265  -0.037921  -0.000037   0.000106  -0.000024   0.002990
    28  H    0.000000  -0.000013   0.000000   0.000000   0.000000   0.000002
    29  H    0.000000  -0.000021   0.000000   0.000000   0.000000  -0.000007
    30  H    0.000000  -0.000028   0.000000   0.000000   0.000000   0.000002
    31  O    0.000065   0.008322   0.000001  -0.000008   0.000046  -0.005323
    32  H    0.000000  -0.000194   0.000000   0.000000   0.000000   0.000044
    33  H    0.000331   0.003153   0.000002   0.000002  -0.000007   0.000543
    34  C   -0.180676  -0.956626  -0.154375  -0.071701  -0.219108   0.005445
    35  C    0.650454  -1.299352   0.012828  -0.000407  -0.074738   0.011247
    36  H   -0.037159  -0.038956   0.003286   0.000249   0.000229  -0.000092
    37  H    0.545158  -0.030060   0.000199  -0.000184  -0.000188   0.000058
    38  C   -0.030060   6.986645   0.483483   0.423537   0.575587  -0.009298
    39  H    0.000199   0.483483   0.539526  -0.027309  -0.026233  -0.000194
    40  H   -0.000184   0.423537  -0.027309   0.538705  -0.029922   0.000095
    41  H   -0.000188   0.575587  -0.026233  -0.029922   0.538248  -0.000782
    42  C    0.000058  -0.009298  -0.000194   0.000095  -0.000782   7.633762
    43  H    0.000000   0.000010   0.000000   0.000000   0.000000   0.505664
    44  H    0.000000  -0.000013   0.000000   0.000000   0.000000   0.528714
    45  C    0.000001   0.000551   0.000001   0.000000   0.000012   0.135473
    46  H    0.000000   0.000000   0.000000   0.000000   0.000000  -0.046317
    47  H    0.000000  -0.000003   0.000000   0.000000   0.000000  -0.016660
    48  H    0.000000   0.000003   0.000000   0.000000   0.000000  -0.073511
             43         44         45         46         47         48
     1  C   -0.000019  -0.000002  -0.000587   0.000004   0.000002   0.000033
     2  C    0.000000   0.000005  -0.000339   0.000000   0.000004  -0.000001
     3  H    0.000000   0.000000   0.000000   0.000000   0.000000   0.000000
     4  H    0.000000   0.000000   0.000000   0.000000   0.000000   0.000000
     5  C    0.000004  -0.000001   0.000645   0.000000  -0.000005   0.000011
     6  H    0.000000   0.000000   0.000000   0.000000   0.000000   0.000000
     7  C   -0.000072  -0.000293   0.002743  -0.000007   0.000009  -0.000063
     8  H    0.000000   0.000000  -0.000002   0.000000   0.000000   0.000000
     9  C    0.000746  -0.000877   0.001816   0.000009  -0.001068   0.001596
    10  H    0.000000   0.000000  -0.000020   0.000000   0.000000   0.000000
    11  C    0.000184  -0.000169  -0.000868   0.000017  -0.000256  -0.000152
    12  H    0.000000   0.000000   0.000002   0.000000   0.000000   0.000000
    13  C   -0.007945  -0.015735   0.042192  -0.000403  -0.011101  -0.004298
    14  C   -0.169129  -0.189708   0.042623  -0.035537   0.010136   0.063112
    15  C    0.045090  -0.017074  -0.019898   0.001560  -0.015002   0.011003
    16  C   -0.023661   0.016659   0.014927   0.001204  -0.000405  -0.015783
    17  C   -0.068778   0.095107  -0.001210   0.010992   0.046911  -0.085262
    18  C    0.059339  -0.075953  -0.021298   0.004792  -0.075869   0.042084
    19  H    0.000108   0.002182   0.002459  -0.000035   0.000012   0.000201
    20  H    0.002447   0.000114   0.003660  -0.000035   0.000219   0.000018
    21  O    0.000032   0.000006   0.001380  -0.000002   0.000003   0.000022
    22  H    0.000000   0.000000   0.000092   0.000000   0.000000   0.000000
    23  O    0.000031   0.000026   0.000902  -0.000003   0.000023   0.000005
    24  H   -0.000003   0.000000  -0.000047   0.000000   0.000000   0.000000
    25  O   -0.000001   0.000001   0.000508   0.000000   0.000002   0.000000
    26  H    0.000000   0.000000  -0.000011   0.000000   0.000000   0.000000
    27  C    0.000000  -0.000003  -0.000445   0.000000  -0.000003  -0.000004
    28  H    0.000000   0.000000   0.000000   0.000000   0.000000   0.000000
    29  H    0.000000   0.000000   0.000000   0.000000   0.000000   0.000000
    30  H    0.000000   0.000000   0.000000   0.000000   0.000000   0.000000
    31  O    0.000000  -0.000001   0.000264   0.000000  -0.000002   0.000004
    32  H    0.000000   0.000000  -0.000032   0.000000   0.000000   0.000000
    33  H    0.000000   0.000000  -0.000002   0.000000   0.000000   0.000000
    34  C    0.000076   0.000247  -0.000744   0.000004   0.000001   0.000056
    35  C   -0.000017  -0.000097  -0.000748  -0.000002  -0.000001  -0.000020
    36  H    0.000000   0.000000   0.000001   0.000000   0.000000   0.000000
    37  H    0.000000   0.000000   0.000001   0.000000   0.000000   0.000000
    38  C    0.000010  -0.000013   0.000551   0.000000  -0.000003   0.000003
    39  H    0.000000   0.000000   0.000001   0.000000   0.000000   0.000000
    40  H    0.000000   0.000000   0.000000   0.000000   0.000000   0.000000
    41  H    0.000000   0.000000   0.000012   0.000000   0.000000   0.000000
    42  C    0.505664   0.528714   0.135473  -0.046317  -0.016660  -0.073511
    43  H    0.566621  -0.033476  -0.025260  -0.003333  -0.004976   0.004885
    44  H   -0.033476   0.565128  -0.023200  -0.003345   0.004875  -0.005007
    45  C   -0.025260  -0.023200   5.181431   0.423005   0.418905   0.417063
    46  H   -0.003333  -0.003345   0.423005   0.549454  -0.027095  -0.026911
    47  H   -0.004976   0.004875   0.418905  -0.027095   0.542815  -0.028644
    48  H    0.004885  -0.005007   0.417063  -0.026911  -0.028644   0.541854
 Mulliken atomic charges:
              1
     1  C    0.335787
     2  C   -0.472929
     3  H    0.171791
     4  H    0.162688
     5  C   -0.331749
     6  H    0.150587
     7  C   -0.004295
     8  H    0.156146
     9  C   -0.431989
    10  H    0.176743
    11  C   -0.122422
    12  H    0.153345
    13  C    1.422866
    14  C    0.102844
    15  C    0.168935
    16  C   -0.693461
    17  C   -0.724755
    18  C   -0.200967
    19  H    0.146244
    20  H    0.150911
    21  O   -0.569045
    22  H    0.475665
    23  O   -0.573426
    24  H    0.449073
    25  O   -0.593183
    26  H    0.415992
    27  C   -0.599402
    28  H    0.164283
    29  H    0.163802
    30  H    0.169464
    31  O   -0.582031
    32  H    0.420234
    33  H    0.158773
    34  C    0.511933
    35  C   -0.534996
    36  H    0.146188
    37  H    0.143410
    38  C   -0.668476
    39  H    0.156716
    40  H    0.166346
    41  H    0.173140
    42  C   -0.085021
    43  H    0.151433
    44  H    0.151889
    45  C   -0.595944
    46  H    0.151985
    47  H    0.157172
    48  H    0.157707
 Sum of Mulliken atomic charges =   0.00000
 Mulliken charges with hydrogens summed into heavy atoms:
              1
     1  C    0.335787
     2  C   -0.138450
     5  C   -0.022389
     7  C    0.151851
     9  C   -0.255246
    11  C    0.030923
    13  C    1.422866
    14  C    0.102844
    15  C    0.168935
    16  C   -0.693461
    17  C   -0.578510
    18  C   -0.050056
    21  O   -0.093379
    23  O   -0.124354
    25  O   -0.177190
    27  C   -0.101854
    31  O   -0.161797
    34  C    0.511933
    35  C   -0.245398
    38  C   -0.172274
    42  C    0.218301
    45  C   -0.129080
 Sum of Mulliken charges with hydrogens summed into heavy atoms =   0.00000
 Electronic spatial extent (au):  <R**2>=           6645.1490
 Charge=              0.0000 electrons
 Dipole moment (field-independent basis, Debye):
    X=             -0.2265    Y=             -0.1383    Z=              5.5484  Tot=              5.5547
 Quadrupole moment (field-independent basis, Debye-Ang):
   XX=           -112.9828   YY=           -140.4230   ZZ=           -132.2288
   XY=              0.2011   XZ=             -4.9792   YZ=              4.4999
 Traceless Quadrupole moment (field-independent basis, Debye-Ang):
   XX=             15.5621   YY=            -11.8781   ZZ=             -3.6839
   XY=              0.2011   XZ=             -4.9792   YZ=              4.4999
 Octapole moment (field-independent basis, Debye-Ang**2):
  XXX=            -13.7136  YYY=            -14.5916  ZZZ=             56.8240  XYY=              0.1391
  XXY=            -12.9519  XXZ=             25.8966  XZZ=            -28.0610  YZZ=             -0.7333
  YYZ=              1.5879  XYZ=              5.5388
 Hexadecapole moment (field-independent basis, Debye-Ang**3):
 XXXX=          -4970.4779 YYYY=          -2442.4160 ZZZZ=          -1265.0791 XXXY=            -52.2457
 XXXZ=            -37.9834 YYYX=            -55.2025 YYYZ=             49.1425 ZZZX=           -105.2153
 ZZZY=             -8.9646 XXYY=          -1349.8738 XXZZ=          -1009.5459 YYZZ=           -658.1218
 XXYZ=              8.6887 YYXZ=              4.4943 ZZXY=              5.3304
 N-N= 2.014893276621D+03 E-N=-6.362651467428D+03  KE= 9.932007787979D+02

 Test job not archived.
 1\1\GINC-COMPUTE-8-14\SP\RB3LYP\6-31+G(d,p)\C18H26O4\LPASSAGLIA.IQUIR\
 23-Dec-2022\0\\# B3LYP/6-31+G** geom=allcheck test scrf=(pcm,solvent=w
 ater,smd,dovacuum)\\comment\\0,1\C,0,0.346701984,2.137550483,-2.021352
 202\C,0,-0.080448086,3.325121799,-1.152181181\H,0,0.758318337,4.025735
 286,-1.048653371\H,0,-0.896053895,3.872845461,-1.641196736\C,0,-0.5545
 17443,2.923915082,0.243655507\H,0,-0.698869793,3.842005961,0.829696606
 \C,0,0.445943422,2.010984178,0.982236486\H,0,1.314684634,2.676844035,1
 .123568475\C,0,0.99844474,0.823145717,0.124239086\H,0,1.966897708,0.63
 037728,0.61052861\C,0,1.411272956,1.286653842,-1.300325491\H,0,2.31483
 3273,1.903060355,-1.196235729\C,0,0.287889607,-0.537832808,0.18174171\
 C,0,-0.873136769,-3.13122231,0.514897717\C,0,1.071384713,-1.699267613,
 0.365021973\C,0,-1.092008852,-0.746291881,0.088753929\C,0,-1.667432941
 ,-2.008396867,0.276600121\C,0,0.512063445,-2.970976239,0.534372091\H,0
 ,-2.749299967,-2.105787362,0.212110179\H,0,1.146006643,-3.841893368,0.
 673916045\O,0,-1.982699584,0.232972792,-0.233396383\H,0,-1.602588506,0
 .726714654,-0.993457878\O,0,2.440917435,-1.586008707,0.336516108\H,0,2
 .822968752,-2.436601475,0.613905463\O,0,1.776428359,0.180449601,-2.139
 102243\H,0,2.27812755,-0.443868445,-1.577489607\C,0,0.857389876,2.6475
 83605,-3.375810171\H,0,0.084552622,3.237041489,-3.882736003\H,0,1.0998
 45636,1.819731089,-4.051313133\H,0,1.748541564,3.272996156,-3.26017708
 2\O,0,-0.793459756,1.308982949,-2.291846805\H,0,-0.424720366,0.5435757
 79,-2.786922149\H,0,-1.54771831,2.480581303,0.167894941\C,0,0.04504226
 9,1.614346031,2.407139981\C,0,-1.214523174,1.630730395,2.876463035\H,0
 ,-1.44419777,1.339711637,3.897115857\H,0,-2.06432658,1.899634289,2.258
 137709\C,0,1.176164898,1.204223917,3.317090055\H,0,0.83409129,1.012212
 156,4.339859587\H,0,1.929647682,1.996922772,3.36782088\H,0,1.654998726
 ,0.289715971,2.955262323\C,0,-1.498922276,-4.489762246,0.688559689\H,0
 ,-0.884264235,-5.094487624,1.366486681\H,0,-2.475767048,-4.386413986,1
 .176616123\C,0,-1.661988011,-5.212799545,-0.639711628\H,0,-2.118002605
 ,-6.195311122,-0.482159491\H,0,-0.695075287,-5.362491632,-1.132008298\
 H,0,-2.303136867,-4.646952837,-1.324131388\\Version=EM64L-G09RevC.01\S
 tate=1-A\HF=-1002.5459385\RMSD=6.545e-09\Dipole=2.1251733,-0.4840207,0
 .1589711\Quadrupole=-3.9870579,11.4655987,-7.4785408,-0.0115265,3.6503
 513,-4.4304754\PG=C01 [X(C18H26O4)]\\@


 GARLIC THEN HAVE POWER TO SAVE FROM DEATH
 BEAR WITH IT THOUGH IT MAKETH UNSAVORY BREATH,
 AND SCORN NOT GARLIC LIKE SOME THAT THINK
 IT ONLY MAKETH MEN WINK AND DRINK AND STINK.
   --  SIR JOHN HARRINGTON,
       "THE ENGLISHMAN'S DOCTOR", 1609
 Job cpu time:  0 days  1 hours 56 minutes 37.4 seconds.
 File lengths (MBytes):  RWF=    242 Int=      0 D2E=      0 Chk=     19 Scr=      1
 Normal termination of Gaussian 09 at Fri Dec 23 15:36:37 2022.
