 Entering Gaussian System, Link 0=g09
 Input=/home/lpassaglia.iquir/Link1/03_RSRS_THC_006.gjc
 Output=/home/lpassaglia.iquir/Link1/03_RSRS_THC_006.log
 Initial command:
 /share/apps/Gaussian09/EM64T.SSE4.2-enabled/g09/l1.exe /tmp/Gau-28593.inp -scrdir=/tmp/
 Entering Link 1 = /share/apps/Gaussian09/EM64T.SSE4.2-enabled/g09/l1.exe PID=     28605.
  
 Copyright (c) 1988,1990,1992,1993,1995,1998,2003,2009,2011,
            Gaussian, Inc.  All Rights Reserved.
  
 This is part of the Gaussian(R) 09 program.  It is based on
 the Gaussian(R) 03 system (copyright 2003, Gaussian, Inc.),
 the Gaussian(R) 98 system (copyright 1998, Gaussian, Inc.),
 the Gaussian(R) 94 system (copyright 1995, Gaussian, Inc.),
 the Gaussian 92(TM) system (copyright 1992, Gaussian, Inc.),
 the Gaussian 90(TM) system (copyright 1990, Gaussian, Inc.),
 the Gaussian 88(TM) system (copyright 1988, Gaussian, Inc.),
 the Gaussian 86(TM) system (copyright 1986, Carnegie Mellon
 University), and the Gaussian 82(TM) system (copyright 1983,
 Carnegie Mellon University). Gaussian is a federally registered
 trademark of Gaussian, Inc.
  
 This software contains proprietary and confidential information,
 including trade secrets, belonging to Gaussian, Inc.
  
 This software is provided under written license and may be
 used, copied, transmitted, or stored only in accord with that
 written license.
  
 The following legend is applicable only to US Government
 contracts under FAR:
  
                    RESTRICTED RIGHTS LEGEND
  
 Use, reproduction and disclosure by the US Government is
 subject to restrictions as set forth in subparagraphs (a)
 and (c) of the Commercial Computer Software - Restricted
 Rights clause in FAR 52.227-19.
  
 Gaussian, Inc.
 340 Quinnipiac St., Bldg. 40, Wallingford CT 06492
  
  
 ---------------------------------------------------------------
 Warning -- This program may not be used in any manner that
 competes with the business of Gaussian, Inc. or will provide
 assistance to any competitor of Gaussian, Inc.  The licensee
 of this program is prohibited from giving any competitor of
 Gaussian, Inc. access to this program.  By using this program,
 the user acknowledges that Gaussian, Inc. is engaged in the
 business of creating and licensing software in the field of
 computational chemistry and represents and warrants to the
 licensee that it is not a competitor of Gaussian, Inc. and that
 it will not use this program in any manner prohibited above.
 ---------------------------------------------------------------
  

 Cite this work as:
 Gaussian 09, Revision C.01,
 M. J. Frisch, G. W. Trucks, H. B. Schlegel, G. E. Scuseria, 
 M. A. Robb, J. R. Cheeseman, G. Scalmani, V. Barone, B. Mennucci, 
 G. A. Petersson, H. Nakatsuji, M. Caricato, X. Li, H. P. Hratchian, 
 A. F. Izmaylov, J. Bloino, G. Zheng, J. L. Sonnenberg, M. Hada, 
 M. Ehara, K. Toyota, R. Fukuda, J. Hasegawa, M. Ishida, T. Nakajima, 
 Y. Honda, O. Kitao, H. Nakai, T. Vreven, J. A. Montgomery, Jr., 
 J. E. Peralta, F. Ogliaro, M. Bearpark, J. J. Heyd, E. Brothers, 
 K. N. Kudin, V. N. Staroverov, T. Keith, R. Kobayashi, J. Normand, 
 K. Raghavachari, A. Rendell, J. C. Burant, S. S. Iyengar, J. Tomasi, 
 M. Cossi, N. Rega, J. M. Millam, M. Klene, J. E. Knox, J. B. Cross, 
 V. Bakken, C. Adamo, J. Jaramillo, R. Gomperts, R. E. Stratmann, 
 O. Yazyev, A. J. Austin, R. Cammi, C. Pomelli, J. W. Ochterski, 
 R. L. Martin, K. Morokuma, V. G. Zakrzewski, G. A. Voth, 
 P. Salvador, J. J. Dannenberg, S. Dapprich, A. D. Daniels, 
 O. Farkas, J. B. Foresman, J. V. Ortiz, J. Cioslowski, 
 and D. J. Fox, Gaussian, Inc., Wallingford CT, 2010.
 
 ******************************************
 Gaussian 09:  EM64L-G09RevC.01 23-Sep-2011
                23-Dec-2022 
 ******************************************
 %chk=03_RSRS_THC_006_optB_NMR
 %nprocshared=4
 Will use up to    4 processors via shared memory.
 ------------------------------------------------
 # mPW1PW91/6-31+G** scrf=(PCM,solvent=water) nmr
 ------------------------------------------------
 1/38=1/1;
 2/12=2,17=6,18=5,40=1/2;
 3/5=1,6=6,7=111,11=2,16=1,25=1,30=1,70=2201,72=1,74=-7/1,2,8,3;
 4//1;
 5/5=2,38=5,53=1/2;
 8/6=1,10=90,11=11/1;
 10/13=100,45=16/2;
 6/7=2,8=2,9=2,10=2,28=1/1;
 99/9=1/99;
 -------
 comment
 -------
 Charge =  0 Multiplicity = 1
 Symbolic Z-Matrix:
 6                     1.75251   2.30697  -1.50256 
 6                     0.91342   3.41356  -0.84376 
 1                     1.47623   4.35633  -0.84867 
 1                     0.03175   3.61917  -1.46116 
 6                     0.48961   3.09016   0.58981 
 1                     1.38683   3.10803   1.22275 
 6                    -0.19733   1.71478   0.76893 
 1                    -0.074     1.5024    1.84421 
 6                     0.61471   0.59616   0.03897 
 1                     1.58951   0.61195   0.545 
 6                     1.02708   0.9387   -1.4107 
 1                     1.67309   0.14909  -1.81468 
 6                     0.09536  -0.82163   0.29902 
 6                    -0.80529  -3.45255   0.96277 
 6                     0.58212  -1.52278   1.42438 
 6                    -0.8738   -1.48356  -0.46964 
 6                    -1.311    -2.77464  -0.1481 
 6                     0.15264  -2.81453   1.75042 
 1                    -2.06255  -3.24325  -0.78043 
 1                     0.5561   -3.32981   2.61728 
 8                    -1.4953   -0.95144  -1.5628 
 1                    -1.08812  -0.08596  -1.77927 
 8                     1.5073   -0.91845   2.23912 
 1                     1.70834  -1.51572   2.97818 
 8                    -0.10517   1.00194  -2.29185 
 1                     0.24297   1.46046  -3.08948 
 6                     3.17576   2.25239  -0.93826 
 1                     3.69702   3.20098  -1.11216 
 1                     3.76328   1.48276  -1.45181 
 1                     3.20399   2.04629   0.1346 
 8                     1.86195   2.62148  -2.90769 
 1                     2.30874   3.48413  -2.98239 
 1                    -0.15082   3.89388   0.9735 
 6                    -1.71588   1.74549   0.56179 
 6                    -2.52283   1.07371   1.40526 
 1                    -3.60277   1.08211   1.29403 
 1                    -2.12504   0.47183   2.21718 
 6                    -2.33074   2.56889  -0.53572 
 1                    -2.10568   3.6305   -0.39848 
 1                    -3.42317   2.47902  -0.54895 
 1                    -1.98238   2.2567   -1.51973 
 6                    -1.27076  -4.84755   1.28612 
 1                    -1.2512   -5.00073   2.37204 
 1                    -2.31787  -4.96775   0.98247 
 6                    -0.41342  -5.90207   0.60316 
 1                    -0.77368  -6.90433   0.85573 
 1                     0.63306  -5.82827   0.91801 
 1                    -0.44458  -5.79484  -0.48644 
 
                          Input orientation:                          
 ---------------------------------------------------------------------
 Center     Atomic      Atomic             Coordinates (Angstroms)
 Number     Number       Type             X           Y           Z
 ---------------------------------------------------------------------
      1          6           0        1.752512    2.306970   -1.502560
      2          6           0        0.913420    3.413564   -0.843758
      3          1           0        1.476234    4.356326   -0.848666
      4          1           0        0.031755    3.619167   -1.461159
      5          6           0        0.489612    3.090165    0.589811
      6          1           0        1.386828    3.108028    1.222747
      7          6           0       -0.197332    1.714783    0.768927
      8          1           0       -0.074003    1.502403    1.844209
      9          6           0        0.614708    0.596160    0.038973
     10          1           0        1.589510    0.611954    0.544995
     11          6           0        1.027078    0.938698   -1.410698
     12          1           0        1.673091    0.149087   -1.814684
     13          6           0        0.095362   -0.821625    0.299023
     14          6           0       -0.805291   -3.452554    0.962771
     15          6           0        0.582124   -1.522780    1.424379
     16          6           0       -0.873798   -1.483565   -0.469644
     17          6           0       -1.310999   -2.774641   -0.148098
     18          6           0        0.152641   -2.814528    1.750423
     19          1           0       -2.062553   -3.243249   -0.780425
     20          1           0        0.556103   -3.329806    2.617283
     21          8           0       -1.495303   -0.951443   -1.562797
     22          1           0       -1.088119   -0.085965   -1.779268
     23          8           0        1.507302   -0.918453    2.239124
     24          1           0        1.708337   -1.515720    2.978185
     25          8           0       -0.105173    1.001939   -2.291851
     26          1           0        0.242969    1.460457   -3.089484
     27          6           0        3.175762    2.252385   -0.938257
     28          1           0        3.697023    3.200983   -1.112159
     29          1           0        3.763284    1.482757   -1.451808
     30          1           0        3.203986    2.046293    0.134595
     31          8           0        1.861947    2.621483   -2.907695
     32          1           0        2.308738    3.484128   -2.982392
     33          1           0       -0.150816    3.893884    0.973496
     34          6           0       -1.715880    1.745490    0.561787
     35          6           0       -2.522826    1.073712    1.405259
     36          1           0       -3.602766    1.082114    1.294028
     37          1           0       -2.125040    0.471833    2.217183
     38          6           0       -2.330743    2.568895   -0.535720
     39          1           0       -2.105685    3.630497   -0.398484
     40          1           0       -3.423172    2.479019   -0.548950
     41          1           0       -1.982378    2.256697   -1.519725
     42          6           0       -1.270760   -4.847550    1.286122
     43          1           0       -1.251204   -5.000728    2.372044
     44          1           0       -2.317868   -4.967753    0.982466
     45          6           0       -0.413422   -5.902073    0.603159
     46          1           0       -0.773678   -6.904333    0.855728
     47          1           0        0.633061   -5.828269    0.918005
     48          1           0       -0.444577   -5.794836   -0.486441
 ---------------------------------------------------------------------
                    Distance matrix (angstroms):
                    1          2          3          4          5
     1  C    0.000000
     2  C    1.537090   0.000000
     3  H    2.168817   1.097990   0.000000
     4  H    2.164390   1.095806   1.733514   0.000000
     5  C    2.566384   1.529483   2.155412   2.167015   0.000000
     6  H    2.864039   2.141940   2.420122   3.049727   1.098145
     7  C    3.051595   2.592370   3.520679   2.941504   1.547789
     8  H    3.896710   3.442776   4.218967   3.926491   2.100515
     9  C    2.568617   2.967526   3.958406   3.424734   2.557173
    10  H    2.663105   3.199179   3.996929   3.936316   2.711699
    11  C    1.551406   2.541516   3.492535   2.859743   2.986590
    12  H    2.181785   3.489499   4.321203   3.854921   3.978964
    13  C    3.972399   4.462286   5.480435   4.777334   3.942346
    14  C    6.767003   7.304867   8.334582   7.522321   6.680048
    15  C    4.960217   5.442581   6.366321   5.921896   4.688744
    16  C    4.725734   5.226469   6.306395   5.276457   4.888796
    17  C    6.086249   6.612553   7.688312   6.663925   6.179211
    18  C    6.274649   6.789527   7.741337   7.191752   6.027102
    19  H    6.773560   7.292022   8.383388   7.207099   6.964425
    20  H    7.083624   7.588117   8.481513   8.074457   6.732836
    21  O    4.600998   5.037087   6.124738   4.820032   4.990811
    22  H    3.724498   4.138604   5.213048   3.883724   4.264923
    23  O    4.946077   5.350068   6.112177   6.038157   4.452521
    24  H    5.889990   6.287844   7.012816   6.991836   5.329521
    25  O    2.403556   2.991729   3.979389   2.749306   3.608106
    26  H    2.348112   3.050807   3.863711   2.712211   4.031625
    27  C    1.532011   2.544692   2.706102   3.467896   3.201916
    28  H    2.175499   2.804582   2.517171   3.705519   3.632695
    29  H    2.173731   3.495635   3.721797   4.299842   4.179581
    30  H    2.203407   2.841354   3.047651   3.883737   2.943588
    31  O    1.444057   2.405605   2.719936   2.537212   3.786227
    32  H    1.971038   2.554535   2.450832   2.741722   4.028034
    33  H    3.503114   2.160027   2.486246   2.456898   1.096963
    34  C    4.075111   3.416321   4.358375   3.264537   2.583241
    35  C    5.315529   4.726602   5.643422   4.606688   3.715618
    36  H    6.164428   5.513776   6.411539   5.218949   4.612564
    37  H    5.677995   5.220669   6.120285   5.299781   4.042327
    38  C    4.204326   3.366445   4.217335   2.746071   3.081063
    39  H    4.225682   3.059464   3.682341   2.387060   2.829179
    40  H    5.265613   4.445933   5.255311   3.750811   4.120699
    41  H    3.735268   3.190756   4.101312   2.432383   3.354929
    42  C    8.252519   8.806420   9.839442   8.996077   8.160335
    43  H    8.799847   9.264301  10.264811   9.520610   8.465774
    44  H    8.698559   9.166394  10.231651   9.231859   8.542023
    45  C    8.747211   9.520250  10.531540   9.752620   9.037477
    46  H    9.838255  10.592146  11.609027  10.805589  10.077530
    47  H    8.561216   9.412433  10.371019   9.760945   8.925623
    48  H    8.455705   9.314851  10.337640   9.476308   8.998570
                    6          7          8          9         10
     6  H    0.000000
     7  C    2.157927   0.000000
     8  H    2.257936   1.102972   0.000000
     9  C    2.882182   1.563189   2.134122   0.000000
    10  H    2.594381   2.111678   2.290880   1.098430   0.000000
    11  C    3.430808   2.617682   3.482034   1.545616   2.061026
    12  H    4.250090   3.553158   4.274494   2.180847   2.406100
    13  C    4.238316   2.596121   2.795960   1.532142   2.085218
    14  C    6.922009   5.206588   5.085598   4.388836   4.736015
    15  C    4.704528   3.393962   3.123858   2.531860   2.518974
    16  C    5.390486   3.495868   3.861294   2.607603   3.389481
    17  C    6.615382   4.715518   4.877760   3.886597   4.512467
    18  C    6.072753   4.647630   4.323893   3.843872   3.906203
    19  H    7.499976   5.519205   5.776179   4.751862   5.473289
    20  H    6.639318   5.425123   4.934057   4.697267   4.571628
    21  O    5.704843   3.772323   4.432735   3.068042   4.050070
    22  H    5.033790   3.244918   4.084229   2.582811   3.613722
    23  O    4.154526   3.464273   2.918394   2.816282   2.284509
    24  H    4.956206   4.352992   3.683979   3.780876   3.234429
    25  O    4.360513   3.144042   4.166344   2.472979   3.327422
    26  H    4.755864   3.891772   4.944043   3.266871   3.967691
    27  C    2.932976   3.818542   4.343451   3.202665   2.721626
    28  H    3.285944   4.573104   5.083889   4.196532   3.727042
    29  H    3.929668   4.546645   5.058545   3.594720   3.077468
    30  H    2.369265   3.475808   3.736817   2.969241   2.198246
    31  O    4.186050   4.310486   5.251746   3.786871   4.004185
    32  H    4.321407   4.845964   5.735919   4.509850   4.605337
    33  H    1.744719   2.189177   2.546218   3.512029   3.739440
    34  C    3.452561   1.532918   2.097489   2.650648   3.494394
    35  C    4.411025   2.494756   2.524517   3.455273   4.226651
    36  H    5.385671   3.503281   3.596041   4.427008   5.267052
    37  H    4.502405   2.712642   2.325498   3.502324   4.075995
    38  C    4.147675   2.642547   3.448818   3.591328   4.512865
    39  H    3.885744   2.945271   3.699485   4.098671   4.863766
    40  H    5.164365   3.567478   4.230594   4.493917   5.459820
    41  H    4.426903   2.952624   3.940420   3.454241   4.441468
    42  C    8.387968   6.669629   6.485799   5.894433   6.207785
    43  H    8.604186   6.984176   6.629866   6.344288   6.550570
    44  H    8.888236   7.014168   6.902206   6.359819   6.825842
    45  C    9.209056   7.621723   7.515429   6.603210   6.815253
    46  H   10.249384   8.638801   8.493518   7.671512   7.885163
    47  H    8.973207   7.590086   7.422705   6.484313   6.521535
    48  H    9.248587   7.617838   7.669351   6.499459   6.800613
                   11         12         13         14         15
    11  C    0.000000
    12  H    1.097279   0.000000
    13  C    2.624877   2.810564   0.000000
    14  C    5.317333   5.179619   2.858937   0.000000
    15  C    3.780809   3.804849   1.412438   2.421163   0.000000
    16  C    3.219669   3.310789   1.402955   2.435862   2.389261
    17  C    4.566141   4.497831   2.447864   1.396186   2.761114
    18  C    4.984378   4.879013   2.466070   1.394671   1.399776
    19  H    5.237532   5.150987   3.418489   2.159456   3.849090
    20  H    5.887833   5.743926   3.446387   2.146129   2.165419
    21  O    3.155657   3.363530   2.452231   3.620796   3.683116
    22  H    2.379041   2.771423   2.502222   4.351171   3.888123
    23  O    4.123206   4.195294   2.401446   3.660441   1.372944
    24  H    5.074503   5.073896   3.203337   3.759194   1.919041
    25  O    1.436114   2.029105   3.174622   5.561046   4.544991
    26  H    1.924937   2.321649   4.087990   6.454246   5.421225
    27  C    2.562385   2.729470   4.524298   7.211729   5.153725
    28  H    3.512217   3.728795   5.580751   8.297332   6.200851
    29  H    2.790073   2.505845   4.672177   7.145583   5.236934
    30  H    2.890264   3.121333   4.232675   6.855472   4.612590
    31  O    2.402035   2.709812   5.025819   7.680403   6.130230
    32  H    3.254549   3.590277   5.848609   8.566157   6.889844
    33  H    3.975543   5.012393   4.769858   7.375541   5.484592
    34  C    3.473533   4.436354   3.152732   5.292411   4.087356
    35  C    4.533174   5.369235   3.416280   4.861358   4.047573
    36  H    5.363914   6.194295   4.276729   5.338428   4.931103
    37  H    4.828596   5.548506   3.206643   4.326210   3.454817
    38  C    3.833810   4.849939   4.251871   6.389861   5.391529
    39  H    4.252595   5.329632   5.015228   7.328959   6.091257
    40  H    4.787476   5.744786   4.898305   6.657489   5.995900
    41  H    3.287224   4.229832   4.135325   6.335919   5.434047
    42  C    6.784804   6.576293   4.364484   1.505733   3.808725
    43  H    7.401114   7.252640   4.855466   2.140498   4.044167
    44  H    7.197365   7.066389   4.845735   2.141052   4.524719
    45  C    7.275081   6.842225   5.114911   2.506597   4.565492
    46  H    8.360177   7.928967   6.169643   3.453584   5.578771
    47  H    7.167283   6.654175   5.073337   2.777568   4.335464
    48  H    6.954171   6.448176   5.063725   2.777880   4.791222
                   16         17         18         19         20
    16  C    0.000000
    17  C    1.400505   0.000000
    18  C    2.784553   2.397543   0.000000
    19  H    2.146209   1.088240   3.390587   0.000000
    20  H    3.870703   3.382545   1.086158   4.290603   0.000000
    21  O    1.365432   2.315036   4.142973   2.487218   5.228570
    22  H    1.927261   3.152677   4.630687   3.451905   5.705754
    23  O    3.650536   4.133652   2.380973   5.221706   2.619619
    24  H    4.307665   4.524921   2.369491   5.597420   2.179174
    25  O    3.176311   4.506911   5.565237   4.912979   6.580341
    26  H    4.096095   5.385408   6.458200   5.724686   7.457336
    27  C    5.529544   6.784274   6.483970   7.593869   7.117959
    28  H    6.576490   7.856066   7.546084   8.649329   8.150173
    29  H    5.591622   6.750810   6.462018   7.531683   7.071369
    30  H    5.427091   6.611082   5.962313   7.520169   6.486714
    31  O    5.502709   6.841134   7.360027   7.370350   8.224868
    32  H    6.412520   7.765816   8.168314   8.319522   8.992096
    33  H    5.614473   6.860993   6.760066   7.594053   7.442007
    34  C    3.492813   4.593413   5.069318   5.177763   5.928373
    35  C    3.574104   4.323339   4.732406   4.860578   5.508155
    36  H    4.140110   4.712375   5.430948   5.038291   6.205823
    37  H    3.550807   4.098391   4.025651   4.774033   4.669161
    38  C    4.306911   5.453760   6.354123   5.823471   7.284914
    39  H    5.260821   6.459103   7.159342   6.884484   8.039016
    40  H    4.712501   5.676521   6.789344   5.886358   7.720240
    41  H    4.039948   5.257991   6.400742   5.549990   7.400523
    42  C    3.815323   2.521023   2.524842   2.733374   2.722676
    43  H    4.537407   3.363057   2.671454   3.699335   2.473556
    44  H    4.041476   2.664902   3.365940   2.479291   3.689879
    45  C    4.570128   3.339291   3.342092   3.421006   3.407819
    46  H    5.581341   4.283777   4.287780   4.212094   4.201028
    47  H    4.803400   3.773671   3.163283   4.102844   3.022546
    48  H    4.332617   3.160181   3.773919   3.035600   4.087889
                   21         22         23         24         25
    21  O    0.000000
    22  H    0.980668   0.000000
    23  O    4.844722   4.855587   0.000000
    24  H    5.585895   5.700677   0.971264   0.000000
    25  O    2.505929   1.553209   5.178583   6.115611   0.000000
    26  H    3.342099   2.424847   5.970914   6.915312   0.983698
    27  C    5.698545   4.935166   4.788918   5.629430   3.763027
    28  H    6.663780   5.843513   5.744192   6.552334   4.547985
    29  H    5.795721   5.109229   4.947549   5.730489   3.987708
    30  H    5.826738   5.160577   4.012169   4.796969   4.234247
    31  O    5.083865   4.160110   6.256730   7.196084   2.621403
    32  H    6.013341   5.072643   6.876718   7.803041   3.530592
    33  H    5.631840   4.929041   5.244975   6.061274   4.362100
    34  C    3.440342   3.037902   4.505437   5.310342   3.360133
    35  C    3.737166   3.680278   4.572306   5.204036   4.418011
    36  H    4.091235   4.139203   5.568507   6.147596   5.009801
    37  H    4.087852   4.166289   3.889381   4.384549   4.969131
    38  C    3.761067   3.184149   5.881492   6.733927   3.239214
    39  H    4.766798   4.093176   6.379937   7.241008   3.807388
    40  H    4.063573   3.680393   6.604979   7.398041   4.028471
    41  H    3.245190   2.520937   6.032279   6.934241   2.386314
    42  C    4.831812   5.665921   4.905470   4.779036   6.955358
    43  H    5.651484   6.435440   4.928690   4.612110   7.687477
    44  H    4.825528   5.742065   5.710336   5.666546   7.159217
    45  C    5.510950   6.321257   5.585877   5.420581   7.492762
    46  H    6.465827   7.316572   6.553428   6.300981   8.536000
    47  H    5.870924   6.573569   5.159064   4.898840   7.582869
    48  H    5.071590   5.888697   5.917571   5.911810   7.040657
                   26         27         28         29         30
    26  H    0.000000
    27  C    3.722392   0.000000
    28  H    4.343931   1.096263   0.000000
    29  H    3.882666   1.096013   1.752727   0.000000
    30  H    4.416504   1.092832   1.769404   1.773996   0.000000
    31  O    2.000530   2.396044   2.631971   2.651676   3.374528
    32  H    2.893807   2.539175   2.346333   2.909274   3.547456
    33  H    4.752309   4.173181   4.431245   5.197673   3.920719
    34  C    4.153326   5.141521   5.849793   5.843358   4.947530
    35  C    5.291683   6.273376   7.039119   6.917031   5.946164
    36  H    5.843629   7.231948   7.972845   7.871392   6.971786
    37  H    5.894537   6.420723   7.240801   7.011121   5.934190
    38  C    3.791351   5.530264   6.088168   6.257482   5.599612
    39  H    4.179322   5.484909   5.862187   6.337750   5.566550
    40  H    4.575191   6.614292   7.178832   7.311145   6.676354
    41  H    2.837308   5.190813   5.771775   5.797950   5.447882
    42  C    7.824848   8.667670   9.757536   8.538772   8.299062
    43  H    8.591144   9.119417  10.192776   9.044473   8.632230
    44  H    8.028732   9.273594  10.358312   9.193213   8.966973
    45  C    8.262766   9.041759  10.134284   8.729460   8.745383
    46  H    9.304192  10.132224  11.223955   9.810812   9.821179
    47  H    8.326924   8.672256   9.748683   8.298519   8.320584
    48  H    7.738722   8.835653   9.923162   8.461760   8.670698
                   31         32         33         34         35
    31  O    0.000000
    32  H    0.974350   0.000000
    33  H    4.553445   4.676147   0.000000
    34  C    5.060190   5.637519   2.689708   0.000000
    35  C    6.342192   6.957413   3.710286   1.346808   0.000000
    36  H    7.063089   7.681362   4.463715   2.129925   1.085686
    37  H    6.839696   7.467791   4.141830   2.128368   1.086146
    38  C    4.817436   5.324344   2.964020   1.503520   2.457614
    39  H    4.801703   5.117141   2.402752   2.151120   3.156682
    40  H    5.789340   6.307668   3.876597   2.164866   2.569912
    41  H    4.103458   4.696772   3.500165   2.159872   3.201105
    42  C    9.120768  10.022468   8.818428   6.647629   6.053363
    43  H    9.780872  10.645936   9.070883   7.000315   6.280965
    44  H    9.497406  10.419207   9.122763   6.753294   6.059708
    45  C    9.494968  10.409952   9.806472   7.757791   7.331748
    46  H   10.575966  11.495764  10.816808   8.705951   8.186007
    47  H    9.356520  10.234341   9.753861   7.937647   7.604892
    48  H    9.056321   9.995483   9.802500   7.718258   7.421226
                   36         37         38         39         40
    36  H    0.000000
    37  H    1.846167   0.000000
    38  C    2.678905   3.466765   0.000000
    39  H    3.405892   4.101128   1.093839   0.000000
    40  H    2.319518   3.655877   1.096200   1.756222   0.000000
    41  H    3.452898   4.143740   1.089538   1.777558   1.751490
    42  C    6.371753   5.467404   7.710144   8.684024   7.853596
    43  H    6.610063   5.544050   8.180445   9.105163   8.318429
    44  H    6.192651   5.581290   7.688050   8.711024   7.682535
    45  C    7.708961   6.794217   8.759592   9.733290   8.979346
    46  H    8.484055   7.621520   9.700651  10.692518   9.850901
    47  H    8.114002   6.999019   9.022739   9.934894   9.360343
    48  H    7.774102   7.028846   8.573916   9.570993   8.793896
                   41         42         43         44         45
    41  H    0.000000
    42  C    7.671343   0.000000
    43  H    8.267448   1.096847   0.000000
    44  H    7.652855   1.096855   1.752081   0.000000
    45  C    8.575184   1.521014   2.154821   2.154935   0.000000
    46  H    9.540871   2.159326   2.480113   2.480107   1.094578
    47  H    8.840233   2.172982   2.519823   3.074512   1.095309
    48  H    8.261942   2.172995   3.074441   2.520113   1.095308
                   46         47         48
    46  H    0.000000
    47  H    1.772204   0.000000
    48  H    1.772205   1.770562   0.000000
 Stoichiometry    C18H26O4
 Framework group  C1[X(C18H26O4)]
 Deg. of freedom   138
 Full point group                 C1      NOp   1
 Largest Abelian subgroup         C1      NOp   1
 Largest concise Abelian subgroup C1      NOp   1
                         Standard orientation:                         
 ---------------------------------------------------------------------
 Center     Atomic      Atomic             Coordinates (Angstroms)
 Number     Number       Type             X           Y           Z
 ---------------------------------------------------------------------
      1          6           0        2.991449   -1.251579   -0.372132
      2          6           0        3.645327   -0.042167    0.315191
      3          1           0        4.648745   -0.315401    0.667439
      4          1           0        3.821552    0.746604   -0.424791
      5          6           0        2.834332    0.507985    1.489474
      6          1           0        2.865097   -0.231212    2.300994
      7          6           0        1.350112    0.808205    1.169145
      8          1           0        0.867270    0.811529    2.160809
      9          6           0        0.699731   -0.390747    0.405549
     10          1           0        0.782549   -1.225055    1.115210
     11          6           0        1.530700   -0.927463   -0.782035
     12          1           0        1.055358   -1.824208   -1.199074
     13          6           0       -0.810498   -0.247439    0.190765
     14          6           0       -3.651677   -0.011103   -0.022242
     15          6           0       -1.682798   -0.714810    1.198554
     16          6           0       -1.417419    0.359430   -0.919027
     17          6           0       -2.809405    0.470192   -1.026368
     18          6           0       -3.075012   -0.610793    1.097105
     19          1           0       -3.227900    0.947122   -1.910487
     20          1           0       -3.717543   -0.990942    1.886016
     21          8           0       -0.741590    0.913025   -1.968405
     22          1           0        0.216977    0.730608   -1.870506
     23          8           0       -1.152607   -1.288297    2.327707
     24          1           0       -1.879024   -1.520706    2.929087
     25          8           0        1.595685    0.015367   -1.863363
     26          1           0        2.331094   -0.320144   -2.423959
     27          6           0        3.090757   -2.520150    0.481053
     28          1           0        4.139523   -2.780526    0.665676
     29          1           0        2.652936   -3.374217   -0.048218
     30          1           0        2.593490   -2.425463    1.449579
     31          8           0        3.716549   -1.501865   -1.595605
     32          1           0        4.640040   -1.698993   -1.355474
     33          1           0        3.329939    1.399964    1.892056
     34          6           0        1.103811    2.219758    0.624449
     35          6           0        0.055290    2.938308    1.069624
     36          1           0       -0.142859    3.944444    0.713053
     37          1           0       -0.653172    2.530486    1.784798
     38          6           0        2.053587    2.846783   -0.358067
     39          1           0        3.051851    2.949724    0.077083
     40          1           0        1.732710    3.853888   -0.648637
     41          1           0        2.125555    2.267240   -1.277873
     42          6           0       -5.147184    0.098018   -0.159285
     43          1           0       -5.600890    0.217695    0.832128
     44          1           0       -5.401947    1.005574   -0.720114
     45          6           0       -5.741535   -1.118301   -0.852682
     46          1           0       -6.827591   -1.012083   -0.938128
     47          1           0       -5.533363   -2.036220   -0.292511
     48          1           0       -5.332096   -1.240297   -1.861233
 ---------------------------------------------------------------------
 Rotational constants (GHZ):      0.4908542      0.1796548      0.1711372
 Standard basis: 6-31+G(d,p) (6D, 7F)
 There are   548 symmetry adapted basis functions of A   symmetry.
 Integral buffers will be    131072 words long.
 Raffenetti 2 integral format.
 Two-electron integral symmetry is turned on.
   548 basis functions,   886 primitive gaussians,   548 cartesian basis functions
    83 alpha electrons       83 beta electrons
       nuclear repulsion energy      1988.0876694873 Hartrees.
 NAtoms=   48 NActive=   48 NUniq=   48 SFac= 1.00D+00 NAtFMM=   60 NAOKFM=F Big=F
 ------------------------------------------------------------------------------
 Polarizable Continuum Model (PCM)
 =================================
 Model                : PCM.
 Atomic radii         : UFF (Universal Force Field).
 Polarization charges : Total charges.
 Charge compensation  : None.
 Solution method      : Matrix inversion.
 Cavity type          : Scaled VdW (van der Waals Surface) (Alpha=1.100).
 Cavity algorithm     : GePol (No added spheres)
                        Default sphere list used, NSphG=   48.
                        Lebedev-Laikov grids with approx.  5.0 points / Ang**2.
                        Smoothing algorithm: Karplus/York (Gamma=1.0000).
                        Polarization charges: spherical gaussians, with
                                              point-specific exponents (IZeta= 3).
                        Self-potential: point-specific (ISelfS= 7).
                        Self-field    : sphere-specific E.n sum rule (ISelfD= 2).
 Solvent              : Water, Eps=  78.355300 Eps(inf)=   1.777849
 ------------------------------------------------------------------------------
 One-electron integrals computed using PRISM.
 NBasis=   548 RedAO= T  NBF=   548
 NBsUse=   546 1.00D-06 NBFU=   546
 Harris functional with IExCor=  908 diagonalized for initial guess.
 ExpMin= 4.38D-02 ExpMax= 5.48D+03 ExpMxC= 8.25D+02 IAcc=2 IRadAn=         4 AccDes= 0.00D+00
 HarFok:  IExCor=  908 AccDes= 0.00D+00 IRadAn=         4 IDoV= 1
 ScaDFX=  1.000000  1.000000  1.000000  1.000000
 FoFCou: FMM=F IPFlag=           0 FMFlag=      100000 FMFlg1=           0
         NFxFlg=           0 DoJE=T BraDBF=F KetDBF=T FulRan=T
         Omega=  0.000000  0.000000  1.000000  0.000000  0.000000 ICntrl=     500 IOpCl=  0
         NMat0=    1 NMatS0=    1 NMatT0=    0 NMatD0=    1 NMtDS0=    0 NMtDT0=    0
         I1Cent=           4 NGrid=           0.
 Petite list used in FoFCou.
 Initial guess orbital symmetries:
       Occupied  (A) (A) (A) (A) (A) (A) (A) (A) (A) (A) (A) (A)
                 (A) (A) (A) (A) (A) (A) (A) (A) (A) (A) (A) (A)
                 (A) (A) (A) (A) (A) (A) (A) (A) (A) (A) (A) (A)
                 (A) (A) (A) (A) (A) (A) (A) (A) (A) (A) (A) (A)
                 (A) (A) (A) (A) (A) (A) (A) (A) (A) (A) (A) (A)
                 (A) (A) (A) (A) (A) (A) (A) (A) (A) (A) (A) (A)
                 (A) (A) (A) (A) (A) (A) (A) (A) (A) (A) (A)
       Virtual   (A) (A) (A) (A) (A) (A) (A) (A) (A) (A) (A) (A)
                 (A) (A) (A) (A) (A) (A) (A) (A) (A) (A) (A) (A)
                 (A) (A) (A) (A) (A) (A) (A) (A) (A) (A) (A) (A)
                 (A) (A) (A) (A) (A) (A) (A) (A) (A) (A) (A) (A)
                 (A) (A) (A) (A) (A) (A) (A) (A) (A) (A) (A) (A)
                 (A) (A) (A) (A) (A) (A) (A) (A) (A) (A) (A) (A)
                 (A) (A) (A) (A) (A) (A) (A) (A) (A) (A) (A) (A)
                 (A) (A) (A) (A) (A) (A) (A) (A) (A) (A) (A) (A)
                 (A) (A) (A) (A) (A) (A) (A) (A) (A) (A) (A) (A)
                 (A) (A) (A) (A) (A) (A) (A) (A) (A) (A) (A) (A)
                 (A) (A) (A) (A) (A) (A) (A) (A) (A) (A) (A) (A)
                 (A) (A) (A) (A) (A) (A) (A) (A) (A) (A) (A) (A)
                 (A) (A) (A) (A) (A) (A) (A) (A) (A) (A) (A) (A)
                 (A) (A) (A) (A) (A) (A) (A) (A) (A) (A) (A) (A)
                 (A) (A) (A) (A) (A) (A) (A) (A) (A) (A) (A) (A)
                 (A) (A) (A) (A) (A) (A) (A) (A) (A) (A) (A) (A)
                 (A) (A) (A) (A) (A) (A) (A) (A) (A) (A) (A) (A)
                 (A) (A) (A) (A) (A) (A) (A) (A) (A) (A) (A) (A)
                 (A) (A) (A) (A) (A) (A) (A) (A) (A) (A) (A) (A)
                 (A) (A) (A) (A) (A) (A) (A) (A) (A) (A) (A) (A)
                 (A) (A) (A) (A) (A) (A) (A) (A) (A) (A) (A) (A)
                 (A) (A) (A) (A) (A) (A) (A) (A) (A) (A) (A) (A)
                 (A) (A) (A) (A) (A) (A) (A) (A) (A) (A) (A) (A)
                 (A) (A) (A) (A) (A) (A) (A) (A) (A) (A) (A) (A)
                 (A) (A) (A) (A) (A) (A) (A) (A) (A) (A) (A) (A)
                 (A) (A) (A) (A) (A) (A) (A) (A) (A) (A) (A) (A)
                 (A) (A) (A) (A) (A) (A) (A) (A) (A) (A) (A) (A)
                 (A) (A) (A) (A) (A) (A) (A) (A) (A) (A) (A) (A)
                 (A) (A) (A) (A) (A) (A) (A) (A) (A) (A) (A) (A)
                 (A) (A) (A) (A) (A) (A) (A) (A) (A) (A) (A) (A)
                 (A) (A) (A) (A) (A) (A) (A) (A) (A) (A) (A) (A)
                 (A) (A) (A) (A) (A) (A) (A) (A) (A) (A) (A) (A)
                 (A) (A) (A) (A) (A) (A) (A) (A) (A) (A) (A) (A)
                 (A) (A) (A) (A) (A) (A) (A) (A) (A) (A) (A) (A)
                 (A) (A) (A) (A) (A) (A) (A) (A) (A) (A) (A) (A)
                 (A) (A) (A) (A) (A) (A) (A) (A) (A) (A) (A) (A)
                 (A) (A) (A) (A) (A) (A) (A) (A) (A) (A) (A) (A)
                 (A) (A) (A) (A) (A) (A) (A) (A) (A) (A) (A) (A)
                 (A) (A) (A) (A) (A) (A) (A)
 The electronic state of the initial guess is 1-A.
 Requested convergence on RMS density matrix=1.00D-08 within 128 cycles.
 Requested convergence on MAX density matrix=1.00D-06.
 Requested convergence on             energy=1.00D-06.
 No special actions if energy rises.
 CoulSu:  requested number of processors reduced to:   3 ShMem   1 Linda.
 CoulSu:  requested number of processors reduced to:   3 ShMem   1 Linda.
 Error on total polarization charges =  0.01938
 SCF Done:  E(RmPW1PW91) =  -1002.30613915     A.U. after   14 cycles
             Convg  =    0.5898D-08             -V/T =  2.0093
 Range of M.O.s used for correlation:     1   546
 NBasis=   548 NAE=    83 NBE=    83 NFC=     0 NFV=     0
 NROrb=    546 NOA=    83 NOB=    83 NVA=   463 NVB=   463

 **** Warning!!: The largest alpha MO coefficient is  0.13587468D+03

 NEqPCM:  Using equilibrium solvation (IEInf=0, Eps=  78.3553, EpsInf=   1.7778)
          Differentiating once with respect to magnetic field using GIAOs.
          Electric field/nuclear overlap derivatives assumed to be zero.
 FoFCou: FMM=F IPFlag=           0 FMFlag=    10101102 FMFlg1=           0
         NFxFlg=    40000000 DoJE=F BraDBF=F KetDBF=T FulRan=T
         Omega=  0.000000  0.000000  1.000000  0.000000  0.000000 ICntrl=    6100 IOpCl=  0
         NMat0=    1 NMatS0=    1 NMatT0=    0 NMatD0=    1 NMtDS0=    0 NMtDT0=    0
         I1Cent=           7 NGrid=        2973.
 Symmetry not used in FoFCou.
          There are     3 degrees of freedom in the 1st order CPHF.  IDoFFX=0.
      3 vectors produced by pass  0 Test12= 1.28D-12 3.33D-08 XBig12= 7.19D+02 3.68D+00.
 AX will form     3 AO Fock derivatives at one time.
      3 vectors produced by pass  1 Test12= 1.28D-12 3.33D-08 XBig12= 1.88D+00 4.55D-01.
      3 vectors produced by pass  2 Test12= 1.28D-12 3.33D-08 XBig12= 7.47D-03 3.38D-02.
      3 vectors produced by pass  3 Test12= 1.28D-12 3.33D-08 XBig12= 3.96D-05 1.83D-03.
      3 vectors produced by pass  4 Test12= 1.28D-12 3.33D-08 XBig12= 1.44D-07 1.01D-04.
      3 vectors produced by pass  5 Test12= 1.28D-12 3.33D-08 XBig12= 4.97D-10 4.79D-06.
      3 vectors produced by pass  6 Test12= 1.28D-12 3.33D-08 XBig12= 1.99D-12 2.22D-07.
 Inverted reduced A of dimension    21 with in-core refinement.
 Calculating GIAO nuclear magnetic shielding tensors.
 SCF GIAO Magnetic shielding tensor (ppm):
      1  C    Isotropic =   121.8036   Anisotropy =    47.7082
   XX=   115.7782   YX=    -8.2761   ZX=   -17.0779
   XY=    -3.9754   YY=   110.0048   ZY=     0.2015
   XZ=   -25.6999   YZ=    10.8128   ZZ=   139.6278
   Eigenvalues:   102.2601   109.5416   153.6091
      2  C    Isotropic =   161.5557   Anisotropy =    27.5638
   XX=   156.3472   YX=     7.2890   ZX=     0.3219
   XY=    -1.0046   YY=   169.9345   ZY=    13.2393
   XZ=    -2.0755   YZ=    15.7043   ZZ=   158.3854
   Eigenvalues:   147.8386   156.8969   179.9316
      3  H    Isotropic =    30.2061   Anisotropy =     8.7075
   XX=    35.5981   YX=    -1.3786   ZX=     1.5571
   XY=    -1.0369   YY=    27.7183   ZY=     1.0942
   XZ=     1.6569   YZ=     1.4626   ZZ=    27.3020
   Eigenvalues:    25.8036    28.8036    36.0111
      4  H    Isotropic =    29.1329   Anisotropy =     5.5691
   XX=    28.5722   YX=     1.0308   ZX=    -2.1308
   XY=     1.0976   YY=    31.6115   ZY=    -1.8566
   XZ=    -1.5690   YZ=    -1.5490   ZZ=    27.2151
   Eigenvalues:    25.7988    28.7544    32.8456
      5  C    Isotropic =   166.5845   Anisotropy =    18.4796
   XX=   177.5776   YX=    -4.8498   ZX=     2.2455
   XY=    -5.0083   YY=   159.1422   ZY=     3.5684
   XZ=     1.3139   YZ=     0.8187   ZZ=   163.0336
   Eigenvalues:   156.8378   164.0113   178.9042
      6  H    Isotropic =    29.6029   Anisotropy =     8.7143
   XX=    28.0543   YX=    -2.2489   ZX=     1.3759
   XY=    -1.8724   YY=    26.8927   ZY=    -2.0560
   XZ=     1.4188   YZ=    -3.5516   ZZ=    33.8618
   Eigenvalues:    25.0587    28.3376    35.4124
      7  C    Isotropic =   152.0832   Anisotropy =    19.0684
   XX=   150.3201   YX=    -1.8664   ZX=     8.7791
   XY=    -2.6500   YY=   160.5848   ZY=    -6.5019
   XZ=    -0.2583   YZ=    -8.9270   ZZ=   145.3446
   Eigenvalues:   141.0409   150.4131   164.7954
      8  H    Isotropic =    28.6096   Anisotropy =     6.1687
   XX=    28.3271   YX=    -1.3510   ZX=    -1.7880
   XY=     1.3636   YY=    25.8569   ZY=     1.2251
   XZ=    -2.1994   YZ=     0.9587   ZZ=    31.6449
   Eigenvalues:    25.5952    27.5116    32.7221
      9  C    Isotropic =   154.9511   Anisotropy =    23.4248
   XX=   155.7751   YX=     2.0062   ZX=     0.5684
   XY=     0.4165   YY=   157.7954   ZY=    17.8303
   XZ=     4.3044   YZ=    12.7102   ZZ=   151.2827
   Eigenvalues:   138.8489   155.4367   170.5676
     10  H    Isotropic =    27.9052   Anisotropy =     8.6541
   XX=    30.9351   YX=    -0.0376   ZX=    -3.2990
   XY=    -0.8063   YY=    26.8924   ZY=    -5.0497
   XZ=    -4.4092   YZ=    -4.1077   ZZ=    25.8882
   Eigenvalues:    20.7580    29.2831    33.6746
     11  C    Isotropic =   120.4938   Anisotropy =    37.6892
   XX=   110.4118   YX=    -5.3630   ZX=     2.5670
   XY=    -5.8302   YY=   130.2656   ZY=   -16.7900
   XZ=    -1.8734   YZ=   -20.9894   ZZ=   120.8041
   Eigenvalues:   104.2721   111.5895   145.6200
     12  H    Isotropic =    27.4683   Anisotropy =     4.7138
   XX=    25.9617   YX=     1.0370   ZX=     1.3642
   XY=     0.0971   YY=    30.5251   ZY=     1.1684
   XZ=    -0.4371   YZ=    -0.7265   ZZ=    25.9182
   Eigenvalues:    25.4645    26.3296    30.6109
     13  C    Isotropic =    90.7236   Anisotropy =   111.1524
   XX=    52.1774   YX=     5.1955   ZX=     0.9588
   XY=     2.9063   YY=   139.8989   ZY=    46.3990
   XZ=     1.7802   YZ=    45.1380   ZZ=    80.0945
   Eigenvalues:    51.8685    55.4771   164.8252
     14  C    Isotropic =    50.1503   Anisotropy =   189.9564
   XX=   -30.6055   YX=    14.2439   ZX=    -1.5925
   XY=    14.3987   YY=   139.1388   ZY=    71.2349
   XZ=    -0.9857   YZ=    69.5715   ZZ=    41.9175
   Eigenvalues:   -32.9084     6.5713   176.7879
     15  C    Isotropic =    43.7775   Anisotropy =   125.5078
   XX=    32.1741   YX=    15.1948   ZX=   -23.1897
   XY=     8.4734   YY=    99.4456   ZY=    57.6261
   XZ=   -12.7313   YZ=    61.7184   ZZ=    -0.2872
   Eigenvalues:   -34.9407    38.8238   127.4494
     16  C    Isotropic =    40.2060   Anisotropy =   133.6759
   XX=     8.5632   YX=   -13.0328   ZX=    30.9704
   XY=   -13.3721   YY=    94.9470   ZY=    63.5707
   XZ=    25.4523   YZ=    60.5560   ZZ=    17.1078
   Eigenvalues:   -37.9877    29.2824   129.3232
     17  C    Isotropic =    88.3237   Anisotropy =   104.8134
   XX=    78.8334   YX=    14.8591   ZX=   -23.5683
   XY=     8.4666   YY=   129.2872   ZY=    55.9442
   XZ=   -26.0212   YZ=    52.2555   ZZ=    56.8506
   Eigenvalues:    16.0368    90.7351   158.1994
     18  C    Isotropic =    93.3683   Anisotropy =    94.4664
   XX=    73.8532   YX=   -15.6887   ZX=    32.4716
   XY=   -18.7141   YY=   136.3623   ZY=    38.1226
   XZ=    29.6244   YZ=    44.8544   ZZ=    69.8896
   Eigenvalues:    24.5056    99.2535   156.3460
     19  H    Isotropic =    24.9467   Anisotropy =     7.8692
   XX=    29.6299   YX=     1.3012   ZX=    -1.4182
   XY=     1.2481   YY=    21.9156   ZY=    -1.9394
   XZ=    -1.1936   YZ=    -1.2819   ZZ=    23.2947
   Eigenvalues:    20.8380    23.8093    30.1929
     20  H    Isotropic =    25.2103   Anisotropy =     6.8042
   XX=    28.3636   YX=    -0.8289   ZX=     2.1813
   XY=    -0.5649   YY=    21.7237   ZY=    -1.5979
   XZ=     2.0366   YZ=    -1.7790   ZZ=    25.5437
   Eigenvalues:    21.0830    24.8015    29.7465
     21  O    Isotropic =   210.3628   Anisotropy =    74.0749
   XX=   174.1692   YX=    14.2080   ZX=   -19.6257
   XY=    17.8213   YY=   251.4355   ZY=    10.0511
   XZ=   -26.6243   YZ=    30.5495   ZZ=   205.4837
   Eigenvalues:   155.9277   215.4146   259.7461
     22  H    Isotropic =    20.9392   Anisotropy =    30.9874
   XX=    39.0987   YX=    -8.7427   ZX=     2.0332
   XY=    -8.5589   YY=    10.3636   ZY=    -2.5483
   XZ=    -0.2277   YZ=    -3.1857   ZZ=    13.3555
   Eigenvalues:     6.9553    14.2649    41.5975
     23  O    Isotropic =   228.0700   Anisotropy =    55.2047
   XX=   193.1585   YX=    -7.0159   ZX=    17.3476
   XY=   -18.7129   YY=   250.2943   ZY=   -16.5921
   XZ=    30.6853   YZ=    -2.8797   ZZ=   240.7573
   Eigenvalues:   182.1354   237.2015   264.8732
     24  H    Isotropic =    26.4516   Anisotropy =    15.2774
   XX=    29.8257   YX=     1.5560   ZX=    -4.2916
   XY=     2.7650   YY=    20.1889   ZY=    -5.5169
   XZ=    -6.2811   YZ=    -5.3183   ZZ=    29.3402
   Eigenvalues:    17.6660    25.0522    36.6365
     25  O    Isotropic =   285.9285   Anisotropy =    40.0841
   XX=   298.7349   YX=     0.1229   ZX=   -20.5577
   XY=   -14.8521   YY=   280.0739   ZY=    -1.0118
   XZ=   -17.0202   YZ=    11.9958   ZZ=   278.9767
   Eigenvalues:   267.5523   277.5818   312.6512
     26  H    Isotropic =    26.6913   Anisotropy =    18.4165
   XX=    29.8445   YX=    -9.0384   ZX=    -6.4859
   XY=    -7.6873   YY=    20.0342   ZY=     0.0065
   XZ=    -7.6259   YZ=    -0.7113   ZZ=    30.1952
   Eigenvalues:    14.2232    26.8818    38.9690
     27  C    Isotropic =   170.3581   Anisotropy =    40.5290
   XX=   162.0561   YX=    -3.5106   ZX=     4.6046
   XY=    -3.3180   YY=   184.0757   ZY=   -20.5323
   XZ=     3.1296   YZ=   -19.4751   ZZ=   164.9425
   Eigenvalues:   152.1113   161.5855   197.3774
     28  H    Isotropic =    30.6132   Anisotropy =    10.2780
   XX=    33.2236   YX=    -3.5571   ZX=     1.7230
   XY=    -4.8573   YY=    30.9737   ZY=    -2.3784
   XZ=     2.7530   YZ=    -2.1341   ZZ=    27.6423
   Eigenvalues:    26.4996    27.8748    37.4652
     29  H    Isotropic =    30.3492   Anisotropy =     8.9378
   XX=    28.2039   YX=     1.2724   ZX=     1.0929
   XY=     0.9140   YY=    36.0983   ZY=     1.4518
   XZ=     0.4701   YZ=    -0.1294   ZZ=    26.7454
   Eigenvalues:    26.4025    28.3373    36.3078
     30  H    Isotropic =    29.7008   Anisotropy =     7.6294
   XX=    27.3993   YX=    -1.6585   ZX=    -2.6393
   XY=    -1.5156   YY=    29.5129   ZY=    -4.1299
   XZ=    -3.1226   YZ=    -2.5000   ZZ=    32.1901
   Eigenvalues:    24.2994    30.0159    34.7870
     31  O    Isotropic =   248.6162   Anisotropy =    59.9557
   XX=   257.0480   YX=    -7.1695   ZX=   -25.1487
   XY=   -19.9885   YY=   225.5451   ZY=    20.6642
   XZ=   -16.6870   YZ=    12.5216   ZZ=   263.2555
   Eigenvalues:   218.2444   239.0175   288.5867
     32  H    Isotropic =    29.8040   Anisotropy =    17.0161
   XX=    39.4351   YX=    -4.9956   ZX=    -0.9997
   XY=    -5.1231   YY=    23.5968   ZY=     0.8735
   XZ=    -2.3414   YZ=     0.9658   ZZ=    26.3800
   Eigenvalues:    22.0770    26.1869    41.1480
     33  H    Isotropic =    29.7482   Anisotropy =     9.2066
   XX=    29.9562   YX=     2.2153   ZX=     2.5869
   XY=     2.5031   YY=    30.2229   ZY=     3.9098
   XZ=     3.6288   YZ=     3.5221   ZZ=    29.0655
   Eigenvalues:    25.6086    27.7502    35.8859
     34  C    Isotropic =    44.0409   Anisotropy =   178.3810
   XX=    69.8432   YX=     1.0662   ZX=    70.0333
   XY=    -0.1391   YY=    -5.5096   ZY=    80.7366
   XZ=    72.7706   YZ=    83.5968   ZZ=    67.7893
   Eigenvalues:   -70.9686    40.1298   162.9616
     35  C    Isotropic =    83.9289   Anisotropy =   101.2173
   XX=   115.7544   YX=   -17.0854   ZX=    32.3946
   XY=   -11.6491   YY=    41.9824   ZY=    64.7165
   XZ=    39.8548   YZ=    57.1533   ZZ=    94.0500
   Eigenvalues:    -6.7917   107.1713   151.4071
     36  H    Isotropic =    26.6009   Anisotropy =     5.6934
   XX=    27.9348   YX=    -3.6090   ZX=     0.1940
   XY=    -0.4567   YY=    28.0185   ZY=     1.6478
   XZ=    -0.2874   YZ=     2.5540   ZZ=    23.8492
   Eigenvalues:    22.8527    26.5534    30.3965
     37  H    Isotropic =    27.4199   Anisotropy =     8.0191
   XX=    27.8989   YX=    -0.9540   ZX=    -1.4718
   XY=    -1.9567   YY=    28.1192   ZY=     5.3016
   XZ=    -0.6759   YZ=     4.3479   ZZ=    26.2415
   Eigenvalues:    22.2633    27.2303    32.7659
     38  C    Isotropic =   173.9125   Anisotropy =    29.3351
   XX=   174.6845   YX=     6.5382   ZX=   -13.3032
   XY=     6.7343   YY=   174.2916   ZY=   -10.0081
   XZ=   -13.5114   YZ=    -7.9049   ZZ=   172.7613
   Eigenvalues:   159.8683   168.3999   193.4692
     39  H    Isotropic =    29.6130   Anisotropy =     7.4345
   XX=    33.1132   YX=     1.7166   ZX=     1.3836
   XY=     3.0995   YY=    30.4265   ZY=    -1.3170
   XZ=     1.3302   YZ=    -0.9038   ZZ=    25.2993
   Eigenvalues:    24.6429    29.6267    34.5693
     40  H    Isotropic =    29.8420   Anisotropy =     9.0106
   XX=    27.7458   YX=     0.0441   ZX=    -1.0416
   XY=    -1.2385   YY=    34.9087   ZY=    -2.5042
   XZ=    -0.2258   YZ=    -3.2469   ZZ=    26.8714
   Eigenvalues:    25.6517    28.0252    35.8490
     41  H    Isotropic =    28.7262   Anisotropy =     5.8111
   XX=    24.5208   YX=    -0.0343   ZX=    -1.2563
   XY=     1.3285   YY=    31.5615   ZY=     1.1407
   XZ=    -1.6901   YZ=     2.0659   ZZ=    30.0963
   Eigenvalues:    24.0136    29.5648    32.6003
     42  C    Isotropic =   163.8313   Anisotropy =    29.4399
   XX=   183.1391   YX=    -6.9373   ZX=    -0.6127
   XY=     6.2634   YY=   152.1393   ZY=    -2.1785
   XZ=     6.3865   YZ=    -3.4056   ZZ=   156.2156
   Eigenvalues:   150.6883   157.3478   183.4579
     43  H    Isotropic =    29.2791   Anisotropy =     7.1034
   XX=    30.6788   YX=    -0.2927   ZX=    -2.6268
   XY=    -1.8430   YY=    25.5091   ZY=     2.1716
   XZ=    -1.7833   YZ=     1.8612   ZZ=    31.6493
   Eigenvalues:    24.8756    28.9470    34.0147
     44  H    Isotropic =    29.1975   Anisotropy =     7.0379
   XX=    29.9104   YX=    -1.5152   ZX=     1.8107
   XY=    -1.7844   YY=    31.8288   ZY=    -3.1477
   XZ=     0.1586   YZ=    -2.5865   ZZ=    25.8534
   Eigenvalues:    24.6818    29.0214    33.8895
     45  C    Isotropic =   177.5998   Anisotropy =    29.4605
   XX=   181.4088   YX=     5.7863   ZX=     4.6542
   XY=    16.4102   YY=   180.6357   ZY=     9.9895
   XZ=    10.0810   YZ=     8.2083   ZZ=   170.7549
   Eigenvalues:   165.2848   170.2744   197.2401
     46  H    Isotropic =    30.2951   Anisotropy =    11.9897
   XX=    37.2785   YX=     1.1495   ZX=     1.9100
   XY=     3.1511   YY=    26.8454   ZY=     1.1304
   XZ=     3.0313   YZ=     0.6137   ZZ=    26.7613
   Eigenvalues:    25.9128    26.6842    38.2882
     47  H    Isotropic =    30.5854   Anisotropy =     7.5697
   XX=    28.7878   YX=     1.5660   ZX=     1.2380
   XY=     2.5583   YY=    34.5075   ZY=    -3.0299
   XZ=     1.8256   YZ=    -1.5999   ZZ=    28.4610
   Eigenvalues:    25.9595    30.1649    35.6319
     48  H    Isotropic =    30.5939   Anisotropy =     7.3449
   XX=    29.2732   YX=     1.5126   ZX=    -0.3616
   XY=     2.1302   YY=    27.9168   ZY=     3.2997
   XZ=    -0.1389   YZ=     1.8494   ZZ=    34.5918
   Eigenvalues:    26.0307    30.2606    35.4905
 End of Minotr Frequency-dependent properties file   721 does not exist.
 End of Minotr Frequency-dependent properties file   722 does not exist.

 **********************************************************************

            Population analysis using the SCF density.

 **********************************************************************

 Orbital symmetries:
       Occupied  (A) (A) (A) (A) (A) (A) (A) (A) (A) (A) (A) (A)
                 (A) (A) (A) (A) (A) (A) (A) (A) (A) (A) (A) (A)
                 (A) (A) (A) (A) (A) (A) (A) (A) (A) (A) (A) (A)
                 (A) (A) (A) (A) (A) (A) (A) (A) (A) (A) (A) (A)
                 (A) (A) (A) (A) (A) (A) (A) (A) (A) (A) (A) (A)
                 (A) (A) (A) (A) (A) (A) (A) (A) (A) (A) (A) (A)
                 (A) (A) (A) (A) (A) (A) (A) (A) (A) (A) (A)
       Virtual   (A) (A) (A) (A) (A) (A) (A) (A) (A) (A) (A) (A)
                 (A) (A) (A) (A) (A) (A) (A) (A) (A) (A) (A) (A)
                 (A) (A) (A) (A) (A) (A) (A) (A) (A) (A) (A) (A)
                 (A) (A) (A) (A) (A) (A) (A) (A) (A) (A) (A) (A)
                 (A) (A) (A) (A) (A) (A) (A) (A) (A) (A) (A) (A)
                 (A) (A) (A) (A) (A) (A) (A) (A) (A) (A) (A) (A)
                 (A) (A) (A) (A) (A) (A) (A) (A) (A) (A) (A) (A)
                 (A) (A) (A) (A) (A) (A) (A) (A) (A) (A) (A) (A)
                 (A) (A) (A) (A) (A) (A) (A) (A) (A) (A) (A) (A)
                 (A) (A) (A) (A) (A) (A) (A) (A) (A) (A) (A) (A)
                 (A) (A) (A) (A) (A) (A) (A) (A) (A) (A) (A) (A)
                 (A) (A) (A) (A) (A) (A) (A) (A) (A) (A) (A) (A)
                 (A) (A) (A) (A) (A) (A) (A) (A) (A) (A) (A) (A)
                 (A) (A) (A) (A) (A) (A) (A) (A) (A) (A) (A) (A)
                 (A) (A) (A) (A) (A) (A) (A) (A) (A) (A) (A) (A)
                 (A) (A) (A) (A) (A) (A) (A) (A) (A) (A) (A) (A)
                 (A) (A) (A) (A) (A) (A) (A) (A) (A) (A) (A) (A)
                 (A) (A) (A) (A) (A) (A) (A) (A) (A) (A) (A) (A)
                 (A) (A) (A) (A) (A) (A) (A) (A) (A) (A) (A) (A)
                 (A) (A) (A) (A) (A) (A) (A) (A) (A) (A) (A) (A)
                 (A) (A) (A) (A) (A) (A) (A) (A) (A) (A) (A) (A)
                 (A) (A) (A) (A) (A) (A) (A) (A) (A) (A) (A) (A)
                 (A) (A) (A) (A) (A) (A) (A) (A) (A) (A) (A) (A)
                 (A) (A) (A) (A) (A) (A) (A) (A) (A) (A) (A) (A)
                 (A) (A) (A) (A) (A) (A) (A) (A) (A) (A) (A) (A)
                 (A) (A) (A) (A) (A) (A) (A) (A) (A) (A) (A) (A)
                 (A) (A) (A) (A) (A) (A) (A) (A) (A) (A) (A) (A)
                 (A) (A) (A) (A) (A) (A) (A) (A) (A) (A) (A) (A)
                 (A) (A) (A) (A) (A) (A) (A) (A) (A) (A) (A) (A)
                 (A) (A) (A) (A) (A) (A) (A) (A) (A) (A) (A) (A)
                 (A) (A) (A) (A) (A) (A) (A) (A) (A) (A) (A) (A)
                 (A) (A) (A) (A) (A) (A) (A) (A) (A) (A) (A) (A)
                 (A) (A) (A) (A) (A) (A) (A) (A) (A) (A) (A) (A)
                 (A) (A) (A) (A) (A) (A) (A) (A) (A) (A) (A) (A)
                 (A) (A) (A) (A) (A) (A) (A) (A) (A) (A) (A) (A)
                 (A) (A) (A) (A) (A) (A) (A) (A) (A) (A) (A) (A)
                 (A) (A) (A) (A) (A) (A) (A) (A) (A) (A) (A) (A)
                 (A) (A) (A) (A) (A) (A) (A) (A) (A) (A) (A) (A)
                 (A) (A) (A) (A) (A) (A) (A)
 The electronic state is 1-A.
 Alpha  occ. eigenvalues --  -19.28352 -19.26971 -19.26422 -19.25552 -10.32156
 Alpha  occ. eigenvalues --  -10.32096 -10.31672 -10.31460 -10.27530 -10.26385
 Alpha  occ. eigenvalues --  -10.26377 -10.26278 -10.26247 -10.24933 -10.24845
 Alpha  occ. eigenvalues --  -10.24577 -10.24452 -10.24390 -10.23838 -10.23663
 Alpha  occ. eigenvalues --  -10.23430 -10.23418  -1.09826  -1.09456  -1.07526
 Alpha  occ. eigenvalues --   -1.05548  -0.88666  -0.86906  -0.82281  -0.82047
 Alpha  occ. eigenvalues --   -0.78500  -0.77192  -0.75746  -0.73932  -0.71481
 Alpha  occ. eigenvalues --   -0.69988  -0.67260  -0.64573  -0.63803  -0.63644
 Alpha  occ. eigenvalues --   -0.61287  -0.59664  -0.56247  -0.54389  -0.53393
 Alpha  occ. eigenvalues --   -0.52533  -0.51304  -0.50864  -0.50522  -0.48457
 Alpha  occ. eigenvalues --   -0.47884  -0.46317  -0.45674  -0.45384  -0.44957
 Alpha  occ. eigenvalues --   -0.44153  -0.43693  -0.43079  -0.42691  -0.41963
 Alpha  occ. eigenvalues --   -0.41617  -0.40825  -0.40731  -0.40234  -0.39663
 Alpha  occ. eigenvalues --   -0.39107  -0.38842  -0.38183  -0.37804  -0.37374
 Alpha  occ. eigenvalues --   -0.35810  -0.35517  -0.35202  -0.34795  -0.33952
 Alpha  occ. eigenvalues --   -0.32649  -0.32342  -0.31962  -0.31069  -0.29519
 Alpha  occ. eigenvalues --   -0.25755  -0.24154  -0.22731
 Alpha virt. eigenvalues --   -0.00491  -0.00090   0.00306   0.00998   0.01152
 Alpha virt. eigenvalues --    0.01761   0.02206   0.02776   0.02901   0.03106
 Alpha virt. eigenvalues --    0.03969   0.04268   0.04456   0.04714   0.05157
 Alpha virt. eigenvalues --    0.05988   0.06172   0.06801   0.06951   0.07424
 Alpha virt. eigenvalues --    0.07622   0.08437   0.08484   0.09069   0.09571
 Alpha virt. eigenvalues --    0.09683   0.10094   0.10118   0.10632   0.10983
 Alpha virt. eigenvalues --    0.11141   0.11961   0.12594   0.12662   0.12796
 Alpha virt. eigenvalues --    0.13146   0.13572   0.13693   0.14322   0.14715
 Alpha virt. eigenvalues --    0.14891   0.14970   0.15196   0.15775   0.16156
 Alpha virt. eigenvalues --    0.16453   0.16671   0.17478   0.17518   0.17871
 Alpha virt. eigenvalues --    0.18323   0.18526   0.18708   0.19006   0.19210
 Alpha virt. eigenvalues --    0.19605   0.19747   0.20053   0.20442   0.20934
 Alpha virt. eigenvalues --    0.21177   0.21290   0.21683   0.21967   0.22290
 Alpha virt. eigenvalues --    0.22589   0.22860   0.23211   0.23260   0.23651
 Alpha virt. eigenvalues --    0.23906   0.24274   0.24355   0.24890   0.24974
 Alpha virt. eigenvalues --    0.25242   0.25537   0.25670   0.26100   0.26488
 Alpha virt. eigenvalues --    0.27060   0.27361   0.27474   0.27913   0.28039
 Alpha virt. eigenvalues --    0.28287   0.28661   0.29003   0.29565   0.29762
 Alpha virt. eigenvalues --    0.29867   0.30220   0.30594   0.31290   0.31455
 Alpha virt. eigenvalues --    0.31692   0.31881   0.32104   0.32517   0.33332
 Alpha virt. eigenvalues --    0.33633   0.34110   0.34680   0.34943   0.35442
 Alpha virt. eigenvalues --    0.35949   0.36157   0.36404   0.37063   0.37676
 Alpha virt. eigenvalues --    0.37775   0.38011   0.38441   0.39156   0.39532
 Alpha virt. eigenvalues --    0.39717   0.40577   0.40948   0.41810   0.42303
 Alpha virt. eigenvalues --    0.43015   0.43082   0.43995   0.45030   0.45769
 Alpha virt. eigenvalues --    0.46793   0.46905   0.47656   0.47971   0.48805
 Alpha virt. eigenvalues --    0.48997   0.49593   0.51418   0.52124   0.53143
 Alpha virt. eigenvalues --    0.54153   0.56326   0.60551   0.63656   0.65832
 Alpha virt. eigenvalues --    0.67559   0.68126   0.69318   0.69949   0.70948
 Alpha virt. eigenvalues --    0.71258   0.72526   0.72972   0.73215   0.74160
 Alpha virt. eigenvalues --    0.74622   0.74975   0.75311   0.75816   0.76262
 Alpha virt. eigenvalues --    0.76953   0.77693   0.78382   0.78730   0.79247
 Alpha virt. eigenvalues --    0.80371   0.81537   0.81665   0.82208   0.82962
 Alpha virt. eigenvalues --    0.83973   0.85013   0.86666   0.87110   0.87450
 Alpha virt. eigenvalues --    0.88324   0.88519   0.88969   0.90099   0.90896
 Alpha virt. eigenvalues --    0.91397   0.92838   0.93090   0.94475   0.95296
 Alpha virt. eigenvalues --    0.95866   0.96532   0.97823   0.98467   0.99341
 Alpha virt. eigenvalues --    0.99926   1.00524   1.01695   1.01866   1.03044
 Alpha virt. eigenvalues --    1.04589   1.04844   1.06189   1.06655   1.08386
 Alpha virt. eigenvalues --    1.09528   1.10470   1.10979   1.11381   1.12303
 Alpha virt. eigenvalues --    1.13110   1.13385   1.14358   1.14616   1.14962
 Alpha virt. eigenvalues --    1.15487   1.16519   1.16852   1.18050   1.18567
 Alpha virt. eigenvalues --    1.19126   1.19633   1.19986   1.20846   1.21632
 Alpha virt. eigenvalues --    1.22793   1.24556   1.24884   1.25218   1.27359
 Alpha virt. eigenvalues --    1.27511   1.28100   1.29247   1.30018   1.31672
 Alpha virt. eigenvalues --    1.32059   1.32475   1.33421   1.34218   1.34756
 Alpha virt. eigenvalues --    1.35397   1.36557   1.37186   1.37695   1.37782
 Alpha virt. eigenvalues --    1.40056   1.40533   1.40719   1.41691   1.43049
 Alpha virt. eigenvalues --    1.43991   1.44619   1.45813   1.47437   1.49098
 Alpha virt. eigenvalues --    1.50002   1.50490   1.50682   1.53606   1.54900
 Alpha virt. eigenvalues --    1.55416   1.58618   1.59638   1.60340   1.61473
 Alpha virt. eigenvalues --    1.62012   1.62936   1.64015   1.64921   1.66829
 Alpha virt. eigenvalues --    1.67756   1.68089   1.69709   1.71987   1.72348
 Alpha virt. eigenvalues --    1.75182   1.76528   1.77285   1.78217   1.79408
 Alpha virt. eigenvalues --    1.79757   1.80747   1.82358   1.83187   1.84904
 Alpha virt. eigenvalues --    1.85083   1.85914   1.86435   1.87321   1.87768
 Alpha virt. eigenvalues --    1.88927   1.89824   1.90341   1.91550   1.92129
 Alpha virt. eigenvalues --    1.92639   1.93203   1.94072   1.94860   1.95812
 Alpha virt. eigenvalues --    1.96279   1.97378   1.97685   1.98588   2.00122
 Alpha virt. eigenvalues --    2.00474   2.01590   2.03699   2.05604   2.05720
 Alpha virt. eigenvalues --    2.06848   2.07054   2.07534   2.08286   2.08939
 Alpha virt. eigenvalues --    2.10033   2.11047   2.11190   2.12430   2.12647
 Alpha virt. eigenvalues --    2.13624   2.14535   2.15268   2.15795   2.16291
 Alpha virt. eigenvalues --    2.18279   2.18839   2.19402   2.20033   2.20326
 Alpha virt. eigenvalues --    2.21327   2.22896   2.24867   2.25748   2.26089
 Alpha virt. eigenvalues --    2.27007   2.27956   2.28848   2.29285   2.30975
 Alpha virt. eigenvalues --    2.31521   2.31818   2.32890   2.34165   2.35137
 Alpha virt. eigenvalues --    2.36040   2.37023   2.37990   2.39215   2.40480
 Alpha virt. eigenvalues --    2.40702   2.41494   2.43714   2.45602   2.45815
 Alpha virt. eigenvalues --    2.47310   2.48457   2.49178   2.51025   2.52127
 Alpha virt. eigenvalues --    2.52487   2.53256   2.54735   2.54924   2.55839
 Alpha virt. eigenvalues --    2.56851   2.56919   2.57863   2.58867   2.59471
 Alpha virt. eigenvalues --    2.60092   2.61086   2.61351   2.63308   2.64825
 Alpha virt. eigenvalues --    2.65622   2.66451   2.67426   2.68283   2.68711
 Alpha virt. eigenvalues --    2.70045   2.70600   2.71338   2.72564   2.72910
 Alpha virt. eigenvalues --    2.73564   2.74149   2.76148   2.76875   2.77204
 Alpha virt. eigenvalues --    2.78460   2.79218   2.79531   2.80606   2.83086
 Alpha virt. eigenvalues --    2.83793   2.84057   2.84774   2.85207   2.87158
 Alpha virt. eigenvalues --    2.88349   2.88933   2.89947   2.90734   2.91747
 Alpha virt. eigenvalues --    2.92498   2.93398   2.94232   2.94962   2.95846
 Alpha virt. eigenvalues --    2.97216   2.97994   3.00675   3.01121   3.03988
 Alpha virt. eigenvalues --    3.07806   3.09305   3.09776   3.11067   3.14882
 Alpha virt. eigenvalues --    3.18593   3.21508   3.25761   3.29145   3.29496
 Alpha virt. eigenvalues --    3.30824   3.31781   3.36240   3.37759   3.39405
 Alpha virt. eigenvalues --    3.41874   3.42681   3.45522   3.47855   3.49566
 Alpha virt. eigenvalues --    3.50662   3.51018   3.51430   3.51755   3.53016
 Alpha virt. eigenvalues --    3.54291   3.55220   3.56599   3.57379   3.58854
 Alpha virt. eigenvalues --    3.58856   3.59944   3.62407   3.65128   3.74537
 Alpha virt. eigenvalues --    3.94571   4.37201   4.37562   4.42209   4.46693
 Alpha virt. eigenvalues --    4.48205   4.51298   4.53106   4.54929   4.57298
 Alpha virt. eigenvalues --    4.61371   4.63841   4.65188   4.66945   4.71436
 Alpha virt. eigenvalues --    4.74080   4.75418   4.78544   4.85263   4.94032
 Alpha virt. eigenvalues --    4.97597   4.99946   5.08621
          Condensed to atoms (all electrons):
              1          2          3          4          5          6
     1  C   10.742955  -1.332546  -0.046502  -0.024609  -0.490071   0.047725
     2  C   -1.332546   7.072616   0.388742   0.427862   0.128713  -0.076378
     3  H   -0.046502   0.388742   0.538794  -0.031000  -0.065997  -0.005254
     4  H   -0.024609   0.427862  -0.031000   0.518444  -0.079490   0.004615
     5  C   -0.490071   0.128713  -0.065997  -0.079490   7.393726   0.382960
     6  H    0.047725  -0.076378  -0.005254   0.004615   0.382960   0.529857
     7  C    1.747921  -0.558276   0.077861   0.080133  -2.048425   0.031136
     8  H   -0.028192   0.032419  -0.000149  -0.000108   0.021166  -0.007365
     9  C   -1.039702   0.405738  -0.042645  -0.016051   0.359019  -0.009591
    10  H    0.108122  -0.026317  -0.000051   0.000149  -0.068298   0.002617
    11  C   -2.110480   0.135138   0.040649  -0.049245   0.670917  -0.074430
    12  H   -0.027873   0.005483  -0.000089  -0.000097  -0.016870  -0.000040
    13  C    0.115694  -0.211869   0.000545  -0.004446  -0.158162  -0.009791
    14  C   -0.073703  -0.002293   0.000017  -0.000222   0.009993   0.000042
    15  C    0.249454  -0.153413  -0.000709   0.004589  -0.555982   0.036719
    16  C   -0.957535   0.192557   0.000104  -0.008775   0.452096  -0.013649
    17  C   -0.140269  -0.004646   0.000197  -0.000892  -0.034677  -0.000677
    18  C   -0.027941   0.010635  -0.000221   0.000463  -0.055543   0.005028
    19  H   -0.000138  -0.000015   0.000000   0.000000  -0.000027   0.000000
    20  H   -0.000016  -0.000005   0.000000   0.000000  -0.000014   0.000000
    21  O    0.055006  -0.004364  -0.000012   0.000125   0.002524  -0.000003
    22  H   -0.020545   0.002544   0.000002  -0.000034   0.002396  -0.000002
    23  O   -0.005681   0.004540   0.000000  -0.000002   0.000454  -0.000146
    24  H    0.000859   0.000004   0.000000   0.000000   0.000824   0.000001
    25  O    0.213076   0.004026  -0.000626   0.002343  -0.171917   0.000320
    26  H   -0.017823  -0.021193  -0.000026   0.000518   0.015267  -0.000003
    27  C   -0.644596  -0.039841  -0.020117   0.008515   0.155126  -0.005794
    28  H   -0.051233  -0.009404   0.002768   0.000061   0.018091   0.000085
    29  H   -0.122788   0.028655   0.000076  -0.000136  -0.000266  -0.000044
    30  H   -0.118184   0.021658   0.000262  -0.000004  -0.028998  -0.000403
    31  O    0.258919  -0.135780  -0.007935  -0.005119   0.032037  -0.000405
    32  H    0.060232  -0.058031   0.003384  -0.000922   0.005897  -0.000003
    33  H    0.026066  -0.017310  -0.001827  -0.004217   0.445222  -0.025651
    34  C   -0.377237   0.224804  -0.006996  -0.012408   0.510451   0.003886
    35  C    0.228834  -0.173913   0.000379   0.007744  -0.326383   0.000417
    36  H    0.001145  -0.000525   0.000000   0.000001  -0.006790   0.000003
    37  H    0.000779  -0.002351   0.000000  -0.000001   0.001161  -0.000005
    38  C   -0.101356   0.016627   0.003248  -0.003413  -0.055336   0.005962
    39  H    0.001235   0.005898   0.000058  -0.000696  -0.018425   0.000029
    40  H    0.001197  -0.003458  -0.000002   0.000134  -0.002011   0.000001
    41  H   -0.028592   0.015189   0.000066  -0.001034   0.012911  -0.000030
    42  C   -0.014097  -0.000250   0.000001  -0.000006   0.008597  -0.000004
    43  H    0.000003  -0.000001   0.000000   0.000000   0.000020   0.000000
    44  H    0.000001  -0.000001   0.000000   0.000000   0.000002   0.000000
    45  C    0.000447  -0.000020   0.000000   0.000000  -0.000164   0.000000
    46  H    0.000000   0.000000   0.000000   0.000000   0.000000   0.000000
    47  H   -0.000009   0.000000   0.000000   0.000000   0.000000   0.000000
    48  H    0.000004  -0.000001   0.000000   0.000000   0.000003   0.000000
              7          8          9         10         11         12
     1  C    1.747921  -0.028192  -1.039702   0.108122  -2.110480  -0.027873
     2  C   -0.558276   0.032419   0.405738  -0.026317   0.135138   0.005483
     3  H    0.077861  -0.000149  -0.042645  -0.000051   0.040649  -0.000089
     4  H    0.080133  -0.000108  -0.016051   0.000149  -0.049245  -0.000097
     5  C   -2.048425   0.021166   0.359019  -0.068298   0.670917  -0.016870
     6  H    0.031136  -0.007365  -0.009591   0.002617  -0.074430  -0.000040
     7  C   15.258205  -0.012992  -2.270177   0.145481  -3.095829   0.036577
     8  H   -0.012992   0.562232   0.182800  -0.009593   0.085828  -0.000134
     9  C   -2.270177   0.182800  13.120774   0.232035  -1.562395  -0.054220
    10  H    0.145481  -0.009593   0.232035   0.556323  -0.258114  -0.003757
    11  C   -3.095829   0.085828  -1.562395  -0.258114  14.376120   0.196952
    12  H    0.036577  -0.000134  -0.054220  -0.003757   0.196952   0.581478
    13  C    0.439539   0.060039   2.872668  -0.209478  -1.390465  -0.045399
    14  C   -0.196210  -0.010987  -0.686689   0.011014  -0.124429   0.015034
    15  C    1.887708  -0.103302  -2.274477   0.475136  -2.253434  -0.036287
    16  C   -3.246322   0.015023  -0.715268  -0.234640   2.357335   0.218436
    17  C   -0.009021  -0.020366  -1.953599   0.005207  -0.253411   0.036602
    18  C   -0.249938   0.020465  -0.904465   0.099545   0.000758  -0.007555
    19  H   -0.000356   0.000000   0.004462   0.000002  -0.004157   0.000000
    20  H   -0.000935   0.000003   0.002972  -0.000009   0.000762   0.000000
    21  O    0.090155   0.000321   0.188854   0.000085   0.022251  -0.003521
    22  H   -0.044878  -0.000029  -0.022078  -0.000113   0.069421  -0.000240
    23  O   -0.059817   0.000693  -0.026482  -0.002843   0.001722  -0.001034
    24  H   -0.002178  -0.000069   0.045918   0.000036   0.001610  -0.000002
    25  O    0.259666  -0.001149  -0.115444   0.010117  -0.294447  -0.037138
    26  H   -0.023528   0.000011   0.021388  -0.000307   0.044658  -0.004957
    27  C   -0.618756   0.008965   0.399887  -0.018417  -0.143610  -0.001862
    28  H   -0.009838   0.000000  -0.004716  -0.000005   0.009540  -0.000070
    29  H   -0.006105   0.000000   0.011959  -0.000066   0.008461   0.003837
    30  H    0.022631  -0.000040   0.035830  -0.000548  -0.023000  -0.000027
    31  O    0.006665   0.000135  -0.081694  -0.000691   0.106459   0.000427
    32  H   -0.003668   0.000000   0.006566  -0.000005   0.026818  -0.000258
    33  H   -0.144409  -0.001252   0.019106  -0.000037  -0.008142   0.000013
    34  C   -2.213363   0.029085  -0.183893  -0.013069  -0.057787  -0.015887
    35  C    0.537859   0.023436   0.194541   0.009064   0.116940  -0.000046
    36  H    0.027111   0.000362   0.011626   0.000003   0.000822   0.000000
    37  H   -0.009041   0.002981   0.049496  -0.000073   0.000190   0.000001
    38  C    0.195508  -0.024348  -0.260541   0.007939  -0.236192  -0.003143
    39  H    0.012394  -0.000034  -0.015138   0.000001   0.005786   0.000001
    40  H    0.019769  -0.000109  -0.001424   0.000002  -0.007072   0.000000
    41  H    0.018151  -0.000141  -0.010746  -0.000028   0.020945   0.000004
    42  C   -0.003692  -0.001239  -0.173745  -0.000193  -0.051339   0.000918
    43  H    0.000281   0.000000   0.001437   0.000000   0.000123   0.000000
    44  H   -0.000047   0.000000  -0.000523   0.000000  -0.000187   0.000000
    45  C   -0.000979   0.000003   0.002760   0.000000   0.000338   0.000001
    46  H    0.000005   0.000000   0.000043   0.000000   0.000010   0.000000
    47  H   -0.000042   0.000000  -0.000467   0.000000  -0.000200   0.000000
    48  H    0.000024   0.000000   0.000326   0.000000   0.000165   0.000000
             13         14         15         16         17         18
     1  C    0.115694  -0.073703   0.249454  -0.957535  -0.140269  -0.027941
     2  C   -0.211869  -0.002293  -0.153413   0.192557  -0.004646   0.010635
     3  H    0.000545   0.000017  -0.000709   0.000104   0.000197  -0.000221
     4  H   -0.004446  -0.000222   0.004589  -0.008775  -0.000892   0.000463
     5  C   -0.158162   0.009993  -0.555982   0.452096  -0.034677  -0.055543
     6  H   -0.009791   0.000042   0.036719  -0.013649  -0.000677   0.005028
     7  C    0.439539  -0.196210   1.887708  -3.246322  -0.009021  -0.249938
     8  H    0.060039  -0.010987  -0.103302   0.015023  -0.020366   0.020465
     9  C    2.872668  -0.686689  -2.274477  -0.715268  -1.953599  -0.904465
    10  H   -0.209478   0.011014   0.475136  -0.234640   0.005207   0.099545
    11  C   -1.390465  -0.124429  -2.253434   2.357335  -0.253411   0.000758
    12  H   -0.045399   0.015034  -0.036287   0.218436   0.036602  -0.007555
    13  C   25.282188  -2.821229  -1.359174  -7.060520  -6.817191  -2.183304
    14  C   -2.821229  10.450715  -0.654773   0.106393   1.791044   0.328998
    15  C   -1.359174  -0.654773  19.912508 -10.823570   2.843164  -2.051667
    16  C   -7.060520   0.106393 -10.823570  27.808486  -1.734739   1.194778
    17  C   -6.817191   1.791044   2.843164  -1.734739  15.873573  -3.702278
    18  C   -2.183304   0.328998  -2.051667   1.194778  -3.702278  13.353179
    19  H    0.054330   0.052945  -0.031614   0.022620   0.189942   0.053560
    20  H    0.041110   0.094961   0.065680  -0.059912   0.064939   0.133475
    21  O    0.323279  -0.015154  -0.005227  -0.217627  -0.451865   0.074075
    22  H   -0.208387   0.000672  -0.023841   0.180019   0.085907  -0.011148
    23  O   -0.220722   0.028454   0.250948  -0.067435   0.011860   0.078877
    24  H    0.171518  -0.005759  -0.020291   0.011368  -0.015932  -0.182447
    25  O    0.088464   0.000402   0.043051  -0.006244   0.040365  -0.007698
    26  H   -0.007910  -0.000753  -0.007741  -0.008264  -0.004309  -0.000168
    27  C    0.126682   0.006315  -0.030581   0.138750  -0.017339   0.034867
    28  H    0.000136  -0.000004  -0.001734  -0.000322   0.000052  -0.000265
    29  H    0.004892   0.000063  -0.012095   0.009224   0.000408  -0.001187
    30  H    0.003717   0.000280   0.018956   0.001977  -0.000595   0.004944
    31  O    0.008388  -0.000464   0.003578  -0.010148  -0.003716   0.001609
    32  H    0.001275   0.000000   0.000380  -0.000561  -0.000024   0.000001
    33  H    0.010242   0.000356  -0.007142   0.007232   0.000648  -0.001071
    34  C   -0.588105  -0.090744  -0.514191   0.775133   0.100165   0.056097
    35  C    0.209179   0.060616   0.134412  -0.109107   0.050573  -0.011561
    36  H    0.018295  -0.003814   0.004718  -0.003526  -0.014969   0.004548
    37  H   -0.010035   0.013194  -0.034668   0.065433  -0.007813  -0.004088
    38  C    0.250777  -0.051703   0.181420  -0.590896  -0.153534   0.029030
    39  H    0.001554   0.000328   0.001450   0.011078   0.003405  -0.000435
    40  H   -0.000421   0.000746   0.001114   0.007745   0.000376   0.000246
    41  H    0.000192  -0.001909  -0.001244  -0.039661  -0.012850   0.000987
    42  C   -1.719877  -1.935001   0.708633  -0.888747   0.947451   0.060346
    43  H   -0.001984  -0.265849   0.041761  -0.013902  -0.143748   0.204861
    44  H   -0.002576  -0.298444  -0.009466   0.010425   0.252791  -0.151983
    45  C    0.032312   0.027741   0.015295   0.021647   0.019049  -0.024957
    46  H    0.000691   0.011164   0.002921  -0.000343   0.008915   0.005253
    47  H   -0.008666  -0.051187   0.003589  -0.009848   0.043172  -0.045641
    48  H   -0.002594  -0.028890  -0.002235   0.000121  -0.050047   0.042199
             19         20         21         22         23         24
     1  C   -0.000138  -0.000016   0.055006  -0.020545  -0.005681   0.000859
     2  C   -0.000015  -0.000005  -0.004364   0.002544   0.004540   0.000004
     3  H    0.000000   0.000000  -0.000012   0.000002   0.000000   0.000000
     4  H    0.000000   0.000000   0.000125  -0.000034  -0.000002   0.000000
     5  C   -0.000027  -0.000014   0.002524   0.002396   0.000454   0.000824
     6  H    0.000000   0.000000  -0.000003  -0.000002  -0.000146   0.000001
     7  C   -0.000356  -0.000935   0.090155  -0.044878  -0.059817  -0.002178
     8  H    0.000000   0.000003   0.000321  -0.000029   0.000693  -0.000069
     9  C    0.004462   0.002972   0.188854  -0.022078  -0.026482   0.045918
    10  H    0.000002  -0.000009   0.000085  -0.000113  -0.002843   0.000036
    11  C   -0.004157   0.000762   0.022251   0.069421   0.001722   0.001610
    12  H    0.000000   0.000000  -0.003521  -0.000240  -0.001034  -0.000002
    13  C    0.054330   0.041110   0.323279  -0.208387  -0.220722   0.171518
    14  C    0.052945   0.094961  -0.015154   0.000672   0.028454  -0.005759
    15  C   -0.031614   0.065680  -0.005227  -0.023841   0.250948  -0.020291
    16  C    0.022620  -0.059912  -0.217627   0.180019  -0.067435   0.011368
    17  C    0.189942   0.064939  -0.451865   0.085907   0.011860  -0.015932
    18  C    0.053560   0.133475   0.074075  -0.011148   0.078877  -0.182447
    19  H    0.519243  -0.000144  -0.007059   0.000165   0.000105  -0.000001
    20  H   -0.000144   0.523764   0.000139   0.000000  -0.018383   0.008076
    21  O   -0.007059   0.000139   8.436540   0.156938  -0.000065   0.000059
    22  H    0.000165   0.000000   0.156938   0.300494  -0.000164   0.000000
    23  O    0.000105  -0.018383  -0.000065  -0.000164   8.301800   0.206537
    24  H   -0.000001   0.008076   0.000059   0.000000   0.206537   0.359793
    25  O    0.000024   0.000002   0.009322   0.019123  -0.001236  -0.000002
    26  H    0.000000   0.000000   0.002643   0.001447  -0.000002   0.000000
    27  C    0.000021   0.000022  -0.001052   0.001624  -0.002708   0.000063
    28  H    0.000000   0.000000  -0.000002   0.000000   0.000023   0.000000
    29  H    0.000000   0.000000  -0.000001  -0.000001  -0.000071   0.000000
    30  H    0.000000   0.000000   0.000002   0.000002  -0.000050   0.000002
    31  O    0.000000   0.000000   0.000721  -0.000125   0.000179   0.000000
    32  H    0.000000   0.000000  -0.000005   0.000001   0.000002   0.000000
    33  H    0.000000   0.000000   0.000006  -0.000004  -0.000027   0.000000
    34  C   -0.001964  -0.000321  -0.057973   0.036877   0.057550   0.004558
    35  C    0.002384   0.000185  -0.019912  -0.010759  -0.023550  -0.001345
    36  H    0.000000   0.000000   0.000371  -0.000035  -0.000042   0.000000
    37  H   -0.000001  -0.000001  -0.000164  -0.000014  -0.000016  -0.000002
    38  C    0.000114  -0.000022   0.008233  -0.004014   0.008236   0.000258
    39  H    0.000000   0.000000  -0.000351   0.000067  -0.000010   0.000000
    40  H    0.000000   0.000000  -0.000051  -0.000037  -0.000001   0.000000
    41  H    0.000000   0.000000   0.003312  -0.000756   0.000036   0.000000
    42  C   -0.024929  -0.026449  -0.025628   0.001607  -0.001925  -0.000664
    43  H    0.000087   0.002042   0.000031   0.000000   0.000089   0.000000
    44  H    0.001743   0.000085   0.000061   0.000000   0.000031   0.000000
    45  C    0.004065   0.007085   0.000677  -0.000063  -0.000239   0.000112
    46  H   -0.000027  -0.000028   0.000001   0.000000   0.000000   0.000000
    47  H    0.000006   0.000203   0.000004   0.000000   0.000006   0.000001
    48  H    0.000163   0.000009   0.000005   0.000000   0.000011   0.000000
             25         26         27         28         29         30
     1  C    0.213076  -0.017823  -0.644596  -0.051233  -0.122788  -0.118184
     2  C    0.004026  -0.021193  -0.039841  -0.009404   0.028655   0.021658
     3  H   -0.000626  -0.000026  -0.020117   0.002768   0.000076   0.000262
     4  H    0.002343   0.000518   0.008515   0.000061  -0.000136  -0.000004
     5  C   -0.171917   0.015267   0.155126   0.018091  -0.000266  -0.028998
     6  H    0.000320  -0.000003  -0.005794   0.000085  -0.000044  -0.000403
     7  C    0.259666  -0.023528  -0.618756  -0.009838  -0.006105   0.022631
     8  H   -0.001149   0.000011   0.008965   0.000000   0.000000  -0.000040
     9  C   -0.115444   0.021388   0.399887  -0.004716   0.011959   0.035830
    10  H    0.010117  -0.000307  -0.018417  -0.000005  -0.000066  -0.000548
    11  C   -0.294447   0.044658  -0.143610   0.009540   0.008461  -0.023000
[...]
    16  C    0.057196  -0.032727   0.214454   0.000043   0.008318   0.005661
    17  C    0.040081  -0.008681  -0.022033  -0.000019   0.000331  -0.000019
    18  C   -0.008468   0.000430   0.033810  -0.000030  -0.001738   0.001971
    19  H    0.000016   0.000000   0.000021   0.000000   0.000000   0.000000
    20  H    0.000002   0.000000   0.000018   0.000000   0.000000   0.000000
    21  O    0.004565   0.004373   0.000475  -0.000001   0.000006  -0.000007
    22  H    0.023665   0.000116   0.000764   0.000000  -0.000001   0.000002
    23  O   -0.001191  -0.000006  -0.001927   0.000008  -0.000079   0.000496
    24  H   -0.000001   0.000000   0.000044   0.000000   0.000000   0.000002
    25  O    8.639558   0.193875  -0.026449   0.000004   0.001650  -0.000011
    26  H    0.193875   0.314639   0.012987  -0.000036  -0.000034  -0.000039
    27  C   -0.026449   0.012987   5.913456   0.428095   0.442448   0.408738
    28  H    0.000004  -0.000036   0.428095   0.530731  -0.028358  -0.025747
    29  H    0.001650  -0.000034   0.442448  -0.028358   0.542463  -0.026525
    30  H   -0.000011  -0.000039   0.408738  -0.025747  -0.026525   0.522618
    31  O   -0.022194   0.032192  -0.114485  -0.011547   0.004832   0.008023
    32  H    0.000941  -0.000816  -0.022628   0.004032  -0.000605   0.000066
    33  H    0.001492  -0.000008  -0.001539  -0.000016   0.000003   0.000035
    34  C   -0.091763   0.007920   0.074004   0.000960   0.000463   0.003489
    35  C    0.006954   0.000361  -0.011400  -0.000063  -0.000195  -0.000466
    36  H   -0.000073   0.000000   0.000034   0.000000   0.000000   0.000000
    37  H    0.000190   0.000000   0.000170   0.000000   0.000000   0.000000
    38  C    0.002770  -0.002519  -0.030031   0.000295  -0.000241  -0.000101
    39  H   -0.000031  -0.000056  -0.000532   0.000000   0.000000   0.000000
    40  H    0.001191  -0.000013   0.000023   0.000000   0.000000   0.000000
    41  H   -0.007291   0.000312  -0.000923   0.000000   0.000000   0.000000
    42  C   -0.003193  -0.000024   0.000473   0.000001  -0.000003  -0.000002
    43  H    0.000000   0.000000   0.000000   0.000000   0.000000   0.000000
    44  H   -0.000001   0.000000   0.000000   0.000000   0.000000   0.000000
    45  C   -0.000009   0.000000  -0.000025   0.000000   0.000000   0.000000
    46  H    0.000000   0.000000   0.000000   0.000000   0.000000   0.000000
    47  H    0.000000   0.000000   0.000000   0.000000   0.000000   0.000000
    48  H    0.000000   0.000000   0.000000   0.000000   0.000000   0.000000
             31         32         33         34         35         36
     1  C    0.233856   0.014090   0.020740  -0.256338   0.186035   0.001169
     2  C   -0.110627  -0.040495  -0.049593   0.156985  -0.122339  -0.000842
     3  H   -0.008532   0.003422  -0.001691  -0.001174  -0.000796   0.000000
     4  H    0.001364  -0.001196  -0.004672  -0.025083  -0.000352   0.000001
     5  C    0.014933   0.006695   0.513779   0.609073  -0.544685  -0.006464
     6  H    0.000342  -0.000012  -0.030754  -0.001435  -0.018727   0.000003
     7  C    0.020587  -0.005537  -0.119710  -2.198319   0.284782   0.013881
     8  H    0.000090   0.000000  -0.001536  -0.016193   0.037743   0.000393
     9  C   -0.086041   0.006629  -0.007298   0.085398   0.244542   0.012408
    10  H   -0.000554  -0.000005   0.000003  -0.000831   0.007036   0.000004
    11  C    0.075214   0.038326   0.010314  -0.130085   0.195710   0.001450
    12  H    0.000525  -0.000235   0.000013  -0.020776   0.001038   0.000000
    13  C    0.003890   0.000243   0.008386  -0.573469  -0.085948   0.015524
    14  C   -0.000558  -0.000003   0.000395  -0.194915   0.166455  -0.003857
    15  C   -0.001928   0.000161  -0.007016  -0.885273   0.075283   0.003519
    16  C   -0.005738   0.000097   0.004668   1.053835   0.263942  -0.000714
    17  C   -0.003399  -0.000027   0.000703  -0.245610   0.272980  -0.015963
    18  C    0.000953   0.000017  -0.001201   0.309371  -0.139189   0.005530
    19  H    0.000000   0.000000   0.000000  -0.001403   0.002087   0.000000
    20  H    0.000000   0.000000   0.000000  -0.000205   0.000121   0.000000
    21  O    0.000856  -0.000002   0.000021  -0.048042  -0.039534   0.000254
    22  H   -0.000132   0.000002  -0.000006   0.043629  -0.012783  -0.000030
    23  O    0.000174   0.000002  -0.000058   0.042380  -0.018426  -0.000040
    24  H    0.000000   0.000000   0.000000   0.003667  -0.001062   0.000000
    25  O   -0.022194   0.000941   0.001492  -0.091763   0.006954  -0.000073
    26  H    0.032192  -0.000816  -0.000008   0.007920   0.000361   0.000000
    27  C   -0.114485  -0.022628  -0.001539   0.074004  -0.011400   0.000034
    28  H   -0.011547   0.004032  -0.000016   0.000960  -0.000063   0.000000
    29  H    0.004832  -0.000605   0.000003   0.000463  -0.000195   0.000000
    30  H    0.008023   0.000066   0.000035   0.003489  -0.000466   0.000000
    31  O    8.348507   0.248179  -0.000362   0.002204  -0.000411   0.000000
    32  H    0.248179   0.327140  -0.000011   0.001427   0.000063   0.000000
    33  H   -0.000362  -0.000011   0.564024  -0.021840  -0.008460  -0.000033
    34  C    0.002204   0.001427  -0.021840  11.260248  -2.608438  -0.184889
    35  C   -0.000411   0.000063  -0.008460  -2.608438   8.869110   0.540942
    36  H    0.000000   0.000000  -0.000033  -0.184889   0.540942   0.539237
    37  H    0.000001   0.000000   0.000002  -0.243893   0.604099  -0.036078
    38  C    0.001083  -0.000125  -0.024651  -0.010540  -1.477443  -0.033816
    39  H   -0.000298   0.000000   0.001035  -0.104095   0.011272   0.000184
    40  H    0.000010   0.000000   0.000001  -0.106831  -0.087468   0.003224
    41  H    0.000165   0.000003   0.000252  -0.138677  -0.060619   0.000113
    42  C   -0.000029   0.000000   0.000015  -0.073419   0.014800  -0.000102
    43  H    0.000000   0.000000   0.000000  -0.000513   0.000301   0.000000
    44  H    0.000000   0.000000   0.000000  -0.000099   0.000081   0.000000
    45  C    0.000000   0.000000   0.000000   0.000073   0.000662   0.000001
    46  H    0.000000   0.000000   0.000000  -0.000011   0.000005   0.000000
    47  H    0.000000   0.000000   0.000000   0.000022   0.000001   0.000000
    48  H    0.000000   0.000000   0.000000  -0.000070   0.000029   0.000000
             37         38         39         40         41         42
     1  C    0.001139  -0.058058  -0.000749   0.003009  -0.030951  -0.015045
     2  C   -0.003236  -0.006442   0.011750  -0.005097   0.014614  -0.000891
     3  H    0.000000   0.000183   0.000078  -0.000002   0.000087   0.000000
     4  H   -0.000001   0.012061  -0.000764   0.000149  -0.001170  -0.000007
     5  C   -0.000255   0.046802  -0.029568   0.003936   0.005336   0.009612
     6  H   -0.000008   0.017288   0.000032   0.000001  -0.000029   0.000001
     7  C   -0.048979   0.254984   0.040257  -0.005250   0.022666   0.020019
     8  H    0.003643  -0.034452  -0.000036  -0.000117  -0.000170  -0.001187
     9  C    0.041828  -0.386341  -0.011032  -0.000175  -0.026642  -0.182581
    10  H   -0.000083   0.009777   0.000000   0.000002  -0.000025  -0.000369
    11  C   -0.001591  -0.349009   0.001937  -0.012549   0.030361  -0.075926
    12  H    0.000001  -0.004235   0.000001   0.000000   0.000012   0.001089
    13  C   -0.007156   0.392680   0.004054   0.004225  -0.008221  -1.915985
    14  C    0.013745  -0.071100   0.000249   0.000687  -0.001588  -1.877373
    15  C   -0.045326   0.269391   0.002296   0.001485  -0.001238   1.085825
    16  C    0.072067  -0.860472   0.009127   0.003544  -0.038251  -1.486065
    17  C   -0.006911  -0.230328   0.002681   0.000016  -0.010679   1.217408
    18  C   -0.006726   0.058565  -0.000296   0.000351   0.000870  -0.273594
    19  H   -0.000001   0.000209   0.000000   0.000000   0.000000  -0.023155
    20  H    0.000000   0.000004   0.000000   0.000000   0.000000  -0.034194
    21  O   -0.000293   0.024266  -0.000282  -0.000147   0.003726  -0.019608
    22  H   -0.000015  -0.004780   0.000064  -0.000031  -0.000574   0.000444
    23  O    0.000330   0.008855  -0.000009   0.000000   0.000032   0.001841
    24  H   -0.000006   0.000223   0.000000   0.000000   0.000000  -0.001451
    25  O    0.000190   0.002770  -0.000031   0.001191  -0.007291  -0.003193
    26  H    0.000000  -0.002519  -0.000056  -0.000013   0.000312  -0.000024
    27  C    0.000170  -0.030031  -0.000532   0.000023  -0.000923   0.000473
    28  H    0.000000   0.000295   0.000000   0.000000   0.000000   0.000001
    29  H    0.000000  -0.000241   0.000000   0.000000   0.000000  -0.000003
    30  H    0.000000  -0.000101   0.000000   0.000000   0.000000  -0.000002
    31  O    0.000001   0.001083  -0.000298   0.000010   0.000165  -0.000029
    32  H    0.000000  -0.000125   0.000000   0.000000   0.000003   0.000000
    33  H    0.000002  -0.024651   0.001035   0.000001   0.000252   0.000015
    34  C   -0.243893  -0.010540  -0.104095  -0.106831  -0.138677  -0.073419
    35  C    0.604099  -1.477443   0.011272  -0.087468  -0.060619   0.014800
    36  H   -0.036078  -0.033816   0.000184   0.003224   0.000113  -0.000102
    37  H    0.550464  -0.029499  -0.000183   0.000262  -0.000221   0.001571
    38  C   -0.029499   7.606221   0.406992   0.548397   0.595106  -0.004862
    39  H   -0.000183   0.406992   0.541948  -0.027014  -0.027363   0.000006
    40  H    0.000262   0.548397  -0.027014   0.552177  -0.028411   0.000074
    41  H   -0.000221   0.595106  -0.027363  -0.028411   0.528824  -0.000029
    42  C    0.001571  -0.004862   0.000006   0.000074  -0.000029   8.675648
    43  H    0.000000  -0.000010   0.000000   0.000000   0.000000   0.542797
    44  H    0.000000  -0.000003   0.000000   0.000000   0.000000   0.540435
    45  C   -0.000042  -0.000101   0.000000   0.000000   0.000000   0.071040
    46  H    0.000000   0.000000   0.000000   0.000000   0.000000  -0.040160
    47  H    0.000000   0.000001   0.000000   0.000000   0.000000  -0.019542
    48  H    0.000000  -0.000002   0.000000   0.000000   0.000000  -0.053685
             43         44         45         46         47         48
     1  C    0.000000   0.000001   0.000844   0.000000  -0.000009   0.000002
     2  C    0.000000  -0.000001  -0.000001   0.000000   0.000000  -0.000001
     3  H    0.000000   0.000000   0.000000   0.000000   0.000000   0.000000
     4  H    0.000000   0.000000   0.000000   0.000000   0.000000   0.000000
     5  C    0.000014   0.000004  -0.000185   0.000001  -0.000003   0.000002
     6  H    0.000000   0.000000   0.000000   0.000000   0.000000   0.000000
     7  C    0.000251   0.000003   0.000194   0.000007  -0.000059   0.000020
     8  H    0.000000   0.000000   0.000002   0.000000   0.000000   0.000000
     9  C    0.000682  -0.000603  -0.001247   0.000054  -0.000843   0.000301
    10  H    0.000000   0.000000   0.000009   0.000000   0.000000   0.000000
    11  C    0.000035  -0.000137   0.000958   0.000007  -0.000242   0.000137
    12  H    0.000000   0.000000   0.000001   0.000000   0.000000   0.000000
    13  C   -0.010997  -0.010876   0.016000  -0.000706  -0.009959  -0.007019
    14  C   -0.213597  -0.215103   0.158416  -0.040699   0.017198   0.059191
    15  C    0.034219  -0.014850  -0.005640   0.002520  -0.011148   0.002265
    16  C   -0.023130   0.006288   0.033204  -0.000087  -0.011240  -0.015480
    17  C   -0.078508   0.118025  -0.043782   0.009102   0.094317  -0.135543
    18  C    0.092809  -0.081194  -0.052282   0.005441  -0.123086   0.088940
    19  H    0.000106   0.002287   0.002298  -0.000032   0.000007   0.000213
    20  H    0.002387   0.000104   0.003469  -0.000033   0.000241   0.000010
    21  O    0.000024   0.000026   0.000496   0.000000   0.000010   0.000002
    22  H    0.000000   0.000000  -0.000038   0.000000   0.000000   0.000000
    23  O    0.000071   0.000029  -0.000170  -0.000001   0.000014   0.000012
    24  H   -0.000002   0.000000   0.000098   0.000000   0.000000   0.000000
    25  O    0.000000  -0.000001  -0.000009   0.000000   0.000000   0.000000
    26  H    0.000000   0.000000   0.000000   0.000000   0.000000   0.000000
    27  C    0.000000   0.000000  -0.000025   0.000000   0.000000   0.000000
    28  H    0.000000   0.000000   0.000000   0.000000   0.000000   0.000000
    29  H    0.000000   0.000000   0.000000   0.000000   0.000000   0.000000
    30  H    0.000000   0.000000   0.000000   0.000000   0.000000   0.000000
    31  O    0.000000   0.000000   0.000000   0.000000   0.000000   0.000000
    32  H    0.000000   0.000000   0.000000   0.000000   0.000000   0.000000
    33  H    0.000000   0.000000   0.000000   0.000000   0.000000   0.000000
    34  C   -0.000513  -0.000099   0.000073  -0.000011   0.000022  -0.000070
    35  C    0.000301   0.000081   0.000662   0.000005   0.000001   0.000029
    36  H    0.000000   0.000000   0.000001   0.000000   0.000000   0.000000
    37  H    0.000000   0.000000  -0.000042   0.000000   0.000000   0.000000
    38  C   -0.000010  -0.000003  -0.000101   0.000000   0.000001  -0.000002
    39  H    0.000000   0.000000   0.000000   0.000000   0.000000   0.000000
    40  H    0.000000   0.000000   0.000000   0.000000   0.000000   0.000000
    41  H    0.000000   0.000000   0.000000   0.000000   0.000000   0.000000
    42  C    0.542797   0.540435   0.071040  -0.040160  -0.019542  -0.053685
    43  H    0.567042  -0.033672  -0.027549  -0.003321  -0.004975   0.004926
    44  H   -0.033672   0.565641  -0.024166  -0.003316   0.004902  -0.005067
    45  C   -0.027549  -0.024166   5.195333   0.423474   0.420164   0.416695
    46  H   -0.003321  -0.003316   0.423474   0.549641  -0.027030  -0.026896
    47  H   -0.004975   0.004902   0.420164  -0.027030   0.542042  -0.028391
    48  H    0.004926  -0.005067   0.416695  -0.026896  -0.028391   0.541681
 Mulliken atomic charges:
              1
     1  C    0.137271
     2  C   -0.342774
     3  H    0.153992
     4  H    0.165726
     5  C   -0.448713
     6  H    0.160775
     7  C   -0.018380
     8  H    0.152434
     9  C    0.321551
    10  H    0.168509
    11  C   -0.276347
    12  H    0.145823
    13  C    0.723006
    14  C   -0.007078
    15  C    0.474818
    16  C   -0.700518
    17  C   -0.775014
    18  C   -0.110161
    19  H    0.145111
    20  H    0.147423
    21  O   -0.644364
    22  H    0.504763
    23  O   -0.600294
    24  H    0.447764
    25  O   -0.739983
    26  H    0.456732
    27  C   -0.317408
    28  H    0.166352
    29  H    0.160551
    30  H    0.174638
    31  O   -0.631147
    32  H    0.420160
    33  H    0.154571
    34  C    0.529079
    35  C   -0.547625
    36  H    0.145031
    37  H    0.140992
    38  C   -0.636991
    39  H    0.168344
    40  H    0.150341
    41  H    0.180594
    42  C   -0.080614
    43  H    0.150611
    44  H    0.151260
    45  C   -0.588193
    46  H    0.152042
    47  H    0.157610
    48  H    0.157728
 Sum of Mulliken atomic charges =   0.00000
 Mulliken charges with hydrogens summed into heavy atoms:
              1
     1  C    0.137271
     2  C   -0.023055
     5  C   -0.133366
     7  C    0.134054
     9  C    0.490060
    11  C   -0.130524
    13  C    0.723006
    14  C   -0.007078
    15  C    0.474818
    16  C   -0.700518
    17  C   -0.629903
    18  C    0.037262
    21  O   -0.139601
    23  O   -0.152530
    25  O   -0.283251
    27  C    0.184134
    31  O   -0.210987
    34  C    0.529079
    35  C   -0.261602
    38  C   -0.137711
    42  C    0.221258
    45  C   -0.120813
 Sum of Mulliken charges with hydrogens summed into heavy atoms =   0.00000
 Electronic spatial extent (au):  <R**2>=           7204.1093
 Charge=              0.0000 electrons
 Dipole moment (field-independent basis, Debye):
    X=              3.6084    Y=             -3.7492    Z=              4.3673  Tot=              6.7934
 Quadrupole moment (field-independent basis, Debye-Ang):
   XX=           -101.6523   YY=           -136.8491   ZZ=           -136.4785
   XY=             -1.7236   XZ=             -7.6546   YZ=             -4.2554
 Traceless Quadrupole moment (field-independent basis, Debye-Ang):
   XX=             23.3410   YY=            -11.8558   ZZ=            -11.4852
   XY=             -1.7236   XZ=             -7.6546   YZ=             -4.2554
 Octapole moment (field-independent basis, Debye-Ang**2):
  XXX=             71.1839  YYY=            -19.5136  ZZZ=             23.2531  XYY=             20.2918
  XXY=            -39.4527  XXZ=             18.0108  XZZ=            -11.7387  YZZ=            -22.3849
  YYZ=              0.5788  XYZ=              7.9047
 Hexadecapole moment (field-independent basis, Debye-Ang**3):
 XXXX=          -5840.8056 YYYY=          -1829.8314 ZZZZ=          -1226.4595 XXXY=           -187.1552
 XXXZ=           -124.7320 YYYX=            -43.0782 YYYZ=            -51.0308 ZZZX=           -140.1080
 ZZZY=            -65.5974 XXYY=          -1377.4282 XXZZ=          -1269.4925 YYZZ=           -537.7125
 XXYZ=            -57.0412 YYXZ=            -38.5869 ZZXY=             39.1865
 N-N= 1.988100310822D+03 E-N=-6.309245496925D+03  KE= 9.932054553574D+02

 Test job not archived.
 1\1\GINC-COMPUTE-8-16\SP\RB3LYP\6-31+G(d,p)\C18H26O4\LPASSAGLIA.IQUIR\
 23-Dec-2022\0\\# B3LYP/6-31+G** geom=allcheck test scrf=(pcm,solvent=w
 ater,smd,dovacuum)\\comment\\0,1\C,0,1.752511905,2.30696951,-1.5025599
 71\C,0,0.913420034,3.413563947,-0.843757562\H,0,1.476233805,4.35632557
 8,-0.8486661\H,0,0.031754704,3.619167164,-1.461158806\C,0,0.489612183,
 3.090164651,0.589811219\H,0,1.386827878,3.108028144,1.222746765\C,0,-0
 .197332297,1.714782809,0.768927261\H,0,-0.074002616,1.502402745,1.8442
 09001\C,0,0.61470777,0.596159585,0.038973167\H,0,1.589510162,0.6119543
 87,0.544995242\C,0,1.027078425,0.938697731,-1.410698277\H,0,1.67309101
 9,0.149087241,-1.814683749\C,0,0.095361764,-0.821625153,0.299022785\C,
 0,-0.805291416,-3.4525538,0.962771145\C,0,0.582124198,-1.522779922,1.4
 24378572\C,0,-0.87379779,-1.48356454,-0.469643982\C,0,-1.310998705,-2.
 774640622,-0.148097677\C,0,0.152641376,-2.814527577,1.750422616\H,0,-2
 .062552967,-3.243248765,-0.780425363\H,0,0.55610336,-3.329805968,2.617
 282703\O,0,-1.495302921,-0.951442551,-1.562796707\H,0,-1.0881191,-0.08
 5964725,-1.779268077\O,0,1.507301762,-0.918453303,2.239124382\H,0,1.70
 8336501,-1.515720375,2.978184833\O,0,-0.105173403,1.001938987,-2.29185
 0753\H,0,0.242969382,1.460456587,-3.08948424\C,0,3.175762294,2.2523854
 84,-0.938257034\H,0,3.697023393,3.200983001,-1.112158917\H,0,3.7632835
 24,1.482756805,-1.45180805\H,0,3.20398559,2.046293291,0.134595023\O,0,
 1.861947376,2.621483196,-2.907694923\H,0,2.308738174,3.484128196,-2.98
 2391747\H,0,-0.150815683,3.893884024,0.973496066\C,0,-1.71588046,1.745
 489723,0.561786557\C,0,-2.522825532,1.073712235,1.405259456\H,0,-3.602
 766136,1.082114372,1.294027678\H,0,-2.125040219,0.471832731,2.21718331
 7\C,0,-2.330743264,2.568894761,-0.535719883\H,0,-2.105684801,3.6304969
 28,-0.398483801\H,0,-3.423172251,2.479018654,-0.548950369\H,0,-1.98237
 8392,2.256696723,-1.519725254\C,0,-1.270759864,-4.847549907,1.28612174
 7\H,0,-1.251203914,-5.000727792,2.37204392\H,0,-2.317868269,-4.9677527
 75,0.982465759\C,0,-0.413422082,-5.902072907,0.603159403\H,0,-0.773677
 78,-6.904333478,0.85572843\H,0,0.633060622,-5.828269243,0.918005073\H,
 0,-0.444577341,-5.794835787,-0.486440876\\Version=EM64L-G09RevC.01\Sta
 te=1-A\HF=-1002.5454838\RMSD=4.868e-09\Dipole=2.1132979,1.3238664,0.96
 16599\Quadrupole=-6.1727284,10.2872768,-4.1145484,5.4068023,-0.1114371
 ,-12.658525\PG=C01 [X(C18H26O4)]\\@


 A SUCCESSFUL PURSUIT OF SCIENCE MAKES A MAN THE
 BENEFACTOR OF ALL MANKIND OF EVERY AGE.
   --  JOSEPH PRIESTLEY, "EXPERIMENTS AND
 OBSERVATIONS ON DIFFERENT KINDS OF AIR", 1774
 Job cpu time:  0 days  2 hours  4 minutes 29.8 seconds.
 File lengths (MBytes):  RWF=    239 Int=      0 D2E=      0 Chk=     19 Scr=      1
 Normal termination of Gaussian 09 at Fri Dec 23 15:30:33 2022.
