 Entering Gaussian System, Link 0=g09
 Input=/home/lpassaglia.iquir/Link1/03_RSRS_THC_010.gjc
 Output=/home/lpassaglia.iquir/Link1/03_RSRS_THC_010.log
 Initial command:
 /share/apps/Gaussian09/EM64T.SSE4.2-enabled/g09/l1.exe /tmp/Gau-28594.inp -scrdir=/tmp/
 Entering Link 1 = /share/apps/Gaussian09/EM64T.SSE4.2-enabled/g09/l1.exe PID=     28600.
  
 Copyright (c) 1988,1990,1992,1993,1995,1998,2003,2009,2011,
            Gaussian, Inc.  All Rights Reserved.
  
 This is part of the Gaussian(R) 09 program.  It is based on
 the Gaussian(R) 03 system (copyright 2003, Gaussian, Inc.),
 the Gaussian(R) 98 system (copyright 1998, Gaussian, Inc.),
 the Gaussian(R) 94 system (copyright 1995, Gaussian, Inc.),
 the Gaussian 92(TM) system (copyright 1992, Gaussian, Inc.),
 the Gaussian 90(TM) system (copyright 1990, Gaussian, Inc.),
 the Gaussian 88(TM) system (copyright 1988, Gaussian, Inc.),
 the Gaussian 86(TM) system (copyright 1986, Carnegie Mellon
 University), and the Gaussian 82(TM) system (copyright 1983,
 Carnegie Mellon University). Gaussian is a federally registered
 trademark of Gaussian, Inc.
  
 This software contains proprietary and confidential information,
 including trade secrets, belonging to Gaussian, Inc.
  
 This software is provided under written license and may be
 used, copied, transmitted, or stored only in accord with that
 written license.
  
 The following legend is applicable only to US Government
 contracts under FAR:
  
                    RESTRICTED RIGHTS LEGEND
  
 Use, reproduction and disclosure by the US Government is
 subject to restrictions as set forth in subparagraphs (a)
 and (c) of the Commercial Computer Software - Restricted
 Rights clause in FAR 52.227-19.
  
 Gaussian, Inc.
 340 Quinnipiac St., Bldg. 40, Wallingford CT 06492
  
  
 ---------------------------------------------------------------
 Warning -- This program may not be used in any manner that
 competes with the business of Gaussian, Inc. or will provide
 assistance to any competitor of Gaussian, Inc.  The licensee
 of this program is prohibited from giving any competitor of
 Gaussian, Inc. access to this program.  By using this program,
 the user acknowledges that Gaussian, Inc. is engaged in the
 business of creating and licensing software in the field of
 computational chemistry and represents and warrants to the
 licensee that it is not a competitor of Gaussian, Inc. and that
 it will not use this program in any manner prohibited above.
 ---------------------------------------------------------------
  

 Cite this work as:
 Gaussian 09, Revision C.01,
 M. J. Frisch, G. W. Trucks, H. B. Schlegel, G. E. Scuseria, 
 M. A. Robb, J. R. Cheeseman, G. Scalmani, V. Barone, B. Mennucci, 
 G. A. Petersson, H. Nakatsuji, M. Caricato, X. Li, H. P. Hratchian, 
 A. F. Izmaylov, J. Bloino, G. Zheng, J. L. Sonnenberg, M. Hada, 
 M. Ehara, K. Toyota, R. Fukuda, J. Hasegawa, M. Ishida, T. Nakajima, 
 Y. Honda, O. Kitao, H. Nakai, T. Vreven, J. A. Montgomery, Jr., 
 J. E. Peralta, F. Ogliaro, M. Bearpark, J. J. Heyd, E. Brothers, 
 K. N. Kudin, V. N. Staroverov, T. Keith, R. Kobayashi, J. Normand, 
 K. Raghavachari, A. Rendell, J. C. Burant, S. S. Iyengar, J. Tomasi, 
 M. Cossi, N. Rega, J. M. Millam, M. Klene, J. E. Knox, J. B. Cross, 
 V. Bakken, C. Adamo, J. Jaramillo, R. Gomperts, R. E. Stratmann, 
 O. Yazyev, A. J. Austin, R. Cammi, C. Pomelli, J. W. Ochterski, 
 R. L. Martin, K. Morokuma, V. G. Zakrzewski, G. A. Voth, 
 P. Salvador, J. J. Dannenberg, S. Dapprich, A. D. Daniels, 
 O. Farkas, J. B. Foresman, J. V. Ortiz, J. Cioslowski, 
 and D. J. Fox, Gaussian, Inc., Wallingford CT, 2010.
 
 ******************************************
 Gaussian 09:  EM64L-G09RevC.01 23-Sep-2011
                23-Dec-2022 
 ******************************************
 %chk=03_RSRS_THC_010_optB_NMR
 %nprocshared=4
 Will use up to    4 processors via shared memory.
 ------------------------------------------------
 # mPW1PW91/6-31+G** scrf=(PCM,solvent=water) nmr
 ------------------------------------------------
 1/38=1/1;
 2/12=2,17=6,18=5,40=1/2;
 3/5=1,6=6,7=111,11=2,16=1,25=1,30=1,70=2201,72=1,74=-7/1,2,8,3;
 4//1;
 5/5=2,38=5,53=1/2;
 8/6=1,10=90,11=11/1;
 10/13=100,45=16/2;
 6/7=2,8=2,9=2,10=2,28=1/1;
 99/9=1/99;
 -------
 comment
 -------
 Charge =  0 Multiplicity = 1
 Symbolic Z-Matrix:
 6                     0.72066   2.12671  -2.10717 
 6                     0.34363   3.31828  -1.2194 
 1                     1.23131   3.93967  -1.04259 
 1                    -0.39168   3.95044  -1.73316 
 6                    -0.23998   2.91832   0.13429 
 1                    -0.32082   3.82736   0.74631 
 6                     0.61131   1.87631   0.89776 
 1                     1.53006   2.44254   1.12946 
 6                     1.11206   0.67497   0.02089 
 1                     2.01574   0.35427   0.56491 
 6                     1.66087   1.16998  -1.3427 
 1                     2.58992   1.71772  -1.13296 
 6                     0.29603  -0.62387  -0.0669 
 6                    -1.06038  -3.13866   0.0024 
 6                     0.98267  -1.85621  -0.09191 
 6                    -1.09741  -0.70736  -0.10181 
 6                    -1.77182  -1.93655  -0.05213 
 6                     0.33209  -3.08786  -0.02597 
 1                    -2.85821  -1.96807  -0.07292 
 1                     0.92232  -4.00082  -0.02154 
 8                    -1.84201   0.42472  -0.25832 
 1                    -2.76248   0.21844  -0.01761 
 8                     2.34493  -1.90799  -0.24295 
 1                     2.56055  -1.24502  -0.93605 
 8                     2.04865   0.0547   -2.16147 
 1                     1.2476   -0.16411  -2.68522 
 6                     1.39085   2.63735  -3.3899 
 1                     0.72474   3.3218   -3.92827 
 1                     1.60655   1.81585  -4.0822 
 1                     2.32587   3.16508  -3.17528 
 8                    -0.44859   1.42451  -2.53867 
 1                    -0.9732    1.1757   -1.75056 
 1                    -1.26881   2.58909  -0.01484 
 6                     0.07653   1.47322   2.27924 
 6                    -1.1522    1.76577   2.7411 
 1                    -1.4673    1.464     3.73614 
 1                    -1.88623   2.30479   2.1537 
 6                     1.0473    0.73622   3.1712 
 1                     0.65583   0.60411   4.1858 
 1                     1.98543   1.29454   3.25477 
 1                     1.2661   -0.2589    2.77389 
 6                    -1.77879  -4.45972   0.08324 
 1                    -2.72547  -4.39958  -0.46738 
 1                    -1.18626  -5.23524  -0.4173 
 6                    -2.04667  -4.8681    1.52367 
 1                    -2.56814  -5.83001   1.5536 
 1                    -2.66991  -4.12813   2.03721 
 1                    -1.11326  -4.97024   2.08762 
 
                          Input orientation:                          
 ---------------------------------------------------------------------
 Center     Atomic      Atomic             Coordinates (Angstroms)
 Number     Number       Type             X           Y           Z
 ---------------------------------------------------------------------
      1          6           0        0.720663    2.126712   -2.107169
      2          6           0        0.343627    3.318276   -1.219403
      3          1           0        1.231307    3.939666   -1.042592
      4          1           0       -0.391676    3.950436   -1.733155
      5          6           0       -0.239979    2.918321    0.134290
      6          1           0       -0.320821    3.827360    0.746306
      7          6           0        0.611312    1.876308    0.897761
      8          1           0        1.530059    2.442536    1.129459
      9          6           0        1.112059    0.674968    0.020892
     10          1           0        2.015736    0.354272    0.564914
     11          6           0        1.660868    1.169983   -1.342702
     12          1           0        2.589919    1.717725   -1.132958
     13          6           0        0.296028   -0.623869   -0.066895
     14          6           0       -1.060384   -3.138662    0.002396
     15          6           0        0.982672   -1.856211   -0.091910
     16          6           0       -1.097412   -0.707356   -0.101807
     17          6           0       -1.771822   -1.936546   -0.052135
     18          6           0        0.332089   -3.087859   -0.025971
     19          1           0       -2.858207   -1.968065   -0.072917
     20          1           0        0.922325   -4.000825   -0.021539
     21          8           0       -1.842014    0.424719   -0.258323
     22          1           0       -2.762477    0.218444   -0.017613
     23          8           0        2.344931   -1.907992   -0.242949
     24          1           0        2.560550   -1.245018   -0.936052
     25          8           0        2.048655    0.054702   -2.161470
     26          1           0        1.247602   -0.164108   -2.685224
     27          6           0        1.390855    2.637347   -3.389902
     28          1           0        0.724745    3.321797   -3.928273
     29          1           0        1.606553    1.815850   -4.082199
     30          1           0        2.325868    3.165083   -3.175280
     31          8           0       -0.448592    1.424507   -2.538673
     32          1           0       -0.973195    1.175697   -1.750563
     33          1           0       -1.268810    2.589093   -0.014843
     34          6           0        0.076528    1.473221    2.279238
     35          6           0       -1.152197    1.765766    2.741099
     36          1           0       -1.467298    1.464000    3.736144
     37          1           0       -1.886225    2.304790    2.153695
     38          6           0        1.047299    0.736223    3.171201
     39          1           0        0.655833    0.604115    4.185796
     40          1           0        1.985428    1.294538    3.254773
     41          1           0        1.266100   -0.258903    2.773888
     42          6           0       -1.778786   -4.459723    0.083244
     43          1           0       -2.725470   -4.399580   -0.467382
     44          1           0       -1.186256   -5.235243   -0.417300
     45          6           0       -2.046675   -4.868103    1.523669
     46          1           0       -2.568137   -5.830015    1.553598
     47          1           0       -2.669915   -4.128129    2.037214
     48          1           0       -1.113263   -4.970245    2.087620
 ---------------------------------------------------------------------
                    Distance matrix (angstroms):
                    1          2          3          4          5
     1  C    0.000000
     2  C    1.533007   0.000000
     3  H    2.163535   1.097890   0.000000
     4  H    2.168676   1.097378   1.763822   0.000000
     5  C    2.563907   1.527431   2.143100   2.139071   0.000000
     6  H    3.481266   2.136509   2.371048   2.483526   1.098841
     7  C    3.017328   2.575522   2.899450   3.497101   1.547054
     8  H    3.351214   2.773391   2.654893   3.763163   2.085609
     9  C    2.605647   3.019255   3.435618   4.008316   2.621735
    10  H    3.458148   3.842533   4.006801   4.899914   3.442097
    11  C    1.543932   2.522993   2.818818   3.477976   2.975132
    12  H    2.147202   2.759541   2.605958   3.772949   3.325006
    13  C    3.450902   4.107438   4.759472   4.916668   3.588159
    14  C    5.945298   6.719829   7.513094   7.329026   6.113715
    15  C    4.471420   5.334317   5.878589   6.188673   4.933781
    16  C    3.919033   4.419426   5.282312   4.985418   3.733158
    17  C    5.190927   5.783667   6.673055   6.275922   5.094216
    18  C    5.627977   6.516363   7.157389   7.278455   6.035490
    19  H    5.806349   6.285823   7.250219   6.623354   5.547506
    20  H    6.475896   7.439019   8.011829   8.238858   7.017820
    21  O    3.589196   3.751450   4.734473   4.087700   2.989768
    22  H    4.487761   4.549850   5.554132   4.742525   3.698027
    23  O    4.732060   5.680894   6.006221   6.635579   5.487929
    24  H    4.015628   5.081210   5.353428   6.028579   5.130496
    25  O    2.461653   3.800727   4.124669   4.616862   4.325352
    26  H    2.420675   3.884945   4.420346   4.530247   4.434402
    27  C    1.534701   2.504280   2.689118   2.765218   3.893391
    28  H    2.178225   2.735551   2.994248   2.541678   4.194986
    29  H    2.186820   3.471004   3.727012   3.750652   4.733276
    30  H    2.189921   2.788943   2.519207   3.175146   4.194963
    31  O    1.430540   2.440173   3.374366   2.651870   3.069158
    32  H    1.975033   2.570369   3.605631   2.835074   2.669646
    33  H    2.923975   2.140707   3.021738   2.361190   1.090470
    34  C    4.481354   3.964349   4.295512   4.738683   2.605628
    35  C    5.209952   4.509252   4.972248   5.036877   2.992655
    36  H    6.274606   5.592427   6.020607   6.103488   4.073661
    37  H    4.998255   4.168596   4.754795   4.477660   2.676667
    38  C    5.468212   5.141941   5.296410   6.037759   3.954929
    39  H    6.474868   6.056428   6.228411   6.879617   4.751076
    40  H    5.571586   5.177768   5.102230   6.130567   4.162514
    41  H    5.460163   5.439994   5.674038   6.385937   4.396646
    42  C    7.377417   8.166933   8.993214   8.715168   7.536980
    43  H    7.560240   8.339676   9.248242   8.761937   7.751861
    44  H    7.790403   8.726202   9.508657   9.313406   8.226803
    45  C    8.352759   8.958504   9.742056   9.545290   8.113133
    46  H    9.355582   9.992954  10.799196  10.544996   9.163413
    47  H    8.233770   8.668099   9.475972   9.201591   7.692735
    48  H    8.445492   9.042041   9.730454   9.731267   8.173591
                    6          7          8          9         10
     6  H    0.000000
     7  C    2.167582   0.000000
     8  H    2.343138   1.103809   0.000000
     9  C    3.537929   1.569351   2.127896   0.000000
    10  H    4.189837   2.097567   2.217079   1.102469   0.000000
    11  C    3.918252   2.572963   2.783538   1.551006   2.104831
    12  H    4.056427   2.839692   2.601381   2.145409   2.251990
    13  C    4.566753   2.698305   3.515244   1.536422   2.076858
    14  C    7.044560   5.361546   6.255433   4.389035   4.688234
    15  C    5.891068   3.879312   4.502289   2.536994   2.526832
    16  C    4.678251   3.254872   4.282691   2.609145   3.356078
    17  C    5.997126   4.595595   5.610254   3.891287   4.469250
    18  C    6.988773   5.057094   5.775415   3.843100   3.877123
    19  H    6.379373   5.268680   6.336875   4.770476   5.436488
    20  H    7.963383   5.956721   6.573510   4.679833   4.528393
    21  O    3.860217   3.076110   4.167542   2.977774   3.945240
    22  H    4.423746   3.868963   4.968725   3.901528   4.815507
    23  O    6.401493   4.315968   4.634071   2.874242   2.424634
    24  H    6.071379   4.111578   4.350438   2.588478   2.259967
    25  O    5.320012   3.839675   4.098892   2.454516   2.742991
    26  H    5.492464   4.172043   4.628842   2.836456   3.379666
    27  C    4.631866   4.423904   4.525700   3.944893   4.609065
    28  H    4.816689   5.039138   5.196373   4.769867   5.537292
    29  H    5.574532   5.078796   5.249760   4.287365   4.888692
    30  H    4.777281   4.603293   4.436910   4.229601   4.688912
    31  O    4.071992   3.624445   4.290296   3.090116   4.104945
    32  H    3.700170   3.164670   4.020658   2.781558   3.869093
    33  H    1.735320   2.208113   3.027304   3.055108   4.014820
    34  C    2.837206   1.535237   2.091487   2.609532   2.819837
    35  C    2.986730   2.553444   3.201546   3.703541   4.094373
    36  H    3.979825   3.542180   4.091025   4.591160   4.839393
    37  H    2.597971   2.828190   3.569178   4.024286   4.642633
    38  C    4.160167   2.580389   2.704306   3.151569   2.806508
    39  H    4.813860   3.525851   3.672227   4.190415   3.875892
    40  H    4.245748   2.789652   2.458093   3.406556   2.849624
    41  H    4.829797   2.916800   3.173577   2.911156   2.411950
    42  C    8.440442   6.820653   7.725556   5.892871   6.148573
    43  H    8.656669   7.237714   8.214255   6.380915   6.792921
    44  H    9.177893   7.452167   8.289700   6.356482   6.516147
    45  C    8.899098   7.276245   8.148244   6.554508   6.685477
    46  H    9.948217   8.362202   9.241764   7.629406   7.761107
    47  H    8.394908   6.936719   7.850952   6.437284   6.649429
    48  H    8.934480   7.159973   7.928086   6.410293   6.360798
                   11         12         13         14         15
    11  C    0.000000
    12  H    1.098703   0.000000
    13  C    2.590053   3.446953   0.000000
    14  C    5.270571   6.180472   2.858119   0.000000
    15  C    3.343992   4.054632   1.410948   2.414053   0.000000
    16  C    3.559821   4.532184   1.396375   2.433820   2.376281
    17  C    4.806188   5.791948   2.449356   1.397927   2.755952
    18  C    4.650661   5.423730   2.464594   1.393688   1.394475
    19  H    5.646391   6.662642   3.428716   2.146657   3.842554
    20  H    5.387779   6.059532   3.434842   2.162182   2.146616
    21  O    3.741855   4.698817   2.389018   3.657405   3.634445
    22  H    4.714580   5.669213   3.172754   3.763998   4.282038
    23  O    3.339360   3.741384   2.424453   3.629176   1.371585
    24  H    2.609027   2.969424   2.503861   4.192581   1.890987
    25  O    1.436876   2.028904   2.814144   4.954393   3.011808
    26  H    1.937253   2.784356   2.823565   4.625805   3.107841
    27  C    2.533199   2.716111   4.782943   7.132919   5.588867
    28  H    3.491678   3.723669   5.537357   7.770096   6.449495
    29  H    2.815127   3.110412   4.877742   6.952961   5.458541
    30  H    2.789443   2.517072   5.304570   7.829529   6.043570
    31  O    2.438227   3.360738   3.295449   5.258691   4.335698
    32  H    2.665459   3.656639   2.772021   4.657700   3.971022
    33  H    3.515692   4.110869   3.574150   5.731572   4.983557
    34  C    3.964913   4.244996   3.154411   5.267452   4.186712
    35  C    4.994569   5.386469   3.961381   5.618037   5.069746
    36  H    5.972148   6.342991   4.683121   5.940620   5.628513
    37  H    5.108273   5.584138   4.274376   5.911114   5.530574
    38  C    4.576017   4.676409   3.591591   5.431242   4.168068
    39  H    5.647529   5.768011   4.441034   5.869806   4.945584
    40  H    4.610599   4.449345   4.191400   6.285554   4.704575
    41  H    4.375370   4.574166   3.023953   4.624577   3.293103
    42  C    6.749676   7.663262   4.363619   1.505935   3.799289
    43  H    7.143261   8.131283   4.852405   2.140821   4.512208
    44  H    7.070318   7.944521   4.856410   2.141877   4.028396
    45  C    7.643326   8.481084   5.102125   2.505595   4.567114
    46  H    8.676001   9.528457   6.159009   3.452959   5.577370
    47  H    7.632136   8.478788   5.050142   2.776710   4.799601
    48  H    7.560774   8.295457   5.051636   2.775905   4.340564
                   16         17         18         19         20
    16  C    0.000000
    17  C    1.402927   0.000000
    18  C    2.777772   2.398468   0.000000
    19  H    2.165784   1.087040   3.381439   0.000000
    20  H    3.864287   3.394202   1.087154   4.292688   0.000000
    21  O    1.364011   2.371290   4.137501   2.606231   5.223320
    22  H    1.906997   2.372039   4.528581   2.189302   5.601786
    23  O    3.648448   4.121272   2.343225   5.206262   2.540232
    24  H    3.790215   4.475374   3.031559   5.534503   3.333854
    25  O    3.836754   4.796917   4.169250   5.703589   4.721782
    26  H    3.531041   4.380824   4.056860   5.189998   4.682032
    27  C    5.309433   6.485655   6.724210   7.089903   7.458600
    28  H    5.847750   6.993388   7.514375   7.462169   8.301952
    29  H    5.433371   6.460288   6.490270   7.094113   7.126769
    30  H    6.013390   7.250636   7.279601   7.927704   7.954008
    31  O    3.302139   4.385258   5.223464   4.836914   6.135927
    32  H    2.505936   3.634353   4.780784   4.031253   5.777447
    33  H    3.302047   4.553660   5.898371   4.826722   6.944647
    34  C    3.435466   4.525286   5.116908   5.097819   5.997843
    35  C    3.768481   4.679018   5.780783   4.977012   6.722304
    36  H    4.425096   5.099756   6.173389   5.312499   7.049453
    37  H    3.844807   4.782019   6.225152   4.915266   7.237428
    38  C    4.170886   5.047874   5.035577   5.752430   5.713915
    39  H    4.814287   5.505318   5.610210   6.091077   6.243248
    40  H    4.977761   5.957556   5.718585   6.721525   6.317062
    41  H    3.749256   4.475474   4.088347   5.294851   4.683436
    42  C    3.818216   2.526816   2.519867   2.719908   2.741818
    43  H    4.051757   2.673651   3.356206   2.466878   3.696511
    44  H    4.539734   3.370109   2.658903   3.686254   2.475182
    45  C    4.566737   3.339570   3.350995   3.408503   3.457571
    46  H    5.580773   4.286209   4.292524   4.200518   4.243856
    47  H    4.330111   3.158320   3.788261   3.025556   4.142325
    48  H    4.792292   3.770355   3.178000   4.089723   3.087385
                   21         22         23         24         25
    21  O    0.000000
    22  H    0.973520   0.000000
    23  O    4.792942   5.536978   0.000000
    24  H    4.757091   5.596416   0.983065   0.000000
    25  O    4.346974   5.269717   2.760556   1.858214   0.000000
    26  H    3.972693   4.831483   3.195304   2.439632   0.981774
    27  C    5.015371   5.871421   5.610141   4.739444   2.934587
    28  H    5.333840   6.089728   6.599796   5.760154   3.943126
    29  H    5.333844   6.177458   5.399263   4.491912   2.643160
    30  H    5.778362   6.674189   5.859609   4.951587   3.283158
    31  O    2.853278   3.628277   4.917283   4.330092   2.873132
    32  H    1.882975   2.668516   4.774097   4.360120   3.249162
    33  H    2.252190   2.801968   5.773640   5.496638   4.694328
    34  C    3.349534   3.861339   4.789539   4.888484   5.061756
    35  C    3.357200   3.549324   5.884806   6.030817   6.099867
    36  H    4.144429   4.161681   6.460388   6.737341   7.009273
    37  H    3.058505   3.136118   6.433826   6.474680   6.258341
    38  C    4.495198   4.995100   4.509118   4.804661   5.468507
    39  H    5.101139   5.431595   5.364468   5.768930   6.521472
    40  H    5.267613   5.865926   4.755996   4.933875   5.556697
    41  H    4.395682   4.924405   3.603426   4.051133   5.006846
    42  C    4.896779   4.781534   4.860327   5.495737   6.329935
    43  H    4.908978   4.640022   5.653968   6.173567   6.745579
    44  H    5.700041   5.690951   4.854923   5.498141   6.441296
    45  C    5.588502   5.362917   5.582957   6.356374   7.388233
    46  H    6.552252   6.252225   6.538202   7.316008   8.351430
    47  H    5.165592   4.808698   5.939431   6.671612   7.575614
    48  H    5.927914   5.837328   5.173785   6.042914   7.300862
                   26         27         28         29         30
    26  H    0.000000
    27  C    2.892272   0.000000
    28  H    3.737658   1.096366   0.000000
    29  H    2.449616   1.095745   1.751901   0.000000
    30  H    3.533599   1.094905   1.776275   1.777736   0.000000
    31  O    2.328572   2.362020   2.628197   2.599855   3.336540
    32  H    2.756920   3.226854   3.497309   3.535736   4.107468
    33  H    4.587306   4.297345   4.452646   5.040735   4.820979
    34  C    5.357065   5.934796   6.509272   6.551814   6.137890
    35  C    6.239265   6.694471   7.101034   7.360069   7.004182
    36  H    7.159287   7.767002   8.185338   8.408261   8.065332
    37  H    6.271480   6.448358   6.696403   7.164143   6.846883
    38  C    5.928611   6.839618   7.562524   7.354602   6.914616
    39  H    6.939111   7.878165   8.557375   8.410227   7.970760
    40  H    6.160811   6.805025   7.569363   7.365221   6.705253
    41  H    5.459966   6.811471   7.617969   7.171223   6.945458
    42  C    5.939339   8.513387   9.105603   8.257981   9.252234
    43  H    6.216378   8.660462   9.137911   8.394338   9.490672
    44  H    6.064945   8.800882   9.444670   8.423134   9.513513
    45  C    7.120015   9.606850  10.221493   9.457646  10.282574
    46  H    8.039277  10.573931  11.164661  10.375428  11.279421
    47  H    7.304918   9.576801  10.129766   9.542866  10.262499
    48  H    7.173052   9.703056  10.408036   9.566355  10.281502
                   31         32         33         34         35
    31  O    0.000000
    32  H    0.978893   0.000000
    33  H    2.898057   2.257830   0.000000
    34  C    4.846689   4.174893   2.884079   0.000000
    35  C    5.337369   4.533790   2.878660   1.344865   0.000000
    36  H    6.357095   5.516449   3.921114   2.122748   1.086492
    37  H    4.985981   4.165538   2.272573   2.135338   1.083692
    38  C    5.942566   5.338473   4.352971   1.510351   2.466319
    39  H    6.863765   6.182296   5.028891   2.173913   2.589508
    40  H    6.285329   5.815579   4.791276   2.151161   3.214126
    41  H    5.830724   5.248159   4.723755   2.158706   3.154126
    42  C    6.577844   5.980785   7.067921   6.592754   6.798053
    43  H    6.587443   5.983372   7.153195   7.062925   7.126081
    44  H    7.028274   6.551575   7.835114   7.339580   7.680545
    45  C    7.658553   6.957045   7.653879   6.729879   6.803708
    46  H    8.594605   7.908307   8.661964   7.801157   7.817347
    47  H    7.530258   6.734737   7.162060   6.243128   6.126738
    48  H    7.920683   7.247335   7.847810   6.555194   6.767746
                   36         37         38         39         40
    36  H    0.000000
    37  H    1.840264   0.000000
    38  C    2.678063   3.478690   0.000000
    39  H    2.334369   3.672028   1.095491   0.000000
    40  H    3.490237   4.150022   1.094891   1.763891   0.000000
    41  H    3.371320   4.110269   1.093620   1.763720   1.778162
    42  C    6.966434   7.075093   6.672338   6.957065   7.572280
    43  H    7.323538   7.247272   7.338225   7.623794   8.274659
    44  H    7.887328   7.997004   7.316045   7.660280   8.135216
    45  C    6.732478   7.202296   6.610258   6.658502   7.565231
    46  H    7.692724   8.185362   7.668344   7.662928   8.624859
    47  H    5.966956   6.481526   6.226197   6.170181   7.249826
    48  H    6.651502   7.316281   6.197254   6.213335   7.086017
                   41         42         43         44         45
    41  H    0.000000
    42  C    5.844467   0.000000
    43  H    6.601793   1.096821   0.000000
    44  H    6.400132   1.096844   1.752148   0.000000
    45  C    5.812251   1.520974   2.155124   2.154640   0.000000
    46  H    6.872246   2.159332   2.480979   2.479474   1.094574
    47  H    5.568286   2.173032   2.519876   3.074344   1.095317
    48  H    5.322507   2.172804   3.074557   2.519956   1.095322
                   46         47         48
    46  H    0.000000
    47  H    1.772190   0.000000
    48  H    1.772298   1.770555   0.000000
 Stoichiometry    C18H26O4
 Framework group  C1[X(C18H26O4)]
 Deg. of freedom   138
 Full point group                 C1      NOp   1
 Largest Abelian subgroup         C1      NOp   1
 Largest concise Abelian subgroup C1      NOp   1
                         Standard orientation:                         
 ---------------------------------------------------------------------
 Center     Atomic      Atomic             Coordinates (Angstroms)
 Number     Number       Type             X           Y           Z
 ---------------------------------------------------------------------
      1          6           0        2.759008   -1.097621   -0.484095
      2          6           0        3.469345    0.236637   -0.739609
      3          1           0        4.241567    0.393649    0.024840
      4          1           0        3.981296    0.208783   -1.709850
      5          6           0        2.534153    1.444284   -0.732641
      6          1           0        3.155858    2.349923   -0.760077
      7          6           0        1.609491    1.510596    0.505898
      8          1           0        2.324386    1.687660    1.328071
      9          6           0        0.923211    0.149947    0.880758
     10          1           0        0.734740    0.277085    1.959531
     11          6           0        1.937597   -1.021833    0.820998
     12          1           0        2.645197   -0.873914    1.648386
     13          6           0       -0.470420   -0.200025    0.336788
     14          6           0       -3.174232   -0.723392   -0.427627
     15          6           0       -1.382794   -0.863183    1.184472
     16          6           0       -0.943438    0.102957   -0.941617
     17          6           0       -2.273036   -0.135804   -1.320256
     18          6           0       -2.712476   -1.094638    0.833851
     19          1           0       -2.613201    0.118696   -2.320843
     20          1           0       -3.371354   -1.586877    1.544826
     21          8           0       -0.085426    0.582316   -1.887427
     22          1           0       -0.613416    0.960586   -2.612603
     23          8           0       -0.986824   -1.374007    2.394229
     24          1           0       -0.115693   -1.799155    2.230534
     25          8           0        1.279335   -2.268998    1.096468
     26          1           0        1.001245   -2.606788    0.217580
     27          6           0        3.799144   -2.223443   -0.406958
     28          1           0        4.386165   -2.271778   -1.331667
     29          1           0        3.320245   -3.203108   -0.299390
     30          1           0        4.488851   -2.080230    0.431261
     31          8           0        1.906390   -1.437625   -1.581313
     32          1           0        1.293372   -0.692059   -1.744328
     33          1           0        1.978121    1.458169   -1.670596
     34          6           0        0.677499    2.728991    0.567998
     35          6           0        0.447456    3.571369   -0.454812
     36          1           0       -0.213735    4.426302   -0.343537
     37          1           0        0.896903    3.442826   -1.432494
     38          6           0        0.027071    2.992369    1.905434
     39          1           0       -0.507971    3.948165    1.922316
     40          1           0        0.784303    3.029619    2.695370
     41          1           0       -0.696153    2.209371    2.150113
     42          6           0       -4.609462   -0.957249   -0.819117
     43          1           0       -4.668528   -1.176438   -1.892189
     44          1           0       -4.993152   -1.847913   -0.306704
     45          6           0       -5.485683    0.241645   -0.490099
     46          1           0       -6.521678    0.045194   -0.783718
     47          1           0       -5.147144    1.138631   -1.019747
     48          1           0       -5.472632    0.460461    0.583065
 ---------------------------------------------------------------------
 Rotational constants (GHZ):      0.4120558      0.2181385      0.1883972
 Standard basis: 6-31+G(d,p) (6D, 7F)
 There are   548 symmetry adapted basis functions of A   symmetry.
 Integral buffers will be    131072 words long.
 Raffenetti 2 integral format.
 Two-electron integral symmetry is turned on.
   548 basis functions,   886 primitive gaussians,   548 cartesian basis functions
    83 alpha electrons       83 beta electrons
       nuclear repulsion energy      2016.3039165181 Hartrees.
 NAtoms=   48 NActive=   48 NUniq=   48 SFac= 1.00D+00 NAtFMM=   60 NAOKFM=F Big=F
 ------------------------------------------------------------------------------
 Polarizable Continuum Model (PCM)
 =================================
 Model                : PCM.
 Atomic radii         : UFF (Universal Force Field).
 Polarization charges : Total charges.
 Charge compensation  : None.
 Solution method      : Matrix inversion.
 Cavity type          : Scaled VdW (van der Waals Surface) (Alpha=1.100).
 Cavity algorithm     : GePol (No added spheres)
                        Default sphere list used, NSphG=   48.
                        Lebedev-Laikov grids with approx.  5.0 points / Ang**2.
                        Smoothing algorithm: Karplus/York (Gamma=1.0000).
                        Polarization charges: spherical gaussians, with
                                              point-specific exponents (IZeta= 3).
                        Self-potential: point-specific (ISelfS= 7).
                        Self-field    : sphere-specific E.n sum rule (ISelfD= 2).
 Solvent              : Water, Eps=  78.355300 Eps(inf)=   1.777849
 ------------------------------------------------------------------------------
 One-electron integrals computed using PRISM.
 NBasis=   548 RedAO= T  NBF=   548
 NBsUse=   546 1.00D-06 NBFU=   546
 Harris functional with IExCor=  908 diagonalized for initial guess.
 ExpMin= 4.38D-02 ExpMax= 5.48D+03 ExpMxC= 8.25D+02 IAcc=2 IRadAn=         4 AccDes= 0.00D+00
 HarFok:  IExCor=  908 AccDes= 0.00D+00 IRadAn=         4 IDoV= 1
 ScaDFX=  1.000000  1.000000  1.000000  1.000000
 FoFCou: FMM=F IPFlag=           0 FMFlag=      100000 FMFlg1=           0
         NFxFlg=           0 DoJE=T BraDBF=F KetDBF=T FulRan=T
         Omega=  0.000000  0.000000  1.000000  0.000000  0.000000 ICntrl=     500 IOpCl=  0
         NMat0=    1 NMatS0=    1 NMatT0=    0 NMatD0=    1 NMtDS0=    0 NMtDT0=    0
         I1Cent=           4 NGrid=           0.
 Petite list used in FoFCou.
 Initial guess orbital symmetries:
       Occupied  (A) (A) (A) (A) (A) (A) (A) (A) (A) (A) (A) (A)
                 (A) (A) (A) (A) (A) (A) (A) (A) (A) (A) (A) (A)
                 (A) (A) (A) (A) (A) (A) (A) (A) (A) (A) (A) (A)
                 (A) (A) (A) (A) (A) (A) (A) (A) (A) (A) (A) (A)
                 (A) (A) (A) (A) (A) (A) (A) (A) (A) (A) (A) (A)
                 (A) (A) (A) (A) (A) (A) (A) (A) (A) (A) (A) (A)
                 (A) (A) (A) (A) (A) (A) (A) (A) (A) (A) (A)
       Virtual   (A) (A) (A) (A) (A) (A) (A) (A) (A) (A) (A) (A)
                 (A) (A) (A) (A) (A) (A) (A) (A) (A) (A) (A) (A)
                 (A) (A) (A) (A) (A) (A) (A) (A) (A) (A) (A) (A)
                 (A) (A) (A) (A) (A) (A) (A) (A) (A) (A) (A) (A)
                 (A) (A) (A) (A) (A) (A) (A) (A) (A) (A) (A) (A)
                 (A) (A) (A) (A) (A) (A) (A) (A) (A) (A) (A) (A)
                 (A) (A) (A) (A) (A) (A) (A) (A) (A) (A) (A) (A)
                 (A) (A) (A) (A) (A) (A) (A) (A) (A) (A) (A) (A)
                 (A) (A) (A) (A) (A) (A) (A) (A) (A) (A) (A) (A)
                 (A) (A) (A) (A) (A) (A) (A) (A) (A) (A) (A) (A)
                 (A) (A) (A) (A) (A) (A) (A) (A) (A) (A) (A) (A)
                 (A) (A) (A) (A) (A) (A) (A) (A) (A) (A) (A) (A)
                 (A) (A) (A) (A) (A) (A) (A) (A) (A) (A) (A) (A)
                 (A) (A) (A) (A) (A) (A) (A) (A) (A) (A) (A) (A)
                 (A) (A) (A) (A) (A) (A) (A) (A) (A) (A) (A) (A)
                 (A) (A) (A) (A) (A) (A) (A) (A) (A) (A) (A) (A)
                 (A) (A) (A) (A) (A) (A) (A) (A) (A) (A) (A) (A)
                 (A) (A) (A) (A) (A) (A) (A) (A) (A) (A) (A) (A)
                 (A) (A) (A) (A) (A) (A) (A) (A) (A) (A) (A) (A)
                 (A) (A) (A) (A) (A) (A) (A) (A) (A) (A) (A) (A)
                 (A) (A) (A) (A) (A) (A) (A) (A) (A) (A) (A) (A)
                 (A) (A) (A) (A) (A) (A) (A) (A) (A) (A) (A) (A)
                 (A) (A) (A) (A) (A) (A) (A) (A) (A) (A) (A) (A)
                 (A) (A) (A) (A) (A) (A) (A) (A) (A) (A) (A) (A)
                 (A) (A) (A) (A) (A) (A) (A) (A) (A) (A) (A) (A)
                 (A) (A) (A) (A) (A) (A) (A) (A) (A) (A) (A) (A)
                 (A) (A) (A) (A) (A) (A) (A) (A) (A) (A) (A) (A)
                 (A) (A) (A) (A) (A) (A) (A) (A) (A) (A) (A) (A)
                 (A) (A) (A) (A) (A) (A) (A) (A) (A) (A) (A) (A)
                 (A) (A) (A) (A) (A) (A) (A) (A) (A) (A) (A) (A)
                 (A) (A) (A) (A) (A) (A) (A) (A) (A) (A) (A) (A)
                 (A) (A) (A) (A) (A) (A) (A) (A) (A) (A) (A) (A)
                 (A) (A) (A) (A) (A) (A) (A) (A) (A) (A) (A) (A)
                 (A) (A) (A) (A) (A) (A) (A) (A) (A) (A) (A) (A)
                 (A) (A) (A) (A) (A) (A) (A) (A) (A) (A) (A) (A)
                 (A) (A) (A) (A) (A) (A) (A) (A) (A) (A) (A) (A)
                 (A) (A) (A) (A) (A) (A) (A) (A) (A) (A) (A) (A)
                 (A) (A) (A) (A) (A) (A) (A) (A) (A) (A) (A) (A)
                 (A) (A) (A) (A) (A) (A) (A)
 The electronic state of the initial guess is 1-A.
 Requested convergence on RMS density matrix=1.00D-08 within 128 cycles.
 Requested convergence on MAX density matrix=1.00D-06.
 Requested convergence on             energy=1.00D-06.
 No special actions if energy rises.
 CoulSu:  requested number of processors reduced to:   3 ShMem   1 Linda.
 CoulSu:  requested number of processors reduced to:   3 ShMem   1 Linda.
 Error on total polarization charges =  0.01934
 SCF Done:  E(RmPW1PW91) =  -1002.30676434     A.U. after   14 cycles
             Convg  =    0.5184D-08             -V/T =  2.0094
 Range of M.O.s used for correlation:     1   546
 NBasis=   548 NAE=    83 NBE=    83 NFC=     0 NFV=     0
 NROrb=    546 NOA=    83 NOB=    83 NVA=   463 NVB=   463

 **** Warning!!: The largest alpha MO coefficient is  0.13430099D+03

 NEqPCM:  Using equilibrium solvation (IEInf=0, Eps=  78.3553, EpsInf=   1.7778)
          Differentiating once with respect to magnetic field using GIAOs.
          Electric field/nuclear overlap derivatives assumed to be zero.
 FoFCou: FMM=F IPFlag=           0 FMFlag=    10101102 FMFlg1=           0
         NFxFlg=    40000000 DoJE=F BraDBF=F KetDBF=T FulRan=T
         Omega=  0.000000  0.000000  1.000000  0.000000  0.000000 ICntrl=    6100 IOpCl=  0
         NMat0=    1 NMatS0=    1 NMatT0=    0 NMatD0=    1 NMtDS0=    0 NMtDT0=    0
         I1Cent=           7 NGrid=        2974.
 Symmetry not used in FoFCou.
          There are     3 degrees of freedom in the 1st order CPHF.  IDoFFX=0.
      3 vectors produced by pass  0 Test12= 1.28D-12 3.33D-08 XBig12= 7.11D+02 5.13D+00.
 AX will form     3 AO Fock derivatives at one time.
      3 vectors produced by pass  1 Test12= 1.28D-12 3.33D-08 XBig12= 1.28D+00 2.39D-01.
      3 vectors produced by pass  2 Test12= 1.28D-12 3.33D-08 XBig12= 4.62D-03 3.11D-02.
      3 vectors produced by pass  3 Test12= 1.28D-12 3.33D-08 XBig12= 2.58D-05 2.07D-03.
      3 vectors produced by pass  4 Test12= 1.28D-12 3.33D-08 XBig12= 8.57D-08 6.03D-05.
      3 vectors produced by pass  5 Test12= 1.28D-12 3.33D-08 XBig12= 2.73D-10 2.48D-06.
      3 vectors produced by pass  6 Test12= 1.28D-12 3.33D-08 XBig12= 1.24D-12 2.12D-07.
 Inverted reduced A of dimension    21 with in-core refinement.
 Calculating GIAO nuclear magnetic shielding tensors.
 SCF GIAO Magnetic shielding tensor (ppm):
      1  C    Isotropic =   125.2362   Anisotropy =    44.0350
   XX=   127.1655   YX=     1.1070   ZX=    22.2126
   XY=     5.2546   YY=   110.1272   ZY=     6.8729
   XZ=    19.1852   YZ=    -1.7717   ZZ=   138.4159
   Eigenvalues:   109.3082   111.8076   154.5928
      2  C    Isotropic =   157.3417   Anisotropy =    26.7850
   XX=   152.4247   YX=     7.2595   ZX=    -2.4578
   XY=     6.2426   YY=   172.4944   ZY=     0.0661
   XZ=    -6.1431   YZ=    -6.2728   ZZ=   147.1060
   Eigenvalues:   144.6942   152.1325   175.1983
      3  H    Isotropic =    29.7924   Anisotropy =     8.4241
   XX=    34.1106   YX=     0.6889   ZX=     3.2609
   XY=     1.5431   YY=    29.3347   ZY=     0.5753
   XZ=     2.8870   YZ=     0.8409   ZZ=    25.9320
   Eigenvalues:    24.8819    29.0869    35.4085
      4  H    Isotropic =    29.6503   Anisotropy =     9.1363
   XX=    30.9687   YX=    -1.1861   ZX=    -5.5252
   XY=    -1.0136   YY=    28.2360   ZY=    -0.9848
   XZ=    -5.1481   YZ=    -0.5830   ZZ=    29.7463
   Eigenvalues:    24.5183    28.6915    35.7412
      5  C    Isotropic =   171.6148   Anisotropy =    19.3113
   XX=   177.1381   YX=     3.0201   ZX=   -12.0743
   XY=    -2.8136   YY=   170.5016   ZY=    -1.5761
   XZ=   -10.3815   YZ=     4.6347   ZZ=   167.2046
   Eigenvalues:   159.7274   170.6279   184.4890
      6  H    Isotropic =    30.1525   Anisotropy =    10.4578
   XX=    31.4817   YX=     3.6390   ZX=    -2.6845
   XY=     3.8318   YY=    33.8234   ZY=    -1.3584
   XZ=    -1.8003   YZ=    -1.7317   ZZ=    25.1524
   Eigenvalues:    24.4228    28.9103    37.1244
      7  C    Isotropic =   149.9176   Anisotropy =    21.1976
   XX=   156.4577   YX=    -6.3176   ZX=    -4.7311
   XY=    -7.0268   YY=   154.9131   ZY=     7.4743
   XZ=    -0.3976   YZ=     6.0352   ZZ=   138.3820
   Eigenvalues:   135.9713   149.7322   164.0493
      8  H    Isotropic =    28.9703   Anisotropy =     7.1524
   XX=    28.8770   YX=     1.3751   ZX=     2.0778
   XY=     2.6122   YY=    27.6697   ZY=     3.4201
   XZ=     1.3527   YZ=     2.7999   ZZ=    30.3642
   Eigenvalues:    25.4208    27.7515    33.7385
      9  C    Isotropic =   156.5595   Anisotropy =    26.7342
   XX=   162.0394   YX=    -1.0919   ZX=     7.5111
   XY=    -0.5088   YY=   174.2280   ZY=    -7.4497
   XZ=     3.4023   YZ=     4.1815   ZZ=   133.4112
   Eigenvalues:   132.3553   162.9409   174.3823
     10  H    Isotropic =    27.3536   Anisotropy =     5.3148
   XX=    25.2821   YX=     1.4769   ZX=    -2.6397
   XY=     2.5044   YY=    26.8629   ZY=     0.6670
   XZ=    -1.9319   YZ=     0.1350   ZZ=    29.9159
   Eigenvalues:    23.2408    27.9233    30.8968
     11  C    Isotropic =   117.7050   Anisotropy =    35.3417
   XX=   121.5222   YX=    12.2173   ZX=   -15.6635
   XY=     9.3363   YY=   132.1575   ZY=   -10.6932
   XZ=    -5.3942   YZ=     0.5681   ZZ=    99.4353
   Eigenvalues:    95.2055   116.6433   141.2661
     12  H    Isotropic =    27.6152   Anisotropy =     4.1245
   XX=    27.7522   YX=    -0.2423   ZX=     2.8518
   XY=    -0.8989   YY=    26.5970   ZY=    -0.7518
   XZ=     0.9822   YZ=    -1.0053   ZZ=    28.4964
   Eigenvalues:    26.1067    26.3740    30.3649
     13  C    Isotropic =    90.3933   Anisotropy =   120.6224
   XX=    52.3408   YX=   -35.6011   ZX=   -21.5561
   XY=   -28.9752   YY=   147.6797   ZY=    32.7743
   XZ=   -15.1843   YZ=    31.6969   ZZ=    71.1593
   Eigenvalues:    39.2754    61.0962   170.8083
     14  C    Isotropic =    48.8264   Anisotropy =   192.2705
   XX=   -14.1563   YX=   -50.8116   ZX=   -25.4231
   XY=   -51.9251   YY=   142.2678   ZY=    50.1402
   XZ=   -23.3169   YZ=    50.8879   ZZ=    18.3677
   Eigenvalues:   -31.8333     1.3058   177.0067
     15  C    Isotropic =    39.5599   Anisotropy =   128.6150
   XX=    33.2107   YX=    -6.9584   ZX=   -30.1431
   XY=    -6.5586   YY=    94.3400   ZY=    54.3654
   XZ=   -30.4892   YZ=    64.2110   ZZ=    -8.8710
   Eigenvalues:   -44.0459    37.4223   125.3032
     16  C    Isotropic =    45.3166   Anisotropy =   120.9421
   XX=    18.9595   YX=   -35.0728   ZX=    30.8396
   XY=   -29.2258   YY=   104.5615   ZY=    47.7100
   XZ=    24.7066   YZ=    39.5833   ZZ=    12.4288
   Eigenvalues:   -33.4347    43.4397   125.9447
     17  C    Isotropic =    88.8145   Anisotropy =   101.4449
   XX=    89.1608   YX=    -7.6751   ZX=   -25.1576
   XY=    -2.3112   YY=   144.3133   ZY=    29.4848
   XZ=   -25.4377   YZ=    39.9802   ZZ=    32.9693
   Eigenvalues:    15.7522    94.2468   156.4444
     18  C    Isotropic =    86.6768   Anisotropy =   116.0231
   XX=    65.1149   YX=   -32.7221   ZX=    18.4785
   XY=   -44.2412   YY=   127.4407   ZY=    60.7860
   XZ=    20.7059   YZ=    43.9665   ZZ=    67.4746
   Eigenvalues:    11.0090    84.9958   164.0255
     19  H    Isotropic =    25.0177   Anisotropy =     8.1109
   XX=    29.7339   YX=     2.5043   ZX=    -0.6565
   XY=     2.2424   YY=    21.4132   ZY=    -0.8708
   XZ=    -0.2191   YZ=    -0.7588   ZZ=    23.9061
   Eigenvalues:    20.6423    23.9859    30.4250
     20  H    Isotropic =    24.6183   Anisotropy =     6.8815
   XX=    27.5184   YX=     0.5911   ZX=     2.7497
   XY=     0.7026   YY=    21.5597   ZY=    -1.4786
   XZ=     2.7004   YZ=    -1.5338   ZZ=    24.7768
   Eigenvalues:    20.5291    24.1198    29.2060
     21  O    Isotropic =   219.6358   Anisotropy =    37.7196
   XX=   212.8056   YX=     8.0253   ZX=   -21.6993
   XY=     7.4741   YY=   231.7557   ZY=     8.1572
   XZ=   -40.6899   YZ=     6.5244   ZZ=   214.3461
   Eigenvalues:   180.1637   233.9616   244.7822
     22  H    Isotropic =    26.1965   Anisotropy =    15.5078
   XX=    27.3452   YX=    -0.6881   ZX=     5.1188
   XY=    -1.3186   YY=    21.0288   ZY=    -6.8506
   XZ=     5.8075   YZ=    -5.7109   ZZ=    30.2155
   Eigenvalues:    17.5309    24.5236    36.5350
     23  O    Isotropic =   228.6675   Anisotropy =    84.9518
   XX=   179.5990   YX=    -4.9863   ZX=   -14.3050
   XY=   -28.6932   YY=   245.9407   ZY=    65.3314
   XZ=     7.3094   YZ=    -6.2189   ZZ=   260.4628
   Eigenvalues:   175.4045   225.2960   285.3020
     24  H    Isotropic =    24.0772   Anisotropy =    21.4275
   XX=    33.1478   YX=    -6.7347   ZX=    -6.0774
   XY=   -10.2963   YY=    19.8588   ZY=    -4.4293
   XZ=    -6.6852   YZ=    -1.9802   ZZ=    19.2250
   Eigenvalues:    11.2544    22.6150    38.3622
     25  O    Isotropic =   294.8632   Anisotropy =    28.7709
   XX=   280.4645   YX=    -0.6229   ZX=     6.1894
   XY=    -1.4664   YY=   307.9154   ZY=    11.5104
   XZ=    -4.4416   YZ=     9.3839   ZZ=   296.2096
   Eigenvalues:   280.2905   290.2553   314.0437
     26  H    Isotropic =    28.7683   Anisotropy =    11.0734
   XX=    25.3461   YX=     4.1629   ZX=     1.9363
   XY=     1.3524   YY=    28.5477   ZY=     4.1412
   XZ=     0.9137   YZ=     5.0311   ZZ=    32.4112
   Eigenvalues:    23.5571    26.5973    36.1506
     27  C    Isotropic =   169.3948   Anisotropy =    42.7167
   XX=   174.1290   YX=   -23.2212   ZX=    10.3325
   XY=   -22.5002   YY=   173.9080   ZY=    -0.3653
   XZ=     7.7456   YZ=     1.4022   ZZ=   160.1473
   Eigenvalues:   147.3779   162.9338   197.8725
     28  H    Isotropic =    30.5906   Anisotropy =     9.7604
   XX=    32.0298   YX=    -2.8400   ZX=    -4.2683
   XY=    -3.8174   YY=    29.1777   ZY=     2.1251
   XZ=    -4.0488   YZ=     0.8719   ZZ=    30.5644
   Eigenvalues:    26.3895    28.2848    37.0976
     29  H    Isotropic =    30.1671   Anisotropy =     8.6920
   XX=    29.2327   YX=    -2.3490   ZX=    -1.4952
   XY=    -1.1326   YY=    35.5097   ZY=    -0.7439
   XZ=    -1.9627   YZ=    -0.4136   ZZ=    25.7590
   Eigenvalues:    24.9045    29.6352    35.9618
     30  H    Isotropic =    30.6598   Anisotropy =    10.6860
   XX=    34.0087   YX=    -2.3370   ZX=     4.7816
   XY=    -3.2614   YY=    27.9356   ZY=    -1.4284
   XZ=     4.1687   YZ=    -0.6517   ZZ=    30.0351
   Eigenvalues:    26.4704    27.7251    37.7838
     31  O    Isotropic =   295.4636   Anisotropy =    59.2714
   XX=   307.7289   YX=   -23.5997   ZX=    21.9554
   XY=   -35.4136   YY=   293.5262   ZY=    -4.9230
   XZ=    15.1451   YZ=     7.4925   ZZ=   285.1355
   Eigenvalues:   262.4473   288.9656   334.9778
     32  H    Isotropic =    27.4144   Anisotropy =    25.5912
   XX=    32.0401   YX=   -12.1006   ZX=     5.6763
   XY=   -13.6436   YY=    28.7984   ZY=    -0.8322
   XZ=     5.0882   YZ=    -1.9950   ZZ=    21.4046
   Eigenvalues:    16.0434    21.7245    44.4752
     33  H    Isotropic =    28.8815   Anisotropy =     6.1452
   XX=    28.9893   YX=    -0.3846   ZX=     2.5049
   XY=    -1.3207   YY=    27.2457   ZY=    -2.1891
   XZ=     2.2056   YZ=    -1.9186   ZZ=    30.4093
   Eigenvalues:    26.1884    27.4777    32.9783
     34  C    Isotropic =    46.5153   Anisotropy =   175.5020
   XX=    77.3702   YX=    86.4566   ZX=    63.3353
   XY=    88.4569   YY=    52.2085   ZY=   -14.9025
   XZ=    64.2783   YZ=   -16.8001   ZZ=     9.9671
   Eigenvalues:   -65.5052    41.5343   163.5166
     35  C    Isotropic =    87.8317   Anisotropy =   119.6346
   XX=   100.5778   YX=    59.1563   ZX=    57.9358
   XY=    69.9603   YY=    85.3571   ZY=   -24.6474
   XZ=    50.9875   YZ=   -19.7297   ZZ=    77.5602
   Eigenvalues:    -6.7495   102.6565   167.5881
     36  H    Isotropic =    26.3509   Anisotropy =     6.0105
   XX=    24.1274   YX=    -0.2190   ZX=     0.3612
   XY=    -0.2199   YY=    28.6316   ZY=    -1.9477
   XZ=     1.9010   YZ=    -3.1230   ZZ=    26.2938
   Eigenvalues:    23.4597    25.2351    30.3579
     37  H    Isotropic =    26.4763   Anisotropy =     8.2431
   XX=    23.8432   YX=    -0.9702   ZX=     2.3392
   XY=     0.0589   YY=    29.4195   ZY=    -5.1710
   XZ=     0.7031   YZ=    -2.1282   ZZ=    26.1663
   Eigenvalues:    22.7101    24.7472    31.9717
     38  C    Isotropic =   171.7274   Anisotropy =    38.8791
   XX=   164.0481   YX=   -10.5032   ZX=   -12.0277
   XY=    -7.4426   YY=   160.3480   ZY=     6.7360
   XZ=   -10.0884   YZ=     8.5641   ZZ=   190.7862
   Eigenvalues:   152.9967   164.5388   197.6468
     39  H    Isotropic =    29.8861   Anisotropy =     8.8082
   XX=    27.6940   YX=    -4.2567   ZX=    -0.7313
   XY=    -2.8280   YY=    33.2497   ZY=     1.1687
   XZ=    -1.9353   YZ=     2.7586   ZZ=    28.7146
   Eigenvalues:    25.9175    27.9825    35.7582
     40  H    Isotropic =    30.0376   Anisotropy =     8.7364
   XX=    27.9318   YX=    -0.4113   ZX=     2.2596
   XY=     0.2547   YY=    28.5025   ZY=     3.7110
   XZ=     3.4013   YZ=     2.2211   ZZ=    33.6785
   Eigenvalues:    25.9436    28.3074    35.8619
     41  H    Isotropic =    29.8977   Anisotropy =     5.5301
   XX=    29.1090   YX=     1.5510   ZX=    -4.5668
   XY=     2.9502   YY=    32.2568   ZY=     2.0972
   XZ=    -3.2670   YZ=     0.6452   ZZ=    28.3272
   Eigenvalues:    24.0021    32.1065    33.5844
     42  C    Isotropic =   163.7630   Anisotropy =    29.7321
   XX=   181.4085   YX=    11.2829   ZX=     9.5966
   XY=    -2.8905   YY=   152.3207   ZY=    -2.6232
   XZ=     3.7075   YZ=    -0.0723   ZZ=   157.5596
   Eigenvalues:   150.7875   156.9170   183.5844
     43  H    Isotropic =    29.1434   Anisotropy =     7.2230
   XX=    29.2823   YX=     0.2863   ZX=     1.5280
   XY=     1.4697   YY=    25.8796   ZY=     3.7070
   XZ=     0.7166   YZ=     2.5791   ZZ=    32.2682
   Eigenvalues:    24.5594    28.9120    33.9587
     44  H    Isotropic =    29.0967   Anisotropy =     7.3928
   XX=    29.6988   YX=     2.4799   ZX=    -0.3388
   XY=     2.9323   YY=    31.7102   ZY=    -2.8763
   XZ=     1.3275   YZ=    -2.2293   ZZ=    25.8811
   Eigenvalues:    24.4800    28.7849    34.0252
     45  C    Isotropic =   177.4760   Anisotropy =    29.9990
   XX=   187.3849   YX=    -7.5948   ZX=     0.7650
   XY=   -19.0966   YY=   179.0692   ZY=     1.6687
   XZ=    -4.2221   YZ=     3.4652   ZZ=   165.9738
   Eigenvalues:   165.4224   169.5303   197.4753
     46  H    Isotropic =    30.3016   Anisotropy =    12.1424
   XX=    37.9864   YX=    -0.2198   ZX=     2.2841
   XY=    -2.3771   YY=    26.6898   ZY=    -0.1549
   XZ=     1.3264   YZ=     0.2591   ZZ=    26.2287
   Eigenvalues:    25.8710    26.6374    38.3965
     47  H    Isotropic =    30.6144   Anisotropy =     7.1949
   XX=    30.3147   YX=    -0.9112   ZX=    -0.3199
   XY=    -1.3950   YY=    33.7207   ZY=    -4.2067
   XZ=    -0.9658   YZ=    -2.6422   ZZ=    27.8077
   Eigenvalues:    25.9750    30.4571    35.4110
     48  H    Isotropic =    30.6132   Anisotropy =     7.3210
   XX=    30.3044   YX=    -1.7930   ZX=    -1.5363
   XY=    -3.0990   YY=    27.9885   ZY=     2.8228
   XZ=    -1.7377   YZ=     1.6635   ZZ=    33.5468
   Eigenvalues:    26.2692    30.0765    35.4939
 End of Minotr Frequency-dependent properties file   721 does not exist.
 End of Minotr Frequency-dependent properties file   722 does not exist.

 **********************************************************************

            Population analysis using the SCF density.

 **********************************************************************

 Orbital symmetries:
       Occupied  (A) (A) (A) (A) (A) (A) (A) (A) (A) (A) (A) (A)
                 (A) (A) (A) (A) (A) (A) (A) (A) (A) (A) (A) (A)
                 (A) (A) (A) (A) (A) (A) (A) (A) (A) (A) (A) (A)
                 (A) (A) (A) (A) (A) (A) (A) (A) (A) (A) (A) (A)
                 (A) (A) (A) (A) (A) (A) (A) (A) (A) (A) (A) (A)
                 (A) (A) (A) (A) (A) (A) (A) (A) (A) (A) (A) (A)
                 (A) (A) (A) (A) (A) (A) (A) (A) (A) (A) (A)
       Virtual   (A) (A) (A) (A) (A) (A) (A) (A) (A) (A) (A) (A)
                 (A) (A) (A) (A) (A) (A) (A) (A) (A) (A) (A) (A)
                 (A) (A) (A) (A) (A) (A) (A) (A) (A) (A) (A) (A)
                 (A) (A) (A) (A) (A) (A) (A) (A) (A) (A) (A) (A)
                 (A) (A) (A) (A) (A) (A) (A) (A) (A) (A) (A) (A)
                 (A) (A) (A) (A) (A) (A) (A) (A) (A) (A) (A) (A)
                 (A) (A) (A) (A) (A) (A) (A) (A) (A) (A) (A) (A)
                 (A) (A) (A) (A) (A) (A) (A) (A) (A) (A) (A) (A)
                 (A) (A) (A) (A) (A) (A) (A) (A) (A) (A) (A) (A)
                 (A) (A) (A) (A) (A) (A) (A) (A) (A) (A) (A) (A)
                 (A) (A) (A) (A) (A) (A) (A) (A) (A) (A) (A) (A)
                 (A) (A) (A) (A) (A) (A) (A) (A) (A) (A) (A) (A)
                 (A) (A) (A) (A) (A) (A) (A) (A) (A) (A) (A) (A)
                 (A) (A) (A) (A) (A) (A) (A) (A) (A) (A) (A) (A)
                 (A) (A) (A) (A) (A) (A) (A) (A) (A) (A) (A) (A)
                 (A) (A) (A) (A) (A) (A) (A) (A) (A) (A) (A) (A)
                 (A) (A) (A) (A) (A) (A) (A) (A) (A) (A) (A) (A)
                 (A) (A) (A) (A) (A) (A) (A) (A) (A) (A) (A) (A)
                 (A) (A) (A) (A) (A) (A) (A) (A) (A) (A) (A) (A)
                 (A) (A) (A) (A) (A) (A) (A) (A) (A) (A) (A) (A)
                 (A) (A) (A) (A) (A) (A) (A) (A) (A) (A) (A) (A)
                 (A) (A) (A) (A) (A) (A) (A) (A) (A) (A) (A) (A)
                 (A) (A) (A) (A) (A) (A) (A) (A) (A) (A) (A) (A)
                 (A) (A) (A) (A) (A) (A) (A) (A) (A) (A) (A) (A)
                 (A) (A) (A) (A) (A) (A) (A) (A) (A) (A) (A) (A)
                 (A) (A) (A) (A) (A) (A) (A) (A) (A) (A) (A) (A)
                 (A) (A) (A) (A) (A) (A) (A) (A) (A) (A) (A) (A)
                 (A) (A) (A) (A) (A) (A) (A) (A) (A) (A) (A) (A)
                 (A) (A) (A) (A) (A) (A) (A) (A) (A) (A) (A) (A)
                 (A) (A) (A) (A) (A) (A) (A) (A) (A) (A) (A) (A)
                 (A) (A) (A) (A) (A) (A) (A) (A) (A) (A) (A) (A)
                 (A) (A) (A) (A) (A) (A) (A) (A) (A) (A) (A) (A)
                 (A) (A) (A) (A) (A) (A) (A) (A) (A) (A) (A) (A)
                 (A) (A) (A) (A) (A) (A) (A) (A) (A) (A) (A) (A)
                 (A) (A) (A) (A) (A) (A) (A) (A) (A) (A) (A) (A)
                 (A) (A) (A) (A) (A) (A) (A) (A) (A) (A) (A) (A)
                 (A) (A) (A) (A) (A) (A) (A) (A) (A) (A) (A) (A)
                 (A) (A) (A) (A) (A) (A) (A) (A) (A) (A) (A) (A)
                 (A) (A) (A) (A) (A) (A) (A)
 The electronic state is 1-A.
 Alpha  occ. eigenvalues --  -19.29277 -19.27076 -19.26562 -19.25071 -10.32396
 Alpha  occ. eigenvalues --  -10.31669 -10.31288 -10.31018 -10.27318 -10.26850
 Alpha  occ. eigenvalues --  -10.26766 -10.26688 -10.26606 -10.25050 -10.25004
 Alpha  occ. eigenvalues --  -10.24531 -10.24510 -10.24025 -10.23947 -10.23748
 Alpha  occ. eigenvalues --  -10.23747 -10.23581  -1.11209  -1.08867  -1.07536
 Alpha  occ. eigenvalues --   -1.05116  -0.88904  -0.86712  -0.82252  -0.82176
 Alpha  occ. eigenvalues --   -0.78639  -0.77168  -0.76153  -0.74358  -0.70748
 Alpha  occ. eigenvalues --   -0.70222  -0.67145  -0.65465  -0.63385  -0.62699
 Alpha  occ. eigenvalues --   -0.60851  -0.59100  -0.57078  -0.55676  -0.53578
 Alpha  occ. eigenvalues --   -0.52378  -0.51692  -0.50321  -0.49619  -0.48859
 Alpha  occ. eigenvalues --   -0.47929  -0.46518  -0.46109  -0.45814  -0.44990
 Alpha  occ. eigenvalues --   -0.44204  -0.43615  -0.43469  -0.42825  -0.42437
 Alpha  occ. eigenvalues --   -0.42238  -0.41220  -0.40062  -0.39841  -0.39227
 Alpha  occ. eigenvalues --   -0.38720  -0.38635  -0.37803  -0.37306  -0.36648
 Alpha  occ. eigenvalues --   -0.36107  -0.35285  -0.34994  -0.34616  -0.34036
 Alpha  occ. eigenvalues --   -0.33518  -0.32625  -0.31961  -0.30598  -0.28848
 Alpha  occ. eigenvalues --   -0.26063  -0.24700  -0.23815
 Alpha virt. eigenvalues --   -0.01111  -0.00225  -0.00167   0.00689   0.01420
 Alpha virt. eigenvalues --    0.01704   0.02095   0.02819   0.03088   0.03496
 Alpha virt. eigenvalues --    0.03949   0.04461   0.04615   0.04855   0.05293
 Alpha virt. eigenvalues --    0.05748   0.06402   0.06720   0.07141   0.07358
 Alpha virt. eigenvalues --    0.07842   0.08111   0.08489   0.08819   0.09412
 Alpha virt. eigenvalues --    0.09547   0.10263   0.10399   0.10811   0.11035
 Alpha virt. eigenvalues --    0.11300   0.11653   0.12239   0.12629   0.12790
 Alpha virt. eigenvalues --    0.13174   0.13299   0.13838   0.14438   0.14914
 Alpha virt. eigenvalues --    0.14990   0.15414   0.16026   0.16121   0.16540
 Alpha virt. eigenvalues --    0.16648   0.16970   0.17230   0.17564   0.17984
 Alpha virt. eigenvalues --    0.18179   0.18343   0.18591   0.18926   0.19260
 Alpha virt. eigenvalues --    0.19593   0.20087   0.20220   0.20748   0.20866
 Alpha virt. eigenvalues --    0.21251   0.21446   0.21836   0.21999   0.22253
 Alpha virt. eigenvalues --    0.22633   0.22754   0.22811   0.23106   0.23325
 Alpha virt. eigenvalues --    0.23819   0.24169   0.24463   0.24754   0.25029
 Alpha virt. eigenvalues --    0.25352   0.25675   0.25688   0.26197   0.26584
 Alpha virt. eigenvalues --    0.26827   0.27147   0.27516   0.28165   0.28245
 Alpha virt. eigenvalues --    0.28434   0.28827   0.29026   0.29117   0.29480
 Alpha virt. eigenvalues --    0.30137   0.30413   0.30826   0.31085   0.31525
 Alpha virt. eigenvalues --    0.31961   0.32117   0.32385   0.32735   0.33218
 Alpha virt. eigenvalues --    0.33260   0.33915   0.34174   0.34542   0.34967
 Alpha virt. eigenvalues --    0.35239   0.35882   0.36254   0.36742   0.37218
 Alpha virt. eigenvalues --    0.37845   0.37917   0.38008   0.38658   0.39098
 Alpha virt. eigenvalues --    0.39655   0.40153   0.40585   0.41936   0.42311
 Alpha virt. eigenvalues --    0.42541   0.42689   0.43840   0.44314   0.44911
 Alpha virt. eigenvalues --    0.46117   0.46632   0.47305   0.48015   0.48684
 Alpha virt. eigenvalues --    0.49585   0.50343   0.52097   0.52275   0.53045
 Alpha virt. eigenvalues --    0.55423   0.56347   0.60273   0.63620   0.65661
 Alpha virt. eigenvalues --    0.67611   0.68231   0.69233   0.70054   0.70469
 Alpha virt. eigenvalues --    0.70928   0.72085   0.72477   0.73437   0.74163
 Alpha virt. eigenvalues --    0.74344   0.74649   0.74991   0.75330   0.76205
 Alpha virt. eigenvalues --    0.77143   0.77331   0.78348   0.79281   0.79799
 Alpha virt. eigenvalues --    0.80190   0.81010   0.81373   0.82986   0.84639
 Alpha virt. eigenvalues --    0.84874   0.85854   0.86472   0.87336   0.87832
 Alpha virt. eigenvalues --    0.87920   0.88392   0.89490   0.90408   0.91448
 Alpha virt. eigenvalues --    0.91767   0.93261   0.93530   0.94275   0.95241
 Alpha virt. eigenvalues --    0.95553   0.96240   0.96731   0.97618   0.98848
 Alpha virt. eigenvalues --    0.99744   1.00896   1.01334   1.01834   1.03965
 Alpha virt. eigenvalues --    1.04875   1.05411   1.05934   1.06685   1.07806
 Alpha virt. eigenvalues --    1.08706   1.09365   1.10873   1.11374   1.12226
 Alpha virt. eigenvalues --    1.13161   1.13550   1.14027   1.14993   1.15659
 Alpha virt. eigenvalues --    1.16140   1.16546   1.17040   1.18619   1.18799
 Alpha virt. eigenvalues --    1.19688   1.19989   1.20380   1.22163   1.22664
 Alpha virt. eigenvalues --    1.23256   1.23597   1.24263   1.24715   1.25735
 Alpha virt. eigenvalues --    1.26393   1.27434   1.28359   1.29392   1.30062
 Alpha virt. eigenvalues --    1.31277   1.32155   1.32585   1.33291   1.33673
 Alpha virt. eigenvalues --    1.34443   1.35668   1.36142   1.37323   1.38268
 Alpha virt. eigenvalues --    1.38751   1.40108   1.40947   1.41540   1.43656
 Alpha virt. eigenvalues --    1.44287   1.45724   1.46867   1.47354   1.49021
 Alpha virt. eigenvalues --    1.49491   1.51704   1.52354   1.53171   1.54150
 Alpha virt. eigenvalues --    1.55758   1.56937   1.57605   1.58167   1.60022
 Alpha virt. eigenvalues --    1.61717   1.63019   1.64919   1.65553   1.66105
 Alpha virt. eigenvalues --    1.67456   1.68732   1.69636   1.71357   1.71849
 Alpha virt. eigenvalues --    1.73521   1.76169   1.77708   1.79459   1.80621
 Alpha virt. eigenvalues --    1.81500   1.82129   1.82885   1.84305   1.85052
 Alpha virt. eigenvalues --    1.85719   1.86319   1.86328   1.87886   1.88643
 Alpha virt. eigenvalues --    1.88921   1.90432   1.91032   1.91406   1.92030
 Alpha virt. eigenvalues --    1.92788   1.94016   1.94699   1.95385   1.95898
 Alpha virt. eigenvalues --    1.97461   1.97721   1.98648   1.99194   2.01204
 Alpha virt. eigenvalues --    2.01735   2.02914   2.04054   2.04851   2.05654
 Alpha virt. eigenvalues --    2.06368   2.06778   2.07016   2.07674   2.08778
 Alpha virt. eigenvalues --    2.10185   2.10560   2.12024   2.13125   2.13339
 Alpha virt. eigenvalues --    2.14071   2.14193   2.14368   2.15320   2.15825
 Alpha virt. eigenvalues --    2.16236   2.18204   2.19030   2.19520   2.20173
 Alpha virt. eigenvalues --    2.20904   2.22164   2.22424   2.24190   2.24834
 Alpha virt. eigenvalues --    2.25761   2.26398   2.26751   2.28073   2.29378
 Alpha virt. eigenvalues --    2.30406   2.32319   2.32553   2.33627   2.34910
 Alpha virt. eigenvalues --    2.35962   2.36937   2.37796   2.38689   2.39961
 Alpha virt. eigenvalues --    2.41365   2.43530   2.44416   2.45687   2.46856
 Alpha virt. eigenvalues --    2.48006   2.49048   2.50061   2.50301   2.51557
 Alpha virt. eigenvalues --    2.52516   2.52733   2.54594   2.55460   2.56408
 Alpha virt. eigenvalues --    2.57022   2.57446   2.58253   2.60282   2.60314
 Alpha virt. eigenvalues --    2.61281   2.62371   2.62763   2.63374   2.65187
 Alpha virt. eigenvalues --    2.65399   2.67169   2.68165   2.68933   2.69947
 Alpha virt. eigenvalues --    2.70470   2.71662   2.71920   2.73065   2.73435
 Alpha virt. eigenvalues --    2.74687   2.75209   2.75667   2.77620   2.78342
 Alpha virt. eigenvalues --    2.79580   2.79942   2.80532   2.82115   2.82732
 Alpha virt. eigenvalues --    2.83436   2.84525   2.84813   2.85653   2.87708
 Alpha virt. eigenvalues --    2.88570   2.89049   2.89629   2.89886   2.91048
 Alpha virt. eigenvalues --    2.91276   2.92248   2.94568   2.95219   2.96450
 Alpha virt. eigenvalues --    2.97767   2.99533   3.01019   3.03352   3.06710
 Alpha virt. eigenvalues --    3.07233   3.08561   3.10754   3.11522   3.12648
 Alpha virt. eigenvalues --    3.18631   3.19236   3.24490   3.27405   3.29073
 Alpha virt. eigenvalues --    3.30293   3.31306   3.35849   3.36709   3.38880
 Alpha virt. eigenvalues --    3.41063   3.42558   3.45276   3.47134   3.49518
 Alpha virt. eigenvalues --    3.49655   3.50074   3.51418   3.51455   3.53594
 Alpha virt. eigenvalues --    3.54504   3.55162   3.57507   3.59593   3.60179
 Alpha virt. eigenvalues --    3.62255   3.63295   3.65478   3.66066   3.72570
 Alpha virt. eigenvalues --    3.76677   4.36781   4.38025   4.39673   4.46593
 Alpha virt. eigenvalues --    4.47681   4.48723   4.51945   4.55129   4.55865
 Alpha virt. eigenvalues --    4.59248   4.61320   4.64674   4.67652   4.69421
 Alpha virt. eigenvalues --    4.72035   4.75363   4.78525   4.89611   4.94446
 Alpha virt. eigenvalues --    4.97549   4.99975   5.12629
          Condensed to atoms (all electrons):
              1          2          3          4          5          6
     1  C   12.405951  -1.294882  -0.003456  -0.059920  -0.255668   0.037957
     2  C   -1.294882   7.115049   0.368841   0.387307  -0.153414   0.006862
     3  H   -0.003456   0.368841   0.533783  -0.026158  -0.051535  -0.007403
     4  H   -0.059920   0.387307  -0.026158   0.522928  -0.029235  -0.001416
     5  C   -0.255668  -0.153414  -0.051535  -0.029235   7.704187   0.356611
     6  H    0.037957   0.006862  -0.007403  -0.001416   0.356611   0.539778
     7  C   -0.903767   0.018527   0.014743   0.020130   0.247025  -0.190313
     8  H   -0.015142   0.039821   0.002502  -0.000040  -0.096434  -0.006526
     9  C    2.879242  -0.152810   0.021752   0.007369  -1.184321   0.077563
    10  H   -0.031444  -0.004725  -0.000049   0.000011   0.032298  -0.000153
    11  C   -4.423250   0.293780  -0.059075   0.046069   0.788177  -0.006059
    12  H    0.091017  -0.009157   0.001212  -0.000046  -0.020765  -0.000015
    13  C   -0.550520  -0.177066   0.008943   0.007601  -0.698535  -0.029458
    14  C   -0.074620   0.070194   0.000102  -0.000073  -0.077825   0.000122
    15  C   -0.614813   0.198134   0.002556   0.001331  -0.314629  -0.003106
    16  C    0.790661   0.443580  -0.007322  -0.006228  -0.281093   0.013192
    17  C   -0.142688   0.166353  -0.000881  -0.000986  -0.381233   0.000012
    18  C   -0.194810   0.018147   0.000259   0.000146   0.010923  -0.000091
    19  H   -0.001596   0.000198   0.000000   0.000000   0.000527   0.000000
    20  H    0.000412  -0.000006   0.000000   0.000000  -0.000031   0.000000
    21  O   -0.004843   0.003799   0.000250   0.000980  -0.076549   0.000802
    22  H   -0.008162   0.000018   0.000001   0.000001   0.008846  -0.000041
    23  O   -0.007254   0.004464  -0.000005  -0.000004  -0.009223   0.000002
    24  H   -0.015886   0.001511   0.000000   0.000000   0.002244   0.000000
    25  O    0.030411  -0.048363   0.000057  -0.000449  -0.058457   0.000096
    26  H   -0.009063   0.028342  -0.000022  -0.000004  -0.005494   0.000000
    27  C   -2.406138  -0.472598   0.011874  -0.037791   0.074328  -0.006792
    28  H   -0.143968   0.003444   0.000050   0.002390   0.003416  -0.000006
    29  H   -0.027594   0.010687   0.000074  -0.000009  -0.009533   0.000002
    30  H   -0.109447   0.008149   0.001317   0.000248   0.004578  -0.000002
    31  O    0.439166  -0.011155   0.007787  -0.002933   0.027750  -0.000109
    32  H    0.073878  -0.044233  -0.000078  -0.001039  -0.004388  -0.000066
    33  H    0.018663  -0.058364   0.004889  -0.006220   0.440087  -0.030912
    34  C    0.638905  -0.240487  -0.001510  -0.006043   1.278163   0.099689
    35  C   -0.066970  -0.021494  -0.002542  -0.001047  -1.025995  -0.027301
    36  H   -0.000609   0.001185   0.000000   0.000000  -0.013443   0.000029
    37  H   -0.003047   0.000671  -0.000001   0.000012  -0.002805  -0.000621
    38  C   -0.079867   0.013570   0.000825   0.000679   0.187313   0.003010
    39  H   -0.000675   0.000819   0.000000   0.000000  -0.014062  -0.000003
    40  H   -0.002270   0.001314   0.000000   0.000000  -0.002173   0.000006
    41  H    0.004531  -0.001750   0.000000   0.000000   0.014596  -0.000004
    42  C   -0.030103   0.007674   0.000005   0.000001  -0.008381  -0.000010
    43  H   -0.000038  -0.000008   0.000000   0.000000   0.000002   0.000000
    44  H   -0.000018   0.000002   0.000000   0.000000   0.000003   0.000000
    45  C    0.000004  -0.000159   0.000000   0.000000   0.000329   0.000000
    46  H    0.000001   0.000000   0.000000   0.000000   0.000000   0.000000
    47  H   -0.000011   0.000003   0.000000   0.000000  -0.000006   0.000000
    48  H   -0.000004   0.000000   0.000000   0.000000  -0.000002   0.000000
              7          8          9         10         11         12
     1  C   -0.903767  -0.015142   2.879242  -0.031444  -4.423250   0.091017
     2  C    0.018527   0.039821  -0.152810  -0.004725   0.293780  -0.009157
     3  H    0.014743   0.002502   0.021752  -0.000049  -0.059075   0.001212
     4  H    0.020130  -0.000040   0.007369   0.000011   0.046069  -0.000046
     5  C    0.247025  -0.096434  -1.184321   0.032298   0.788177  -0.020765
     6  H   -0.190313  -0.006526   0.077563  -0.000153  -0.006059  -0.000015
     7  C   21.485510   0.166596  -6.880580   0.053750   2.899460  -0.057860
     8  H    0.166596   0.561636   0.060878  -0.010029  -0.064131   0.002883
     9  C   -6.880580   0.060878  22.644446   0.258474  -6.471147   0.146966
    10  H    0.053750  -0.010029   0.258474   0.539847   0.048027  -0.012228
    11  C    2.899460  -0.064131  -6.471147   0.048027  17.091390   0.000880
    12  H   -0.057860   0.002883   0.146966  -0.012228   0.000880   0.552534
    13  C   -5.703403   0.093959  -4.131944  -0.014192  -0.561538   0.169209
    14  C   -0.274190   0.003824  -0.702875   0.000184  -0.205626   0.001267
    15  C   -1.213642   0.035214  -2.534551   0.035382  -0.318671   0.030848
    16  C    1.569229   0.002840   4.759630  -0.055737  -2.589669  -0.032374
    17  C    1.045058   0.001295  -2.445631   0.004168  -0.117251   0.000435
    18  C   -0.552023   0.003118  -0.692637   0.021872  -0.076183   0.005394
    19  H    0.000725   0.000000   0.010028   0.000002   0.001645   0.000000
    20  H    0.002420   0.000000   0.005909  -0.000005  -0.001196   0.000000
    21  O   -0.132156   0.000984   0.009576  -0.000387   0.098716   0.000085
    22  H    0.001236   0.000002   0.000336   0.000003   0.004017   0.000000
    23  O    0.028332  -0.000117  -0.187716  -0.003833   0.019954  -0.000589
    24  H    0.058744   0.000006   0.070493   0.000923   0.037653  -0.001160
    25  O   -0.102393   0.000013  -0.426554  -0.015587   0.461418  -0.043516
    26  H   -0.012919   0.000010  -0.022313   0.000207  -0.082807   0.006028
    27  C    0.461743   0.004680  -1.042586  -0.001982   1.063712  -0.044801
    28  H   -0.000002   0.000000  -0.011618   0.000002   0.044722   0.000022
    29  H   -0.001547   0.000001  -0.000464  -0.000001  -0.029859   0.000174
    30  H    0.003838   0.000006   0.002478   0.000000   0.011926   0.001713
    31  O   -0.144461  -0.000252   0.067325   0.000115  -0.233140   0.007331
    32  H    0.043645  -0.000040   0.020380  -0.000163  -0.055200  -0.000186
    33  H   -0.104897   0.004921   0.019990  -0.000107  -0.038046   0.000040
    34  C   -5.271381   0.032879   2.110937  -0.071658  -1.113248   0.027260
    35  C   -2.586640   0.035048   0.994897   0.002289  -0.450965   0.002249
    36  H    0.069399  -0.000129  -0.000155   0.000003   0.001054   0.000000
    37  H   -0.057601   0.000135  -0.003183  -0.000001  -0.006740   0.000000
    38  C    2.176020  -0.044081  -0.750668   0.020489   0.263094  -0.000622
    39  H    0.067252  -0.000003  -0.003208   0.000060  -0.001123   0.000000
    40  H   -0.060792   0.004272   0.029703   0.000144   0.005566   0.000007
    41  H    0.124139  -0.000484   0.031942  -0.002061   0.005289   0.000010
    42  C   -0.016147   0.000182  -0.327762  -0.000306  -0.025956   0.000145
    43  H   -0.000189   0.000000  -0.001745   0.000000   0.000044   0.000000
    44  H   -0.000022   0.000000   0.001365   0.000000   0.000026   0.000000
    45  C   -0.000959  -0.000003   0.000725   0.000007   0.001328   0.000000
    46  H    0.000008   0.000000   0.000088   0.000000  -0.000006   0.000000
    47  H    0.000047   0.000000   0.000104   0.000000   0.000010   0.000000
    48  H    0.000064   0.000000  -0.000699   0.000000  -0.000031   0.000000
             13         14         15         16         17         18
     1  C   -0.550520  -0.074620  -0.614813   0.790661  -0.142688  -0.194810
     2  C   -0.177066   0.070194   0.198134   0.443580   0.166353   0.018147
     3  H    0.008943   0.000102   0.002556  -0.007322  -0.000881   0.000259
     4  H    0.007601  -0.000073   0.001331  -0.006228  -0.000986   0.000146
     5  C   -0.698535  -0.077825  -0.314629  -0.281093  -0.381233   0.010923
     6  H   -0.029458   0.000122  -0.003106   0.013192   0.000012  -0.000091
     7  C   -5.703403  -0.274190  -1.213642   1.569229   1.045058  -0.552023
     8  H    0.093959   0.003824   0.035214   0.002840   0.001295   0.003118
     9  C   -4.131944  -0.702875  -2.534551   4.759630  -2.445631  -0.692637
    10  H   -0.014192   0.000184   0.035382  -0.055737   0.004168   0.021872
    11  C   -0.561538  -0.205626  -0.318671  -2.589669  -0.117251  -0.076183
    12  H    0.169209   0.001267   0.030848  -0.032374   0.000435   0.005394
    13  C   41.440891  -2.846768   0.957539 -18.224706  -4.946700  -0.776517
    14  C   -2.846768  11.458567  -0.441698  -0.119914   1.301802  -0.446312
    15  C    0.957539  -0.441698  10.556259  -1.874320   0.568885   0.538196
    16  C  -18.224706  -0.119914  -1.874320  25.521480   0.240234  -2.021786
    17  C   -4.946700   1.301802   0.568885   0.240234  13.412519  -2.614389
    18  C   -0.776517  -0.446312   0.538196  -2.021786  -2.614389  12.462816
    19  H    0.010666   0.098546  -0.018590  -0.034920   0.272097   0.006986
    20  H    0.092454   0.015801   0.089066  -0.008408   0.034135   0.124352
    21  O   -0.287563   0.037115  -0.072721   0.113166   0.177836  -0.006840
    22  H    0.101599   0.017160   0.002967  -0.045115  -0.063469   0.005121
    23  O    0.197961   0.104491   0.178593  -0.032263   0.036086  -0.312755
    24  H   -0.263664  -0.013484   0.044663   0.024650  -0.012875   0.094876
    25  O    0.338150  -0.031389   0.022456  -0.258258  -0.015379   0.024311
    26  H    0.092589   0.008723   0.050710  -0.038697   0.009495   0.020972
    27  C   -0.444728  -0.027223  -0.101112  -0.030161   0.018027  -0.018804
    28  H    0.003253   0.000016   0.001080  -0.002475  -0.000066   0.000119
    29  H   -0.000866  -0.000077  -0.000292  -0.002086  -0.000412   0.000122
    30  H    0.006720   0.000030   0.001354  -0.000689   0.000181   0.000078
    31  O    0.517389  -0.008997   0.058337  -0.287266  -0.075304   0.027175
    32  H   -0.252469   0.000779  -0.029733   0.173342   0.038803  -0.013475
    33  H    0.041577   0.002953   0.012941  -0.000879  -0.001695   0.001323
    34  C   -0.762973   0.120032  -0.309800   0.816978  -0.358655  -0.044794
    35  C    2.776640  -0.034370   0.443652  -1.303580  -0.079727   0.152758
    36  H    0.011363  -0.001774   0.000792  -0.005594  -0.001753   0.000681
    37  H    0.070260  -0.003714   0.005626  -0.033720  -0.010718   0.001163
    38  C   -0.783470  -0.018922  -0.136328   0.288573   0.046309  -0.064177
    39  H   -0.002196  -0.000775   0.001011   0.006357   0.001031   0.000388
    40  H    0.000357   0.002701   0.015137   0.017985   0.002456   0.001430
    41  H   -0.041215  -0.012938  -0.049639   0.001267  -0.012559  -0.020709
    42  C   -0.484265  -1.782703   0.045185  -0.872442   0.551750   0.518393
    43  H    0.010724  -0.284895  -0.029604   0.046288   0.210331  -0.117529
    44  H   -0.000374  -0.247469   0.062677  -0.027449  -0.117270   0.168046
    45  C    0.025386  -0.037505   0.025557  -0.009724   0.035114   0.000626
    46  H    0.002344   0.015728   0.000767   0.003091   0.008927   0.009130
    47  H   -0.003049  -0.031633   0.003312  -0.014198  -0.024853   0.024304
    48  H   -0.000990  -0.037913  -0.005799  -0.000498   0.033139  -0.034458
             19         20         21         22         23         24
     1  C   -0.001596   0.000412  -0.004843  -0.008162  -0.007254  -0.015886
     2  C    0.000198  -0.000006   0.003799   0.000018   0.004464   0.001511
     3  H    0.000000   0.000000   0.000250   0.000001  -0.000005   0.000000
     4  H    0.000000   0.000000   0.000980   0.000001  -0.000004   0.000000
     5  C    0.000527  -0.000031  -0.076549   0.008846  -0.009223   0.002244
     6  H    0.000000   0.000000   0.000802  -0.000041   0.000002   0.000000
     7  C    0.000725   0.002420  -0.132156   0.001236   0.028332   0.058744
     8  H    0.000000   0.000000   0.000984   0.000002  -0.000117   0.000006
     9  C    0.010028   0.005909   0.009576   0.000336  -0.187716   0.070493
    10  H    0.000002  -0.000005  -0.000387   0.000003  -0.003833   0.000923
    11  C    0.001645  -0.001196   0.098716   0.004017   0.019954   0.037653
    12  H    0.000000   0.000000   0.000085   0.000000  -0.000589  -0.001160
    13  C    0.010666   0.092454  -0.287563   0.101599   0.197961  -0.263664
    14  C    0.098546   0.015801   0.037115   0.017160   0.104491  -0.013484
    15  C   -0.018590   0.089066  -0.072721   0.002967   0.178593   0.044663
    16  C   -0.034920  -0.008408   0.113166  -0.045115  -0.032263   0.024650
    17  C    0.272097   0.034135   0.177836  -0.063469   0.036086  -0.012875
    18  C    0.006986   0.124352  -0.006840   0.005121  -0.312755   0.094876
    19  H    0.520461  -0.000134  -0.022843   0.009159   0.000087   0.000000
    20  H   -0.000134   0.511206   0.000105  -0.000001  -0.007025   0.000072
    21  O   -0.022843   0.000105   8.370997   0.190646  -0.000189  -0.000361
    22  H    0.009159  -0.000001   0.190646   0.339713   0.000034   0.000000
    23  O    0.000087  -0.007025  -0.000189   0.000034   8.282840   0.213585
    24  H    0.000000   0.000072  -0.000361   0.000000   0.213585   0.331016
    25  O   -0.000026  -0.000010   0.003029  -0.000189  -0.005439   0.027099
    26  H    0.000000  -0.000004   0.000268   0.000004  -0.002245  -0.003264
    27  C   -0.000108   0.000026   0.004229  -0.000835  -0.003773  -0.000542
    28  H    0.000000   0.000000  -0.000028   0.000000  -0.000001   0.000000
    29  H    0.000000   0.000000   0.000018   0.000000   0.000024   0.000000
    30  H    0.000000   0.000000  -0.000012   0.000000   0.000006  -0.000003
    31  O   -0.000044  -0.000006  -0.001298   0.001939   0.001708  -0.000348
    32  H   -0.000034   0.000000   0.015756  -0.001020  -0.000163   0.000003
    33  H   -0.000004   0.000000  -0.011217   0.000933  -0.000008   0.000000
    34  C   -0.000752  -0.000541   0.027973  -0.006220   0.001184  -0.015782
    35  C    0.000019  -0.000081   0.100400  -0.003506  -0.002029  -0.000799
    36  H    0.000000   0.000000   0.000167  -0.000009   0.000003   0.000000
    37  H   -0.000001   0.000000   0.001953  -0.000051  -0.000002   0.000000
    38  C    0.000461   0.000412  -0.039628   0.002037   0.000935   0.004205
    39  H    0.000000   0.000000  -0.000083   0.000000   0.000010   0.000000
    40  H    0.000000   0.000000   0.000070   0.000000  -0.000248   0.000002
    41  H    0.000000  -0.000004  -0.000903   0.000001   0.001606  -0.000002
    42  C   -0.026185  -0.038082  -0.015442   0.007497  -0.007000   0.000873
    43  H    0.002203   0.000074  -0.000005   0.000006   0.000045   0.000000
    44  H    0.000079   0.001925   0.000030   0.000000   0.000012   0.000000
    45  C    0.007675   0.005009  -0.000164   0.000323   0.000340  -0.000089
    46  H   -0.000029  -0.000025  -0.000002   0.000000   0.000000   0.000000
    47  H    0.000189   0.000005   0.000017   0.000001   0.000008   0.000000
    48  H    0.000010   0.000146   0.000003   0.000000   0.000012   0.000000
             25         26         27         28         29         30
     1  C    0.030411  -0.009063  -2.406138  -0.143968  -0.027594  -0.109447
     2  C   -0.048363   0.028342  -0.472598   0.003444   0.010687   0.008149
     3  H    0.000057  -0.000022   0.011874   0.000050   0.000074   0.001317
     4  H   -0.000449  -0.000004  -0.037791   0.002390  -0.000009   0.000248
     5  C   -0.058457  -0.005494   0.074328   0.003416  -0.009533   0.004578
     6  H    0.000096   0.000000  -0.006792  -0.000006   0.000002  -0.000002
     7  C   -0.102393  -0.012919   0.461743  -0.000002  -0.001547   0.003838
     8  H    0.000013   0.000010   0.004680   0.000000   0.000001   0.000006
     9  C   -0.426554  -0.022313  -1.042586  -0.011618  -0.000464   0.002478
    10  H   -0.015587   0.000207  -0.001982   0.000002  -0.000001   0.000000
    11  C    0.461418  -0.082807   1.063712   0.044722  -0.029859   0.011926
[...]
    16  C   -0.228532  -0.009616  -0.195250  -0.000654   0.000444  -0.003832
    17  C   -0.034010   0.006468   0.007181   0.000219  -0.000215   0.000114
    18  C    0.064246   0.007105   0.024212   0.000004   0.000082   0.000224
    19  H   -0.000036   0.000000  -0.000110   0.000000   0.000000   0.000000
    20  H    0.000035  -0.000004   0.000023   0.000000   0.000000   0.000000
    21  O    0.003949   0.000356  -0.001224  -0.000062  -0.000013  -0.000013
    22  H   -0.000186   0.000004  -0.001230   0.000000   0.000000   0.000000
    23  O   -0.015161  -0.001512  -0.002666   0.000000   0.000009   0.000011
    24  H    0.028807  -0.002720  -0.000439   0.000000   0.000001  -0.000002
    25  O    8.365574   0.239689   0.045664  -0.000934   0.006667  -0.001429
    26  H    0.239689   0.327338  -0.043624   0.000044   0.000401   0.000107
    27  C    0.045664  -0.043624   8.614981   0.495468   0.490707   0.452445
    28  H   -0.000934   0.000044   0.495468   0.536063  -0.029590  -0.026447
    29  H    0.006667   0.000401   0.490707  -0.029590   0.532120  -0.026575
    30  H   -0.001429   0.000107   0.452445  -0.026447  -0.026575   0.522788
    31  O   -0.031653   0.027018  -0.339934   0.000790  -0.000780   0.005482
    32  H   -0.000204  -0.001572   0.067965  -0.000022  -0.000035  -0.000199
    33  H   -0.000224  -0.000001   0.000314  -0.000004   0.000002  -0.000001
    34  C    0.037415   0.002115  -0.083971  -0.000408  -0.000022  -0.000565
    35  C    0.016838  -0.000192   0.002048   0.000109  -0.000091   0.000078
    36  H   -0.000001   0.000000  -0.000024   0.000000   0.000000   0.000000
    37  H    0.000006   0.000000  -0.000270   0.000000   0.000000   0.000000
    38  C   -0.014055   0.000091  -0.026411  -0.000007  -0.000011  -0.000018
    39  H    0.000002   0.000000  -0.000029   0.000000   0.000000   0.000000
    40  H    0.000030   0.000000  -0.000033   0.000000   0.000000   0.000000
    41  H   -0.000052   0.000000  -0.000016   0.000000   0.000000   0.000000
    42  C   -0.000890   0.000526  -0.000516   0.000003  -0.000009   0.000003
    43  H    0.000003   0.000000  -0.000002   0.000000   0.000000   0.000000
    44  H    0.000006   0.000000   0.000000   0.000000   0.000000   0.000000
    45  C    0.000090  -0.000008  -0.000004   0.000000   0.000000   0.000000
    46  H    0.000000   0.000000   0.000000   0.000000   0.000000   0.000000
    47  H    0.000000   0.000000   0.000000   0.000000   0.000000   0.000000
    48  H    0.000000   0.000000   0.000000   0.000000   0.000000   0.000000
             31         32         33         34         35         36
     1  C    0.309951   0.078123   0.025402   0.780273  -0.170876  -0.000695
     2  C    0.017581  -0.037305  -0.072943  -0.350629  -0.064328  -0.001306
     3  H    0.007039  -0.000025   0.005262  -0.001741  -0.002881   0.000000
     4  H    0.000080  -0.001338  -0.006942  -0.009266  -0.004523   0.000000
     5  C    0.018466   0.000986   0.541209   1.826796  -1.124256  -0.018205
     6  H    0.000115  -0.000067  -0.034535   0.121568  -0.035169   0.000041
     7  C   -0.115068   0.030198  -0.259085  -6.270939  -2.601476   0.059391
     8  H   -0.000519   0.000016   0.005578   0.043601   0.038045  -0.000132
     9  C    0.089396   0.063048   0.043722   2.973901   0.380479  -0.000198
    10  H    0.000240  -0.000173  -0.000114  -0.087948  -0.004173   0.000003
    11  C   -0.186744  -0.085065  -0.021430  -1.081535  -0.312316   0.000250
    12  H    0.006515  -0.000112   0.000039   0.023680   0.001205   0.000000
    13  C    0.380756  -0.241312   0.021150  -1.573719   2.675060   0.007913
    14  C   -0.012651   0.002034   0.004392   0.175084   0.055740  -0.000868
    15  C    0.023102  -0.026575   0.014458  -0.291178   0.670915   0.000445
    16  C   -0.210477   0.173489   0.004033   1.286158  -1.392845  -0.002580
    17  C   -0.072661   0.023877  -0.005179  -0.658487   0.244477   0.000945
    18  C    0.009964  -0.009593   0.002421   0.032803   0.204756   0.000245
    19  H   -0.000031  -0.000031  -0.000004  -0.001309   0.000562   0.000000
    20  H   -0.000010   0.000000   0.000000  -0.000366  -0.000087   0.000000
    21  O   -0.000837   0.020595  -0.011199   0.041814   0.087824  -0.000207
    22  H    0.002374  -0.001182   0.000842  -0.006538  -0.005795   0.000002
    23  O    0.000717  -0.000099  -0.000013  -0.011226  -0.007498   0.000003
    24  H   -0.000125  -0.000006   0.000000  -0.013756   0.000095   0.000000
    25  O   -0.031653  -0.000204  -0.000224   0.037415   0.016838  -0.000001
    26  H    0.027018  -0.001572  -0.000001   0.002115  -0.000192   0.000000
    27  C   -0.339934   0.067965   0.000314  -0.083971   0.002048  -0.000024
    28  H    0.000790  -0.000022  -0.000004  -0.000408   0.000109   0.000000
    29  H   -0.000780  -0.000035   0.000002  -0.000022  -0.000091   0.000000
    30  H    0.005482  -0.000199  -0.000001  -0.000565   0.000078   0.000000
    31  O    8.519344   0.177830  -0.001504   0.017125   0.004486   0.000001
    32  H    0.177830   0.338030  -0.000093   0.004359  -0.002199   0.000000
    33  H   -0.001504  -0.000093   0.552351   0.049982  -0.024727   0.000055
    34  C    0.017125   0.004359   0.049982  13.877852  -3.194760  -0.207228
    35  C    0.004486  -0.002199  -0.024727  -3.194760  11.911903   0.547038
    36  H    0.000001   0.000000   0.000055  -0.207228   0.547038   0.538246
    37  H    0.000030  -0.000001   0.000640  -0.257566   0.711583  -0.037398
    38  C    0.002131  -0.000635  -0.001050  -1.174744  -2.051525  -0.035522
    39  H    0.000000   0.000000   0.000001  -0.172626   0.022309   0.003204
    40  H    0.000000   0.000000   0.000000  -0.071540  -0.014304   0.000238
    41  H    0.000018   0.000000  -0.000005  -0.209172  -0.092125   0.000289
    42  C   -0.000237  -0.000693   0.000467  -0.013645   0.025943  -0.000025
    43  H    0.000004   0.000000   0.000000  -0.000031   0.000088   0.000000
    44  H   -0.000001   0.000000   0.000000   0.000001   0.000006   0.000000
    45  C    0.000082  -0.000010  -0.000001   0.000788  -0.000434  -0.000003
    46  H    0.000000   0.000000   0.000000  -0.000042   0.000007   0.000000
    47  H    0.000000   0.000000   0.000000   0.000057  -0.000030   0.000000
    48  H    0.000000   0.000000   0.000000   0.000081   0.000002   0.000000
             37         38         39         40         41         42
     1  C   -0.002919  -0.034108  -0.000617  -0.002966   0.004805  -0.028186
     2  C   -0.005574   0.006413   0.000186   0.003655  -0.003639   0.007914
     3  H   -0.000001   0.000739   0.000000   0.000000   0.000000   0.000009
     4  H    0.000013   0.000852   0.000000   0.000000   0.000000   0.000001
     5  C   -0.016755   0.117088  -0.016654  -0.006257   0.013993  -0.012985
     6  H   -0.000734   0.006696  -0.000003   0.000003  -0.000005  -0.000016
     7  C   -0.059260   2.344397   0.046873  -0.059987   0.117266  -0.047707
     8  H    0.000157  -0.057329   0.000047   0.003955  -0.000529   0.000154
     9  C   -0.020926  -0.532611  -0.022090   0.031631   0.091090  -0.349967
    10  H    0.000002   0.027989   0.000093  -0.000032  -0.002253  -0.000378
    11  C   -0.006735   0.211906  -0.007136   0.009891   0.021852   0.003725
    12  H    0.000000  -0.001578   0.000000   0.000009   0.000009   0.000091
    13  C    0.099493  -0.762545   0.017227  -0.031784  -0.022888  -0.810319
    14  C   -0.003466  -0.075606  -0.000264   0.003489  -0.023265  -1.319716
    15  C    0.007612  -0.337202   0.004137   0.006297  -0.067524   0.186083
    16  C   -0.056844   0.345407   0.002671   0.042070  -0.041298  -1.021539
    17  C   -0.006839  -0.011458   0.002713   0.004007  -0.028924   0.332004
    18  C    0.001443  -0.151843   0.000505  -0.001963  -0.009766   0.627598
    19  H   -0.000002   0.000304   0.000000   0.000000   0.000000  -0.012703
    20  H    0.000000   0.000512   0.000000   0.000000  -0.000003  -0.045026
    21  O    0.003499  -0.046806  -0.000080  -0.000045  -0.000526  -0.018093
    22  H   -0.000211   0.003166   0.000000   0.000000   0.000002   0.006845
    23  O   -0.000001   0.013245   0.000014  -0.000263   0.002448  -0.007953
    24  H    0.000000   0.002418   0.000000   0.000002  -0.000007   0.001149
    25  O    0.000006  -0.014055   0.000002   0.000030  -0.000052  -0.000890
    26  H    0.000000   0.000091   0.000000   0.000000   0.000000   0.000526
    27  C   -0.000270  -0.026411  -0.000029  -0.000033  -0.000016  -0.000516
    28  H    0.000000  -0.000007   0.000000   0.000000   0.000000   0.000003
    29  H    0.000000  -0.000011   0.000000   0.000000   0.000000  -0.000009
    30  H    0.000000  -0.000018   0.000000   0.000000   0.000000   0.000003
    31  O    0.000030   0.002131   0.000000   0.000000   0.000018  -0.000237
    32  H   -0.000001  -0.000635   0.000000   0.000000   0.000000  -0.000693
    33  H    0.000640  -0.001050   0.000001   0.000000  -0.000005   0.000467
    34  C   -0.257566  -1.174744  -0.172626  -0.071540  -0.209172  -0.013645
    35  C    0.711583  -2.051525   0.022309  -0.014304  -0.092125   0.025943
    36  H   -0.037398  -0.035522   0.003204   0.000238   0.000289  -0.000025
    37  H    0.544337  -0.037209   0.000217  -0.000179  -0.000197  -0.000002
    38  C   -0.037209   7.451138   0.476340   0.436600   0.593382  -0.008077
    39  H    0.000217   0.476340   0.539622  -0.027642  -0.025803  -0.000127
    40  H   -0.000179   0.436600  -0.027642   0.539264  -0.030321   0.000107
    41  H   -0.000197   0.593382  -0.025803  -0.030321   0.539731  -0.000809
    42  C   -0.000002  -0.008077  -0.000127   0.000107  -0.000809   7.481031
    43  H    0.000000  -0.000031   0.000000   0.000000   0.000000   0.498158
    44  H    0.000000   0.000004   0.000000   0.000000   0.000000   0.515412
    45  C    0.000001   0.000253  -0.000008   0.000001  -0.000022   0.181995
    46  H    0.000000   0.000021   0.000000   0.000000   0.000000  -0.058578
    47  H    0.000000  -0.000020   0.000000   0.000000   0.000000  -0.055298
    48  H    0.000000  -0.000130   0.000000   0.000000   0.000000  -0.034885
             43         44         45         46         47         48
     1  C   -0.000038  -0.000031  -0.000011   0.000000  -0.000006  -0.000005
     2  C   -0.000008   0.000003  -0.000263   0.000000   0.000003   0.000000
     3  H    0.000000   0.000000   0.000000   0.000000   0.000000   0.000000
     4  H    0.000000   0.000000   0.000000   0.000000   0.000000   0.000000
     5  C    0.000010  -0.000004   0.000578   0.000000  -0.000005  -0.000003
     6  H    0.000000   0.000000   0.000000   0.000000   0.000000   0.000000
     7  C   -0.000253   0.000020  -0.002559   0.000029  -0.000066  -0.000002
     8  H    0.000000   0.000000  -0.000004   0.000000   0.000000   0.000000
     9  C   -0.001244   0.000326   0.003522   0.000015   0.001072  -0.001305
    10  H    0.000000   0.000000   0.000022   0.000000   0.000000   0.000000
    11  C    0.000029   0.000036   0.000438  -0.000005  -0.000004  -0.000032
    12  H    0.000000   0.000000   0.000000   0.000000   0.000000   0.000000
    13  C    0.004301  -0.008794   0.004778   0.001368  -0.008151  -0.002089
    14  C   -0.202718  -0.193043   0.044142  -0.030699   0.063628   0.022415
    15  C   -0.027230   0.040914  -0.012301  -0.000512   0.013811  -0.028053
    16  C    0.036402  -0.025683   0.011114   0.003179  -0.031975   0.005295
    17  C    0.112669  -0.081051  -0.028560   0.014916  -0.102796   0.062749
    18  C   -0.077682   0.092539   0.002098   0.004433   0.058639  -0.085040
    19  H    0.002556   0.000105   0.004387  -0.000034   0.000239   0.000012
    20  H    0.000105   0.002304   0.002837  -0.000031   0.000009   0.000170
    21  O    0.000013   0.000012  -0.000033  -0.000003   0.000017   0.000004
    22  H    0.000003   0.000000   0.000282   0.000000   0.000000   0.000000
    23  O    0.000036   0.000000   0.000231  -0.000001   0.000007   0.000012
    24  H    0.000000   0.000000  -0.000086   0.000000   0.000000   0.000000
    25  O    0.000003   0.000006   0.000090   0.000000   0.000000   0.000000
    26  H    0.000000   0.000000  -0.000008   0.000000   0.000000   0.000000
    27  C   -0.000002   0.000000  -0.000004   0.000000   0.000000   0.000000
    28  H    0.000000   0.000000   0.000000   0.000000   0.000000   0.000000
    29  H    0.000000   0.000000   0.000000   0.000000   0.000000   0.000000
    30  H    0.000000   0.000000   0.000000   0.000000   0.000000   0.000000
    31  O    0.000004  -0.000001   0.000082   0.000000   0.000000   0.000000
    32  H    0.000000   0.000000  -0.000010   0.000000   0.000000   0.000000
    33  H    0.000000   0.000000  -0.000001   0.000000   0.000000   0.000000
    34  C   -0.000031   0.000001   0.000788  -0.000042   0.000057   0.000081
    35  C    0.000088   0.000006  -0.000434   0.000007  -0.000030   0.000002
    36  H    0.000000   0.000000  -0.000003   0.000000   0.000000   0.000000
    37  H    0.000000   0.000000   0.000001   0.000000   0.000000   0.000000
    38  C   -0.000031   0.000004   0.000253   0.000021  -0.000020  -0.000130
    39  H    0.000000   0.000000  -0.000008   0.000000   0.000000   0.000000
    40  H    0.000000   0.000000   0.000001   0.000000   0.000000   0.000000
    41  H    0.000000   0.000000  -0.000022   0.000000   0.000000   0.000000
    42  C    0.498158   0.515412   0.181995  -0.058578  -0.055298  -0.034885
    43  H    0.565778  -0.033675  -0.025097  -0.003319  -0.005006   0.004866
    44  H   -0.033675   0.565129  -0.023210  -0.003340   0.004870  -0.004975
    45  C   -0.025097  -0.023210   5.179227   0.425140   0.416786   0.416930
    46  H   -0.003319  -0.003340   0.425140   0.548960  -0.026962  -0.027057
    47  H   -0.005006   0.004870   0.416786  -0.026962   0.541490  -0.028298
    48  H    0.004866  -0.004975   0.416930  -0.027057  -0.028298   0.541310
 Mulliken atomic charges:
              1
     1  C    0.251525
     2  C   -0.534674
     3  H    0.163479
     4  H    0.160303
     5  C   -0.398173
     6  H    0.150457
     7  C   -0.086086
     8  H    0.161527
     9  C   -0.293908
    10  H    0.187434
    11  C   -0.258302
    12  H    0.162854
    13  C    1.230194
    14  C    0.149701
    15  C    0.376222
    16  C   -0.629842
    17  C   -0.803442
    18  C   -0.195116
    19  H    0.148820
    20  H    0.151024
    21  O   -0.539526
    22  H    0.465303
    23  O   -0.574119
    24  H    0.433472
    25  O   -0.539977
    26  H    0.415730
    27  C   -0.406869
    28  H    0.161954
    29  H    0.162293
    30  H    0.171051
    31  O   -0.647406
    32  H    0.427994
    33  H    0.166737
    34  C    0.449506
    35  C   -0.494982
    36  H    0.146085
    37  H    0.144055
    38  C   -0.680563
    39  H    0.156920
    40  H    0.166067
    41  H    0.174263
    42  C   -0.020836
    43  H    0.151313
    44  H    0.152118
    45  C   -0.603111
    46  H    0.152515
    47  H    0.157987
    48  H    0.158027
 Sum of Mulliken atomic charges =   0.00000
 Mulliken charges with hydrogens summed into heavy atoms:
              1
     1  C    0.251525
     2  C   -0.210892
     5  C   -0.080979
     7  C    0.075441
     9  C   -0.106475
    11  C   -0.095448
    13  C    1.230194
    14  C    0.149701
    15  C    0.376222
    16  C   -0.629842
    17  C   -0.654622
    18  C   -0.044091
    21  O   -0.074224
    23  O   -0.140648
    25  O   -0.124247
    27  C    0.088430
    31  O   -0.219412
    34  C    0.449506
    35  C   -0.204843
    38  C   -0.183311
    42  C    0.282595
    45  C   -0.134582
 Sum of Mulliken charges with hydrogens summed into heavy atoms =   0.00000
 Electronic spatial extent (au):  <R**2>=           6663.2103
 Charge=              0.0000 electrons
 Dipole moment (field-independent basis, Debye):
    X=              0.4365    Y=              2.9864    Z=             -2.7443  Tot=              4.0792
 Quadrupole moment (field-independent basis, Debye-Ang):
   XX=           -122.4937   YY=           -142.2399   ZZ=           -135.0326
   XY=              2.3059   XZ=             13.3335   YZ=             -1.0799
 Traceless Quadrupole moment (field-independent basis, Debye-Ang):
   XX=             10.7617   YY=             -8.9845   ZZ=             -1.7772
   XY=              2.3059   XZ=             13.3335   YZ=             -1.0799
 Octapole moment (field-independent basis, Debye-Ang**2):
  XXX=              2.7791  YYY=            -14.6570  ZZZ=            -43.0660  XYY=            -10.8680
  XXY=            -11.8656  XXZ=             -5.4252  XZZ=             -1.9444  YZZ=             30.6581
  YYZ=             -4.0493  XYZ=             -4.5043
 Hexadecapole moment (field-independent basis, Debye-Ang**3):
 XXXX=          -5226.4724 YYYY=          -2415.9732 ZZZZ=          -1261.9578 XXXY=             55.6814
 XXXZ=             55.3482 YYYX=            -56.6601 YYYZ=             -3.5521 ZZZX=             90.6958
 ZZZY=            -40.2265 XXYY=          -1348.7547 XXZZ=          -1115.2649 YYZZ=           -627.6069
 XXYZ=            -16.4203 YYXZ=              0.4957 ZZXY=              0.3277
 N-N= 2.016316139614D+03 E-N=-6.364603653039D+03  KE= 9.931858333566D+02

 Test job not archived.
 1\1\GINC-COMPUTE-8-16\SP\RB3LYP\6-31+G(d,p)\C18H26O4\LPASSAGLIA.IQUIR\
 23-Dec-2022\0\\# B3LYP/6-31+G** geom=allcheck test scrf=(pcm,solvent=w
 ater,smd,dovacuum)\\comment\\0,1\C,0,0.720663398,2.126711903,-2.107169
 353\C,0,0.343626722,3.318276198,-1.219403118\H,0,1.231306821,3.9396658
 92,-1.042591835\H,0,-0.391676433,3.950436095,-1.733155448\C,0,-0.23997
 8701,2.918320796,0.134289804\H,0,-0.320820818,3.827359534,0.746306421\
 C,0,0.611312099,1.87630808,0.897761303\H,0,1.530058873,2.442536302,1.1
 29459466\C,0,1.11205903,0.67496827,0.020892407\H,0,2.015735996,0.35427
 2211,0.564914465\C,0,1.660867902,1.16998261,-1.342701698\H,0,2.5899186
 53,1.717724598,-1.132957583\C,0,0.296027705,-0.623868655,-0.066895385\
 C,0,-1.060384061,-3.138662458,0.002395832\C,0,0.98267168,-1.856211468,
 -0.091910438\C,0,-1.097411572,-0.70735629,-0.101806819\C,0,-1.77182230
 5,-1.936546321,-0.052134747\C,0,0.332088754,-3.087858974,-0.025970971\
 H,0,-2.858206939,-1.968065037,-0.072917271\H,0,0.922324903,-4.00082452
 8,-0.021538521\O,0,-1.842014339,0.424719222,-0.258323214\H,0,-2.762476
 638,0.218443723,-0.017612794\O,0,2.344931349,-1.907991802,-0.242949374
 \H,0,2.560550379,-1.24501823,-0.936051528\O,0,2.048654659,0.054701915,
 -2.161470384\H,0,1.24760224,-0.164107644,-2.685223642\C,0,1.390854505,
 2.637346733,-3.389902437\H,0,0.724744936,3.321797457,-3.92827331\H,0,1
 .606553199,1.815849999,-4.082199471\H,0,2.325867669,3.16508279,-3.1752
 80178\O,0,-0.44859233,1.42450689,-2.538672818\H,0,-0.97319524,1.175697
 36,-1.750562545\H,0,-1.268809594,2.589092606,-0.014842586\C,0,0.076528
 178,1.47322066,2.279238375\C,0,-1.152196685,1.765765502,2.741099467\H,
 0,-1.467298221,1.464000239,3.736144296\H,0,-1.886225443,2.304789508,2.
 153695384\C,0,1.047299457,0.736222857,3.17120093\H,0,0.655833256,0.604
 114844,4.185795627\H,0,1.985428316,1.294537678,3.254772873\H,0,1.26609
 9724,-0.258902552,2.773888101\C,0,-1.778785887,-4.459723293,0.08324358
 6\H,0,-2.725470034,-4.399580148,-0.467381674\H,0,-1.18625565,-5.235242
 929,-0.417300354\C,0,-2.046674827,-4.86810347,1.523668713\H,0,-2.56813
 675,-5.830014662,1.553598236\H,0,-2.669914737,-4.128129139,2.037214417
 \H,0,-1.113263199,-4.970244872,2.087619793\\Version=EM64L-G09RevC.01\S
 tate=1-A\HF=-1002.5448143\RMSD=6.265e-09\Dipole=-1.250724,0.7926328,0.
 6189409\Quadrupole=4.5633871,3.6225677,-8.1859548,10.229067,-1.2541932
 ,0.5997145\PG=C01 [X(C18H26O4)]\\@


    THE DOUGHNUT CREED
 AS YOU RAMBLE ON THROUGH LIFE, BROTHER
 WHATEVER BE YOUR GOAL
 KEEP YOUR EYE UPON THE DOUGHNUT
 AND NOT UPON THE HOLE.
 Job cpu time:  0 days  2 hours  5 minutes 28.5 seconds.
 File lengths (MBytes):  RWF=    238 Int=      0 D2E=      0 Chk=     19 Scr=      1
 Normal termination of Gaussian 09 at Fri Dec 23 15:28:37 2022.
