 Entering Gaussian System, Link 0=g09
 Input=/home/lpassaglia.iquir/Link1/04_RSSR_THC_008.gjc
 Output=/home/lpassaglia.iquir/Link1/04_RSSR_THC_008.log
 Initial command:
 /share/apps/Gaussian09/EM64T.SSE4.2-enabled/g09/l1.exe /tmp/Gau-21295.inp -scrdir=/tmp/
 Entering Link 1 = /share/apps/Gaussian09/EM64T.SSE4.2-enabled/g09/l1.exe PID=     21314.
  
 Copyright (c) 1988,1990,1992,1993,1995,1998,2003,2009,2011,
            Gaussian, Inc.  All Rights Reserved.
  
 This is part of the Gaussian(R) 09 program.  It is based on
 the Gaussian(R) 03 system (copyright 2003, Gaussian, Inc.),
 the Gaussian(R) 98 system (copyright 1998, Gaussian, Inc.),
 the Gaussian(R) 94 system (copyright 1995, Gaussian, Inc.),
 the Gaussian 92(TM) system (copyright 1992, Gaussian, Inc.),
 the Gaussian 90(TM) system (copyright 1990, Gaussian, Inc.),
 the Gaussian 88(TM) system (copyright 1988, Gaussian, Inc.),
 the Gaussian 86(TM) system (copyright 1986, Carnegie Mellon
 University), and the Gaussian 82(TM) system (copyright 1983,
 Carnegie Mellon University). Gaussian is a federally registered
 trademark of Gaussian, Inc.
  
 This software contains proprietary and confidential information,
 including trade secrets, belonging to Gaussian, Inc.
  
 This software is provided under written license and may be
 used, copied, transmitted, or stored only in accord with that
 written license.
  
 The following legend is applicable only to US Government
 contracts under FAR:
  
                    RESTRICTED RIGHTS LEGEND
  
 Use, reproduction and disclosure by the US Government is
 subject to restrictions as set forth in subparagraphs (a)
 and (c) of the Commercial Computer Software - Restricted
 Rights clause in FAR 52.227-19.
  
 Gaussian, Inc.
 340 Quinnipiac St., Bldg. 40, Wallingford CT 06492
  
  
 ---------------------------------------------------------------
 Warning -- This program may not be used in any manner that
 competes with the business of Gaussian, Inc. or will provide
 assistance to any competitor of Gaussian, Inc.  The licensee
 of this program is prohibited from giving any competitor of
 Gaussian, Inc. access to this program.  By using this program,
 the user acknowledges that Gaussian, Inc. is engaged in the
 business of creating and licensing software in the field of
 computational chemistry and represents and warrants to the
 licensee that it is not a competitor of Gaussian, Inc. and that
 it will not use this program in any manner prohibited above.
 ---------------------------------------------------------------
  

 Cite this work as:
 Gaussian 09, Revision C.01,
 M. J. Frisch, G. W. Trucks, H. B. Schlegel, G. E. Scuseria, 
 M. A. Robb, J. R. Cheeseman, G. Scalmani, V. Barone, B. Mennucci, 
 G. A. Petersson, H. Nakatsuji, M. Caricato, X. Li, H. P. Hratchian, 
 A. F. Izmaylov, J. Bloino, G. Zheng, J. L. Sonnenberg, M. Hada, 
 M. Ehara, K. Toyota, R. Fukuda, J. Hasegawa, M. Ishida, T. Nakajima, 
 Y. Honda, O. Kitao, H. Nakai, T. Vreven, J. A. Montgomery, Jr., 
 J. E. Peralta, F. Ogliaro, M. Bearpark, J. J. Heyd, E. Brothers, 
 K. N. Kudin, V. N. Staroverov, T. Keith, R. Kobayashi, J. Normand, 
 K. Raghavachari, A. Rendell, J. C. Burant, S. S. Iyengar, J. Tomasi, 
 M. Cossi, N. Rega, J. M. Millam, M. Klene, J. E. Knox, J. B. Cross, 
 V. Bakken, C. Adamo, J. Jaramillo, R. Gomperts, R. E. Stratmann, 
 O. Yazyev, A. J. Austin, R. Cammi, C. Pomelli, J. W. Ochterski, 
 R. L. Martin, K. Morokuma, V. G. Zakrzewski, G. A. Voth, 
 P. Salvador, J. J. Dannenberg, S. Dapprich, A. D. Daniels, 
 O. Farkas, J. B. Foresman, J. V. Ortiz, J. Cioslowski, 
 and D. J. Fox, Gaussian, Inc., Wallingford CT, 2010.
 
 ******************************************
 Gaussian 09:  EM64L-G09RevC.01 23-Sep-2011
                23-Dec-2022 
 ******************************************
 %chk=04_RSSR_THC_008_optB_NMR
 %nprocshared=4
 Will use up to    4 processors via shared memory.
 ------------------------------------------------
 # mPW1PW91/6-31+G** scrf=(PCM,solvent=water) nmr
 ------------------------------------------------
 1/38=1/1;
 2/12=2,17=6,18=5,40=1/2;
 3/5=1,6=6,7=111,11=2,16=1,25=1,30=1,70=2201,72=1,74=-7/1,2,8,3;
 4//1;
 5/5=2,38=5,53=1/2;
 8/6=1,10=90,11=11/1;
 10/13=100,45=16/2;
 6/7=2,8=2,9=2,10=2,28=1/1;
 99/9=1/99;
 -------
 comment
 -------
 Charge =  0 Multiplicity = 1
 Symbolic Z-Matrix:
 6                     1.57101   2.50901  -1.46805 
 6                     0.85942   3.52765  -0.57468 
 1                     1.44054   4.4581   -0.53517 
 1                    -0.11493   3.7908   -0.99746 
 6                     0.68556   3.02581   0.85365 
 1                     1.67707   2.98698   1.32542 
 6                     0.04139   1.62852   0.9786 
 1                     0.28394   1.33771   2.0097 
 6                     0.75624   0.58001   0.05519 
 1                     1.7956    0.5017    0.41272 
 6                     0.88553   1.12276  -1.39383 
 1                    -0.0922    1.19359  -1.87699 
 6                     0.20905  -0.84865   0.24771 
 6                    -0.91874  -3.41687   0.81796 
 6                     0.34871  -1.46904   1.50747 
 6                    -0.44191  -1.61007  -0.73545 
 6                    -1.0179   -2.85424  -0.45503 
 6                    -0.2066   -2.72219   1.79623 
 1                    -1.52649  -3.38988  -1.25371 
 1                    -0.08743  -3.16508   2.78088 
 8                    -0.52961  -1.2343   -2.04671 
 1                     0.36281  -0.90142  -2.29362 
 8                     1.0785   -0.84079   2.4845 
 1                     1.08367  -1.39848   3.27892 
 8                     1.67145   0.18957  -2.16983 
 1                     2.59506   0.3576   -1.88233 
 6                     1.63018   3.02158  -2.91212 
 1                     0.62914   3.12141  -3.34408 
 1                     2.22003   2.35315  -3.54892 
 1                     2.12346   3.99947  -2.9571 
 8                     2.92913   2.34472  -1.02309 
 1                     3.35761   3.21909  -1.04938 
 1                     0.11259   3.76463   1.42821 
 6                    -1.49262   1.6938    0.93767 
 6                    -2.19341   1.67905   2.08774 
 1                    -3.27886   1.70895   2.09681 
 1                    -1.70241   1.62497   3.05478 
 6                    -2.23365   1.75155  -0.36807 
 1                    -1.8959    2.58665  -0.98354 
 1                    -3.31061   1.89138  -0.21861 
 1                    -2.11442   0.82231  -0.92862 
 6                    -1.51838  -4.76703   1.10878 
 1                    -1.83975  -4.80937   2.15664 
 1                    -2.42574  -4.90497   0.50813 
 6                    -0.53855  -5.89557   0.82592 
 1                    -1.0015   -6.86266   1.0462 
 1                     0.36281  -5.80288   1.44127 
 1                    -0.22892  -5.89903  -0.2247 
 
                          Input orientation:                          
 ---------------------------------------------------------------------
 Center     Atomic      Atomic             Coordinates (Angstroms)
 Number     Number       Type             X           Y           Z
 ---------------------------------------------------------------------
      1          6           0        1.571011    2.509009   -1.468048
      2          6           0        0.859422    3.527648   -0.574682
      3          1           0        1.440537    4.458100   -0.535172
      4          1           0       -0.114926    3.790800   -0.997464
      5          6           0        0.685561    3.025810    0.853650
      6          1           0        1.677072    2.986978    1.325418
      7          6           0        0.041393    1.628516    0.978598
      8          1           0        0.283940    1.337710    2.009697
      9          6           0        0.756243    0.580012    0.055193
     10          1           0        1.795604    0.501698    0.412724
     11          6           0        0.885531    1.122760   -1.393829
     12          1           0       -0.092199    1.193590   -1.876989
     13          6           0        0.209047   -0.848650    0.247707
     14          6           0       -0.918739   -3.416874    0.817964
     15          6           0        0.348712   -1.469039    1.507466
     16          6           0       -0.441908   -1.610073   -0.735454
     17          6           0       -1.017901   -2.854237   -0.455034
     18          6           0       -0.206599   -2.722194    1.796231
     19          1           0       -1.526490   -3.389884   -1.253708
     20          1           0       -0.087426   -3.165076    2.780877
     21          8           0       -0.529612   -1.234296   -2.046712
     22          1           0        0.362814   -0.901415   -2.293619
     23          8           0        1.078504   -0.840786    2.484503
     24          1           0        1.083671   -1.398478    3.278920
     25          8           0        1.671451    0.189574   -2.169826
     26          1           0        2.595061    0.357598   -1.882334
     27          6           0        1.630176    3.021582   -2.912120
     28          1           0        0.629137    3.121411   -3.344083
     29          1           0        2.220028    2.353149   -3.548924
     30          1           0        2.123457    3.999474   -2.957097
     31          8           0        2.929126    2.344722   -1.023094
     32          1           0        3.357608    3.219091   -1.049377
     33          1           0        0.112586    3.764627    1.428213
     34          6           0       -1.492615    1.693797    0.937669
     35          6           0       -2.193413    1.679053    2.087745
     36          1           0       -3.278856    1.708953    2.096814
     37          1           0       -1.702413    1.624968    3.054783
     38          6           0       -2.233651    1.751549   -0.368075
     39          1           0       -1.895896    2.586645   -0.983539
     40          1           0       -3.310608    1.891379   -0.218606
     41          1           0       -2.114424    0.822311   -0.928618
     42          6           0       -1.518375   -4.767028    1.108779
     43          1           0       -1.839749   -4.809369    2.156641
     44          1           0       -2.425736   -4.904973    0.508126
     45          6           0       -0.538546   -5.895569    0.825923
     46          1           0       -1.001503   -6.862655    1.046195
     47          1           0        0.362809   -5.802882    1.441265
     48          1           0       -0.228918   -5.899033   -0.224696
 ---------------------------------------------------------------------
                    Distance matrix (angstroms):
                    1          2          3          4          5
     1  C    0.000000
     2  C    1.530389   0.000000
     3  H    2.164773   1.097723   0.000000
     4  H    2.169521   1.094234   1.754557   0.000000
     5  C    2.537989   1.523877   2.133136   2.156991   0.000000
     6  H    2.836045   2.138049   2.383683   3.041902   1.098711
     7  C    3.016798   2.586223   3.500807   2.933381   1.543695
     8  H    3.888856   3.435989   4.189380   3.901251   2.085048
     9  C    2.589428   3.015949   3.982004   3.489438   2.573802
    10  H    2.759899   3.317798   4.083834   4.056717   2.792446
    11  C    1.548250   2.540703   3.488527   2.876884   2.951737
    12  H    2.159589   2.837149   3.847958   2.742185   3.379102
    13  C    4.009069   4.500144   5.503732   4.814551   3.950402
    14  C    6.822081   7.302582   8.331409   7.476126   6.639520
    15  C    5.115913   5.437192   6.363603   5.844275   4.554625
    16  C    4.642776   5.302404   6.356606   5.417102   5.028702
    17  C    6.040949   6.653354   7.714961   6.728010   6.260143
    18  C    6.417234   6.768911   7.726909   7.087470   5.892704
    19  H    6.666138   7.348871   8.420832   7.322595   7.106002
    20  H    7.280042   7.546447   8.452436   7.915859   6.529838
    21  O    4.331259   5.174206   6.210444   5.150192   5.295022
    22  H    3.711105   4.776816   5.742650   4.891333   5.043071
    23  O    5.204454   5.337586   6.109640   5.916076   4.214813
    24  H    6.167630   6.258375   6.998154   6.830278   5.061102
    25  O    2.425357   3.787693   4.576651   4.187410   4.261176
    26  H    2.418445   3.843386   4.467873   4.462499   4.272137
    27  C    1.533485   2.512724   2.783780   2.702404   3.882440
    28  H    2.186703   2.808494   3.214823   2.551143   4.199201
    29  H    2.185306   3.475171   3.757809   3.745504   4.710597
    30  H    2.178061   2.737938   2.557819   2.982292   4.187763
    31  O    1.438558   2.425709   2.630653   3.370171   3.003271
    32  H    1.967595   2.561538   2.339810   3.519664   3.286138
    33  H    3.477342   2.150700   2.469664   2.436463   1.097394
    34  C    3.979680   3.343994   4.291156   3.168626   2.554559
    35  C    5.244367   4.452598   5.273366   4.277628   3.409580
    36  H    6.072030   5.250703   6.062824   4.890715   4.358460
    37  H    5.652684   4.832826   5.549104   4.861240   3.536915
    38  C    4.032263   3.572718   4.566509   3.007270   3.411474
    39  H    3.501460   2.940141   3.851644   2.149892   3.198758
    40  H    5.076690   4.493698   5.409404   3.798263   4.290226
    41  H    4.088810   4.035825   5.100148   3.579757   3.983943
    42  C    8.314148   8.791452   9.826532   8.924257   8.102515
    43  H    8.850441   9.178862  10.192749   9.321282   8.334567
    44  H    8.651380   9.114485  10.183500   9.122670   8.526246
    45  C    8.963786   9.628761  10.628632   9.865593   9.005010
    46  H   10.038293  10.679358  11.688618  10.883872  10.033195
    47  H    8.888835   9.558738  10.505025   9.910316   8.854110
    48  H    8.687970   9.495751  10.495412   9.721266   9.036145
                    6          7          8          9         10
     6  H    0.000000
     7  C    2.154332   0.000000
     8  H    2.264760   1.098436   0.000000
     9  C    2.873130   1.569410   2.148781   0.000000
    10  H    2.650222   2.160368   2.352523   1.101922   0.000000
    11  C    3.390597   2.568417   3.462962   1.552725   2.116030
    12  H    4.074551   2.891606   3.907503   2.197649   3.047179
    13  C    4.246010   2.588178   2.808983   1.541935   2.089937
    14  C    6.928568   5.138445   5.047052   4.400282   4.784044
    15  C    4.653361   3.157372   2.852064   2.544365   2.678761
    16  C    5.465358   3.695945   4.092936   2.618619   3.283953
    17  C    6.674779   4.824156   5.034094   3.898973   4.464428
    18  C    6.030301   4.433814   4.094999   3.855236   4.039355
    19  H    7.588087   5.711899   6.023090   4.762790   5.381237
    20  H    6.563504   5.122825   4.583417   4.708165   4.753859
    21  O    5.836083   4.204075   4.871502   3.059926   3.803831
    22  H    5.472139   4.148647   4.851642   2.804698   3.368368
    23  O    4.043951   3.072589   2.366985   2.832678   2.570752
    24  H    4.837408   3.942147   3.120452   3.796584   3.511780
    25  O    4.476854   3.826253   4.551023   2.437366   2.604304
    26  H    4.248060   4.039973   4.631393   2.680434   2.434581
    27  C    4.237939   4.427477   5.373273   3.940808   4.175137
    28  H    4.787533   4.610829   5.653645   4.246168   4.726218
    29  H    4.945275   5.076416   5.973091   4.275084   4.393480
    30  H    4.423159   5.044415   5.927718   4.757718   4.868020
    31  O    2.737817   3.585906   4.148361   2.999720   2.596764
    32  H    2.918514   4.199987   4.727045   3.866770   3.458586
    33  H    1.750121   2.184077   2.501482   3.527215   3.809262
    34  C    3.445226   1.535942   2.105277   2.660197   3.536815
    35  C    4.156016   2.495420   2.501977   3.746950   4.483762
    36  H    5.175869   3.504416   3.583145   4.660982   5.481220
    37  H    4.033199   2.711350   2.262813   4.016773   4.525300
    38  C    4.437111   2.646600   3.487596   3.239000   4.290300
    39  H    4.272897   2.919089   3.907811   3.484162   4.463601
    40  H    5.334913   3.569077   4.265286   4.281814   5.329465
    41  H    4.913441   2.989145   3.827725   3.044228   4.146120
    42  C    8.389423   6.584286   6.428672   5.905487   6.263101
    43  H    8.593136   6.809762   6.505246   6.340402   6.668169
    44  H    8.932183   6.999611   6.969085   6.357296   6.860095
    45  C    9.168320   7.547947   7.375508   6.648583   6.822317
    46  H   10.211170   8.555244   8.356237   7.711359   7.903087
    47  H    8.888326   7.452721   7.163615   6.543495   6.546642
    48  H    9.219372   7.627908   7.591177   6.559490   6.743467
                   11         12         13         14         15
    11  C    0.000000
    12  H    1.092894   0.000000
    13  C    2.653060   2.962402   0.000000
    14  C    5.362433   5.403917   2.862318   0.000000
    15  C    3.927227   4.328804   1.411164   2.424027   0.000000
    16  C    3.108686   3.047282   1.403606   2.430021   2.382365
    17  C    4.507870   4.389054   2.453900   1.395319   2.763659
    18  C    5.113991   5.370196   2.465939   1.395252   1.400769
    19  H    5.118734   4.842924   3.424062   2.159147   3.850988
    20  H    6.063031   6.379162   3.445385   2.146511   2.165255
    21  O    2.825703   2.472806   2.441044   3.622352   3.668616
    22  H    2.275992   2.183957   2.546520   4.201412   3.843260
    23  O    4.351346   4.952963   2.399849   3.660951   1.371823
    24  H    5.313237   5.889388   3.202426   3.760302   1.919164
    25  O    1.445917   2.050430   3.010149   5.351863   4.245364
    26  H    1.935614   2.814299   3.418358   5.821086   4.457963
    27  C    2.542682   2.716547   5.194498   7.865381   6.429664
    28  H    2.804253   2.527683   5.370178   7.903653   6.684939
    29  H    2.817654   3.079990   5.358169   7.887632   6.608936
    30  H    3.500250   3.734802   6.118827   8.860489   7.279195
    31  O    2.409755   3.344046   4.383080   7.168790   5.254241
    32  H    3.259511   4.085188   5.304939   8.112344   6.129394
    33  H    3.942186   4.192437   4.762901   7.280796   5.239590
    34  C    3.378986   3.183343   3.136198   5.144183   3.703875
    35  C    4.680889   4.513302   3.942948   5.404221   4.087739
    36  H    5.465376   5.119716   4.703828   5.786166   4.858623
    37  H    5.171056   5.205887   4.201446   5.571147   4.021715
    38  C    3.343179   2.678425   3.620359   5.463358   4.534142
    39  H    3.169801   2.447893   4.212838   6.343697   5.262315
    40  H    4.424875   3.687181   4.484772   5.913803   5.259503
    41  H    3.050643   2.264211   3.094247   4.738238   4.153533
    42  C    6.836038   6.817461   4.367965   1.505674   3.810735
    43  H    7.431228   7.440405   4.850659   2.139944   4.045812
    44  H    7.135509   6.951737   4.843930   2.140439   4.527901
    45  C    7.497482   7.600075   5.134649   2.507696   4.565730
    46  H    8.560460   8.618291   6.186378   3.454323   5.579153
    47  H    7.501701   7.756834   5.098298   2.779192   4.334371
    48  H    7.205167   7.283822   5.091300   2.779227   4.791543
                   16         17         18         19         20
    16  C    0.000000
    17  C    1.399410   0.000000
    18  C    2.775177   2.396630   0.000000
    19  H    2.147704   1.087870   3.389697   0.000000
    20  H    3.861123   3.381349   1.086220   4.289442   0.000000
    21  O    1.366858   2.322946   4.133569   2.503834   5.218147
    22  H    1.891469   3.016668   4.512908   3.292926   5.574709
    23  O    3.643017   4.133978   2.380106   5.220930   2.617165
    24  H    4.299693   4.525290   2.369681   5.596727   2.177242
    25  O    3.124490   4.408845   5.266410   4.886575   6.233521
    26  H    3.796083   5.040493   5.555741   5.605888   6.430435
    27  C    5.521199   6.897452   7.650705   7.336333   8.581090
    28  H    5.508087   6.838692   7.827452   7.170311   8.806163
    29  H    5.541539   6.868276   7.760046   7.230965   8.708704
    30  H    6.556204   7.943665   8.555940   8.415834   9.441564
    31  O    5.204519   6.552167   6.592041   7.265770   7.343545
    32  H    6.152698   7.508904   7.489988   8.220384   8.203456
    33  H    5.820336   6.973807   6.505088   7.814493   7.063320
    34  C    3.849530   4.780124   4.678883   5.535982   5.383365
    35  C    4.675101   5.329003   4.837705   6.107718   5.327401
    36  H    5.204416   5.696188   5.400387   6.347829   5.865947
    37  H    5.140064   5.731549   4.766470   6.613833   5.062384
    38  C    3.826985   4.764334   5.367265   5.264861   6.220561
    39  H    4.448378   5.536551   6.226124   5.994027   7.108002
    40  H    4.555957   5.275726   5.914347   5.669767   6.704740
    41  H    2.958228   3.865702   4.860876   4.265435   5.811052
    42  C    3.811344   2.520864   2.524815   2.734581   2.722091
    43  H    4.533615   3.364346   2.674579   3.707229   2.482742
    44  H    4.042082   2.667432   3.368725   2.491625   3.695989
    45  C    4.562095   3.334716   3.334965   3.402845   3.388354
    46  H    5.574679   4.280347   4.282271   4.198250   4.185302
    47  H    4.792215   3.767866   3.152914   4.081040   2.992539
    48  H    4.324513   3.153780   3.765228   3.006390   4.065465
                   21         22         23         24         25
    21  O    0.000000
    22  H    0.983970   0.000000
    23  O    4.824189   4.831805   0.000000
    24  H    5.567046   5.640913   0.970642   0.000000
    25  O    2.624355   1.708248   4.803749   5.705806   0.000000
    26  H    3.510659   2.595611   4.775493   5.657441   0.981804
    27  C    4.850373   4.168772   6.659262   7.626571   2.927964
    28  H    4.690208   4.166237   7.062107   8.031200   3.325803
    29  H    4.763079   3.951863   6.921455   7.873085   2.623720
    30  H    5.938007   5.249646   7.357381   8.313059   3.916560
    31  O    5.081342   4.328695   5.086797   5.993712   2.746162
    32  H    5.994815   5.243615   5.845102   6.725094   3.643694
    33  H    6.121826   5.973826   4.822715   5.570079   5.306312
    34  C    4.290412   4.540812   3.927781   4.656272   4.683004
    35  C    5.324432   5.691174   4.148789   4.650740   5.939918
    36  H    5.778397   6.273093   5.063404   5.484993   6.709565
    37  H    5.964572   6.265236   3.760141   4.117491   6.382778
    38  C    3.825813   4.181815   5.082103   5.850459   4.575576
    39  H    4.194838   4.357138   5.711537   6.551915   4.458608
    40  H    4.565716   5.059587   5.834024   6.508882   5.614652
    41  H    2.826906   3.312275   4.960854   5.732634   4.034079
    42  C    4.838902   5.482532   4.904261   4.777791   6.744787
    43  H    5.671489   6.318877   4.936937   4.630343   7.485738
    44  H    4.857608   5.626212   5.718687   5.682319   7.064897
    45  C    5.475361   5.956976   5.560267   5.373324   7.133552
    46  H    6.439502   6.967934   6.531314   6.260211   8.198866
    47  H    5.816733   6.162283   5.120836   4.826530   7.117728
    48  H    5.016964   5.441210   5.885148   5.852624   6.668288
                   26         27         28         29         30
    26  H    0.000000
    27  C    3.014677   0.000000
    28  H    3.693268   1.094823   0.000000
    29  H    2.626861   1.095558   1.778517   0.000000
    30  H    3.826329   1.096185   1.775878   1.752134   0.000000
    31  O    2.190560   2.390362   3.358598   2.623491   2.669771
    32  H    3.076270   2.548106   3.566479   2.879528   2.402399
    33  H    5.360061   4.657648   4.843073   5.586186   4.830082
    34  C    5.142659   5.131834   4.987316   5.860716   5.793214
    35  C    6.359029   6.435905   6.289033   7.190613   7.033502
    36  H    7.222374   7.135196   6.846226   7.907407   7.744255
    37  H    6.667056   6.975717   6.972873   7.715228   7.511209
    38  C    5.249052   4.797324   4.350713   5.505905   5.544420
    39  H    5.093641   4.042497   3.497704   4.855569   4.695339
    40  H    6.324351   5.739663   5.177179   6.472418   6.439912
    41  H    4.827502   4.774212   4.318270   5.291214   5.671748
    42  C    7.220035   9.313617   9.309526   9.293373  10.326948
    43  H    7.916970   9.952714   9.962462  10.016833  10.929457
    44  H    7.656197   9.538280   9.412471   9.524868  10.582632
    45  C    7.500416   9.909183  10.002918   9.736035  10.922883
    46  H    8.581586  10.967778  11.027924  10.790016  11.990729
    47  H    7.347161   9.921157  10.129832   9.740231  10.887225
    48  H    7.061731   9.500308   9.583070   9.227477  10.534710
                   31         32         33         34         35
    31  O    0.000000
    32  H    0.974068   0.000000
    33  H    3.994739   4.119008   0.000000
    34  C    4.880584   5.458895   2.665641   0.000000
    35  C    6.029995   6.559503   3.178401   1.346852   0.000000
    36  H    6.976896   7.498112   4.021778   2.129437   1.085892
    37  H    6.212752   6.707397   3.243161   2.128597   1.085896
    38  C    5.237860   5.820655   3.575466   1.502477   2.457219
    39  H    4.831245   5.291845   3.352341   2.156584   3.216369
    40  H    6.307695   6.849679   4.235484   2.163587   2.571470
    41  H    5.269161   5.975137   4.378521   2.151549   3.136669
    42  C    8.654603   9.602653   8.692020   6.463142   6.554847
    43  H    9.167001  10.086984   8.823584   6.625524   6.498419
    44  H    9.142060  10.093230   9.080286   6.678247   6.774848
    45  C    9.129404  10.088300   9.700830   7.649915   7.855296
    46  H   10.222896  11.181900  10.692346   8.571222   8.687132
    47  H    8.890585   9.826908   9.570790   7.739277   7.932941
    48  H    8.863982   9.832774   9.809946   7.784541   8.162965
                   36         37         38         39         40
    36  H    0.000000
    37  H    1.846600   0.000000
    38  C    2.677675   3.466150   0.000000
    39  H    3.488768   4.155756   1.090991   0.000000
    40  H    2.322812   3.656821   1.096235   1.752121   0.000000
    41  H    3.360845   4.084299   1.091745   1.778664   1.754390
    42  C    6.783351   6.684192   6.721947   7.654857   7.021997
    43  H    6.675563   6.498170   7.040952   8.035230   7.259839
    44  H    6.855346   7.046190   6.716689   7.657032   6.892136
    45  C    8.182495   7.929746   7.923221   8.778639   8.331382
    46  H    8.930992   8.750169   8.816057   9.706134   9.141379
    47  H    8.373717   7.876645   8.190528   9.020288   8.686244
    48  H    8.518977   8.338870   7.910178   8.681094   8.377790
                   41         42         43         44         45
    41  H    0.000000
    42  C    5.978877   0.000000
    43  H    6.427293   1.096854   0.000000
    44  H    5.912946   1.096867   1.752177   0.000000
    45  C    7.119811   1.521077   2.154940   2.154939   0.000000
    46  H    8.012314   2.159335   2.480268   2.480016   1.094580
    47  H    7.459639   2.173107   2.519939   3.074570   1.095299
    48  H    7.016202   2.173083   3.074558   2.520157   1.095300
                   46         47         48
    46  H    0.000000
    47  H    1.772159   0.000000
    48  H    1.772179   1.770540   0.000000
 Stoichiometry    C18H26O4
 Framework group  C1[X(C18H26O4)]
 Deg. of freedom   138
 Full point group                 C1      NOp   1
 Largest Abelian subgroup         C1      NOp   1
 Largest concise Abelian subgroup C1      NOp   1
                         Standard orientation:                         
 ---------------------------------------------------------------------
 Center     Atomic      Atomic             Coordinates (Angstroms)
 Number     Number       Type             X           Y           Z
 ---------------------------------------------------------------------
      1          6           0       -3.161955   -0.925689   -0.226947
      2          6           0       -3.684990    0.501891   -0.052191
      3          1           0       -4.688523    0.586660   -0.488919
      4          1           0       -3.790136    0.742192    1.010140
      5          6           0       -2.792771    1.534256   -0.730696
      6          1           0       -2.887228    1.406019   -1.817802
      7          6           0       -1.295633    1.440424   -0.366324
      8          1           0       -0.813097    2.030851   -1.156968
      9          6           0       -0.753738   -0.023402   -0.529449
     10          1           0       -0.854421   -0.279905   -1.596361
     11          6           0       -1.677928   -1.035320    0.200516
     12          1           0       -1.619783   -0.911205    1.284782
     13          6           0        0.765478   -0.122875   -0.285215
     14          6           0        3.593624   -0.053534    0.150274
     15          6           0        1.641642    0.578870   -1.140361
     16          6           0        1.378201   -0.858152    0.741454
     17          6           0        2.757062   -0.806701    0.974785
     18          6           0        3.025728    0.623481   -0.929482
     19          1           0        3.172623   -1.383730    1.798075
     20          1           0        3.668950    1.182370   -1.603116
     21          8           0        0.701926   -1.715314    1.563784
     22          1           0        0.096136   -2.227865    0.981971
     23          8           0        1.130518    1.222028   -2.238996
     24          1           0        1.859019    1.644631   -2.721529
     25          8           0       -1.222111   -2.375445   -0.094392
     26          1           0       -1.540238   -2.540690   -1.008410
     27          6           0       -4.038674   -1.910228    0.556394
     28          1           0       -3.987749   -1.723593    1.633989
     29          1           0       -3.740753   -2.947413    0.367348
     30          1           0       -5.086086   -1.831834    0.242700
     31          8           0       -3.241936   -1.301015   -1.613375
     32          1           0       -4.171492   -1.213719   -1.891070
     33          1           0       -3.177016    2.539565   -0.516257
     34          6           0       -0.970366    2.185693    0.936709
     35          6           0       -0.468327    3.434423    0.885337
     36          1           0       -0.212895    3.985909    1.785214
     37          1           0       -0.286918    3.938352   -0.059288
     38          6           0       -1.180940    1.538058    2.275986
     39          1           0       -2.207885    1.189583    2.395189
     40          1           0       -0.992266    2.236493    3.099589
     41          1           0       -0.498808    0.697426    2.417201
     42          6           0        5.079770   -0.020868    0.389767
     43          1           0        5.481992    0.950494    0.077098
     44          1           0        5.282154   -0.100358    1.464866
     45          6           0        5.798455   -1.137405   -0.352199
     46          1           0        6.874798   -1.088103   -0.159426
     47          1           0        5.643561   -1.059839   -1.433712
     48          1           0        5.441058   -2.121869   -0.031607
 ---------------------------------------------------------------------
 Rotational constants (GHZ):      0.4842639      0.1857275      0.1669613
 Standard basis: 6-31+G(d,p) (6D, 7F)
 There are   548 symmetry adapted basis functions of A   symmetry.
 Integral buffers will be    131072 words long.
 Raffenetti 2 integral format.
 Two-electron integral symmetry is turned on.
   548 basis functions,   886 primitive gaussians,   548 cartesian basis functions
    83 alpha electrons       83 beta electrons
       nuclear repulsion energy      1983.9451838101 Hartrees.
 NAtoms=   48 NActive=   48 NUniq=   48 SFac= 1.00D+00 NAtFMM=   60 NAOKFM=F Big=F
 ------------------------------------------------------------------------------
 Polarizable Continuum Model (PCM)
 =================================
 Model                : PCM.
 Atomic radii         : UFF (Universal Force Field).
 Polarization charges : Total charges.
 Charge compensation  : None.
 Solution method      : Matrix inversion.
 Cavity type          : Scaled VdW (van der Waals Surface) (Alpha=1.100).
 Cavity algorithm     : GePol (No added spheres)
                        Default sphere list used, NSphG=   48.
                        Lebedev-Laikov grids with approx.  5.0 points / Ang**2.
                        Smoothing algorithm: Karplus/York (Gamma=1.0000).
                        Polarization charges: spherical gaussians, with
                                              point-specific exponents (IZeta= 3).
                        Self-potential: point-specific (ISelfS= 7).
                        Self-field    : sphere-specific E.n sum rule (ISelfD= 2).
 Solvent              : Water, Eps=  78.355300 Eps(inf)=   1.777849
 ------------------------------------------------------------------------------
 One-electron integrals computed using PRISM.
 NBasis=   548 RedAO= T  NBF=   548
 NBsUse=   545 1.00D-06 NBFU=   545
 Harris functional with IExCor=  908 diagonalized for initial guess.
 ExpMin= 4.38D-02 ExpMax= 5.48D+03 ExpMxC= 8.25D+02 IAcc=2 IRadAn=         4 AccDes= 0.00D+00
 HarFok:  IExCor=  908 AccDes= 0.00D+00 IRadAn=         4 IDoV= 1
 ScaDFX=  1.000000  1.000000  1.000000  1.000000
 FoFCou: FMM=F IPFlag=           0 FMFlag=      100000 FMFlg1=           0
         NFxFlg=           0 DoJE=T BraDBF=F KetDBF=T FulRan=T
         Omega=  0.000000  0.000000  1.000000  0.000000  0.000000 ICntrl=     500 IOpCl=  0
         NMat0=    1 NMatS0=    1 NMatT0=    0 NMatD0=    1 NMtDS0=    0 NMtDT0=    0
         I1Cent=           4 NGrid=           0.
 Petite list used in FoFCou.
 Initial guess orbital symmetries:
       Occupied  (A) (A) (A) (A) (A) (A) (A) (A) (A) (A) (A) (A)
                 (A) (A) (A) (A) (A) (A) (A) (A) (A) (A) (A) (A)
                 (A) (A) (A) (A) (A) (A) (A) (A) (A) (A) (A) (A)
                 (A) (A) (A) (A) (A) (A) (A) (A) (A) (A) (A) (A)
                 (A) (A) (A) (A) (A) (A) (A) (A) (A) (A) (A) (A)
                 (A) (A) (A) (A) (A) (A) (A) (A) (A) (A) (A) (A)
                 (A) (A) (A) (A) (A) (A) (A) (A) (A) (A) (A)
       Virtual   (A) (A) (A) (A) (A) (A) (A) (A) (A) (A) (A) (A)
                 (A) (A) (A) (A) (A) (A) (A) (A) (A) (A) (A) (A)
                 (A) (A) (A) (A) (A) (A) (A) (A) (A) (A) (A) (A)
                 (A) (A) (A) (A) (A) (A) (A) (A) (A) (A) (A) (A)
                 (A) (A) (A) (A) (A) (A) (A) (A) (A) (A) (A) (A)
                 (A) (A) (A) (A) (A) (A) (A) (A) (A) (A) (A) (A)
                 (A) (A) (A) (A) (A) (A) (A) (A) (A) (A) (A) (A)
                 (A) (A) (A) (A) (A) (A) (A) (A) (A) (A) (A) (A)
                 (A) (A) (A) (A) (A) (A) (A) (A) (A) (A) (A) (A)
                 (A) (A) (A) (A) (A) (A) (A) (A) (A) (A) (A) (A)
                 (A) (A) (A) (A) (A) (A) (A) (A) (A) (A) (A) (A)
                 (A) (A) (A) (A) (A) (A) (A) (A) (A) (A) (A) (A)
                 (A) (A) (A) (A) (A) (A) (A) (A) (A) (A) (A) (A)
                 (A) (A) (A) (A) (A) (A) (A) (A) (A) (A) (A) (A)
                 (A) (A) (A) (A) (A) (A) (A) (A) (A) (A) (A) (A)
                 (A) (A) (A) (A) (A) (A) (A) (A) (A) (A) (A) (A)
                 (A) (A) (A) (A) (A) (A) (A) (A) (A) (A) (A) (A)
                 (A) (A) (A) (A) (A) (A) (A) (A) (A) (A) (A) (A)
                 (A) (A) (A) (A) (A) (A) (A) (A) (A) (A) (A) (A)
                 (A) (A) (A) (A) (A) (A) (A) (A) (A) (A) (A) (A)
                 (A) (A) (A) (A) (A) (A) (A) (A) (A) (A) (A) (A)
                 (A) (A) (A) (A) (A) (A) (A) (A) (A) (A) (A) (A)
                 (A) (A) (A) (A) (A) (A) (A) (A) (A) (A) (A) (A)
                 (A) (A) (A) (A) (A) (A) (A) (A) (A) (A) (A) (A)
                 (A) (A) (A) (A) (A) (A) (A) (A) (A) (A) (A) (A)
                 (A) (A) (A) (A) (A) (A) (A) (A) (A) (A) (A) (A)
                 (A) (A) (A) (A) (A) (A) (A) (A) (A) (A) (A) (A)
                 (A) (A) (A) (A) (A) (A) (A) (A) (A) (A) (A) (A)
                 (A) (A) (A) (A) (A) (A) (A) (A) (A) (A) (A) (A)
                 (A) (A) (A) (A) (A) (A) (A) (A) (A) (A) (A) (A)
                 (A) (A) (A) (A) (A) (A) (A) (A) (A) (A) (A) (A)
                 (A) (A) (A) (A) (A) (A) (A) (A) (A) (A) (A) (A)
                 (A) (A) (A) (A) (A) (A) (A) (A) (A) (A) (A) (A)
                 (A) (A) (A) (A) (A) (A) (A) (A) (A) (A) (A) (A)
                 (A) (A) (A) (A) (A) (A) (A) (A) (A) (A) (A) (A)
                 (A) (A) (A) (A) (A) (A) (A) (A) (A) (A) (A) (A)
                 (A) (A) (A) (A) (A) (A) (A) (A) (A) (A) (A) (A)
                 (A) (A) (A) (A) (A) (A) (A) (A) (A) (A) (A) (A)
                 (A) (A) (A) (A) (A) (A)
 The electronic state of the initial guess is 1-A.
 Requested convergence on RMS density matrix=1.00D-08 within 128 cycles.
 Requested convergence on MAX density matrix=1.00D-06.
 Requested convergence on             energy=1.00D-06.
 No special actions if energy rises.
 CoulSu:  requested number of processors reduced to:   2 ShMem   1 Linda.
 CoulSu:  requested number of processors reduced to:   2 ShMem   1 Linda.
 Error on total polarization charges =  0.01918
 SCF Done:  E(RmPW1PW91) =  -1002.30211031     A.U. after   14 cycles
             Convg  =    0.5167D-08             -V/T =  2.0094
 Range of M.O.s used for correlation:     1   545
 NBasis=   548 NAE=    83 NBE=    83 NFC=     0 NFV=     0
 NROrb=    545 NOA=    83 NOB=    83 NVA=   462 NVB=   462

 **** Warning!!: The largest alpha MO coefficient is  0.14054514D+03

 NEqPCM:  Using equilibrium solvation (IEInf=0, Eps=  78.3553, EpsInf=   1.7778)
          Differentiating once with respect to magnetic field using GIAOs.
          Electric field/nuclear overlap derivatives assumed to be zero.
 FoFCou: FMM=F IPFlag=           0 FMFlag=    10101102 FMFlg1=           0
         NFxFlg=    40000000 DoJE=F BraDBF=F KetDBF=T FulRan=T
         Omega=  0.000000  0.000000  1.000000  0.000000  0.000000 ICntrl=    6100 IOpCl=  0
         NMat0=    1 NMatS0=    1 NMatT0=    0 NMatD0=    1 NMtDS0=    0 NMtDT0=    0
         I1Cent=           7 NGrid=        2981.
 Symmetry not used in FoFCou.
          There are     3 degrees of freedom in the 1st order CPHF.  IDoFFX=0.
      3 vectors produced by pass  0 Test12= 1.28D-12 3.33D-08 XBig12= 6.46D+02 3.46D+00.
 AX will form     3 AO Fock derivatives at one time.
      3 vectors produced by pass  1 Test12= 1.28D-12 3.33D-08 XBig12= 1.50D+00 2.91D-01.
      3 vectors produced by pass  2 Test12= 1.28D-12 3.33D-08 XBig12= 5.79D-03 2.36D-02.
      3 vectors produced by pass  3 Test12= 1.28D-12 3.33D-08 XBig12= 2.88D-05 1.35D-03.
      3 vectors produced by pass  4 Test12= 1.28D-12 3.33D-08 XBig12= 9.68D-08 6.48D-05.
      3 vectors produced by pass  5 Test12= 1.28D-12 3.33D-08 XBig12= 4.10D-10 4.47D-06.
      3 vectors produced by pass  6 Test12= 1.28D-12 3.33D-08 XBig12= 1.96D-12 2.98D-07.
 Inverted reduced A of dimension    21 with in-core refinement.
 Calculating GIAO nuclear magnetic shielding tensors.
 SCF GIAO Magnetic shielding tensor (ppm):
      1  C    Isotropic =   122.1372   Anisotropy =    39.3437
   XX=   106.3177   YX=     0.9265   ZX=     3.1501
   XY=     2.0128   YY=   112.9528   ZY=     8.8641
   XZ=     5.9110   YZ=     1.0294   ZZ=   147.1412
   Eigenvalues:   105.6931   112.3522   148.3664
      2  C    Isotropic =   158.3972   Anisotropy =    27.9987
   XX=   154.8014   YX=    -4.1398   ZX=     1.0635
   XY=    -3.4538   YY=   176.3464   ZY=     4.9401
   XZ=     5.4640   YZ=    -0.8275   ZZ=   144.0438
   Eigenvalues:   142.8557   155.2729   177.0630
      3  H    Isotropic =    30.0906   Anisotropy =     8.9277
   XX=    35.8206   YX=    -0.1548   ZX=     1.2833
   XY=    -1.0759   YY=    28.8445   ZY=    -1.3677
   XZ=     1.1517   YZ=    -0.9565   ZZ=    25.6069
   Eigenvalues:    25.1428    29.0867    36.0424
      4  H    Isotropic =    29.4961   Anisotropy =     6.1878
   XX=    28.8071   YX=     1.0321   ZX=    -2.7107
   XY=    -0.4461   YY=    28.6858   ZY=     2.8131
   XZ=    -2.3514   YZ=     2.5425   ZZ=    30.9954
   Eigenvalues:    25.8244    29.0427    33.6213
      5  C    Isotropic =   163.4466   Anisotropy =    30.8279
   XX=   181.9476   YX=    -1.5168   ZX=    10.6416
   XY=     0.2015   YY=   161.6181   ZY=     1.5115
   XZ=     6.8301   YZ=     5.2093   ZZ=   146.7741
   Eigenvalues:   144.0572   162.2841   183.9986
      6  H    Isotropic =    29.1238   Anisotropy =     7.4985
   XX=    28.3160   YX=     1.0061   ZX=     3.4053
   XY=     0.4687   YY=    27.0375   ZY=    -3.1276
   XZ=     1.9183   YZ=    -2.5228   ZZ=    32.0179
   Eigenvalues:    24.7379    28.5107    34.1228
      7  C    Isotropic =   150.6183   Anisotropy =    25.0579
   XX=   147.9533   YX=     7.0236   ZX=     6.8798
   XY=    -0.5664   YY=   150.7827   ZY=    11.5674
   XZ=     5.8125   YZ=    14.1768   ZZ=   153.1190
   Eigenvalues:   138.5536   145.9778   167.3236
      8  H    Isotropic =    27.6978   Anisotropy =     7.5980
   XX=    29.8117   YX=     1.3928   ZX=    -3.3820
   XY=     0.3514   YY=    27.7205   ZY=    -2.5204
   XZ=    -4.0156   YZ=    -2.3025   ZZ=    25.5613
   Eigenvalues:    22.8135    27.5169    32.7631
      9  C    Isotropic =   149.9348   Anisotropy =    27.9312
   XX=   146.3680   YX=     5.7201   ZX=    -5.6588
   XY=    -4.0553   YY=   168.3710   ZY=    -1.7942
   XZ=    -1.1475   YZ=    -2.4478   ZZ=   135.0654
   Eigenvalues:   134.0229   147.2259   168.5556
     10  H    Isotropic =    28.0506   Anisotropy =     4.5756
   XX=    30.1451   YX=     1.3852   ZX=    -1.0617
   XY=     3.1856   YY=    24.7985   ZY=     0.0657
   XZ=     0.0292   YZ=     0.0770   ZZ=    29.2081
   Eigenvalues:    23.9432    29.1076    31.1010
     11  C    Isotropic =   121.7321   Anisotropy =    40.4183
   XX=   119.9661   YX=    -8.2234   ZX=    -6.3209
   XY=   -14.7948   YY=   142.5765   ZY=     3.4664
   XZ=    -4.5878   YZ=     8.5229   ZZ=   102.6539
   Eigenvalues:   100.8842   115.6345   148.6776
     12  H    Isotropic =    26.5220   Anisotropy =     2.5272
   XX=    26.6128   YX=     0.2731   ZX=     0.2790
   XY=     0.2425   YY=    25.6488   ZY=     1.4137
   XZ=     1.3090   YZ=     0.5885   ZZ=    27.3042
   Eigenvalues:    25.1683    26.1908    28.2068
     13  C    Isotropic =    82.7296   Anisotropy =   127.9757
   XX=    37.9715   YX=   -11.0554   ZX=    -1.0643
   XY=   -17.0833   YY=   123.9786   ZY=    57.9098
   XZ=   -12.7049   YZ=    58.3316   ZZ=    86.2387
   Eigenvalues:    35.3128    44.8292   168.0467
     14  C    Isotropic =    50.2496   Anisotropy =   189.3608
   XX=   -28.2223   YX=   -18.9050   ZX=   -22.7337
   XY=   -17.0351   YY=   114.6608   ZY=    82.2898
   XZ=   -19.8662   YZ=    76.7652   ZZ=    64.3103
   Eigenvalues:   -32.8933     7.1520   176.4901
     15  C    Isotropic =    44.4339   Anisotropy =   122.0048
   XX=    37.0594   YX=     3.7449   ZX=   -27.3118
   XY=     4.3110   YY=    79.1770   ZY=    73.3314
   XZ=   -18.5377   YZ=    66.8824   ZZ=    17.0654
   Eigenvalues:   -34.9678    42.4991   125.7704
     16  C    Isotropic =    42.7473   Anisotropy =   120.5743
   XX=    24.3285   YX=   -38.9971   ZX=    15.1609
   XY=   -34.5597   YY=    61.4180   ZY=    57.6267
   XZ=    11.4685   YZ=    75.3477   ZZ=    42.4955
   Eigenvalues:   -35.5017    40.6134   123.1302
     17  C    Isotropic =    84.9466   Anisotropy =   111.1584
   XX=    75.7859   YX=     9.6427   ZX=   -29.1334
   XY=    21.3573   YY=   103.6660   ZY=    75.2497
   XZ=   -19.4500   YZ=    60.6072   ZZ=    75.3879
   Eigenvalues:     8.0349    87.7527   159.0522
     18  C    Isotropic =    90.1581   Anisotropy =    97.8773
   XX=    70.4833   YX=   -27.0191   ZX=    24.2900
   XY=   -22.9339   YY=   115.4574   ZY=    53.4561
   XZ=    28.2018   YZ=    52.4594   ZZ=    84.5336
   Eigenvalues:    19.4106    95.6541   155.4097
     19  H    Isotropic =    24.7836   Anisotropy =     7.9094
   XX=    29.5220   YX=     1.3738   ZX=    -1.1846
   XY=     0.7265   YY=    21.7550   ZY=    -1.0812
   XZ=    -1.7391   YZ=    -1.8047   ZZ=    23.0737
   Eigenvalues:    20.8267    23.4674    30.0565
     20  H    Isotropic =    25.1730   Anisotropy =     7.4249
   XX=    28.5307   YX=    -1.5043   ZX=     2.2137
   XY=    -1.4110   YY=    22.9903   ZY=    -2.4785
   XZ=     2.0776   YZ=    -2.2531   ZZ=    23.9980
   Eigenvalues:    21.0676    24.3285    30.1229
     21  O    Isotropic =   238.1835   Anisotropy =    62.8442
   XX=   208.8099   YX=    -2.1546   ZX=   -28.1139
   XY=     8.2129   YY=   266.8655   ZY=    32.2590
   XZ=   -18.8950   YZ=    11.5836   ZZ=   238.8751
   Eigenvalues:   193.3883   241.0826   280.0796
     22  H    Isotropic =    23.4554   Anisotropy =    24.4056
   XX=    27.9390   YX=     5.3708   ZX=    11.2483
   XY=     9.2574   YY=    21.0144   ZY=     2.5563
   XZ=    12.4855   YZ=     1.7126   ZZ=    21.4127
   Eigenvalues:    11.3899    19.2504    39.7258
     23  O    Isotropic =   223.2055   Anisotropy =    39.6713
   XX=   192.6017   YX=    -7.9077   ZX=     3.4800
   XY=   -29.4038   YY=   229.8571   ZY=     6.6410
   XZ=    18.0573   YZ=     5.4365   ZZ=   247.1576
   Eigenvalues:   182.5385   237.4250   249.6530
     24  H    Isotropic =    26.6966   Anisotropy =    15.6557
   XX=    30.2932   YX=     3.5121   ZX=    -4.1008
   XY=     4.0896   YY=    22.3364   ZY=    -6.0007
   XZ=    -5.1277   YZ=    -7.1174   ZZ=    27.4603
   Eigenvalues:    17.8278    25.1284    37.1338
     25  O    Isotropic =   288.0696   Anisotropy =    48.3596
   XX=   262.3252   YX=    14.7804   ZX=    10.2919
   XY=     8.8669   YY=   297.8992   ZY=     9.7479
   XZ=    10.3547   YZ=    20.0847   ZZ=   303.9845
   Eigenvalues:   257.9621   285.9374   320.3094
     26  H    Isotropic =    28.3047   Anisotropy =    15.1183
   XX=    25.1677   YX=    -2.9441   ZX=     5.3388
   XY=    -0.1142   YY=    26.2589   ZY=     5.5832
   XZ=     6.6143   YZ=     6.0383   ZZ=    33.4874
   Eigenvalues:    19.2556    27.2749    38.3836
     27  C    Isotropic =   167.3826   Anisotropy =    46.2523
   XX=   162.3568   YX=    19.5785   ZX=   -14.7809
   XY=    18.3626   YY=   164.6184   ZY=   -15.1376
   XZ=    -9.5908   YZ=   -14.1806   ZZ=   175.1726
   Eigenvalues:   144.4175   159.5129   198.2175
     28  H    Isotropic =    30.4148   Anisotropy =     9.7158
   XX=    28.3918   YX=     1.7743   ZX=    -3.0842
   XY=     1.5982   YY=    27.2120   ZY=    -2.1598
   XZ=    -2.0359   YZ=    -1.0622   ZZ=    35.6406
   Eigenvalues:    26.0115    28.3409    36.8920
     29  H    Isotropic =    29.6103   Anisotropy =     8.1225
   XX=    29.3388   YX=     2.1582   ZX=    -1.1988
   XY=     0.9720   YY=    34.3238   ZY=    -0.7429
   XZ=    -0.9434   YZ=    -1.9010   ZZ=    25.1684
   Eigenvalues:    24.8139    28.9918    35.0253
     30  H    Isotropic =    30.6592   Anisotropy =     9.1925
   XX=    35.9591   YX=     2.1322   ZX=     0.2033
   XY=     3.0487   YY=    28.5365   ZY=    -0.5159
   XZ=    -0.4502   YZ=    -1.0754   ZZ=    27.4819
   Eigenvalues:    26.8625    28.3275    36.7875
     31  O    Isotropic =   272.0960   Anisotropy =    77.8960
   XX=   304.6241   YX=     0.5023   ZX=    38.3769
   XY=   -13.8300   YY=   232.4915   ZY=     2.4408
   XZ=    20.5016   YZ=     9.6204   ZZ=   279.1723
   Eigenvalues:   229.9078   262.3535   324.0267
     32  H    Isotropic =    30.6448   Anisotropy =    18.0641
   XX=    38.1130   YX=     0.0356   ZX=     6.6987
   XY=     0.2620   YY=    23.0524   ZY=     1.5611
   XZ=     7.9853   YZ=     1.2151   ZZ=    30.7689
   Eigenvalues:    22.6740    26.5728    42.6875
     33  H    Isotropic =    30.1602   Anisotropy =     9.1020
   XX=    30.5721   YX=    -2.8714   ZX=     0.8024
   XY=    -2.6353   YY=    34.7881   ZY=    -0.8933
   XZ=     0.4436   YZ=    -0.5997   ZZ=    25.1204
   Eigenvalues:    25.0276    29.2248    36.2282
     34  C    Isotropic =    42.5764   Anisotropy =   184.7502
   XX=   144.6810   YX=   -49.2647   ZX=     1.5325
   XY=   -47.3467   YY=    54.9268   ZY=     3.2003
   XZ=     0.0839   YZ=     5.6719   ZZ=   -71.8786
   Eigenvalues:   -72.0650    34.0510   165.7432
     35  C    Isotropic =    84.6825   Anisotropy =    94.8662
   XX=   140.7228   YX=   -14.7923   ZX=   -10.7334
   XY=   -11.7755   YY=   121.9356   ZY=    -4.1789
   XZ=    -8.4975   YZ=    -1.9654   ZZ=    -8.6110
   Eigenvalues:    -9.3454   115.4662   147.9266
     36  H    Isotropic =    26.7212   Anisotropy =     6.9461
   XX=    25.8350   YX=     1.1903   ZX=     0.2024
   XY=     1.1766   YY=    30.8758   ZY=     2.6889
   XZ=    -0.8755   YZ=     0.1024   ZZ=    23.4530
   Eigenvalues:    23.0858    25.7260    31.3519
     37  H    Isotropic =    26.7718   Anisotropy =     7.8997
   XX=    26.4563   YX=     2.2067   ZX=    -1.1830
   XY=     0.8699   YY=    31.5982   ZY=    -1.9751
   XZ=    -0.2216   YZ=     1.5724   ZZ=    22.2608
   Eigenvalues:    22.1460    26.1310    32.0382
     38  C    Isotropic =   171.1313   Anisotropy =    29.2096
   XX=   159.0481   YX=     5.5066   ZX=    -1.4490
   XY=     6.0951   YY=   166.5133   ZY=    -6.1546
   XZ=    -4.6690   YZ=    -7.8199   ZZ=   187.8324
   Eigenvalues:   155.8670   166.9225   190.6044
     39  H    Isotropic =    29.8121   Anisotropy =     5.5697
   XX=    31.8839   YX=     3.1056   ZX=    -0.9193
   XY=     2.4096   YY=    26.7331   ZY=     1.9830
   XZ=    -2.4743   YZ=     0.8511   ZZ=    30.8193
   Eigenvalues:    24.8661    31.0449    33.5253
     40  H    Isotropic =    29.8120   Anisotropy =     9.0345
   XX=    26.1675   YX=     1.2031   ZX=     0.0897
   XY=     0.4957   YY=    29.7895   ZY=     2.8892
   XZ=     0.3065   YZ=     4.5708   ZZ=    33.4791
   Eigenvalues:    25.8888    27.7123    35.8351
     41  H    Isotropic =    29.6721   Anisotropy =     5.9604
   XX=    28.2407   YX=    -3.6882   ZX=     1.3321
   XY=    -4.5871   YY=    30.4571   ZY=     1.4553
   XZ=     0.4830   YZ=    -0.5844   ZZ=    30.3185
   Eigenvalues:    24.8866    30.4840    33.6457
     42  C    Isotropic =   164.9897   Anisotropy =    28.1415
   XX=   183.2792   YX=     5.6238   ZX=     7.7639
   XY=    -5.4960   YY=   154.3969   ZY=    -2.3956
   XZ=    -0.7070   YZ=    -1.1405   ZZ=   157.2931
   Eigenvalues:   153.4707   157.7477   183.7507
     43  H    Isotropic =    29.2270   Anisotropy =     7.2579
   XX=    30.3682   YX=     2.3631   ZX=    -0.4355
   XY=     2.4881   YY=    32.3750   ZY=    -1.5412
   XZ=     1.3145   YZ=    -0.9348   ZZ=    24.9379
   Eigenvalues:    24.6044    29.0111    34.0656
     44  H    Isotropic =    29.1960   Anisotropy =     7.3530
   XX=    29.6977   YX=    -0.6369   ZX=     2.0265
   XY=     1.0933   YY=    24.5945   ZY=     1.4459
   XZ=     1.5131   YZ=     0.2237   ZZ=    33.2957
   Eigenvalues:    24.5144    28.9755    34.0980
     45  C    Isotropic =   177.0646   Anisotropy =    30.1560
   XX=   183.1340   YX=    -7.2886   ZX=    -3.1706
   XY=   -17.3144   YY=   178.2117   ZY=     6.9492
   XZ=   -11.0896   YZ=     8.3883   ZZ=   169.8482
   Eigenvalues:   165.2916   168.7337   197.1686
     46  H    Isotropic =    30.2954   Anisotropy =    12.0115
   XX=    37.7489   YX=    -1.6264   ZX=     0.5348
   XY=    -3.3581   YY=    26.9616   ZY=     0.2930
   XZ=    -0.9180   YZ=     0.5134   ZZ=    26.1755
   Eigenvalues:    25.9184    26.6646    38.3030
     47  H    Isotropic =    30.6061   Anisotropy =     7.4965
   XX=    29.2991   YX=    -1.7598   ZX=    -1.2187
   XY=    -2.5991   YY=    27.5091   ZY=     1.4774
   XZ=    -1.7917   YZ=     0.1049   ZZ=    35.0101
   Eigenvalues:    26.0441    30.1705    35.6038
     48  H    Isotropic =    30.5961   Anisotropy =     7.3844
   XX=    29.5140   YX=    -0.7360   ZX=    -1.2260
   XY=    -1.1944   YY=    35.2258   ZY=    -2.0482
   XZ=    -1.9092   YZ=    -0.5658   ZZ=    27.0484
   Eigenvalues:    26.0095    30.2597    35.5190
 End of Minotr Frequency-dependent properties file   721 does not exist.
 End of Minotr Frequency-dependent properties file   722 does not exist.

 **********************************************************************

            Population analysis using the SCF density.

 **********************************************************************

 Orbital symmetries:
       Occupied  (A) (A) (A) (A) (A) (A) (A) (A) (A) (A) (A) (A)
                 (A) (A) (A) (A) (A) (A) (A) (A) (A) (A) (A) (A)
                 (A) (A) (A) (A) (A) (A) (A) (A) (A) (A) (A) (A)
                 (A) (A) (A) (A) (A) (A) (A) (A) (A) (A) (A) (A)
                 (A) (A) (A) (A) (A) (A) (A) (A) (A) (A) (A) (A)
                 (A) (A) (A) (A) (A) (A) (A) (A) (A) (A) (A) (A)
                 (A) (A) (A) (A) (A) (A) (A) (A) (A) (A) (A)
       Virtual   (A) (A) (A) (A) (A) (A) (A) (A) (A) (A) (A) (A)
                 (A) (A) (A) (A) (A) (A) (A) (A) (A) (A) (A) (A)
                 (A) (A) (A) (A) (A) (A) (A) (A) (A) (A) (A) (A)
                 (A) (A) (A) (A) (A) (A) (A) (A) (A) (A) (A) (A)
                 (A) (A) (A) (A) (A) (A) (A) (A) (A) (A) (A) (A)
                 (A) (A) (A) (A) (A) (A) (A) (A) (A) (A) (A) (A)
                 (A) (A) (A) (A) (A) (A) (A) (A) (A) (A) (A) (A)
                 (A) (A) (A) (A) (A) (A) (A) (A) (A) (A) (A) (A)
                 (A) (A) (A) (A) (A) (A) (A) (A) (A) (A) (A) (A)
                 (A) (A) (A) (A) (A) (A) (A) (A) (A) (A) (A) (A)
                 (A) (A) (A) (A) (A) (A) (A) (A) (A) (A) (A) (A)
                 (A) (A) (A) (A) (A) (A) (A) (A) (A) (A) (A) (A)
                 (A) (A) (A) (A) (A) (A) (A) (A) (A) (A) (A) (A)
                 (A) (A) (A) (A) (A) (A) (A) (A) (A) (A) (A) (A)
                 (A) (A) (A) (A) (A) (A) (A) (A) (A) (A) (A) (A)
                 (A) (A) (A) (A) (A) (A) (A) (A) (A) (A) (A) (A)
                 (A) (A) (A) (A) (A) (A) (A) (A) (A) (A) (A) (A)
                 (A) (A) (A) (A) (A) (A) (A) (A) (A) (A) (A) (A)
                 (A) (A) (A) (A) (A) (A) (A) (A) (A) (A) (A) (A)
                 (A) (A) (A) (A) (A) (A) (A) (A) (A) (A) (A) (A)
                 (A) (A) (A) (A) (A) (A) (A) (A) (A) (A) (A) (A)
                 (A) (A) (A) (A) (A) (A) (A) (A) (A) (A) (A) (A)
                 (A) (A) (A) (A) (A) (A) (A) (A) (A) (A) (A) (A)
                 (A) (A) (A) (A) (A) (A) (A) (A) (A) (A) (A) (A)
                 (A) (A) (A) (A) (A) (A) (A) (A) (A) (A) (A) (A)
                 (A) (A) (A) (A) (A) (A) (A) (A) (A) (A) (A) (A)
                 (A) (A) (A) (A) (A) (A) (A) (A) (A) (A) (A) (A)
                 (A) (A) (A) (A) (A) (A) (A) (A) (A) (A) (A) (A)
                 (A) (A) (A) (A) (A) (A) (A) (A) (A) (A) (A) (A)
                 (A) (A) (A) (A) (A) (A) (A) (A) (A) (A) (A) (A)
                 (A) (A) (A) (A) (A) (A) (A) (A) (A) (A) (A) (A)
                 (A) (A) (A) (A) (A) (A) (A) (A) (A) (A) (A) (A)
                 (A) (A) (A) (A) (A) (A) (A) (A) (A) (A) (A) (A)
                 (A) (A) (A) (A) (A) (A) (A) (A) (A) (A) (A) (A)
                 (A) (A) (A) (A) (A) (A) (A) (A) (A) (A) (A) (A)
                 (A) (A) (A) (A) (A) (A) (A) (A) (A) (A) (A) (A)
                 (A) (A) (A) (A) (A) (A) (A) (A) (A) (A) (A) (A)
                 (A) (A) (A) (A) (A) (A) (A) (A) (A) (A) (A) (A)
                 (A) (A) (A) (A) (A) (A)
 The electronic state is 1-A.
 Alpha  occ. eigenvalues --  -19.28309 -19.27129 -19.26014 -19.25983 -10.32183
 Alpha  occ. eigenvalues --  -10.31826 -10.31417 -10.31381 -10.27234 -10.26560
 Alpha  occ. eigenvalues --  -10.26550 -10.26416 -10.25934 -10.24879 -10.24770
 Alpha  occ. eigenvalues --  -10.24724 -10.24477 -10.24100 -10.23968 -10.23864
 Alpha  occ. eigenvalues --  -10.23681 -10.23569  -1.09854  -1.09101  -1.07638
 Alpha  occ. eigenvalues --   -1.05512  -0.88612  -0.86764  -0.82158  -0.82035
 Alpha  occ. eigenvalues --   -0.78470  -0.77278  -0.75763  -0.74022  -0.71669
 Alpha  occ. eigenvalues --   -0.69811  -0.67012  -0.64575  -0.63713  -0.63058
 Alpha  occ. eigenvalues --   -0.61143  -0.60407  -0.56020  -0.54329  -0.53478
 Alpha  occ. eigenvalues --   -0.51840  -0.51256  -0.50299  -0.49877  -0.48266
 Alpha  occ. eigenvalues --   -0.47334  -0.46991  -0.46518  -0.45294  -0.44725
 Alpha  occ. eigenvalues --   -0.44425  -0.43907  -0.43242  -0.42852  -0.42476
 Alpha  occ. eigenvalues --   -0.42316  -0.41277  -0.40518  -0.39793  -0.39208
 Alpha  occ. eigenvalues --   -0.38840  -0.38297  -0.38087  -0.37436  -0.36984
 Alpha  occ. eigenvalues --   -0.36228  -0.35919  -0.35170  -0.34823  -0.34383
 Alpha  occ. eigenvalues --   -0.33023  -0.32503  -0.31321  -0.30369  -0.29053
 Alpha  occ. eigenvalues --   -0.25845  -0.24288  -0.23292
 Alpha virt. eigenvalues --   -0.00527  -0.00113   0.00335   0.00522   0.01292
 Alpha virt. eigenvalues --    0.01636   0.01840   0.02599   0.03138   0.03467
 Alpha virt. eigenvalues --    0.04009   0.04332   0.04520   0.04808   0.05074
 Alpha virt. eigenvalues --    0.05675   0.06024   0.06749   0.07264   0.07388
 Alpha virt. eigenvalues --    0.07745   0.08059   0.08636   0.09019   0.09330
 Alpha virt. eigenvalues --    0.09576   0.09796   0.10118   0.10667   0.10790
 Alpha virt. eigenvalues --    0.11582   0.11877   0.12202   0.12711   0.12861
 Alpha virt. eigenvalues --    0.13062   0.13409   0.13951   0.14052   0.14443
 Alpha virt. eigenvalues --    0.15196   0.15346   0.15605   0.15678   0.16162
 Alpha virt. eigenvalues --    0.16724   0.17024   0.17580   0.17642   0.17882
 Alpha virt. eigenvalues --    0.18292   0.18541   0.18911   0.19270   0.19460
 Alpha virt. eigenvalues --    0.19696   0.20029   0.20313   0.20648   0.20855
 Alpha virt. eigenvalues --    0.21126   0.21318   0.21508   0.21961   0.22091
 Alpha virt. eigenvalues --    0.22234   0.22596   0.23047   0.23360   0.23534
 Alpha virt. eigenvalues --    0.23785   0.24225   0.24302   0.24843   0.25162
 Alpha virt. eigenvalues --    0.25176   0.25705   0.25732   0.26221   0.26720
 Alpha virt. eigenvalues --    0.26887   0.27066   0.27316   0.28054   0.28197
 Alpha virt. eigenvalues --    0.28416   0.28742   0.28952   0.29314   0.29506
 Alpha virt. eigenvalues --    0.29719   0.30007   0.30580   0.30798   0.31112
 Alpha virt. eigenvalues --    0.31461   0.32157   0.32493   0.32997   0.33446
 Alpha virt. eigenvalues --    0.33754   0.34156   0.34927   0.35240   0.35464
 Alpha virt. eigenvalues --    0.35960   0.36211   0.37123   0.37430   0.37791
 Alpha virt. eigenvalues --    0.38122   0.38506   0.39345   0.39641   0.39962
 Alpha virt. eigenvalues --    0.40255   0.41105   0.41787   0.42530   0.42644
 Alpha virt. eigenvalues --    0.43755   0.44154   0.44546   0.45614   0.45941
 Alpha virt. eigenvalues --    0.46366   0.46876   0.47691   0.47958   0.48239
 Alpha virt. eigenvalues --    0.48701   0.50228   0.50481   0.51885   0.52527
 Alpha virt. eigenvalues --    0.53273   0.60451   0.63158   0.65241   0.67761
 Alpha virt. eigenvalues --    0.68324   0.69027   0.70449   0.70629   0.71921
 Alpha virt. eigenvalues --    0.72096   0.72784   0.73453   0.73791   0.74408
 Alpha virt. eigenvalues --    0.75133   0.75370   0.76102   0.76718   0.76983
 Alpha virt. eigenvalues --    0.77534   0.78473   0.78994   0.79147   0.80060
 Alpha virt. eigenvalues --    0.80348   0.81479   0.81918   0.82264   0.83917
 Alpha virt. eigenvalues --    0.84834   0.86537   0.87011   0.87711   0.88670
 Alpha virt. eigenvalues --    0.89147   0.89251   0.89661   0.90332   0.91649
 Alpha virt. eigenvalues --    0.92194   0.92427   0.93835   0.94635   0.95400
 Alpha virt. eigenvalues --    0.96032   0.97282   0.97433   0.98205   0.99852
 Alpha virt. eigenvalues --    1.00638   1.01388   1.01508   1.03059   1.03974
 Alpha virt. eigenvalues --    1.04928   1.06381   1.07764   1.08322   1.08760
 Alpha virt. eigenvalues --    1.09692   1.10086   1.10687   1.11955   1.12940
 Alpha virt. eigenvalues --    1.13595   1.14767   1.14865   1.14910   1.15349
 Alpha virt. eigenvalues --    1.16249   1.17434   1.18144   1.18775   1.18871
 Alpha virt. eigenvalues --    1.19769   1.20537   1.20681   1.21691   1.22920
 Alpha virt. eigenvalues --    1.23213   1.24272   1.25096   1.25481   1.27186
 Alpha virt. eigenvalues --    1.28243   1.28792   1.29668   1.30877   1.31836
 Alpha virt. eigenvalues --    1.32032   1.32572   1.33255   1.34425   1.35051
 Alpha virt. eigenvalues --    1.36243   1.36348   1.36845   1.37821   1.39063
 Alpha virt. eigenvalues --    1.40477   1.41412   1.41495   1.42609   1.44208
 Alpha virt. eigenvalues --    1.45550   1.47322   1.48155   1.49275   1.50323
 Alpha virt. eigenvalues --    1.50974   1.51086   1.53215   1.53601   1.54805
 Alpha virt. eigenvalues --    1.55321   1.56252   1.57681   1.57855   1.59527
 Alpha virt. eigenvalues --    1.60783   1.61938   1.62875   1.63766   1.64193
 Alpha virt. eigenvalues --    1.67459   1.69063   1.69856   1.71364   1.72515
 Alpha virt. eigenvalues --    1.75442   1.77723   1.77992   1.78595   1.80359
 Alpha virt. eigenvalues --    1.81468   1.82401   1.82597   1.84147   1.84707
 Alpha virt. eigenvalues --    1.85848   1.86045   1.87478   1.87740   1.88640
 Alpha virt. eigenvalues --    1.90193   1.90393   1.91156   1.91865   1.92637
 Alpha virt. eigenvalues --    1.93108   1.93626   1.94270   1.94737   1.95719
 Alpha virt. eigenvalues --    1.96708   1.97398   1.98951   1.99148   2.00350
 Alpha virt. eigenvalues --    2.00641   2.01862   2.04676   2.05373   2.06552
 Alpha virt. eigenvalues --    2.06704   2.06929   2.08367   2.08907   2.09602
 Alpha virt. eigenvalues --    2.10351   2.10831   2.12732   2.13032   2.13396
 Alpha virt. eigenvalues --    2.14588   2.15333   2.16046   2.16339   2.17965
 Alpha virt. eigenvalues --    2.18838   2.19009   2.19788   2.20000   2.21013
 Alpha virt. eigenvalues --    2.21919   2.23545   2.24422   2.25127   2.26284
 Alpha virt. eigenvalues --    2.27075   2.28000   2.28324   2.29421   2.30395
 Alpha virt. eigenvalues --    2.31064   2.31785   2.32487   2.34614   2.36268
 Alpha virt. eigenvalues --    2.37066   2.38104   2.40222   2.40600   2.40963
 Alpha virt. eigenvalues --    2.41794   2.42552   2.45513   2.47319   2.48019
 Alpha virt. eigenvalues --    2.49345   2.50344   2.51503   2.52139   2.53094
 Alpha virt. eigenvalues --    2.53510   2.53755   2.54266   2.54859   2.55560
 Alpha virt. eigenvalues --    2.57243   2.57643   2.58441   2.59378   2.60571
 Alpha virt. eigenvalues --    2.61125   2.62134   2.62560   2.63860   2.64663
 Alpha virt. eigenvalues --    2.65396   2.66974   2.68162   2.69121   2.70858
 Alpha virt. eigenvalues --    2.71426   2.71665   2.72009   2.72647   2.73903
 Alpha virt. eigenvalues --    2.75310   2.76023   2.76627   2.77781   2.78211
 Alpha virt. eigenvalues --    2.78696   2.80670   2.81970   2.82197   2.83548
 Alpha virt. eigenvalues --    2.85405   2.85856   2.86749   2.87632   2.87889
 Alpha virt. eigenvalues --    2.88840   2.89593   2.90567   2.91431   2.92241
 Alpha virt. eigenvalues --    2.93343   2.94715   2.95577   2.96161   2.97022
 Alpha virt. eigenvalues --    2.99425   3.01954   3.03769   3.04710   3.08848
 Alpha virt. eigenvalues --    3.09486   3.10131   3.12459   3.15655   3.17135
 Alpha virt. eigenvalues --    3.18373   3.27311   3.29158   3.29357   3.30775
 Alpha virt. eigenvalues --    3.32204   3.35890   3.37170   3.38817   3.40010
 Alpha virt. eigenvalues --    3.42444   3.45423   3.47197   3.47300   3.49000
 Alpha virt. eigenvalues --    3.50786   3.51050   3.51501   3.54086   3.54498
 Alpha virt. eigenvalues --    3.54785   3.57156   3.58278   3.59109   3.59799
 Alpha virt. eigenvalues --    3.61795   3.62939   3.65073   3.71108   3.76790
 Alpha virt. eigenvalues --    4.35456   4.37870   4.39416   4.46560   4.47137
 Alpha virt. eigenvalues --    4.49942   4.50867   4.54272   4.55434   4.57007
 Alpha virt. eigenvalues --    4.62578   4.62798   4.66290   4.69614   4.72244
 Alpha virt. eigenvalues --    4.75211   4.78292   4.79959   4.87760   4.94670
 Alpha virt. eigenvalues --    4.99942   5.02570
          Condensed to atoms (all electrons):
              1          2          3          4          5          6
     1  C   12.192314  -1.096082   0.048031  -0.091313   0.115685  -0.012506
     2  C   -1.096082   7.249716   0.289409   0.377377  -0.046179  -0.061891
     3  H    0.048031   0.289409   0.532064  -0.025151  -0.007242  -0.005425
     4  H   -0.091313   0.377377  -0.025151   0.533050  -0.088762   0.004852
     5  C    0.115685  -0.046179  -0.007242  -0.088762   7.727990   0.400776
     6  H   -0.012506  -0.061891  -0.005425   0.004852   0.400776   0.533553
     7  C   -0.129057  -0.370907   0.046848   0.068026  -2.144822  -0.007187
     8  H   -0.013230   0.036555  -0.000168  -0.000148  -0.017538  -0.009297
     9  C    0.353131   0.614794   0.015258  -0.070878   0.676182  -0.048434
    10  H   -0.041730   0.018432  -0.000065   0.000065  -0.072508   0.002293
    11  C   -2.052985  -0.853891   0.004102   0.074455   0.656098   0.030672
    12  H   -0.065613   0.022845  -0.000057   0.000815  -0.013486   0.000029
    13  C    0.393392   0.012900   0.003457  -0.016107   0.008708  -0.023689
    14  C   -0.050302   0.006330   0.000011  -0.000129  -0.003631  -0.000194
    15  C   -0.149574   0.114848  -0.000219  -0.000291  -0.146714   0.010891
    16  C   -0.818060   0.064407   0.000730   0.002792  -0.275530  -0.004217
    17  C   -0.093033   0.007668   0.000062  -0.000117  -0.079052  -0.000484
    18  C    0.022606   0.017170  -0.000054   0.000162  -0.036712   0.003198
    19  H   -0.000454   0.000031   0.000000   0.000000   0.000010   0.000000
    20  H   -0.000073   0.000019   0.000000   0.000000   0.000073   0.000000
    21  O    0.026342   0.002818  -0.000005  -0.000069   0.019071  -0.000027
    22  H    0.022758  -0.002897   0.000001   0.000000  -0.005168   0.000000
    23  O   -0.017353   0.001770   0.000003  -0.000016  -0.011747  -0.000147
    24  H   -0.000007  -0.000038   0.000000   0.000000  -0.000102  -0.000003
    25  O    0.046413  -0.023620  -0.000500   0.000104   0.013881  -0.000244
    26  H   -0.054884   0.015300  -0.000010  -0.000026  -0.005385  -0.000009
    27  C   -2.736448   0.023840  -0.063447   0.040600  -0.339372   0.005069
    28  H   -0.140526   0.030169   0.000330   0.001045   0.005880  -0.000001
    29  H   -0.100563   0.019068  -0.000051   0.000105  -0.010567   0.000003
    30  H   -0.058219  -0.014779   0.002414   0.000091   0.007759   0.000000
    31  O    0.420952   0.098271  -0.014519   0.009922  -0.072708   0.009394
    32  H    0.087656  -0.090691   0.004633   0.000043   0.018218   0.000004
    33  H    0.029990  -0.033223  -0.002005  -0.004444   0.421784  -0.026487
    34  C   -0.256907  -0.026081  -0.002230   0.026804  -0.273420   0.008331
    35  C    0.229150  -0.099259  -0.004151   0.023024   0.012868   0.017043
    36  H    0.000331  -0.001052   0.000000   0.000001   0.003217   0.000004
    37  H    0.002781  -0.002999   0.000000  -0.000002  -0.000340  -0.000057
    38  C   -0.058114   0.042703   0.004326  -0.040033  -0.025629  -0.001950
    39  H   -0.030194  -0.029996   0.000120   0.001015   0.054623  -0.000050
    40  H   -0.005414   0.004329  -0.000001   0.000088   0.001576   0.000003
    41  H    0.008121   0.012513  -0.000002   0.000091  -0.026486   0.000004
    42  C    0.004342  -0.000237   0.000000  -0.000002   0.003924   0.000002
    43  H   -0.000007   0.000001   0.000000   0.000000   0.000015   0.000000
    44  H    0.000005  -0.000001   0.000000   0.000000   0.000007   0.000000
    45  C   -0.000444   0.000069   0.000000   0.000000  -0.000380   0.000000
    46  H    0.000000   0.000000   0.000000   0.000000   0.000000   0.000000
    47  H    0.000002   0.000000   0.000000   0.000000   0.000001   0.000000
    48  H   -0.000005   0.000000   0.000000   0.000000   0.000002   0.000000
              7          8          9         10         11         12
     1  C   -0.129057  -0.013230   0.353131  -0.041730  -2.052985  -0.065613
     2  C   -0.370907   0.036555   0.614794   0.018432  -0.853891   0.022845
     3  H    0.046848  -0.000168   0.015258  -0.000065   0.004102  -0.000057
     4  H    0.068026  -0.000148  -0.070878   0.000065   0.074455   0.000815
     5  C   -2.144822  -0.017538   0.676182  -0.072508   0.656098  -0.013486
     6  H   -0.007187  -0.009297  -0.048434   0.002293   0.030672   0.000029
     7  C   12.705168   0.237258  -2.582568   0.170195  -1.494867   0.089203
     8  H    0.237258   0.562518  -0.001684  -0.006783  -0.016519  -0.000197
     9  C   -2.582568  -0.001684  17.981255   0.292701  -4.859034   0.028969
    10  H    0.170195  -0.006783   0.292701   0.524350  -0.283718   0.003990
    11  C   -1.494867  -0.016519  -4.859034  -0.283718  22.075301   0.284394
    12  H    0.089203  -0.000197   0.028969   0.003990   0.284394   0.507546
    13  C   -0.929352   0.030206   3.418643  -0.131244  -4.285752   0.065071
    14  C   -0.014528   0.001332  -0.995895   0.009183  -0.730207  -0.001611
    15  C    0.016355   0.041477  -1.623013   0.215670  -2.814531   0.043385
    16  C    0.242944   0.001781  -2.030738  -0.025056   0.232208  -0.095388
    17  C   -0.008215   0.002681  -1.357864  -0.006152  -0.541514  -0.026992
    18  C    0.188174   0.006160  -1.062592   0.082469  -0.306010   0.011267
    19  H    0.000992   0.000000   0.004806   0.000002  -0.001149   0.000002
    20  H    0.000919   0.000005  -0.010657  -0.000001  -0.000350   0.000000
    21  O   -0.008821  -0.000031  -0.099968  -0.002340   0.324651  -0.007449
    22  H   -0.003260   0.000003  -0.011245   0.000215  -0.081133  -0.001954
    23  O   -0.114659  -0.010634   0.188454   0.009725  -0.010213   0.000076
    24  H   -0.004630   0.000150   0.043973  -0.000016  -0.001055   0.000000
    25  O    0.067462  -0.000409  -0.318291  -0.015491   0.419806  -0.052588
    26  H    0.020281  -0.000006  -0.024368   0.003449   0.047562   0.005650
    27  C    0.311705  -0.000053  -2.262788   0.006265   1.877316  -0.011038
    28  H   -0.004616   0.000000   0.015648  -0.000003   0.066074   0.001931
    29  H    0.007092   0.000000  -0.011392   0.000009  -0.032269   0.000328
    30  H   -0.003837   0.000000  -0.000165   0.000001   0.022654   0.000056
    31  O    0.058600  -0.000599   0.114783   0.006388  -0.374681   0.006968
    32  H   -0.002178  -0.000006  -0.030084  -0.000176   0.061379  -0.000182
    33  H   -0.150504  -0.002144   0.038515  -0.000055   0.002821   0.000006
    34  C   -0.806848  -0.080950  -0.329547   0.036649  -0.725668  -0.001417
    35  C    0.252972   0.083685  -0.287971   0.006617  -0.090789   0.007113
    36  H    0.028217   0.000414  -0.009007   0.000002  -0.000557   0.000000
    37  H    0.010987   0.004851  -0.006107  -0.000002  -0.012013  -0.000001
    38  C    0.183077  -0.021593   0.137021   0.003773  -0.443287   0.001602
    39  H   -0.034608  -0.000093  -0.026708  -0.000011   0.061154  -0.000995
    40  H    0.026564  -0.000101  -0.013736   0.000002   0.009284   0.000127
    41  H   -0.027461  -0.000085   0.063100  -0.000064   0.006892  -0.000673
    42  C   -0.018060  -0.000481   0.022484   0.000424  -0.055692   0.000133
    43  H    0.000456   0.000000   0.001377   0.000000  -0.000119   0.000000
    44  H   -0.000069   0.000000  -0.000149   0.000000  -0.000171   0.000000
    45  C    0.000877   0.000007  -0.008609   0.000026  -0.007005   0.000006
    46  H    0.000007   0.000000   0.000187   0.000000   0.000028   0.000000
    47  H   -0.000073   0.000000  -0.000566   0.000000  -0.000072   0.000000
    48  H    0.000041   0.000000   0.000409   0.000000  -0.000030   0.000000
             13         14         15         16         17         18
     1  C    0.393392  -0.050302  -0.149574  -0.818060  -0.093033   0.022606
     2  C    0.012900   0.006330   0.114848   0.064407   0.007668   0.017170
     3  H    0.003457   0.000011  -0.000219   0.000730   0.000062  -0.000054
     4  H   -0.016107  -0.000129  -0.000291   0.002792  -0.000117   0.000162
     5  C    0.008708  -0.003631  -0.146714  -0.275530  -0.079052  -0.036712
     6  H   -0.023689  -0.000194   0.010891  -0.004217  -0.000484   0.003198
     7  C   -0.929352  -0.014528   0.016355   0.242944  -0.008215   0.188174
     8  H    0.030206   0.001332   0.041477   0.001781   0.002681   0.006160
     9  C    3.418643  -0.995895  -1.623013  -2.030738  -1.357864  -1.062592
    10  H   -0.131244   0.009183   0.215670  -0.025056  -0.006152   0.082469
    11  C   -4.285752  -0.730207  -2.814531   0.232208  -0.541514  -0.306010
    12  H    0.065071  -0.001611   0.043385  -0.095388  -0.026992   0.011267
    13  C   17.497459  -0.917887   0.427554  -2.897969  -3.526055  -2.460913
    14  C   -0.917887  10.631912  -0.406721  -1.154171   1.543090  -0.283740
    15  C    0.427554  -0.406721  10.401464  -0.981132  -0.244728   0.535648
    16  C   -2.897969  -1.154171  -0.981132  12.631101   2.846489  -1.746804
    17  C   -3.526055   1.543090  -0.244728   2.846489  10.194035  -2.056102
    18  C   -2.460913  -0.283740   0.535648  -1.746804  -2.056102  12.662674
    19  H    0.100417   0.014604  -0.011605  -0.035374   0.253015   0.029812
    20  H    0.080358   0.067915  -0.032194  -0.006091   0.002433   0.242822
    21  O   -0.388688   0.129624  -0.060803   0.094965   0.019633  -0.019025
    22  H   -0.108636  -0.008269   0.007152   0.131746   0.075669  -0.012035
    23  O   -0.265111   0.018387   0.196024   0.067476   0.005805  -0.031423
    24  H    0.152837   0.010038   0.050783  -0.001448  -0.002288  -0.240082
    25  O   -0.184961  -0.003435  -0.155346   0.178502   0.086244  -0.052007
    26  H   -0.022519  -0.000649   0.025509  -0.011619  -0.005387   0.006849
    27  C   -0.660594  -0.000479  -0.131186   0.184689   0.017741  -0.003776
    28  H   -0.000699  -0.000071  -0.000039  -0.001401  -0.000472   0.000017
    29  H   -0.000687   0.000011   0.000132  -0.000031   0.000160   0.000027
    30  H   -0.000210  -0.000001   0.000081  -0.000190  -0.000028   0.000005
    31  O   -0.007228  -0.000468   0.002895  -0.010161  -0.003463   0.001308
    32  H   -0.003990  -0.000041  -0.002275  -0.001991  -0.000123  -0.000096
    33  H    0.010184   0.000201  -0.007659   0.000657   0.000043  -0.000934
    34  C    0.508632   0.119230   0.383048   0.184434   0.095933  -0.076420
    35  C   -0.415780   0.021041   0.052302  -0.018762   0.045248   0.156085
    36  H   -0.001976   0.000052   0.004926  -0.001817  -0.000208   0.005008
    37  H    0.012863  -0.001403   0.014141  -0.000600   0.001134  -0.000622
    38  C    0.465727   0.015861   0.046666  -0.314843  -0.121143   0.038556
    39  H   -0.038918   0.000478  -0.001761   0.026133   0.001819  -0.001151
    40  H   -0.008072  -0.000431  -0.001232   0.008349   0.001604   0.000374
    41  H    0.074730  -0.005801  -0.007064  -0.064457  -0.033386   0.003915
    42  C   -0.502582  -1.726746   0.096017  -0.011473  -0.288346   0.365683
    43  H   -0.004627  -0.268408   0.060402  -0.029930  -0.105599   0.152400
    44  H   -0.001898  -0.251798  -0.027453   0.048990   0.141858  -0.085232
    45  C   -0.001699   0.007317   0.011963  -0.008418   0.049385   0.010049
    46  H    0.002472   0.016473   0.001083   0.003131   0.005303   0.010889
    47  H   -0.005049  -0.050539  -0.007970   0.001667   0.016494  -0.011970
    48  H   -0.001833  -0.051399   0.005638  -0.011000  -0.015044   0.019249
             19         20         21         22         23         24
     1  C   -0.000454  -0.000073   0.026342   0.022758  -0.017353  -0.000007
     2  C    0.000031   0.000019   0.002818  -0.002897   0.001770  -0.000038
     3  H    0.000000   0.000000  -0.000005   0.000001   0.000003   0.000000
     4  H    0.000000   0.000000  -0.000069   0.000000  -0.000016   0.000000
     5  C    0.000010   0.000073   0.019071  -0.005168  -0.011747  -0.000102
     6  H    0.000000   0.000000  -0.000027   0.000000  -0.000147  -0.000003
     7  C    0.000992   0.000919  -0.008821  -0.003260  -0.114659  -0.004630
     8  H    0.000000   0.000005  -0.000031   0.000003  -0.010634   0.000150
     9  C    0.004806  -0.010657  -0.099968  -0.011245   0.188454   0.043973
    10  H    0.000002  -0.000001  -0.002340   0.000215   0.009725  -0.000016
    11  C   -0.001149  -0.000350   0.324651  -0.081133  -0.010213  -0.001055
    12  H    0.000002   0.000000  -0.007449  -0.001954   0.000076   0.000000
    13  C    0.100417   0.080358  -0.388688  -0.108636  -0.265111   0.152837
    14  C    0.014604   0.067915   0.129624  -0.008269   0.018387   0.010038
    15  C   -0.011605  -0.032194  -0.060803   0.007152   0.196024   0.050783
    16  C   -0.035374  -0.006091   0.094965   0.131746   0.067476  -0.001448
    17  C    0.253015   0.002433   0.019633   0.075669   0.005805  -0.002288
    18  C    0.029812   0.242822  -0.019025  -0.012035  -0.031423  -0.240082
    19  H    0.514758  -0.000138  -0.006710   0.000175   0.000114   0.000000
    20  H   -0.000138   0.520786   0.000087   0.000000  -0.017708   0.008470
    21  O   -0.006710   0.000087   8.345278   0.210337  -0.002439   0.000035
    22  H    0.000175   0.000000   0.210337   0.324724  -0.000060   0.000000
    23  O    0.000114  -0.017708  -0.002439  -0.000060   8.341383   0.200337
    24  H    0.000000   0.008470   0.000035   0.000000   0.200337   0.363056
    25  O   -0.000034   0.000003  -0.015349   0.035953  -0.000521  -0.000004
    26  H    0.000000   0.000000  -0.000460   0.000048  -0.000052   0.000000
    27  C   -0.000010   0.000000   0.012421  -0.010108  -0.003785  -0.000016
    28  H    0.000000   0.000000   0.000001  -0.000006   0.000000   0.000000
    29  H    0.000000   0.000000   0.000038  -0.000020   0.000000   0.000000
    30  H    0.000000   0.000000   0.000008   0.000000   0.000000   0.000000
    31  O    0.000000   0.000000   0.001167  -0.000506  -0.001340  -0.000002
    32  H    0.000000   0.000000   0.000019   0.000000   0.000008   0.000000
    33  H    0.000000   0.000000   0.000001   0.000000   0.000090   0.000000
    34  C   -0.001676   0.000660  -0.011006   0.004296  -0.004870   0.004058
    35  C   -0.000132   0.000361  -0.001273   0.000560  -0.002778  -0.001716
    36  H    0.000000   0.000000  -0.000037   0.000000  -0.000083   0.000000
    37  H    0.000000  -0.000001   0.000002   0.000000   0.000452  -0.000011
    38  C    0.001206   0.000255  -0.025983  -0.001620  -0.004019   0.000099
    39  H    0.000000   0.000000   0.000533  -0.000009  -0.000027   0.000000
    40  H    0.000000   0.000000  -0.000093  -0.000001  -0.000012   0.000000
    41  H   -0.000007   0.000000   0.001605   0.000019   0.000097   0.000000
    42  C   -0.038407  -0.031712   0.012060  -0.001840   0.001500   0.000311
    43  H    0.000089   0.002162   0.000035   0.000000   0.000064   0.000000
    44  H    0.001755   0.000069   0.000013   0.000000   0.000044   0.000000
    45  C    0.005790   0.007518   0.000197   0.000147  -0.000124   0.000149
    46  H   -0.000028  -0.000032   0.000000   0.000000   0.000001   0.000000
    47  H    0.000006   0.000166   0.000005   0.000000   0.000016   0.000001
    48  H    0.000136   0.000012   0.000025   0.000000   0.000009   0.000000
             25         26         27         28         29         30
     1  C    0.046413  -0.054884  -2.736448  -0.140526  -0.100563  -0.058219
     2  C   -0.023620   0.015300   0.023840   0.030169   0.019068  -0.014779
     3  H   -0.000500  -0.000010  -0.063447   0.000330  -0.000051   0.002414
     4  H    0.000104  -0.000026   0.040600   0.001045   0.000105   0.000091
     5  C    0.013881  -0.005385  -0.339372   0.005880  -0.010567   0.007759
     6  H   -0.000244  -0.000009   0.005069  -0.000001   0.000003   0.000000
     7  C    0.067462   0.020281   0.311705  -0.004616   0.007092  -0.003837
     8  H   -0.000409  -0.000006  -0.000053   0.000000   0.000000   0.000000
     9  C   -0.318291  -0.024368  -2.262788   0.015648  -0.011392  -0.000165
    10  H   -0.015491   0.003449   0.006265  -0.000003   0.000009   0.000001
    11  C    0.419806   0.047562   1.877316   0.066074  -0.032269   0.022654
[...]
    20  H    0.000000   0.000000   0.000000   0.000000   0.000000   0.000000
    21  O   -0.018695   0.001118   0.015810  -0.000047   0.000087   0.000000
    22  H    0.035800  -0.000335  -0.008029  -0.000005  -0.000032   0.000000
    23  O   -0.000921  -0.000041  -0.003159   0.000000   0.000000   0.000000
    24  H   -0.000001   0.000000  -0.000002   0.000000   0.000000   0.000000
    25  O    8.426318   0.240916   0.010185  -0.002644   0.004434  -0.000714
    26  H    0.240916   0.320771   0.007604   0.000155   0.000255   0.000020
    27  C    0.010185   0.007604   8.194071   0.435387   0.508911   0.454126
    28  H   -0.002644   0.000155   0.435387   0.530510  -0.026174  -0.026094
    29  H    0.004434   0.000255   0.508911  -0.026174   0.532618  -0.029780
    30  H   -0.000714   0.000020   0.454126  -0.026094  -0.029780   0.534552
    31  O   -0.001986   0.021088  -0.226600   0.008305  -0.000196  -0.011292
    32  H   -0.000204  -0.000480  -0.007823   0.000046  -0.000588   0.003066
    33  H    0.000034   0.000000  -0.008553  -0.000004   0.000002  -0.000004
    34  C   -0.027343  -0.001623   0.037482  -0.003720  -0.001806   0.000340
    35  C    0.000785   0.000165   0.050703  -0.001281  -0.000173  -0.000007
    36  H   -0.000001   0.000000   0.000109   0.000000   0.000000   0.000000
    37  H    0.000008   0.000000  -0.000142   0.000000   0.000000   0.000000
    38  C    0.001402  -0.000063  -0.073416   0.003142   0.000632  -0.000348
    39  H    0.000164  -0.000003   0.014585   0.000119   0.000003   0.000004
    40  H    0.000041   0.000000  -0.000121   0.000000   0.000000   0.000000
    41  H   -0.000760  -0.000003  -0.004146  -0.000001   0.000000   0.000000
    42  C   -0.002698   0.000014  -0.000012   0.000000   0.000000   0.000000
    43  H    0.000000   0.000000   0.000000   0.000000   0.000000   0.000000
    44  H    0.000000   0.000000   0.000000   0.000000   0.000000   0.000000
    45  C    0.000002   0.000001  -0.000054   0.000000   0.000000   0.000000
    46  H    0.000000   0.000000   0.000000   0.000000   0.000000   0.000000
    47  H    0.000000   0.000000   0.000000   0.000000   0.000000   0.000000
    48  H    0.000000   0.000000   0.000000   0.000000   0.000000   0.000000
             31         32         33         34         35         36
     1  C    0.356811   0.019635   0.056535  -0.284799   0.185922   0.000385
     2  C    0.105315  -0.056497  -0.103990   0.053250  -0.105772  -0.001530
     3  H   -0.017023   0.004533  -0.001620  -0.002052  -0.007944   0.000000
     4  H    0.008353   0.000080  -0.004789   0.006429   0.015976   0.000001
     5  C   -0.064390   0.010150   0.534640  -0.480483   0.277873   0.002365
     6  H    0.009296  -0.000042  -0.031453  -0.013006   0.002112   0.000004
     7  C    0.058852  -0.006677  -0.162968  -0.483903  -0.160767   0.025829
     8  H   -0.000485  -0.000006  -0.002653  -0.096892   0.101664   0.000454
     9  C    0.124298  -0.019950   0.038513  -0.390033  -0.343961  -0.010207
    10  H    0.006169  -0.000196  -0.000041   0.025086   0.005927   0.000002
    11  C   -0.432054   0.068265   0.018058  -0.581575  -0.220056  -0.001361
    12  H    0.006741  -0.000175   0.000012  -0.013765   0.007766   0.000000
    13  C   -0.000536  -0.003031   0.002409   0.341763  -0.358500  -0.001220
    14  C    0.000058  -0.000024   0.000062   0.097999   0.040414   0.000320
    15  C    0.009710  -0.002473  -0.009973   0.368618   0.081372   0.004726
    16  C   -0.014717   0.000140  -0.003102   0.403167   0.027214  -0.002174
    17  C   -0.002185  -0.000038  -0.000228   0.193204   0.096290  -0.000098
    18  C    0.002117  -0.000139  -0.000978  -0.103719   0.147693   0.005591
    19  H    0.000000   0.000000   0.000000  -0.001020  -0.000028   0.000000
    20  H    0.000000   0.000000   0.000000   0.000472   0.000007   0.000000
    21  O    0.001022   0.000008   0.000009  -0.024036  -0.008869  -0.000036
    22  H   -0.000402   0.000000   0.000000   0.005974   0.001024   0.000000
    23  O   -0.001378   0.000004   0.000125  -0.020677   0.004045  -0.000064
    24  H   -0.000003   0.000000   0.000000   0.001403  -0.001479   0.000000
    25  O   -0.001986  -0.000204   0.000034  -0.027343   0.000785  -0.000001
    26  H    0.021088  -0.000480   0.000000  -0.001623   0.000165   0.000000
    27  C   -0.226600  -0.007823  -0.008553   0.037482   0.050703   0.000109
    28  H    0.008305   0.000046  -0.000004  -0.003720  -0.001281   0.000000
    29  H   -0.000196  -0.000588   0.000002  -0.001806  -0.000173   0.000000
    30  H   -0.011292   0.003066  -0.000004   0.000340  -0.000007   0.000000
    31  O    8.487255   0.244315  -0.001196  -0.006614   0.016835   0.000001
    32  H    0.244315   0.327978   0.000007   0.001005  -0.000468   0.000000
    33  H   -0.001196   0.000007   0.567105  -0.014522  -0.022986  -0.000117
    34  C   -0.006614   0.001005  -0.014522  10.979607  -3.505627  -0.222320
    35  C    0.016835  -0.000468  -0.022986  -3.505627  10.185225   0.566197
    36  H    0.000001   0.000000  -0.000117  -0.222320   0.566197   0.536048
    37  H   -0.000002   0.000000   0.000063  -0.271140   0.653654  -0.036009
    38  C   -0.004481  -0.000162   0.000834  -0.064124  -1.069988  -0.017583
    39  H   -0.000187   0.000001   0.000178  -0.043348  -0.012768   0.000136
    40  H    0.000004   0.000000  -0.000025  -0.149341  -0.023208   0.002965
    41  H    0.000043   0.000000   0.000011  -0.085767  -0.087288   0.000197
    42  C    0.000107   0.000000   0.000006  -0.009953   0.022530   0.000008
    43  H    0.000000   0.000000   0.000000  -0.000060  -0.000069   0.000000
    44  H    0.000000   0.000000   0.000000   0.000058   0.000000   0.000000
    45  C   -0.000002   0.000000   0.000000  -0.000350  -0.001661   0.000002
    46  H    0.000000   0.000000   0.000000  -0.000003   0.000001   0.000000
    47  H    0.000000   0.000000   0.000000   0.000036  -0.000005   0.000000
    48  H    0.000000   0.000000   0.000000  -0.000014   0.000001   0.000000
             37         38         39         40         41         42
     1  C    0.002354   0.034308  -0.016422  -0.000330  -0.002618   0.001801
     2  C   -0.001814  -0.028098  -0.029485   0.002393   0.011597  -0.000666
     3  H    0.000000   0.008022   0.000124  -0.000001  -0.000001   0.000000
     4  H   -0.000003  -0.033452   0.001001   0.000101   0.000099  -0.000002
     5  C   -0.004803  -0.044731   0.068329   0.002599  -0.035428   0.006783
     6  H   -0.000077   0.006003  -0.000042   0.000004   0.000005   0.000009
     7  C   -0.015561   0.168237  -0.054835   0.027247  -0.020872  -0.014005
     8  H    0.005395  -0.029378  -0.000116  -0.000116  -0.000088  -0.000408
     9  C   -0.018655   0.138085  -0.033354  -0.009639   0.047402   0.030552
    10  H    0.000001   0.004988  -0.000013   0.000003  -0.000059  -0.000124
    11  C   -0.014593  -0.469220   0.065812  -0.002516  -0.000276  -0.041751
    12  H   -0.000001   0.000862  -0.001061   0.000169  -0.000965  -0.000085
    13  C    0.010320   0.487117  -0.040446   0.001353   0.049350  -0.620553
    14  C   -0.001410   0.015717  -0.000254  -0.000849   0.000015  -1.737155
    15  C    0.015581   0.112333  -0.003698  -0.000152  -0.005368   0.087353
    16  C   -0.001267  -0.500215   0.011396  -0.001182  -0.029370  -0.094699
    17  C    0.001123  -0.210909  -0.001096  -0.001055  -0.014918  -0.409730
    18  C    0.000503   0.096858  -0.001197   0.000751   0.003237   0.410515
    19  H    0.000000   0.000855   0.000000   0.000000  -0.000004  -0.051016
    20  H   -0.000001   0.000173   0.000000   0.000000   0.000000  -0.035803
    21  O    0.000000  -0.009985   0.000714   0.000238  -0.001423   0.011598
    22  H    0.000000  -0.003618  -0.000008  -0.000002   0.000116  -0.001896
    23  O    0.000655  -0.003950  -0.000048  -0.000014   0.000184   0.008745
    24  H   -0.000014   0.000078   0.000000   0.000000   0.000000  -0.001276
    25  O    0.000008   0.001402   0.000164   0.000041  -0.000760  -0.002698
    26  H    0.000000  -0.000063  -0.000003   0.000000  -0.000003   0.000014
    27  C   -0.000142  -0.073416   0.014585  -0.000121  -0.004146  -0.000012
    28  H    0.000000   0.003142   0.000119   0.000000  -0.000001   0.000000
    29  H    0.000000   0.000632   0.000003   0.000000   0.000000   0.000000
    30  H    0.000000  -0.000348   0.000004   0.000000   0.000000   0.000000
    31  O   -0.000002  -0.004481  -0.000187   0.000004   0.000043   0.000107
    32  H    0.000000  -0.000162   0.000001   0.000000   0.000000   0.000000
    33  H    0.000063   0.000834   0.000178  -0.000025   0.000011   0.000006
    34  C   -0.271140  -0.064124  -0.043348  -0.149341  -0.085767  -0.009953
    35  C    0.653654  -1.069988  -0.012768  -0.023208  -0.087288   0.022530
    36  H   -0.036009  -0.017583   0.000136   0.002965   0.000197   0.000008
    37  H    0.545051  -0.010612  -0.000202   0.000235  -0.000206  -0.000019
    38  C   -0.010612   6.760066   0.421769   0.505418   0.517649  -0.001773
    39  H   -0.000202   0.421769   0.541411  -0.028202  -0.028536  -0.000069
    40  H    0.000235   0.505418  -0.028202   0.546650  -0.026607  -0.000114
    41  H   -0.000206   0.517649  -0.028536  -0.026607   0.533941   0.001406
    42  C   -0.000019  -0.001773  -0.000069  -0.000114   0.001406   7.411728
    43  H    0.000000   0.000023   0.000000   0.000000   0.000000   0.551759
    44  H    0.000000  -0.000002   0.000000   0.000000   0.000000   0.532317
    45  C    0.000000   0.001013  -0.000001   0.000000   0.000040   0.160298
    46  H    0.000000  -0.000001   0.000000   0.000000   0.000000  -0.050392
    47  H    0.000000   0.000002   0.000000   0.000000   0.000000  -0.035944
    48  H    0.000000  -0.000004   0.000000   0.000000   0.000000  -0.031900
             43         44         45         46         47         48
     1  C   -0.000006   0.000001  -0.000604   0.000000   0.000000  -0.000009
     2  C    0.000001  -0.000001   0.000115   0.000000   0.000000   0.000000
     3  H    0.000000   0.000000   0.000000   0.000000   0.000000   0.000000
     4  H    0.000000   0.000000   0.000000   0.000000   0.000000   0.000000
     5  C    0.000010   0.000008  -0.000793   0.000001  -0.000001   0.000001
     6  H    0.000000   0.000000   0.000000   0.000000   0.000000   0.000000
     7  C    0.000437   0.000023   0.003634   0.000009  -0.000074   0.000040
     8  H    0.000000   0.000000   0.000005   0.000000   0.000000   0.000000
     9  C    0.000264  -0.000265  -0.012611   0.000198  -0.000911   0.000261
    10  H    0.000000   0.000000   0.000046   0.000000   0.000000   0.000000
    11  C   -0.000199  -0.000150  -0.007729   0.000032  -0.000100  -0.000045
    12  H    0.000000   0.000000   0.000007   0.000000   0.000000   0.000000
    13  C   -0.010739  -0.007224  -0.025840   0.001656  -0.004540  -0.005597
    14  C   -0.225762  -0.209275   0.086418  -0.038945   0.017309   0.017382
    15  C    0.038852  -0.022000  -0.003570   0.000736  -0.027267   0.015132
    16  C   -0.025274   0.028686  -0.033744   0.005751   0.005591  -0.037124
    17  C   -0.081966   0.081620   0.011673   0.007934   0.039496  -0.059117
    18  C    0.093473  -0.062023   0.012477   0.009617  -0.056911   0.039441
    19  H    0.000119   0.002134   0.003517  -0.000033   0.000009   0.000168
    20  H    0.002434   0.000100   0.003710  -0.000037   0.000198   0.000017
    21  O    0.000028   0.000013   0.000161  -0.000002   0.000008   0.000049
    22  H    0.000000   0.000000   0.000155   0.000000   0.000000   0.000000
    23  O    0.000062   0.000040   0.000043   0.000000   0.000039   0.000009
    24  H   -0.000001   0.000000   0.000141   0.000000   0.000000   0.000000
    25  O    0.000000   0.000000   0.000002   0.000000   0.000000   0.000000
    26  H    0.000000   0.000000   0.000001   0.000000   0.000000   0.000000
    27  C    0.000000   0.000000  -0.000054   0.000000   0.000000   0.000000
    28  H    0.000000   0.000000   0.000000   0.000000   0.000000   0.000000
    29  H    0.000000   0.000000   0.000000   0.000000   0.000000   0.000000
    30  H    0.000000   0.000000   0.000000   0.000000   0.000000   0.000000
    31  O    0.000000   0.000000  -0.000002   0.000000   0.000000   0.000000
    32  H    0.000000   0.000000   0.000000   0.000000   0.000000   0.000000
    33  H    0.000000   0.000000   0.000000   0.000000   0.000000   0.000000
    34  C   -0.000060   0.000058  -0.000350  -0.000003   0.000036  -0.000014
    35  C   -0.000069   0.000000  -0.001661   0.000001  -0.000005   0.000001
    36  H    0.000000   0.000000   0.000002   0.000000   0.000000   0.000000
    37  H    0.000000   0.000000   0.000000   0.000000   0.000000   0.000000
    38  C    0.000023  -0.000002   0.001013  -0.000001   0.000002  -0.000004
    39  H    0.000000   0.000000  -0.000001   0.000000   0.000000   0.000000
    40  H    0.000000   0.000000   0.000000   0.000000   0.000000   0.000000
    41  H    0.000000   0.000000   0.000040   0.000000   0.000000   0.000000
    42  C    0.551759   0.532317   0.160298  -0.050392  -0.035944  -0.031900
    43  H    0.567531  -0.033468  -0.025109  -0.003334  -0.004933   0.004904
    44  H   -0.033468   0.565321  -0.024226  -0.003337   0.004870  -0.004967
    45  C   -0.025109  -0.024226   5.186600   0.422272   0.419038   0.416874
    46  H   -0.003334  -0.003337   0.422272   0.550141  -0.027004  -0.026936
    47  H   -0.004933   0.004870   0.419038  -0.027004   0.542361  -0.028612
    48  H    0.004904  -0.004967   0.416874  -0.026936  -0.028612   0.542858
 Mulliken atomic charges:
              1
     1  C    0.213121
     2  C   -0.352753
     3  H    0.157937
     4  H    0.162794
     5  C   -0.417780
     6  H    0.156281
     7  C    0.051682
     8  H    0.145930
     9  C    0.068030
    10  H    0.166707
    11  C   -0.036016
    12  H    0.187943
    13  C    0.456627
    14  C    0.025149
    15  C    0.324010
    16  C   -0.295530
    17  C   -0.826147
    18  C    0.003078
    19  H    0.147387
    20  H    0.149754
    21  O   -0.626871
    22  H    0.450963
    23  O   -0.608469
    24  H    0.448121
    25  O   -0.653639
    26  H    0.417777
    27  C   -0.293042
    28  H    0.166680
    29  H    0.164626
    30  H    0.163610
    31  O   -0.680965
    32  H    0.419742
    33  H    0.150595
    34  C    0.387742
    35  C   -0.558490
    36  H    0.147382
    37  H    0.141591
    38  C   -0.709472
    39  H    0.169647
    40  H    0.153305
    41  H    0.179412
    42  C   -0.095486
    43  H    0.151026
    44  H    0.151748
    45  C   -0.591948
    46  H    0.151676
    47  H    0.157347
    48  H    0.157187
 Sum of Mulliken atomic charges =   0.00000
 Mulliken charges with hydrogens summed into heavy atoms:
              1
     1  C    0.213121
     2  C   -0.032021
     5  C   -0.110904
     7  C    0.197612
     9  C    0.234738
    11  C    0.151927
    13  C    0.456627
    14  C    0.025149
    15  C    0.324010
    16  C   -0.295530
    17  C   -0.678760
    18  C    0.152831
    21  O   -0.175908
    23  O   -0.160348
    25  O   -0.235863
    27  C    0.201874
    31  O   -0.261223
    34  C    0.387742
    35  C   -0.269517
    38  C   -0.207107
    42  C    0.207288
    45  C   -0.125738
 Sum of Mulliken charges with hydrogens summed into heavy atoms =   0.00000
 Electronic spatial extent (au):  <R**2>=           7209.8560
 Charge=              0.0000 electrons
 Dipole moment (field-independent basis, Debye):
    X=             -2.9310    Y=              1.8820    Z=             -2.7247  Tot=              4.4223
 Quadrupole moment (field-independent basis, Debye-Ang):
   XX=           -101.8484   YY=           -140.8022   ZZ=           -133.2202
   XY=              7.8321   XZ=             -4.7340   YZ=             -0.6347
 Traceless Quadrupole moment (field-independent basis, Debye-Ang):
   XX=             23.4419   YY=            -15.5119   ZZ=             -7.9300
   XY=              7.8321   XZ=             -4.7340   YZ=             -0.6347
 Octapole moment (field-independent basis, Debye-Ang**2):
  XXX=            -62.3511  YYY=            -11.8963  ZZZ=            -28.6247  XYY=              0.8411
  XXY=             -7.0067  XXZ=            -37.2479  XZZ=              0.0019  YZZ=             15.3625
  YYZ=            -24.7822  XYZ=            -18.4411
 Hexadecapole moment (field-independent basis, Debye-Ang**3):
 XXXX=          -5942.2852 YYYY=          -2037.7044 ZZZZ=          -1099.9439 XXXY=            170.0941
 XXXZ=            142.4685 YYYX=             81.2912 YYYZ=             -7.7615 ZZZX=            -36.0149
 ZZZY=            -23.4378 XXYY=          -1466.5362 XXZZ=          -1210.8730 YYZZ=           -492.0162
 XXYZ=            -44.8243 YYXZ=             -4.8478 ZZXY=             59.8197
 N-N= 1.983958290522D+03 E-N=-6.300948222861D+03  KE= 9.931610931047D+02

 Test job not archived.
 1\1\GINC-COMPUTE-8-17\SP\RB3LYP\6-31+G(d,p)\C18H26O4\LPASSAGLIA.IQUIR\
 23-Dec-2022\0\\# B3LYP/6-31+G** geom=allcheck test scrf=(pcm,solvent=w
 ater,smd,dovacuum)\\comment\\0,1\C,0,1.571011375,2.509008549,-1.468047
 977\C,0,0.85942199,3.527648349,-0.574681968\H,0,1.440537019,4.45810031
 1,-0.535171902\H,0,-0.114925923,3.790799905,-0.997463713\C,0,0.6855612
 3,3.025809904,0.853650165\H,0,1.677072085,2.986977547,1.325417761\C,0,
 0.041393232,1.628516436,0.978597629\H,0,0.283940386,1.337709717,2.0096
 96528\C,0,0.756243404,0.580012405,0.055192977\H,0,1.795604345,0.501697
 514,0.412723665\C,0,0.885531256,1.122759596,-1.393829228\H,0,-0.092198
 737,1.193590459,-1.876989199\C,0,0.209046617,-0.848650218,0.247706509\
 C,0,-0.918738894,-3.416873893,0.817964024\C,0,0.348712415,-1.469039426
 ,1.507466403\C,0,-0.441908329,-1.610072912,-0.735453516\C,0,-1.0179007
 97,-2.854237366,-0.455033769\C,0,-0.206599239,-2.722194346,1.79623061\
 H,0,-1.526489915,-3.389884287,-1.253707755\H,0,-0.087425575,-3.1650762
 65,2.780876631\O,0,-0.529611741,-1.234296253,-2.046712454\H,0,0.362814
 292,-0.901415322,-2.29361923\O,0,1.078504041,-0.840786155,2.484502908\
 H,0,1.083671249,-1.398478216,3.278919985\O,0,1.671450684,0.189573992,-
 2.169825759\H,0,2.595061193,0.357597938,-1.882333762\C,0,1.630176325,3
 .021582118,-2.91212034\H,0,0.629137189,3.121411055,-3.344082817\H,0,2.
 220028499,2.353149061,-3.54892419\H,0,2.123456594,3.999474385,-2.95709
 6709\O,0,2.929126224,2.344722005,-1.023094241\H,0,3.357607859,3.219090
 891,-1.049376859\H,0,0.112585625,3.764627015,1.428212528\C,0,-1.492615
 364,1.693796805,0.937669156\C,0,-2.193413211,1.679052802,2.08774485\H,
 0,-3.27885576,1.708953274,2.096814296\H,0,-1.702413105,1.624967972,3.0
 54783426\C,0,-2.233651222,1.751549088,-0.368074912\H,0,-1.895896068,2.
 586645162,-0.983539323\H,0,-3.310608433,1.891379334,-0.218605659\H,0,-
 2.114423687,0.822310666,-0.928618222\C,0,-1.518375335,-4.767028492,1.1
 08779033\H,0,-1.839749075,-4.809369261,2.156641194\H,0,-2.425736408,-4
 .904972877,0.508125754\C,0,-0.538546385,-5.895568866,0.825923253\H,0,-
 1.001503077,-6.862655425,1.046195043\H,0,0.362809473,-5.802882107,1.44
 1265131\H,0,-0.228918322,-5.899032567,-0.224695952\\Version=EM64L-G09R
 evC.01\State=1-A\HF=-1002.5421453\RMSD=3.947e-09\Dipole=0.825897,1.261
 6617,0.8679068\Quadrupole=-6.1160205,9.970672,-3.8546516,6.2275773,-0.
 9120564,-12.9159214\PG=C01 [X(C18H26O4)]\\@


 PENOTUS DIED A HUNDRED YEARS OLD WANTING BUT TWO...
 AND HE USED TO SAY BEFORE HE DIED, HAVING SPENT HIS
 WHOLE LIFE IN VAINLY SEARCHING AFTER THE PHILOSOPHER'S
 STONE, THAT IF HE HAD A MORTAL ENEMY HE DID NOT DARE
 TO ENCOUNTER OPENLY, HE WOULD ADVISE HIM ABOVE ALL
 THINGS TO GIVE HIMSELF UP TO THE STUDY AND PRACTICE
 OF ALCHEMY.  --  NICOLAS LEMERY, M.D.
 "A COURSE OF CHYMISTRY", WALTER KETTILBY, LONDON, 1686
 Job cpu time:  0 days  2 hours 21 minutes 38.0 seconds.
 File lengths (MBytes):  RWF=    239 Int=      0 D2E=      0 Chk=     19 Scr=      1
 Normal termination of Gaussian 09 at Fri Dec 23 15:47:27 2022.
