 Entering Gaussian System, Link 0=g09
 Input=/home/lpassaglia.iquir/Link1/04_RSSR_THC_007.gjc
 Output=/home/lpassaglia.iquir/Link1/04_RSSR_THC_007.log
 Initial command:
 /share/apps/Gaussian09/EM64T.SSE4.2-enabled/g09/l1.exe /tmp/Gau-21304.inp -scrdir=/tmp/
 Entering Link 1 = /share/apps/Gaussian09/EM64T.SSE4.2-enabled/g09/l1.exe PID=     21315.
  
 Copyright (c) 1988,1990,1992,1993,1995,1998,2003,2009,2011,
            Gaussian, Inc.  All Rights Reserved.
  
 This is part of the Gaussian(R) 09 program.  It is based on
 the Gaussian(R) 03 system (copyright 2003, Gaussian, Inc.),
 the Gaussian(R) 98 system (copyright 1998, Gaussian, Inc.),
 the Gaussian(R) 94 system (copyright 1995, Gaussian, Inc.),
 the Gaussian 92(TM) system (copyright 1992, Gaussian, Inc.),
 the Gaussian 90(TM) system (copyright 1990, Gaussian, Inc.),
 the Gaussian 88(TM) system (copyright 1988, Gaussian, Inc.),
 the Gaussian 86(TM) system (copyright 1986, Carnegie Mellon
 University), and the Gaussian 82(TM) system (copyright 1983,
 Carnegie Mellon University). Gaussian is a federally registered
 trademark of Gaussian, Inc.
  
 This software contains proprietary and confidential information,
 including trade secrets, belonging to Gaussian, Inc.
  
 This software is provided under written license and may be
 used, copied, transmitted, or stored only in accord with that
 written license.
  
 The following legend is applicable only to US Government
 contracts under FAR:
  
                    RESTRICTED RIGHTS LEGEND
  
 Use, reproduction and disclosure by the US Government is
 subject to restrictions as set forth in subparagraphs (a)
 and (c) of the Commercial Computer Software - Restricted
 Rights clause in FAR 52.227-19.
  
 Gaussian, Inc.
 340 Quinnipiac St., Bldg. 40, Wallingford CT 06492
  
  
 ---------------------------------------------------------------
 Warning -- This program may not be used in any manner that
 competes with the business of Gaussian, Inc. or will provide
 assistance to any competitor of Gaussian, Inc.  The licensee
 of this program is prohibited from giving any competitor of
 Gaussian, Inc. access to this program.  By using this program,
 the user acknowledges that Gaussian, Inc. is engaged in the
 business of creating and licensing software in the field of
 computational chemistry and represents and warrants to the
 licensee that it is not a competitor of Gaussian, Inc. and that
 it will not use this program in any manner prohibited above.
 ---------------------------------------------------------------
  

 Cite this work as:
 Gaussian 09, Revision C.01,
 M. J. Frisch, G. W. Trucks, H. B. Schlegel, G. E. Scuseria, 
 M. A. Robb, J. R. Cheeseman, G. Scalmani, V. Barone, B. Mennucci, 
 G. A. Petersson, H. Nakatsuji, M. Caricato, X. Li, H. P. Hratchian, 
 A. F. Izmaylov, J. Bloino, G. Zheng, J. L. Sonnenberg, M. Hada, 
 M. Ehara, K. Toyota, R. Fukuda, J. Hasegawa, M. Ishida, T. Nakajima, 
 Y. Honda, O. Kitao, H. Nakai, T. Vreven, J. A. Montgomery, Jr., 
 J. E. Peralta, F. Ogliaro, M. Bearpark, J. J. Heyd, E. Brothers, 
 K. N. Kudin, V. N. Staroverov, T. Keith, R. Kobayashi, J. Normand, 
 K. Raghavachari, A. Rendell, J. C. Burant, S. S. Iyengar, J. Tomasi, 
 M. Cossi, N. Rega, J. M. Millam, M. Klene, J. E. Knox, J. B. Cross, 
 V. Bakken, C. Adamo, J. Jaramillo, R. Gomperts, R. E. Stratmann, 
 O. Yazyev, A. J. Austin, R. Cammi, C. Pomelli, J. W. Ochterski, 
 R. L. Martin, K. Morokuma, V. G. Zakrzewski, G. A. Voth, 
 P. Salvador, J. J. Dannenberg, S. Dapprich, A. D. Daniels, 
 O. Farkas, J. B. Foresman, J. V. Ortiz, J. Cioslowski, 
 and D. J. Fox, Gaussian, Inc., Wallingford CT, 2010.
 
 ******************************************
 Gaussian 09:  EM64L-G09RevC.01 23-Sep-2011
                23-Dec-2022 
 ******************************************
 %chk=04_RSSR_THC_007_optB_NMR
 %nprocshared=4
 Will use up to    4 processors via shared memory.
 ------------------------------------------------
 # mPW1PW91/6-31+G** scrf=(PCM,solvent=water) nmr
 ------------------------------------------------
 1/38=1/1;
 2/12=2,17=6,18=5,40=1/2;
 3/5=1,6=6,7=111,11=2,16=1,25=1,30=1,70=2201,72=1,74=-7/1,2,8,3;
 4//1;
 5/5=2,38=5,53=1/2;
 8/6=1,10=90,11=11/1;
 10/13=100,45=16/2;
 6/7=2,8=2,9=2,10=2,28=1/1;
 99/9=1/99;
 -------
 comment
 -------
 Charge =  0 Multiplicity = 1
 Symbolic Z-Matrix:
 6                     1.71713   2.54914  -1.28508 
 6                     0.96816   3.57129  -0.42673 
 1                     1.56494   4.48868  -0.33933 
 1                     0.03453   3.85683  -0.92021 
 6                     0.6832    3.06814   0.9887 
 1                     1.63865   3.02062   1.52908 
 6                     0.02339   1.67542   1.06522 
 1                     0.21621   1.35219   2.10063 
 6                     0.77007   0.64657   0.15828 
 1                     1.79074   0.56931   0.56443 
 6                     1.00537   1.17163  -1.28153 
 1                     0.07758   1.26948  -1.84731 
 6                     0.20274  -0.77394   0.31108 
 6                    -0.82399  -3.3965    0.747 
 6                     0.5895   -1.54921   1.42192 
 6                    -0.72119  -1.35474  -0.56866 
 6                    -1.22446  -2.64558  -0.36226 
 6                     0.09421  -2.83844   1.63916 
 1                    -1.92862  -3.0791   -1.06785 
 1                     0.41673  -3.41371   2.50261 
 8                    -1.14731  -0.66589  -1.66855 
 1                    -1.92562  -1.11565  -2.03801 
 8                     1.47693  -1.0223    2.3231 
 1                     1.67151  -1.68402   3.00581 
 8                     1.85848   0.25275  -1.99626 
 1                     1.34602  -0.57505  -2.06198 
 6                     1.88358   3.08601  -2.71219 
 1                     0.91599   3.21971  -3.20671 
 1                     2.49643   2.41426  -3.32337 
 1                     2.40421   4.05068  -2.7046 
 8                     3.04072   2.38961  -0.75056 
 1                     3.37341   1.56438  -1.16055 
 1                     0.07625   3.80938   1.52352 
 6                    -1.50726   1.71405   0.93933 
 6                    -2.27505   1.0997    1.85945 
 1                    -3.35899   1.11604   1.80589 
 1                    -1.83784   0.55277   2.69001 
 6                    -2.1645    2.45743  -0.18776 
 1                    -2.01575   3.53513  -0.0757 
 1                    -3.24706   2.28733  -0.21132 
 1                    -1.77846   2.1401   -1.15743 
 6                    -1.35059  -4.79231   0.96029 
 1                    -1.41293  -5.00335   2.03483 
 1                    -2.37639  -4.86218   0.57829 
 6                    -0.47695  -5.83596   0.28132 
 1                    -0.88236  -6.83817   0.45255 
 1                     0.54617  -5.81249   0.67166 
 1                    -0.42755  -5.6701   -0.80022 
 
                          Input orientation:                          
 ---------------------------------------------------------------------
 Center     Atomic      Atomic             Coordinates (Angstroms)
 Number     Number       Type             X           Y           Z
 ---------------------------------------------------------------------
      1          6           0        1.717134    2.549143   -1.285082
      2          6           0        0.968164    3.571293   -0.426729
      3          1           0        1.564943    4.488685   -0.339330
      4          1           0        0.034535    3.856833   -0.920206
      5          6           0        0.683201    3.068140    0.988704
      6          1           0        1.638653    3.020623    1.529083
      7          6           0        0.023389    1.675421    1.065222
      8          1           0        0.216207    1.352194    2.100629
      9          6           0        0.770070    0.646569    0.158280
     10          1           0        1.790745    0.569315    0.564430
     11          6           0        1.005365    1.171628   -1.281529
     12          1           0        0.077580    1.269477   -1.847315
     13          6           0        0.202740   -0.773939    0.311079
     14          6           0       -0.823992   -3.396500    0.747004
     15          6           0        0.589502   -1.549207    1.421922
     16          6           0       -0.721192   -1.354740   -0.568663
     17          6           0       -1.224457   -2.645576   -0.362263
     18          6           0        0.094208   -2.838437    1.639160
     19          1           0       -1.928616   -3.079097   -1.067846
     20          1           0        0.416731   -3.413706    2.502605
     21          8           0       -1.147312   -0.665888   -1.668546
     22          1           0       -1.925616   -1.115653   -2.038008
     23          8           0        1.476934   -1.022299    2.323098
     24          1           0        1.671509   -1.684015    3.005806
     25          8           0        1.858478    0.252752   -1.996258
     26          1           0        1.346016   -0.575053   -2.061977
     27          6           0        1.883577    3.086014   -2.712186
     28          1           0        0.915993    3.219712   -3.206708
     29          1           0        2.496427    2.414261   -3.323372
     30          1           0        2.404209    4.050683   -2.704597
     31          8           0        3.040724    2.389612   -0.750558
     32          1           0        3.373412    1.564379   -1.160550
     33          1           0        0.076246    3.809384    1.523517
     34          6           0       -1.507264    1.714052    0.939327
     35          6           0       -2.275050    1.099703    1.859451
     36          1           0       -3.358985    1.116039    1.805889
     37          1           0       -1.837835    0.552769    2.690008
     38          6           0       -2.164496    2.457434   -0.187758
     39          1           0       -2.015750    3.535133   -0.075703
     40          1           0       -3.247059    2.287327   -0.211320
     41          1           0       -1.778457    2.140098   -1.157433
     42          6           0       -1.350591   -4.792307    0.960285
     43          1           0       -1.412928   -5.003348    2.034830
     44          1           0       -2.376392   -4.862183    0.578294
     45          6           0       -0.476954   -5.835961    0.281324
     46          1           0       -0.882361   -6.838170    0.452548
     47          1           0        0.546166   -5.812494    0.671658
     48          1           0       -0.427549   -5.670098   -0.800219
 ---------------------------------------------------------------------
                    Distance matrix (angstroms):
                    1          2          3          4          5
     1  C    0.000000
     2  C    1.530529   0.000000
     3  H    2.163200   1.097903   0.000000
     4  H    2.162020   1.093945   1.754651   0.000000
     5  C    2.551172   1.528992   2.135203   2.164888   0.000000
     6  H    2.854466   2.139625   2.377311   3.044907   1.098707
     7  C    3.025903   2.590916   3.501943   2.949678   1.543007
     8  H    3.892108   3.446357   4.196435   3.928315   2.097363
     9  C    2.569049   2.989229   3.954908   3.465536   2.561475
    10  H    2.710319   3.266636   4.028552   4.012006   2.766006
    11  C    1.550540   2.547638   3.493384   2.878088   2.975652
    12  H    2.154481   2.847730   3.853514   2.748781   3.412472
    13  C    3.985473   4.473397   5.474837   4.794623   3.930851
    14  C    6.777710   7.289692   8.310431   7.491828   6.642410
    15  C    5.039434   5.457143   6.364717   5.917670   4.638571
    16  C    4.658218   5.209594   6.278903   5.277802   4.894852
    17  C    6.040667   6.592511   7.660219   6.646629   6.173396
    18  C    6.341222   6.790901   7.730731   7.168023   5.971403
    19  H    6.709379   7.282174   8.367019   7.209916   6.988527
    20  H    7.182840   7.594425   8.476011   8.045026   6.661623
    21  O    4.323022   4.896024   5.974342   4.734108   4.935050
    22  H    5.221806   5.739134   6.817486   5.460521   5.785416
    23  O    5.082504   5.377870   6.121047   6.033694   4.375193
    24  H    6.027722   6.316269   7.021647   6.985288   5.256276
    25  O    2.408144   3.777406   4.557927   4.180198   4.268217
    26  H    3.240663   4.473142   5.353213   4.760803   4.797795
    27  C    1.533806   2.509341   2.774790   2.687808   3.890734
    28  H    2.187268   2.802609   3.202076   2.531992   4.204599
    29  H    2.186348   3.473450   3.751720   3.730568   4.723277
    30  H    2.177548   2.735091   2.547686   2.972707   4.191388
    31  O    1.436334   2.407642   2.598681   3.349431   3.007216
    32  H    1.930938   3.217362   3.535043   4.057241   3.757369
    33  H    3.488402   2.157699   2.479489   2.444540   1.097207
    34  C    4.005261   3.382780   4.332667   3.229012   2.575680
    35  C    5.284553   4.674806   5.573633   4.545596   3.658441
    36  H    6.113500   5.453172   6.342064   5.143882   4.562649
    37  H    5.694265   5.167123   6.020566   5.239871   3.946789
    38  C    4.034796   3.333369   4.249431   2.707496   3.141083
    39  H    4.045886   3.004707   3.714851   2.240612   2.938602
    40  H    5.085737   4.411697   5.293177   3.706039   4.182902
    41  H    3.521757   3.182165   4.166950   2.508066   3.395132
    42  C    8.267375   8.789212   9.814588   8.958930   8.119343
    43  H    8.823787   9.233274  10.227563   9.451465   8.404585
    44  H    8.669306   9.127959  10.188959   9.169477   8.509968
    45  C    8.807815   9.543905  10.542906   9.780365   9.007183
    46  H    9.894360  10.609170  11.615249  10.821656  10.043576
    47  H    8.667004   9.457272  10.400687   9.812832   8.887347
    48  H    8.508271   9.353653  10.362592   9.538885   8.988371
                    6          7          8          9         10
     6  H    0.000000
     7  C    2.152629   0.000000
     8  H    2.265761   1.101691   0.000000
     9  C    2.875703   1.561606   2.139483   0.000000
    10  H    2.638674   2.144251   2.334947   1.101228   0.000000
    11  C    3.423357   2.593323   3.477695   1.550516   2.094556
    12  H    4.111390   2.941190   3.951243   2.211327   3.040012
    13  C    4.236045   2.569098   2.779049   1.537223   2.095299
    14  C    6.917784   5.152058   5.046227   4.385662   4.753721
    15  C    4.689940   3.293318   3.003018   2.539847   2.581939
    16  C    5.395665   3.522195   3.915524   2.599528   3.360909
    17  C    6.624228   4.718671   4.911569   3.884240   4.503967
    18  C    6.060199   4.550752   4.217728   3.846435   3.955509
    19  H    7.528349   5.564688   5.854557   4.760975   5.459751
    20  H    6.621285   5.302830   4.787023   4.701759   4.637768
    21  O    5.619323   3.784938   4.487596   2.955705   3.891540
    22  H    6.522035   4.606382   5.273139   3.898183   4.839746
    23  O    4.123327   3.312513   2.697618   2.823333   2.392619
    24  H    4.931066   4.215209   3.486519   3.788485   3.324460
    25  O    4.487478   3.842421   4.548660   2.445763   2.581070
    26  H    5.090210   4.073494   4.724197   2.598772   2.899202
    27  C    4.248839   4.440595   5.380469   3.928151   4.132627
    28  H    4.794747   4.629359   5.669670   4.238574   4.691618
    29  H    4.964853   5.091322   5.978894   4.269303   4.360827
    30  H    4.423929   5.051901   5.929536   4.738615   4.814852
    31  O    2.749680   3.593249   4.145286   3.003341   2.570043
    32  H    3.516270   4.023561   4.544035   3.059261   2.543726
    33  H    1.750226   2.183260   2.527930   3.514066   3.789116
    34  C    3.457128   1.536307   2.109482   2.633591   3.511101
    35  C    4.372201   2.499014   2.515607   3.517395   4.299893
    36  H    5.355413   3.507414   3.595085   4.470360   5.325397
    37  H    4.418599   2.713748   2.281564   3.635878   4.205347
    38  C    4.210542   2.639762   3.482243   3.465639   4.446876
    39  H    4.024266   2.986356   3.805690   4.019869   4.867777
    40  H    5.238025   3.563680   4.267762   4.354999   5.378924
    41  H    4.435012   2.898753   3.900569   3.233685   4.262789
    42  C    8.384568   6.612892   6.442835   5.892519   6.226691
    43  H    8.599537   6.899936   6.561351   6.341016   6.593949
    44  H    8.897371   6.981140   6.903445   6.357907   6.845903
    45  C    9.190852   7.568732   7.447141   6.602529   6.800747
    46  H   10.232801   8.583530   8.426451   7.670621   7.875839
    47  H    8.941624   7.516453   7.313247   6.483300   6.502918
    48  H    9.231655   7.592092   7.625085   6.500253   6.761165
                   11         12         13         14         15
    11  C    0.000000
    12  H    1.091089   0.000000
    13  C    2.639288   2.974875   0.000000
    14  C    5.322526   5.414301   2.849918   0.000000
    15  C    3.858047   4.346832   1.408757   2.421977   0.000000
    16  C    3.141928   3.026466   1.401759   2.431117   2.391269
    17  C    4.515329   4.385010   2.448123   1.398117   2.770522
    18  C    5.043932   5.388018   2.457179   1.396592   1.398079
    19  H    5.169388   4.852060   3.428975   2.148167   3.857517
    20  H    5.974232   6.400705   3.437578   2.149843   2.161963
    21  O    2.856618   2.297380   2.398589   3.660007   3.653459
    22  H    3.794017   3.120577   3.188241   3.764589   4.299408
    23  O    4.246060   4.960118   2.394467   3.662671   1.370140
    24  H    5.194197   5.900551   3.201105   3.776548   1.922914
    25  O    1.443250   2.056091   3.019829   5.295108   4.067101
    26  H    1.943203   2.248844   2.641597   4.534299   3.695787
    27  C    2.546156   2.703597   5.183106   7.830703   6.344348
    28  H    2.812286   2.520775   5.369620   7.901497   6.653826
    29  H    2.817184   3.056158   5.351155   7.833140   6.470182
    30  H    3.502976   3.726023   6.100635   8.820168   7.188886
    31  O    2.430659   3.352283   4.380557   7.117430   5.122738
    32  H    2.403442   3.379515   4.205542   6.772538   4.910573
    33  H    3.960972   4.220621   4.742663   7.303298   5.384073
    34  C    3.397017   3.236472   3.083651   5.159611   3.908731
    35  C    4.542252   4.393609   3.470941   4.853756   3.926043
    36  H    5.346288   5.017910   4.300275   5.283032   4.779280
    37  H    4.923401   4.976925   3.403440   4.516621   3.452291
    38  C    3.591330   3.031876   4.036634   6.077769   5.121401
    39  H    4.020859   3.557223   4.862037   7.081290   5.905991
    40  H    4.524736   3.842619   4.641699   6.252641   5.666187
    41  H    2.950085   2.163051   3.817497   5.932268   5.086381
    42  C    6.792995   6.831362   4.356786   1.507008   3.807200
    43  H    7.414628   7.526021   4.844543   2.141799   4.039366
    44  H    7.162548   7.035823   4.841184   2.141643   4.525930
    45  C    7.331171   7.438135   5.107537   2.507641   4.562297
    46  H    8.409958   8.482027   6.162171   3.454736   5.574872
    47  H    7.266619   7.531208   5.063101   2.778495   4.329017
    48  H    7.006719   7.036282   5.060100   2.778545   4.791038
                   16         17         18         19         20
    16  C    0.000000
    17  C    1.400762   0.000000
    18  C    2.782215   2.404531   0.000000
    19  H    2.163438   1.087027   3.387864   0.000000
    20  H    3.868708   3.389836   1.086505   4.284943   0.000000
    21  O    1.365956   2.373076   4.147560   2.606694   5.234045
    22  H    1.914882   2.374955   4.535333   2.190053   5.602214
    23  O    3.647541   4.140495   2.382868   5.227494   2.622037
    24  H    4.313962   4.544789   2.385013   5.612646   2.195338
    25  O    3.358088   4.535938   5.087668   5.128864   5.980077
    26  H    2.666692   3.712603   4.515346   4.240489   5.454991
    27  C    5.576720   6.930594   7.565394   7.432716   8.461209
    28  H    5.528587   6.861049   7.801214   7.234745   8.766285
    29  H    5.669821   6.943709   7.615000   7.405767   8.498961
    30  H    6.599162   7.968289   8.465477   8.502122   9.315692
    31  O    5.310864   6.610269   6.459505   7.396066   7.151707
    32  H    5.063335   6.285012   6.162494   7.048543   6.851423
    33  H    5.628614   6.849416   6.648851   7.627962   7.297093
    34  C    3.508479   4.558560   4.876436   5.213498   5.695567
    35  C    3.786093   4.479607   4.601180   5.113850   5.294354
    36  H    4.324488   4.838062   5.252640   5.282374   5.938015
    37  H    3.937565   4.463407   4.041949   5.226869   4.566302
    38  C    4.094006   5.191805   6.040333   5.611004   6.954931
    39  H    5.082297   6.237742   6.929291   6.688795   7.800705
    40  H    4.446611   5.333595   6.392324   5.591997   7.300036
    41  H    3.698425   4.882816   6.009461   5.222123   7.004246
    42  C    3.814537   2.524578   2.523078   2.717079   2.720794
    43  H    4.535308   3.367591   2.667369   3.687178   2.468487
    44  H    4.044422   2.669260   3.365241   2.467727   3.688169
    45  C    4.567655   3.339389   3.339924   3.395273   3.405890
    46  H    5.580040   4.284716   4.284810   4.187706   4.197300
    47  H    4.797516   3.772726   3.159959   4.076994   3.020481
    48  H    4.331531   3.158259   3.773738   3.006345   4.088124
                   21         22         23         24         25
    21  O    0.000000
    22  H    0.971879   0.000000
    23  O    4.790293   5.532206   0.000000
    24  H    5.552648   6.221126   0.970473   0.000000
    25  O    3.160074   4.024133   4.519753   5.367184   0.000000
    26  H    2.525811   3.316082   4.409768   5.197900   0.975807
    27  C    4.934799   5.711259   6.511350   7.449402   2.922423
    28  H    4.660586   5.313755   6.992001   7.950641   3.340108
    29  H    5.050011   5.802321   6.688193   7.585173   2.615403
    30  H    5.994393   6.773681   7.202270   8.126027   3.901774
    31  O    5.264829   6.213610   4.851179   5.707842   2.741468
    32  H    5.066467   6.002683   4.735328   5.550410   2.171128
    33  H    5.631556   6.399055   5.093762   5.909270   5.311760
    34  C    3.548898   4.128774   4.278770   5.091345   4.699071
    35  C    4.103153   4.496676   4.335348   4.963723   5.715756
    36  H    4.487590   4.670176   5.312825   5.880984   6.513333
    37  H    4.578093   5.014526   3.688246   4.173539   5.976104
    38  C    3.603129   4.030811   5.627873   6.485784   4.931086
    39  H    4.576015   5.048621   6.222803   7.094441   5.428830
    40  H    3.905627   4.082067   6.300239   7.093220   5.778581
    41  H    2.921154   3.375942   5.719477   6.622588   4.182463
    42  C    4.896877   4.778933   4.905621   4.793613   6.670224
    43  H    5.709562   5.653763   4.927794   4.634061   7.387717
    44  H    4.916077   4.591810   5.712894   5.690260   7.122148
    45  C    5.566059   5.455202   5.581922   5.410854   6.907535
    46  H    6.531944   6.327594   6.549014   6.293384   7.986865
    47  H    5.901861   5.959220   5.151655   4.874318   6.754787
    48  H    5.129733   4.951696   5.914744   5.897518   6.460386
                   26         27         28         29         30
    26  H    0.000000
    27  C    3.757015   0.000000
    28  H    3.986926   1.094827   0.000000
    29  H    3.442465   1.095621   1.777677   0.000000
    30  H    4.788545   1.096221   1.776912   1.751931   0.000000
    31  O    3.658018   2.381586   3.352048   2.629874   2.642456
    32  H    3.082219   2.634874   3.600806   2.483788   3.083041
    33  H    5.804427   4.661641   4.840240   5.594281   4.832658
    34  C    4.731705   5.168523   5.032772   5.889859   5.834179
    35  C    5.594151   6.491493   6.351627   7.166360   7.171770
    36  H    6.321172   7.195712   6.915708   7.891803   7.884861
    37  H    5.830116   7.032065   7.033307   7.642756   7.702733
    38  C    5.003236   4.811938   4.380016   5.617663   5.453988
    39  H    5.669249   4.728371   4.300906   5.671282   5.168453
    40  H    5.719658   5.763302   5.212743   6.533652   6.423603
    41  H    4.237048   4.089316   3.553190   4.800114   4.851675
    42  C    5.847306   9.274418   9.310945   9.224093  10.282429
    43  H    6.633656   9.941775  10.025783   9.950594  10.909087
    44  H    6.261536   9.599397   9.512259   9.587179  10.633470
    45  C    6.040813   9.702311   9.803667   9.481613  10.722058
    46  H    7.107399  10.777541  10.852890  10.548993  11.804076
    47  H    5.961820   9.613663   9.836627   9.351111  10.589318
    48  H    5.540491   9.255616   9.307256   8.959509  10.302382
                   31         32         33         34         35
    31  O    0.000000
    32  H    0.979686   0.000000
    33  H    3.996911   4.807865   0.000000
    34  C    4.898600   5.315343   2.690576   0.000000
    35  C    6.060814   6.421950   3.603306   1.346680   0.000000
    36  H    7.008116   7.370613   4.374318   2.130123   1.085381
    37  H    6.245944   6.557990   3.953472   2.126673   1.086332
    38  C    5.235996   5.693179   3.126845   1.501630   2.459008
    39  H    5.228343   5.839848   2.647483   2.145969   3.121439
    40  H    6.311692   6.727133   4.046069   2.163220   2.577469
    41  H    4.842759   5.183938   3.662504   2.156725   3.229646
    42  C    8.590145   8.198878   8.737401   6.508278   6.031492
    43  H    9.069138   8.732385   8.952280   6.806797   6.166137
    44  H    9.148744   8.796847   9.061178   6.643236   6.098829
    45  C    9.005492   8.465774   9.740726   7.648346   7.336693
    46  H   10.099011   9.555967  10.744129   8.588827   8.181001
    47  H    8.690227   8.109781   9.670936   7.806222   7.559668
    48  H    8.774412   8.180146   9.773133   7.662732   7.504486
                   36         37         38         39         40
    36  H    0.000000
    37  H    1.847386   0.000000
    38  C    2.683426   3.466409   0.000000
    39  H    3.346146   4.071278   1.093672   0.000000
    40  H    2.335290   3.662282   1.096100   1.758276   0.000000
    41  H    3.511132   4.162444   1.090870   1.781171   1.753167
    42  C    6.297399   5.639077   7.385065   8.417955   7.422295
    43  H    6.425453   5.610726   7.820999   8.816088   7.846220
    44  H    6.181554   5.837044   7.362644   8.430462   7.245484
    45  C    7.678587   6.962013   8.476333   9.503303   8.596742
    46  H    8.440061   7.781076   9.405430  10.448399   9.450249
    47  H    8.033757   7.090400   8.745169   9.721115   8.987508
    48  H    7.838161   7.272872   8.333599   9.369289   8.462685
                   41         42         43         44         45
    41  H    0.000000
    42  C    7.261269   0.000000
    43  H    7.832814   1.096846   0.000000
    44  H    7.238937   1.096844   1.752052   0.000000
    45  C    8.208620   1.521001   2.155012   2.155063   0.000000
    46  H    9.165387   2.159304   2.480260   2.480416   1.094576
    47  H    8.484878   2.172965   2.520120   3.074598   1.095302
    48  H    7.934212   2.172993   3.074578   2.520121   1.095301
                   46         47         48
    46  H    0.000000
    47  H    1.772205   0.000000
    48  H    1.772194   1.770542   0.000000
 Stoichiometry    C18H26O4
 Framework group  C1[X(C18H26O4)]
 Deg. of freedom   138
 Full point group                 C1      NOp   1
 Largest Abelian subgroup         C1      NOp   1
 Largest concise Abelian subgroup C1      NOp   1
                         Standard orientation:                         
 ---------------------------------------------------------------------
 Center     Atomic      Atomic             Coordinates (Angstroms)
 Number     Number       Type             X           Y           Z
 ---------------------------------------------------------------------
      1          6           0        3.108545   -1.068197    0.001710
      2          6           0        3.695456    0.329483    0.212768
      3          1           0        4.692231    0.247321    0.665625
      4          1           0        3.835708    0.822583   -0.753616
      5          6           0        2.840781    1.203717    1.130952
      6          1           0        2.920197    0.801554    2.150322
      7          6           0        1.344311    1.270055    0.760753
      8          1           0        0.862957    1.628860    1.684485
      9          6           0        0.761085   -0.156741    0.510330
     10          1           0        0.858217   -0.695807    1.465671
     11          6           0        1.629142   -1.001399   -0.457725
     12          1           0        1.609706   -0.617762   -1.478959
     13          6           0       -0.754779   -0.122974    0.257208
     14          6           0       -3.581652    0.014571   -0.077312
     15          6           0       -1.629548   -0.013594    1.356030
     16          6           0       -1.344551   -0.153266   -1.014083
     17          6           0       -2.733641   -0.091911   -1.183780
     18          6           0       -3.017467    0.048796    1.199792
     19          1           0       -3.166878   -0.132590   -2.179912
     20          1           0       -3.666103    0.126805    2.067938
     21          8           0       -0.563587   -0.256043   -2.130044
     22          1           0       -1.104110   -0.049891   -2.910995
     23          8           0       -1.104484    0.038207    2.620510
     24          1           0       -1.827635    0.075378    3.266644
     25          8           0        1.134663   -2.356904   -0.490411
     26          1           0        0.238955   -2.294224   -0.872481
     27          6           0        3.967538   -1.850709   -0.999473
     28          1           0        3.956297   -1.383882   -1.989721
     29          1           0        3.622616   -2.885823   -1.099235
     30          1           0        5.006979   -1.907907   -0.655975
     31          8           0        3.176855   -1.782445    1.245992
     32          1           0        2.572517   -2.544059    1.125555
     33          1           0        3.269330    2.212778    1.175723
     34          6           0        1.020625    2.336775   -0.296401
     35          6           0        0.046774    3.238448   -0.068041
     36          1           0       -0.200584    4.011096   -0.789069
     37          1           0       -0.538954    3.222068    0.846711
     38          6           0        1.800401    2.406497   -1.577799
     39          1           0        2.829482    2.722463   -1.384731
     40          1           0        1.371119    3.133545   -2.276763
     41          1           0        1.810201    1.446024   -2.094899
     42          6           0       -5.077093    0.062130   -0.257496
     43          1           0       -5.525823    0.669396    0.538080
     44          1           0       -5.319467    0.570071   -1.198940
     45          6           0       -5.691780   -1.329114   -0.250901
     46          1           0       -6.776379   -1.264216   -0.383302
     47          1           0       -5.495646   -1.845664    0.694822
     48          1           0       -5.287385   -1.946044   -1.060560
 ---------------------------------------------------------------------
 Rotational constants (GHZ):      0.4858983      0.1842258      0.1717174
 Standard basis: 6-31+G(d,p) (6D, 7F)
 There are   548 symmetry adapted basis functions of A   symmetry.
 Integral buffers will be    131072 words long.
 Raffenetti 2 integral format.
 Two-electron integral symmetry is turned on.
   548 basis functions,   886 primitive gaussians,   548 cartesian basis functions
    83 alpha electrons       83 beta electrons
       nuclear repulsion energy      1985.7810672188 Hartrees.
 NAtoms=   48 NActive=   48 NUniq=   48 SFac= 1.00D+00 NAtFMM=   60 NAOKFM=F Big=F
 ------------------------------------------------------------------------------
 Polarizable Continuum Model (PCM)
 =================================
 Model                : PCM.
 Atomic radii         : UFF (Universal Force Field).
 Polarization charges : Total charges.
 Charge compensation  : None.
 Solution method      : Matrix inversion.
 Cavity type          : Scaled VdW (van der Waals Surface) (Alpha=1.100).
 Cavity algorithm     : GePol (No added spheres)
                        Default sphere list used, NSphG=   48.
                        Lebedev-Laikov grids with approx.  5.0 points / Ang**2.
                        Smoothing algorithm: Karplus/York (Gamma=1.0000).
                        Polarization charges: spherical gaussians, with
                                              point-specific exponents (IZeta= 3).
                        Self-potential: point-specific (ISelfS= 7).
                        Self-field    : sphere-specific E.n sum rule (ISelfD= 2).
 Solvent              : Water, Eps=  78.355300 Eps(inf)=   1.777849
 ------------------------------------------------------------------------------
 One-electron integrals computed using PRISM.
 NBasis=   548 RedAO= T  NBF=   548
 NBsUse=   546 1.00D-06 NBFU=   546
 Harris functional with IExCor=  908 diagonalized for initial guess.
 ExpMin= 4.38D-02 ExpMax= 5.48D+03 ExpMxC= 8.25D+02 IAcc=2 IRadAn=         4 AccDes= 0.00D+00
 HarFok:  IExCor=  908 AccDes= 0.00D+00 IRadAn=         4 IDoV= 1
 ScaDFX=  1.000000  1.000000  1.000000  1.000000
 FoFCou: FMM=F IPFlag=           0 FMFlag=      100000 FMFlg1=           0
         NFxFlg=           0 DoJE=T BraDBF=F KetDBF=T FulRan=T
         Omega=  0.000000  0.000000  1.000000  0.000000  0.000000 ICntrl=     500 IOpCl=  0
         NMat0=    1 NMatS0=    1 NMatT0=    0 NMatD0=    1 NMtDS0=    0 NMtDT0=    0
         I1Cent=           4 NGrid=           0.
 Petite list used in FoFCou.
 Initial guess orbital symmetries:
       Occupied  (A) (A) (A) (A) (A) (A) (A) (A) (A) (A) (A) (A)
                 (A) (A) (A) (A) (A) (A) (A) (A) (A) (A) (A) (A)
                 (A) (A) (A) (A) (A) (A) (A) (A) (A) (A) (A) (A)
                 (A) (A) (A) (A) (A) (A) (A) (A) (A) (A) (A) (A)
                 (A) (A) (A) (A) (A) (A) (A) (A) (A) (A) (A) (A)
                 (A) (A) (A) (A) (A) (A) (A) (A) (A) (A) (A) (A)
                 (A) (A) (A) (A) (A) (A) (A) (A) (A) (A) (A)
       Virtual   (A) (A) (A) (A) (A) (A) (A) (A) (A) (A) (A) (A)
                 (A) (A) (A) (A) (A) (A) (A) (A) (A) (A) (A) (A)
                 (A) (A) (A) (A) (A) (A) (A) (A) (A) (A) (A) (A)
                 (A) (A) (A) (A) (A) (A) (A) (A) (A) (A) (A) (A)
                 (A) (A) (A) (A) (A) (A) (A) (A) (A) (A) (A) (A)
                 (A) (A) (A) (A) (A) (A) (A) (A) (A) (A) (A) (A)
                 (A) (A) (A) (A) (A) (A) (A) (A) (A) (A) (A) (A)
                 (A) (A) (A) (A) (A) (A) (A) (A) (A) (A) (A) (A)
                 (A) (A) (A) (A) (A) (A) (A) (A) (A) (A) (A) (A)
                 (A) (A) (A) (A) (A) (A) (A) (A) (A) (A) (A) (A)
                 (A) (A) (A) (A) (A) (A) (A) (A) (A) (A) (A) (A)
                 (A) (A) (A) (A) (A) (A) (A) (A) (A) (A) (A) (A)
                 (A) (A) (A) (A) (A) (A) (A) (A) (A) (A) (A) (A)
                 (A) (A) (A) (A) (A) (A) (A) (A) (A) (A) (A) (A)
                 (A) (A) (A) (A) (A) (A) (A) (A) (A) (A) (A) (A)
                 (A) (A) (A) (A) (A) (A) (A) (A) (A) (A) (A) (A)
                 (A) (A) (A) (A) (A) (A) (A) (A) (A) (A) (A) (A)
                 (A) (A) (A) (A) (A) (A) (A) (A) (A) (A) (A) (A)
                 (A) (A) (A) (A) (A) (A) (A) (A) (A) (A) (A) (A)
                 (A) (A) (A) (A) (A) (A) (A) (A) (A) (A) (A) (A)
                 (A) (A) (A) (A) (A) (A) (A) (A) (A) (A) (A) (A)
                 (A) (A) (A) (A) (A) (A) (A) (A) (A) (A) (A) (A)
                 (A) (A) (A) (A) (A) (A) (A) (A) (A) (A) (A) (A)
                 (A) (A) (A) (A) (A) (A) (A) (A) (A) (A) (A) (A)
                 (A) (A) (A) (A) (A) (A) (A) (A) (A) (A) (A) (A)
                 (A) (A) (A) (A) (A) (A) (A) (A) (A) (A) (A) (A)
                 (A) (A) (A) (A) (A) (A) (A) (A) (A) (A) (A) (A)
                 (A) (A) (A) (A) (A) (A) (A) (A) (A) (A) (A) (A)
                 (A) (A) (A) (A) (A) (A) (A) (A) (A) (A) (A) (A)
                 (A) (A) (A) (A) (A) (A) (A) (A) (A) (A) (A) (A)
                 (A) (A) (A) (A) (A) (A) (A) (A) (A) (A) (A) (A)
                 (A) (A) (A) (A) (A) (A) (A) (A) (A) (A) (A) (A)
                 (A) (A) (A) (A) (A) (A) (A) (A) (A) (A) (A) (A)
                 (A) (A) (A) (A) (A) (A) (A) (A) (A) (A) (A) (A)
                 (A) (A) (A) (A) (A) (A) (A) (A) (A) (A) (A) (A)
                 (A) (A) (A) (A) (A) (A) (A) (A) (A) (A) (A) (A)
                 (A) (A) (A) (A) (A) (A) (A) (A) (A) (A) (A) (A)
                 (A) (A) (A) (A) (A) (A) (A) (A) (A) (A) (A) (A)
                 (A) (A) (A) (A) (A) (A) (A)
 The electronic state of the initial guess is 1-A.
 Requested convergence on RMS density matrix=1.00D-08 within 128 cycles.
 Requested convergence on MAX density matrix=1.00D-06.
 Requested convergence on             energy=1.00D-06.
 No special actions if energy rises.
 CoulSu:  requested number of processors reduced to:   2 ShMem   1 Linda.
 CoulSu:  requested number of processors reduced to:   2 ShMem   1 Linda.
 Error on total polarization charges =  0.01944
 SCF Done:  E(RmPW1PW91) =  -1002.30527176     A.U. after   14 cycles
             Convg  =    0.5300D-08             -V/T =  2.0094
 Range of M.O.s used for correlation:     1   546
 NBasis=   548 NAE=    83 NBE=    83 NFC=     0 NFV=     0
 NROrb=    546 NOA=    83 NOB=    83 NVA=   463 NVB=   463

 **** Warning!!: The largest alpha MO coefficient is  0.20125243D+03

 NEqPCM:  Using equilibrium solvation (IEInf=0, Eps=  78.3553, EpsInf=   1.7778)
          Differentiating once with respect to magnetic field using GIAOs.
          Electric field/nuclear overlap derivatives assumed to be zero.
 FoFCou: FMM=F IPFlag=           0 FMFlag=    10101102 FMFlg1=           0
         NFxFlg=    40000000 DoJE=F BraDBF=F KetDBF=T FulRan=T
         Omega=  0.000000  0.000000  1.000000  0.000000  0.000000 ICntrl=    6100 IOpCl=  0
         NMat0=    1 NMatS0=    1 NMatT0=    0 NMatD0=    1 NMtDS0=    0 NMtDT0=    0
         I1Cent=           7 NGrid=        3009.
 Symmetry not used in FoFCou.
          There are     3 degrees of freedom in the 1st order CPHF.  IDoFFX=0.
      3 vectors produced by pass  0 Test12= 1.28D-12 3.33D-08 XBig12= 6.81D+02 4.36D+00.
 AX will form     3 AO Fock derivatives at one time.
      3 vectors produced by pass  1 Test12= 1.28D-12 3.33D-08 XBig12= 1.64D+00 4.82D-01.
      3 vectors produced by pass  2 Test12= 1.28D-12 3.33D-08 XBig12= 7.13D-03 4.06D-02.
      3 vectors produced by pass  3 Test12= 1.28D-12 3.33D-08 XBig12= 3.68D-05 1.81D-03.
      3 vectors produced by pass  4 Test12= 1.28D-12 3.33D-08 XBig12= 1.12D-07 6.18D-05.
      3 vectors produced by pass  5 Test12= 1.28D-12 3.33D-08 XBig12= 3.60D-10 3.81D-06.
      3 vectors produced by pass  6 Test12= 1.28D-12 3.33D-08 XBig12= 1.70D-12 2.08D-07.
 Inverted reduced A of dimension    21 with in-core refinement.
 Calculating GIAO nuclear magnetic shielding tensors.
 SCF GIAO Magnetic shielding tensor (ppm):
      1  C    Isotropic =   122.9429   Anisotropy =    43.1986
   XX=   106.2524   YX=    -3.7758   ZX=     1.9332
   XY=    -4.0566   YY=   117.9283   ZY=   -19.0162
   XZ=     1.9984   YZ=   -11.2813   ZZ=   144.6479
   Eigenvalues:   104.7940   112.2927   151.7420
      2  C    Isotropic =   160.7755   Anisotropy =    24.8864
   XX=   157.6369   YX=     3.7913   ZX=    -0.7560
   XY=     1.6252   YY=   174.7341   ZY=     6.4867
   XZ=     0.1132   YZ=     9.3434   ZZ=   149.9555
   Eigenvalues:   147.5278   157.4324   177.3665
      3  H    Isotropic =    29.8270   Anisotropy =     9.1929
   XX=    35.6732   YX=    -0.6007   ZX=     1.6597
   XY=     0.0114   YY=    27.7220   ZY=     1.6070
   XZ=     1.6791   YZ=     1.7311   ZZ=    26.0857
   Eigenvalues:    24.8152    28.7101    35.9556
      4  H    Isotropic =    29.4668   Anisotropy =     6.2704
   XX=    28.4424   YX=    -0.4426   ZX=    -2.8688
   XY=     0.0554   YY=    30.7639   ZY=    -2.9243
   XZ=    -2.2174   YZ=    -3.3421   ZZ=    29.1940
   Eigenvalues:    25.2275    29.5258    33.6470
      5  C    Isotropic =   167.8009   Anisotropy =    23.0584
   XX=   182.4970   YX=    -1.0058   ZX=     4.9235
   XY=    -3.5884   YY=   161.7891   ZY=     4.7559
   XZ=     1.9579   YZ=    -0.2374   ZZ=   159.1165
   Eigenvalues:   157.1555   163.0739   183.1732
      6  H    Isotropic =    29.1809   Anisotropy =     8.2951
   XX=    27.9826   YX=    -1.3771   ZX=     2.5038
   XY=    -0.5692   YY=    25.5567   ZY=     1.4221
   XZ=     1.7679   YZ=     0.2279   ZZ=    34.0035
   Eigenvalues:    24.9438    27.8880    34.7110
      7  C    Isotropic =   149.4314   Anisotropy =    21.3553
   XX=   147.4240   YX=     0.0012   ZX=     8.7910
   XY=    -3.1302   YY=   152.8978   ZY=    -9.1612
   XZ=     3.9020   YZ=   -13.3107   ZZ=   147.9725
   Eigenvalues:   137.2099   147.4161   163.6683
      8  H    Isotropic =    28.0629   Anisotropy =     6.0615
   XX=    28.6984   YX=    -1.2671   ZX=    -1.7644
   XY=     1.0418   YY=    26.9749   ZY=     3.3424
   XZ=    -2.8155   YZ=     2.9868   ZZ=    28.5154
   Eigenvalues:    24.0625    28.0223    32.1039
      9  C    Isotropic =   149.4709   Anisotropy =    31.4222
   XX=   147.2131   YX=    -2.2717   ZX=    -3.3957
   XY=     7.8640   YY=   166.6823   ZY=     9.7363
   XZ=     2.2774   YZ=    12.4905   ZZ=   134.5173
   Eigenvalues:   130.9353   147.0584   170.4191
     10  H    Isotropic =    27.7977   Anisotropy =     6.2556
   XX=    30.4300   YX=    -1.1826   ZX=    -2.2526
   XY=    -3.0100   YY=    24.4251   ZY=    -2.1071
   XZ=    -2.1376   YZ=    -1.5160   ZZ=    28.5380
   Eigenvalues:    22.7332    28.6918    31.9680
     11  C    Isotropic =   121.5988   Anisotropy =    37.3570
   XX=   119.0101   YX=     7.4232   ZX=    -1.6133
   XY=    12.5049   YY=   142.8626   ZY=     4.8270
   XZ=    -0.8014   YZ=    -1.6774   ZZ=   102.9236
   Eigenvalues:   102.6777   115.6152   146.5035
     12  H    Isotropic =    26.4170   Anisotropy =     3.8536
   XX=    26.6041   YX=    -0.1284   ZX=     0.8322
   XY=    -1.2283   YY=    25.7118   ZY=    -2.3466
   XZ=     1.6688   YZ=    -1.0867   ZZ=    26.9351
   Eigenvalues:    24.4835    25.7814    28.9861
     13  C    Isotropic =    90.7667   Anisotropy =   118.9827
   XX=    47.9280   YX=     8.2745   ZX=    -0.5521
   XY=     1.1184   YY=   169.3996   ZY=    -9.1833
   XZ=     0.9101   YZ=    -6.1303   ZZ=    54.9724
   Eigenvalues:    47.7136    54.4980   170.0885
     14  C    Isotropic =    50.2223   Anisotropy =   189.7443
   XX=   -31.3835   YX=    14.5640   ZX=    -6.2430
   XY=    10.7361   YY=   175.4899   ZY=    -9.0503
   XZ=    -4.9517   YZ=    -7.9493   ZZ=     6.5606
   Eigenvalues:   -32.8132     6.7617   176.7185
     15  C    Isotropic =    42.4316   Anisotropy =   126.8826
   XX=    31.6637   YX=     3.8355   ZX=   -26.5802
   XY=     2.7302   YY=   126.1332   ZY=   -10.5095
   XZ=   -18.7934   YZ=    -9.6275   ZZ=   -30.5022
   Eigenvalues:   -38.3472    38.6219   127.0200
     16  C    Isotropic =    43.6005   Anisotropy =   120.8185
   XX=    19.6752   YX=     6.9482   ZX=    38.0527
   XY=     9.3609   YY=   123.4402   ZY=    -4.2722
   XZ=    27.6994   YZ=    -6.7786   ZZ=   -12.3138
   Eigenvalues:   -33.3979    40.0533   124.1462
     17  C    Isotropic =    89.0766   Anisotropy =    97.8817
   XX=    83.8350   YX=     1.2205   ZX=   -27.5153
   XY=    -4.3451   YY=   154.0438   ZY=    -4.4948
   XZ=   -29.3472   YZ=    -7.4764   ZZ=    29.3510
   Eigenvalues:    16.9440    95.9547   154.3311
     18  C    Isotropic =    90.5939   Anisotropy =    99.4479
   XX=    70.2503   YX=     4.4817   ZX=    34.0225
   XY=    -0.2009   YY=   156.2119   ZY=   -10.9074
   XZ=    36.7320   YZ=    -6.4570   ZZ=    45.3194
   Eigenvalues:    19.7675    95.1217   156.8924
     19  H    Isotropic =    25.1571   Anisotropy =     7.8052
   XX=    29.7400   YX=     0.1362   ZX=    -1.8121
   XY=     0.4916   YY=    20.9106   ZY=    -0.5690
   XZ=    -1.8516   YZ=     0.2017   ZZ=    24.8206
   Eigenvalues:    20.8955    24.2151    30.3606
     20  H    Isotropic =    25.0933   Anisotropy =     7.2432
   XX=    28.2631   YX=     0.4280   ZX=     2.4285
   XY=     0.6103   YY=    21.0800   ZY=     0.9388
   XZ=     2.5657   YZ=     0.3046   ZZ=    25.9368
   Eigenvalues:    20.9948    24.3630    29.9221
     21  O    Isotropic =   229.8168   Anisotropy =    54.0509
   XX=   212.4933   YX=     9.1760   ZX=   -23.6621
   XY=   -16.9562   YY=   240.2557   ZY=    21.5545
   XZ=   -41.9027   YZ=     3.8652   ZZ=   236.7013
   Eigenvalues:   189.3106   234.2889   265.8507
     22  H    Isotropic =    26.4463   Anisotropy =    15.2785
   XX=    27.4569   YX=    -1.3610   ZX=     4.2587
   XY=    -1.1572   YY=    18.5116   ZY=    -2.8507
   XZ=     5.7127   YZ=    -2.0783   ZZ=    33.3703
   Eigenvalues:    18.0874    24.6195    36.6319
     23  O    Isotropic =   228.3221   Anisotropy =    57.0842
   XX=   192.8679   YX=     1.5783   ZX=    17.9701
   XY=     5.8121   YY=   242.3819   ZY=   -21.0185
   XZ=    40.2139   YZ=    -4.0502   ZZ=   249.7165
   Eigenvalues:   179.5097   239.0784   266.3783
     24  H    Isotropic =    26.4729   Anisotropy =    15.3300
   XX=    29.6206   YX=    -0.1640   ZX=    -4.8905
   XY=     0.1495   YY=    17.8433   ZY=    -0.1441
   XZ=    -6.6835   YZ=     0.6006   ZZ=    31.9548
   Eigenvalues:    17.8388    24.8870    36.6929
     25  O    Isotropic =   291.7423   Anisotropy =    20.9650
   XX=   299.1875   YX=     3.6462   ZX=     9.2175
   XY=    -2.5003   YY=   301.9336   ZY=     5.9259
   XZ=     9.3117   YZ=     9.0612   ZZ=   274.1059
   Eigenvalues:   269.5562   299.9518   305.7190
     26  H    Isotropic =    29.4068   Anisotropy =    17.7790
   XX=    38.0177   YX=     0.6292   ZX=     8.1579
   XY=    -1.7450   YY=    27.9878   ZY=     2.3616
   XZ=     7.5425   YZ=     1.6890   ZZ=    22.2148
   Eigenvalues:    18.5188    28.4421    41.2594
     27  C    Isotropic =   166.6165   Anisotropy =    46.5198
   XX=   159.9681   YX=   -15.3869   ZX=   -18.6241
   XY=   -15.6963   YY=   158.9346   ZY=    11.4228
   XZ=   -14.3213   YZ=     9.9654   ZZ=   180.9469
   Eigenvalues:   143.3525   158.8674   197.6297
     28  H    Isotropic =    30.5958   Anisotropy =     9.6556
   XX=    28.4433   YX=    -0.9278   ZX=    -3.4049
   XY=    -1.1367   YY=    27.4225   ZY=     0.0211
   XZ=    -2.7545   YZ=    -1.2784   ZZ=    35.9217
   Eigenvalues:    26.1931    28.5615    37.0329
     29  H    Isotropic =    29.8353   Anisotropy =     8.3117
   XX=    29.3823   YX=    -1.6350   ZX=    -1.5242
   XY=    -0.7244   YY=    33.3830   ZY=     2.9369
   XZ=    -1.4079   YZ=     4.1224   ZZ=    26.7408
   Eigenvalues:    25.0263    29.1032    35.3765
     30  H    Isotropic =    30.4931   Anisotropy =     9.1205
   XX=    35.5406   YX=    -2.3851   ZX=     0.0289
   XY=    -3.2306   YY=    28.3593   ZY=     0.4456
   XZ=    -1.0914   YZ=     1.1641   ZZ=    27.5793
   Eigenvalues:    26.8639    28.0419    36.5734
     31  O    Isotropic =   288.2292   Anisotropy =    35.0809
   XX=   280.2683   YX=    20.7501   ZX=   -14.2212
   XY=    14.7662   YY=   293.6799   ZY=    -1.9973
   XZ=    -4.5516   YZ=   -11.2267   ZZ=   290.7395
   Eigenvalues:   267.2271   285.8441   311.6165
     32  H    Isotropic =    28.9736   Anisotropy =    14.3764
   XX=    28.5670   YX=     6.7679   ZX=     4.2222
   XY=     6.8170   YY=    33.7634   ZY=    -3.8278
   XZ=     2.4280   YZ=    -3.7069   ZZ=    24.5904
   Eigenvalues:    19.3181    29.0448    38.5579
     33  H    Isotropic =    30.1115   Anisotropy =     9.4610
   XX=    30.3331   YX=     3.0087   ZX=     1.5590
   XY=     3.4764   YY=    33.3847   ZY=     2.7503
   XZ=     1.9598   YZ=     2.3438   ZZ=    26.6168
   Eigenvalues:    25.6356    28.2802    36.4189
     34  C    Isotropic =    42.5777   Anisotropy =   180.5789
   XX=    88.6684   YX=    42.2078   ZX=    55.5001
   XY=    41.5651   YY=    67.6860   ZY=    69.3556
   XZ=    56.9549   YZ=    73.9323   ZZ=   -28.6212
   Eigenvalues:   -73.2148    37.9843   162.9637
     35  C    Isotropic =    84.4685   Anisotropy =    96.4815
   XX=   123.8874   YX=     4.0070   ZX=    28.9972
   XY=     8.2923   YY=   102.6057   ZY=    57.9575
   XZ=    30.2284   YZ=    51.8480   ZZ=    26.9125
   Eigenvalues:    -6.2061   110.8221   148.7895
     36  H    Isotropic =    26.8011   Anisotropy =     6.0967
   XX=    27.7064   YX=    -3.1296   ZX=     0.9250
   XY=    -0.9122   YY=    29.5585   ZY=    -0.3992
   XZ=    -0.8732   YZ=     1.0978   ZZ=    23.1385
   Eigenvalues:    23.1149    26.4229    30.8656
     37  H    Isotropic =    27.0629   Anisotropy =     7.7838
   XX=    27.5961   YX=    -1.3438   ZX=    -1.5460
   XY=    -1.6146   YY=    30.8947   ZY=     3.8817
   XZ=    -0.2096   YZ=     1.3340   ZZ=    22.6980
   Eigenvalues:    21.9046    27.0321    32.2521
     38  C    Isotropic =   170.9326   Anisotropy =    27.0475
   XX=   167.0330   YX=    -3.6497   ZX=   -12.8305
   XY=     1.1921   YY=   164.6822   ZY=    -7.3825
   XZ=   -11.9196   YZ=    -3.3346   ZZ=   181.0825
   Eigenvalues:   157.6554   166.1781   188.9642
     39  H    Isotropic =    29.5921   Anisotropy =     7.4181
   XX=    33.0771   YX=     1.8123   ZX=    -0.5079
   XY=     2.7048   YY=    28.6442   ZY=    -3.0062
   XZ=    -1.1934   YZ=    -2.5536   ZZ=    27.0551
   Eigenvalues:    24.8946    29.3442    34.5376
     40  H    Isotropic =    29.7141   Anisotropy =     8.4633
   XX=    27.7657   YX=    -1.2252   ZX=    -0.3886
   XY=    -1.7984   YY=    30.4210   ZY=    -3.9689
   XZ=     0.6525   YZ=    -5.0081   ZZ=    30.9555
   Eigenvalues:    25.6714    28.1145    35.3563
     41  H    Isotropic =    29.6077   Anisotropy =     3.6165
   XX=    26.3419   YX=    -0.5786   ZX=    -0.4117
   XY=     0.4086   YY=    31.9471   ZY=    -0.5755
   XZ=    -1.1018   YZ=     1.1769   ZZ=    30.5342
   Eigenvalues:    26.2093    30.5952    32.0187
     42  C    Isotropic =   164.1814   Anisotropy =    28.4076
   XX=   182.7694   YX=    -7.3842   ZX=     3.0676
   XY=     9.4796   YY=   151.7664   ZY=     1.8887
   XZ=     2.4977   YZ=    -0.0914   ZZ=   158.0084
   Eigenvalues:   151.6255   157.7990   183.1198
     43  H    Isotropic =    29.2393   Anisotropy =     7.2782
   XX=    30.5873   YX=    -1.7678   ZX=    -2.1258
   XY=    -2.4765   YY=    28.7621   ZY=     3.9763
   XZ=    -0.5560   YZ=     3.5796   ZZ=    28.3686
   Eigenvalues:    24.7350    28.8915    34.0914
     44  H    Isotropic =    29.1448   Anisotropy =     7.1495
   XX=    29.9490   YX=    -0.6130   ZX=     2.3329
   XY=    -1.6382   YY=    27.6061   ZY=    -4.2997
   XZ=     0.9422   YZ=    -3.7322   ZZ=    29.8793
   Eigenvalues:    24.5674    28.9559    33.9111
     45  C    Isotropic =   179.0817   Anisotropy =    30.5978
   XX=   181.2976   YX=     6.6909   ZX=     1.3479
   XY=    19.4484   YY=   190.0567   ZY=     0.7037
   XZ=     0.8170   YZ=    -0.2844   ZZ=   165.8908
   Eigenvalues:   165.7782   171.9867   199.4802
     46  H    Isotropic =    30.2220   Anisotropy =    12.1320
   XX=    37.3962   YX=     1.7696   ZX=     1.2190
   XY=     4.1450   YY=    27.2683   ZY=     0.4886
   XZ=     1.0548   YZ=     0.1591   ZZ=    26.0015
   Eigenvalues:    25.8876    26.4684    38.3100
     47  H    Isotropic =    30.6342   Anisotropy =     7.4777
   XX=    28.9665   YX=     1.9256   ZX=     0.2556
   XY=     2.9060   YY=    30.8724   ZY=    -4.4451
   XZ=     0.1159   YZ=    -3.1030   ZZ=    32.0636
   Eigenvalues:    26.1627    30.1206    35.6193
     48  H    Isotropic =    30.5930   Anisotropy =     7.5331
   XX=    29.3851   YX=     1.0722   ZX=    -1.1362
   XY=     1.9659   YY=    31.5935   ZY=     5.2916
   XZ=    -1.1778   YZ=     3.4688   ZZ=    30.8004
   Eigenvalues:    25.8086    30.3554    35.6150
 End of Minotr Frequency-dependent properties file   721 does not exist.
 End of Minotr Frequency-dependent properties file   722 does not exist.

 **********************************************************************

            Population analysis using the SCF density.

 **********************************************************************

 Orbital symmetries:
       Occupied  (A) (A) (A) (A) (A) (A) (A) (A) (A) (A) (A) (A)
                 (A) (A) (A) (A) (A) (A) (A) (A) (A) (A) (A) (A)
                 (A) (A) (A) (A) (A) (A) (A) (A) (A) (A) (A) (A)
                 (A) (A) (A) (A) (A) (A) (A) (A) (A) (A) (A) (A)
                 (A) (A) (A) (A) (A) (A) (A) (A) (A) (A) (A) (A)
                 (A) (A) (A) (A) (A) (A) (A) (A) (A) (A) (A) (A)
                 (A) (A) (A) (A) (A) (A) (A) (A) (A) (A) (A)
       Virtual   (A) (A) (A) (A) (A) (A) (A) (A) (A) (A) (A) (A)
                 (A) (A) (A) (A) (A) (A) (A) (A) (A) (A) (A) (A)
                 (A) (A) (A) (A) (A) (A) (A) (A) (A) (A) (A) (A)
                 (A) (A) (A) (A) (A) (A) (A) (A) (A) (A) (A) (A)
                 (A) (A) (A) (A) (A) (A) (A) (A) (A) (A) (A) (A)
                 (A) (A) (A) (A) (A) (A) (A) (A) (A) (A) (A) (A)
                 (A) (A) (A) (A) (A) (A) (A) (A) (A) (A) (A) (A)
                 (A) (A) (A) (A) (A) (A) (A) (A) (A) (A) (A) (A)
                 (A) (A) (A) (A) (A) (A) (A) (A) (A) (A) (A) (A)
                 (A) (A) (A) (A) (A) (A) (A) (A) (A) (A) (A) (A)
                 (A) (A) (A) (A) (A) (A) (A) (A) (A) (A) (A) (A)
                 (A) (A) (A) (A) (A) (A) (A) (A) (A) (A) (A) (A)
                 (A) (A) (A) (A) (A) (A) (A) (A) (A) (A) (A) (A)
                 (A) (A) (A) (A) (A) (A) (A) (A) (A) (A) (A) (A)
                 (A) (A) (A) (A) (A) (A) (A) (A) (A) (A) (A) (A)
                 (A) (A) (A) (A) (A) (A) (A) (A) (A) (A) (A) (A)
                 (A) (A) (A) (A) (A) (A) (A) (A) (A) (A) (A) (A)
                 (A) (A) (A) (A) (A) (A) (A) (A) (A) (A) (A) (A)
                 (A) (A) (A) (A) (A) (A) (A) (A) (A) (A) (A) (A)
                 (A) (A) (A) (A) (A) (A) (A) (A) (A) (A) (A) (A)
                 (A) (A) (A) (A) (A) (A) (A) (A) (A) (A) (A) (A)
                 (A) (A) (A) (A) (A) (A) (A) (A) (A) (A) (A) (A)
                 (A) (A) (A) (A) (A) (A) (A) (A) (A) (A) (A) (A)
                 (A) (A) (A) (A) (A) (A) (A) (A) (A) (A) (A) (A)
                 (A) (A) (A) (A) (A) (A) (A) (A) (A) (A) (A) (A)
                 (A) (A) (A) (A) (A) (A) (A) (A) (A) (A) (A) (A)
                 (A) (A) (A) (A) (A) (A) (A) (A) (A) (A) (A) (A)
                 (A) (A) (A) (A) (A) (A) (A) (A) (A) (A) (A) (A)
                 (A) (A) (A) (A) (A) (A) (A) (A) (A) (A) (A) (A)
                 (A) (A) (A) (A) (A) (A) (A) (A) (A) (A) (A) (A)
                 (A) (A) (A) (A) (A) (A) (A) (A) (A) (A) (A) (A)
                 (A) (A) (A) (A) (A) (A) (A) (A) (A) (A) (A) (A)
                 (A) (A) (A) (A) (A) (A) (A) (A) (A) (A) (A) (A)
                 (A) (A) (A) (A) (A) (A) (A) (A) (A) (A) (A) (A)
                 (A) (A) (A) (A) (A) (A) (A) (A) (A) (A) (A) (A)
                 (A) (A) (A) (A) (A) (A) (A) (A) (A) (A) (A) (A)
                 (A) (A) (A) (A) (A) (A) (A) (A) (A) (A) (A) (A)
                 (A) (A) (A) (A) (A) (A) (A) (A) (A) (A) (A) (A)
                 (A) (A) (A) (A) (A) (A) (A)
 The electronic state is 1-A.
 Alpha  occ. eigenvalues --  -19.28581 -19.28467 -19.25762 -19.24564 -10.32385
 Alpha  occ. eigenvalues --  -10.32372 -10.30869 -10.30112 -10.26901 -10.26522
 Alpha  occ. eigenvalues --  -10.26496 -10.26277 -10.25867 -10.25064 -10.24920
 Alpha  occ. eigenvalues --  -10.24885 -10.24323 -10.24296 -10.23810 -10.23772
 Alpha  occ. eigenvalues --  -10.23423 -10.23233  -1.10415  -1.09973  -1.06971
 Alpha  occ. eigenvalues --   -1.04243  -0.88953  -0.86486  -0.82299  -0.81644
 Alpha  occ. eigenvalues --   -0.78338  -0.76690  -0.76194  -0.74024  -0.71181
 Alpha  occ. eigenvalues --   -0.69483  -0.66931  -0.66370  -0.63551  -0.61934
 Alpha  occ. eigenvalues --   -0.59843  -0.58076  -0.57755  -0.54976  -0.53762
 Alpha  occ. eigenvalues --   -0.52970  -0.51334  -0.50385  -0.48885  -0.47740
 Alpha  occ. eigenvalues --   -0.47057  -0.46743  -0.45492  -0.45302  -0.44902
 Alpha  occ. eigenvalues --   -0.44362  -0.43456  -0.43076  -0.41994  -0.41853
 Alpha  occ. eigenvalues --   -0.41408  -0.40888  -0.40808  -0.39900  -0.39562
 Alpha  occ. eigenvalues --   -0.38914  -0.38841  -0.38169  -0.37975  -0.37037
 Alpha  occ. eigenvalues --   -0.35998  -0.35691  -0.34987  -0.34780  -0.33462
 Alpha  occ. eigenvalues --   -0.32598  -0.32513  -0.31313  -0.29595  -0.28206
 Alpha  occ. eigenvalues --   -0.25783  -0.24471  -0.23663
 Alpha virt. eigenvalues --   -0.00712  -0.00210  -0.00024   0.00773   0.01182
 Alpha virt. eigenvalues --    0.01595   0.01808   0.02620   0.02929   0.03292
 Alpha virt. eigenvalues --    0.03661   0.04528   0.04532   0.04748   0.05078
 Alpha virt. eigenvalues --    0.05934   0.06229   0.06658   0.07060   0.07301
 Alpha virt. eigenvalues --    0.07880   0.07975   0.08777   0.08851   0.09428
 Alpha virt. eigenvalues --    0.09528   0.09884   0.10169   0.10368   0.10846
 Alpha virt. eigenvalues --    0.11588   0.11749   0.12325   0.12783   0.13208
 Alpha virt. eigenvalues --    0.13547   0.13715   0.13765   0.14495   0.14588
 Alpha virt. eigenvalues --    0.14886   0.14985   0.15344   0.16253   0.16412
 Alpha virt. eigenvalues --    0.16476   0.17047   0.17343   0.17532   0.17879
 Alpha virt. eigenvalues --    0.18443   0.18451   0.18884   0.19363   0.19783
 Alpha virt. eigenvalues --    0.19952   0.20097   0.20387   0.20570   0.20773
 Alpha virt. eigenvalues --    0.21026   0.21184   0.21316   0.21664   0.22136
 Alpha virt. eigenvalues --    0.22212   0.22453   0.22994   0.23166   0.23458
 Alpha virt. eigenvalues --    0.23833   0.24024   0.24284   0.24609   0.24807
 Alpha virt. eigenvalues --    0.24981   0.25577   0.25815   0.26045   0.26379
 Alpha virt. eigenvalues --    0.26688   0.27016   0.27548   0.27766   0.27966
 Alpha virt. eigenvalues --    0.28182   0.28487   0.28855   0.29071   0.29391
 Alpha virt. eigenvalues --    0.29926   0.30155   0.30582   0.30970   0.31572
 Alpha virt. eigenvalues --    0.31831   0.32287   0.32456   0.32573   0.33179
 Alpha virt. eigenvalues --    0.33560   0.33861   0.34254   0.34670   0.35313
 Alpha virt. eigenvalues --    0.35634   0.36557   0.36705   0.36838   0.37624
 Alpha virt. eigenvalues --    0.37787   0.38426   0.38701   0.39910   0.39989
 Alpha virt. eigenvalues --    0.40507   0.40621   0.40921   0.42477   0.42675
 Alpha virt. eigenvalues --    0.43300   0.44159   0.44310   0.44818   0.45832
 Alpha virt. eigenvalues --    0.46211   0.46344   0.47802   0.48191   0.48967
 Alpha virt. eigenvalues --    0.49693   0.49928   0.50650   0.51474   0.53126
 Alpha virt. eigenvalues --    0.53894   0.55307   0.59864   0.63737   0.65489
 Alpha virt. eigenvalues --    0.67727   0.68520   0.69401   0.70346   0.72030
 Alpha virt. eigenvalues --    0.72314   0.72502   0.72879   0.73379   0.74629
 Alpha virt. eigenvalues --    0.75041   0.75295   0.75617   0.76443   0.77007
 Alpha virt. eigenvalues --    0.77830   0.78195   0.78384   0.78984   0.79675
 Alpha virt. eigenvalues --    0.80623   0.80792   0.81699   0.82447   0.84196
 Alpha virt. eigenvalues --    0.84694   0.85067   0.86122   0.87007   0.87377
 Alpha virt. eigenvalues --    0.87699   0.87847   0.89459   0.90446   0.91184
 Alpha virt. eigenvalues --    0.91468   0.91713   0.93435   0.93791   0.95144
 Alpha virt. eigenvalues --    0.95654   0.96030   0.96878   0.98733   0.99230
 Alpha virt. eigenvalues --    0.99613   1.00468   1.01496   1.01534   1.03035
 Alpha virt. eigenvalues --    1.03923   1.04398   1.05947   1.07699   1.08068
 Alpha virt. eigenvalues --    1.09429   1.09807   1.10942   1.11435   1.12429
 Alpha virt. eigenvalues --    1.12849   1.13316   1.14294   1.14657   1.15119
 Alpha virt. eigenvalues --    1.16276   1.16526   1.17551   1.18205   1.18971
 Alpha virt. eigenvalues --    1.19935   1.20458   1.21030   1.21924   1.22312
 Alpha virt. eigenvalues --    1.23428   1.24537   1.24869   1.25823   1.26509
 Alpha virt. eigenvalues --    1.27561   1.28053   1.28825   1.28934   1.30558
 Alpha virt. eigenvalues --    1.31315   1.32264   1.32369   1.33651   1.33773
 Alpha virt. eigenvalues --    1.35712   1.36236   1.36897   1.37160   1.38978
 Alpha virt. eigenvalues --    1.39316   1.39586   1.40193   1.42107   1.43000
 Alpha virt. eigenvalues --    1.43663   1.45390   1.46829   1.47330   1.48953
 Alpha virt. eigenvalues --    1.50843   1.52477   1.52899   1.53541   1.54431
 Alpha virt. eigenvalues --    1.54675   1.56205   1.58092   1.58936   1.59727
 Alpha virt. eigenvalues --    1.60640   1.61932   1.63090   1.64805   1.65869
 Alpha virt. eigenvalues --    1.66077   1.67659   1.68454   1.69348   1.73542
 Alpha virt. eigenvalues --    1.74328   1.74491   1.76184   1.77647   1.79060
 Alpha virt. eigenvalues --    1.79315   1.80421   1.81723   1.82340   1.83966
 Alpha virt. eigenvalues --    1.85116   1.86427   1.86530   1.87119   1.88273
 Alpha virt. eigenvalues --    1.89481   1.90098   1.90402   1.91220   1.91906
 Alpha virt. eigenvalues --    1.93001   1.94167   1.94705   1.94809   1.95507
 Alpha virt. eigenvalues --    1.96287   1.96747   1.97014   1.98712   1.99765
 Alpha virt. eigenvalues --    2.00654   2.01746   2.03633   2.04156   2.06108
 Alpha virt. eigenvalues --    2.06454   2.06905   2.07384   2.08452   2.09224
 Alpha virt. eigenvalues --    2.10569   2.10816   2.11701   2.13341   2.13700
 Alpha virt. eigenvalues --    2.14453   2.15139   2.15866   2.16375   2.17341
 Alpha virt. eigenvalues --    2.17564   2.18207   2.18597   2.19105   2.19875
 Alpha virt. eigenvalues --    2.20543   2.23003   2.23872   2.25163   2.26094
 Alpha virt. eigenvalues --    2.26299   2.28107   2.28801   2.29507   2.29934
 Alpha virt. eigenvalues --    2.31518   2.32875   2.33225   2.33529   2.35652
 Alpha virt. eigenvalues --    2.35945   2.37284   2.38966   2.39141   2.40258
 Alpha virt. eigenvalues --    2.41055   2.43368   2.45116   2.45355   2.46747
 Alpha virt. eigenvalues --    2.47638   2.49636   2.50495   2.51108   2.51624
 Alpha virt. eigenvalues --    2.52528   2.53161   2.53674   2.54545   2.55574
 Alpha virt. eigenvalues --    2.55955   2.56714   2.57724   2.58304   2.58647
 Alpha virt. eigenvalues --    2.60361   2.61187   2.62856   2.63655   2.64685
 Alpha virt. eigenvalues --    2.65201   2.67245   2.67546   2.68783   2.68917
 Alpha virt. eigenvalues --    2.69693   2.70723   2.71484   2.72709   2.72902
 Alpha virt. eigenvalues --    2.74126   2.74618   2.75549   2.75817   2.77102
 Alpha virt. eigenvalues --    2.77843   2.78091   2.79349   2.80216   2.81144
 Alpha virt. eigenvalues --    2.82486   2.83662   2.84495   2.85523   2.86615
 Alpha virt. eigenvalues --    2.87129   2.88656   2.89263   2.89886   2.91221
 Alpha virt. eigenvalues --    2.92107   2.93037   2.95066   2.95285   2.95838
 Alpha virt. eigenvalues --    2.97407   3.00817   3.02259   3.03401   3.05526
 Alpha virt. eigenvalues --    3.08344   3.09915   3.10875   3.12384   3.17551
 Alpha virt. eigenvalues --    3.19127   3.20369   3.26428   3.27448   3.29337
 Alpha virt. eigenvalues --    3.31411   3.32186   3.36126   3.36456   3.39536
 Alpha virt. eigenvalues --    3.40615   3.42122   3.45248   3.48161   3.48475
 Alpha virt. eigenvalues --    3.49898   3.51243   3.51653   3.51896   3.53489
 Alpha virt. eigenvalues --    3.54782   3.55635   3.56940   3.59576   3.60062
 Alpha virt. eigenvalues --    3.60381   3.61706   3.62195   3.65337   3.66233
 Alpha virt. eigenvalues --    3.76752   4.36783   4.37972   4.39694   4.46900
 Alpha virt. eigenvalues --    4.48285   4.50073   4.52192   4.55708   4.56018
 Alpha virt. eigenvalues --    4.56585   4.63477   4.64674   4.67549   4.70595
 Alpha virt. eigenvalues --    4.72476   4.75697   4.79056   4.86348   4.89303
 Alpha virt. eigenvalues --    4.94988   5.04244   5.06317
          Condensed to atoms (all electrons):
              1          2          3          4          5          6
     1  C   13.884936  -1.774111   0.014384  -0.101110   0.563196  -0.008889
     2  C   -1.774111   7.765855   0.308504   0.408540   0.085284  -0.064349
     3  H    0.014384   0.308504   0.528806  -0.026159  -0.007160  -0.005576
     4  H   -0.101110   0.408540  -0.026159   0.531008  -0.119638   0.004677
     5  C    0.563196   0.085284  -0.007160  -0.119638   6.739085   0.385812
     6  H   -0.008889  -0.064349  -0.005576   0.004677   0.385812   0.527282
     7  C    0.277423  -0.987403   0.034231   0.091239  -1.130608   0.011440
     8  H   -0.011762   0.036446  -0.000173  -0.000129   0.014059  -0.007854
     9  C    1.297893   0.230355   0.007150  -0.046008   0.676504  -0.045478
    10  H   -0.078108   0.012809  -0.000063   0.000091  -0.105282   0.002833
    11  C   -5.547602   0.223317   0.024309   0.042792  -0.431675   0.023185
    12  H   -0.141862   0.026331  -0.000054   0.001318  -0.024726   0.000036
    13  C    1.469643  -0.303375   0.001336  -0.010363   0.457975  -0.022764
    14  C    0.001208   0.017451  -0.000010  -0.000079  -0.001632   0.000093
    15  C   -0.153462   0.030970  -0.001424   0.002818  -0.189054   0.021222
    16  C   -0.600033   0.276554   0.001837   0.004359  -0.249249  -0.003522
    17  C   -0.669093   0.024667   0.000080   0.000685  -0.184301   0.000621
    18  C    0.084318   0.003356  -0.000107   0.000310  -0.046287   0.004043
    19  H   -0.000246  -0.000010   0.000000   0.000000   0.000055   0.000000
    20  H   -0.000164   0.000006   0.000000   0.000000   0.000001   0.000000
    21  O   -0.001169   0.015068  -0.000005  -0.000440  -0.001800  -0.000062
    22  H    0.001683  -0.000388   0.000000   0.000000   0.001290   0.000000
    23  O   -0.011619   0.000646  -0.000007  -0.000015   0.003798  -0.000461
    24  H    0.001998  -0.000393   0.000000   0.000000  -0.000992  -0.000001
    25  O   -0.248760   0.088292  -0.000384   0.000284  -0.000832  -0.000113
    26  H    0.041014  -0.015122   0.000004   0.000001  -0.000818   0.000001
    27  C   -2.481539  -0.135996  -0.047507   0.037680  -0.210947   0.005766
    28  H   -0.172551   0.030788   0.000311   0.001383   0.001491  -0.000001
    29  H   -0.055761   0.017894  -0.000028   0.000133  -0.006467   0.000002
    30  H   -0.124575   0.016432   0.002245   0.000043   0.003199   0.000003
    31  O    0.148617  -0.117670  -0.003991   0.009890   0.000701   0.007158
    32  H    0.040498   0.061821   0.000031  -0.000250  -0.010334  -0.000210
    33  H    0.019945  -0.040638  -0.001553  -0.004866   0.473271  -0.027603
    34  C   -0.062194   0.182636  -0.005262   0.008779   0.153532   0.003778
    35  C   -0.119275  -0.075059  -0.001511   0.021861  -0.277050   0.012684
    36  H    0.000303   0.000333   0.000000   0.000001  -0.008611   0.000003
    37  H   -0.001155  -0.002199   0.000000  -0.000001   0.000343  -0.000008
    38  C    0.201744  -0.028238   0.002155  -0.031224   0.061494  -0.001885
    39  H   -0.018229  -0.005252   0.000119  -0.000724   0.006555   0.000000
    40  H    0.001599  -0.002845  -0.000003   0.000161  -0.003678   0.000002
    41  H    0.014214   0.013127   0.000046  -0.000812   0.000379  -0.000029
    42  C   -0.001453   0.002273   0.000000  -0.000002   0.004238   0.000007
    43  H    0.000002   0.000000   0.000000   0.000000   0.000015   0.000000
    44  H   -0.000002   0.000000   0.000000   0.000000   0.000006   0.000000
    45  C   -0.000057  -0.000070   0.000000   0.000000  -0.000068   0.000000
    46  H    0.000000   0.000000   0.000000   0.000000   0.000000   0.000000
    47  H   -0.000005   0.000000   0.000000   0.000000   0.000000   0.000000
    48  H    0.000004   0.000000   0.000000   0.000000   0.000003   0.000000
              7          8          9         10         11         12
     1  C    0.277423  -0.011762   1.297893  -0.078108  -5.547602  -0.141862
     2  C   -0.987403   0.036446   0.230355   0.012809   0.223317   0.026331
     3  H    0.034231  -0.000173   0.007150  -0.000063   0.024309  -0.000054
     4  H    0.091239  -0.000129  -0.046008   0.000091   0.042792   0.001318
     5  C   -1.130608   0.014059   0.676504  -0.105282  -0.431675  -0.024726
     6  H    0.011440  -0.007854  -0.045478   0.002833   0.023185   0.000036
     7  C   14.129203   0.048361  -2.540189   0.192752  -1.667039   0.129598
     8  H    0.048361   0.569820   0.110069  -0.009333   0.024005  -0.000246
     9  C   -2.540189   0.110069  14.774150   0.234721  -4.545107  -0.040733
    10  H    0.192752  -0.009333   0.234721   0.545400  -0.040075   0.004805
    11  C   -1.667039   0.024005  -4.545107  -0.040075  19.730120   0.315098
    12  H    0.129598  -0.000246  -0.040733   0.004805   0.315098   0.570874
    13  C   -0.970249   0.061215   4.366391  -0.264810  -4.241381   0.076847
    14  C   -0.301214   0.000663  -0.377658   0.004402   0.057168  -0.004719
    15  C    0.995594   0.013181  -1.165838   0.162174  -1.435311   0.061730
    16  C   -1.689191  -0.023513  -3.348339  -0.027613   2.996837  -0.092648
    17  C    1.397308  -0.023854  -1.676908   0.041336   0.578888   0.040641
    18  C    0.298597   0.011928  -1.232348   0.065084  -0.522349   0.009109
    19  H   -0.001153   0.000000   0.002320   0.000002  -0.000754   0.000000
    20  H   -0.001538   0.000004   0.003639  -0.000002   0.001893   0.000000
    21  O   -0.011364   0.000101  -0.042946  -0.001858   0.113979  -0.026332
    22  H    0.002385   0.000000   0.021888   0.000004   0.002717   0.000136
    23  O   -0.055835   0.000540  -0.020847   0.005664  -0.051576   0.000038
    24  H   -0.003010  -0.000036   0.062000   0.000108   0.003889   0.000000
    25  O    0.139964  -0.000933  -0.144322   0.000295   0.252151  -0.045778
    26  H   -0.002449   0.000001  -0.133196  -0.001070   0.124349  -0.007336
    27  C   -0.103997   0.000344  -0.740936   0.025288   1.794696  -0.010593
    28  H    0.002779   0.000000  -0.003996   0.000000   0.046900   0.002122
    29  H    0.003556   0.000000   0.016212   0.000008  -0.040539   0.000380
    30  H   -0.006465   0.000000   0.000913   0.000004   0.040633   0.000056
    31  O   -0.039443  -0.000383   0.006293   0.012222   0.167319   0.007814
    32  H    0.022333  -0.000004   0.004673   0.000342  -0.068249   0.000631
    33  H   -0.155519  -0.001778   0.021190  -0.000046   0.012947  -0.000003
    34  C   -2.934911  -0.004028   0.215418   0.016393  -1.307110  -0.029540
    35  C    0.513434   0.039991   0.097761   0.009788   0.545195   0.014163
    36  H    0.037615   0.000379   0.005100   0.000003   0.001877   0.000000
    37  H    0.011934   0.004244   0.015251  -0.000040  -0.001096  -0.000002
    38  C   -0.067963  -0.017848  -0.014328   0.006356  -0.773152  -0.010785
    39  H    0.013983  -0.000103  -0.050490   0.000002   0.051986   0.000047
    40  H    0.025187  -0.000109  -0.010654   0.000003   0.004098   0.000080
    41  H    0.004952  -0.000110   0.060090  -0.000056  -0.090331   0.000864
    42  C    0.010900  -0.000571  -0.008844   0.000229  -0.047161   0.000305
    43  H    0.000332   0.000000   0.001418   0.000000   0.000046   0.000000
    44  H   -0.000080   0.000000   0.000486   0.000000  -0.000169   0.000000
    45  C   -0.000047   0.000001   0.001210   0.000028  -0.001753   0.000003
    46  H    0.000006   0.000000   0.000138   0.000000   0.000025   0.000000
    47  H   -0.000058   0.000000  -0.000064   0.000000  -0.000166   0.000000
    48  H    0.000018   0.000000  -0.000012   0.000000   0.000072   0.000000
             13         14         15         16         17         18
     1  C    1.469643   0.001208  -0.153462  -0.600033  -0.669093   0.084318
     2  C   -0.303375   0.017451   0.030970   0.276554   0.024667   0.003356
     3  H    0.001336  -0.000010  -0.001424   0.001837   0.000080  -0.000107
     4  H   -0.010363  -0.000079   0.002818   0.004359   0.000685   0.000310
     5  C    0.457975  -0.001632  -0.189054  -0.249249  -0.184301  -0.046287
     6  H   -0.022764   0.000093   0.021222  -0.003522   0.000621   0.004043
     7  C   -0.970249  -0.301214   0.995594  -1.689191   1.397308   0.298597
     8  H    0.061215   0.000663   0.013181  -0.023513  -0.023854   0.011928
     9  C    4.366391  -0.377658  -1.165838  -3.348339  -1.676908  -1.232348
    10  H   -0.264810   0.004402   0.162174  -0.027613   0.041336   0.065084
    11  C   -4.241381   0.057168  -1.435311   2.996837   0.578888  -0.522349
    12  H    0.076847  -0.004719   0.061730  -0.092648   0.040641   0.009109
    13  C   23.764985  -2.355046  -0.058215  -9.961802  -3.089821  -2.476651
    14  C   -2.355046  10.039506  -1.353176   2.173861  -0.677124   0.497821
    15  C   -0.058215  -1.353176  10.428225  -4.465438   1.953112   0.586848
    16  C   -9.961802   2.173861  -4.465438  36.952271 -14.636947  -0.695058
    17  C   -3.089821  -0.677124   1.953112 -14.636947  24.966542  -2.017885
    18  C   -2.476651   0.497821   0.586848  -0.695058  -2.017885  11.476762
    19  H   -0.005490   0.120663  -0.014961   0.060534   0.155459   0.018415
    20  H    0.072132   0.060987  -0.045256  -0.064398   0.071813   0.244373
    21  O   -0.841617   0.118351  -0.154965   0.900563   0.000909  -0.022736
    22  H    0.212207  -0.013431   0.005190  -0.127217  -0.104581   0.004806
    23  O   -0.139332   0.025090   0.245009  -0.087751   0.094550   0.005642
    24  H    0.127137  -0.000376   0.034293  -0.000690  -0.013024  -0.206790
    25  O   -0.203564   0.013302  -0.044091   0.192578   0.047954  -0.002662
    26  H   -0.052938   0.004628  -0.011810   0.051736   0.042242   0.001172
    27  C   -0.418658  -0.008247  -0.029317   0.105749   0.076041  -0.010478
    28  H   -0.003782   0.000092  -0.000496   0.007220   0.000382  -0.000034
    29  H    0.000789   0.000021   0.000220   0.001130   0.000404  -0.000019
    30  H   -0.002334  -0.000015   0.000001  -0.000412  -0.000045   0.000000
    31  O   -0.135027  -0.001914  -0.006987   0.001137   0.010312  -0.002783
    32  H   -0.009011  -0.000048   0.003558  -0.006948   0.001154   0.000075
    33  H    0.004776   0.000264  -0.005609   0.004077   0.000364  -0.000887
    34  C    0.751522   0.036129  -0.084271   0.556576  -0.749003  -0.139934
    35  C   -0.168769   0.018002   0.078890  -0.252577   0.371693   0.060217
    36  H   -0.006035   0.000328   0.004630   0.009312  -0.004688   0.004999
    37  H    0.016578   0.009597   0.009897   0.010894  -0.000119  -0.009726
    38  C    0.395564  -0.012069   0.078968  -0.277855  -0.227516   0.071035
    39  H   -0.024089   0.000253  -0.003997   0.021347   0.005485  -0.000734
    40  H   -0.006235   0.001109  -0.000198   0.010834   0.001706   0.000460
    41  H    0.039119  -0.001655   0.007756  -0.024270  -0.023085   0.002290
    42  C   -0.877112  -1.780154   0.075441  -0.204927   0.393829   0.116061
    43  H   -0.010271  -0.248307   0.053370  -0.005577  -0.147999   0.179561
    44  H    0.002544  -0.283232  -0.020993   0.010208   0.215369  -0.112099
    45  C    0.036387  -0.001670   0.008013  -0.018486   0.058822  -0.009828
    46  H    0.001535   0.012841   0.002369   0.001876   0.004111   0.009897
    47  H   -0.002655  -0.054410  -0.004378  -0.009386   0.038833  -0.028788
    48  H   -0.006928  -0.029546   0.002046   0.015836  -0.055763   0.028310
             19         20         21         22         23         24
     1  C   -0.000246  -0.000164  -0.001169   0.001683  -0.011619   0.001998
     2  C   -0.000010   0.000006   0.015068  -0.000388   0.000646  -0.000393
     3  H    0.000000   0.000000  -0.000005   0.000000  -0.000007   0.000000
     4  H    0.000000   0.000000  -0.000440   0.000000  -0.000015   0.000000
     5  C    0.000055   0.000001  -0.001800   0.001290   0.003798  -0.000992
     6  H    0.000000   0.000000  -0.000062   0.000000  -0.000461  -0.000001
     7  C   -0.001153  -0.001538  -0.011364   0.002385  -0.055835  -0.003010
     8  H    0.000000   0.000004   0.000101   0.000000   0.000540  -0.000036
     9  C    0.002320   0.003639  -0.042946   0.021888  -0.020847   0.062000
    10  H    0.000002  -0.000002  -0.001858   0.000004   0.005664   0.000108
    11  C   -0.000754   0.001893   0.113979   0.002717  -0.051576   0.003889
    12  H    0.000000   0.000000  -0.026332   0.000136   0.000038   0.000000
    13  C   -0.005490   0.072132  -0.841617   0.212207  -0.139332   0.127137
    14  C    0.120663   0.060987   0.118351  -0.013431   0.025090  -0.000376
    15  C   -0.014961  -0.045256  -0.154965   0.005190   0.245009   0.034293
    16  C    0.060534  -0.064398   0.900563  -0.127217  -0.087751  -0.000690
    17  C    0.155459   0.071813   0.000909  -0.104581   0.094550  -0.013024
    18  C    0.018415   0.244373  -0.022736   0.004806   0.005642  -0.206790
    19  H    0.521649  -0.000145  -0.020893   0.008267   0.000079   0.000000
    20  H   -0.000145   0.518256   0.000143  -0.000001  -0.016881   0.007852
    21  O   -0.020893   0.000143   8.360627   0.209619  -0.003518   0.000045
    22  H    0.008267  -0.000001   0.209619   0.348808   0.000059   0.000000
    23  O    0.000079  -0.016881  -0.003518   0.000059   8.299509   0.199937
    24  H    0.000000   0.007852   0.000045   0.000000   0.199937   0.361119
    25  O   -0.000009  -0.000002   0.011364   0.000616  -0.000940  -0.000043
    26  H   -0.000015  -0.000001  -0.004275  -0.000200   0.000116   0.000000
    27  C    0.000009   0.000004   0.001251  -0.000501  -0.002456   0.000067
    28  H    0.000000   0.000000  -0.000223  -0.000001   0.000000   0.000000
    29  H    0.000000   0.000000   0.000004   0.000000   0.000001   0.000000
    30  H    0.000000   0.000000   0.000003   0.000000   0.000000   0.000000
    31  O    0.000000   0.000001  -0.000874   0.000000  -0.000996   0.000016
    32  H    0.000000   0.000000   0.000037   0.000000   0.000072  -0.000001
    33  H    0.000000   0.000000  -0.000010   0.000000   0.000026   0.000000
    34  C   -0.000357  -0.000671  -0.002449  -0.003291   0.044554   0.005041
    35  C    0.000968   0.000168  -0.054273  -0.001873  -0.024159  -0.000500
    36  H    0.000000   0.000000  -0.000123  -0.000004  -0.000065   0.000000
    37  H    0.000000  -0.000001  -0.000154   0.000000   0.000946  -0.000001
    38  C   -0.000094  -0.000038  -0.010991   0.004208   0.005174   0.000446
    39  H    0.000000   0.000000   0.000147   0.000001  -0.000022   0.000000
    40  H    0.000000   0.000000  -0.000022  -0.000012  -0.000002   0.000000
    41  H    0.000000   0.000000   0.000899  -0.000145   0.000057   0.000000
    42  C   -0.015776  -0.027156  -0.010882   0.002333  -0.000952   0.001515
    43  H    0.000097   0.002061   0.000027   0.000000   0.000044   0.000001
    44  H    0.002048   0.000077   0.000094   0.000000   0.000036   0.000000
    45  C    0.006658   0.006720   0.000357   0.000120  -0.000031   0.000180
    46  H   -0.000030  -0.000029   0.000001   0.000000   0.000000   0.000000
    47  H    0.000010   0.000169   0.000007   0.000000   0.000016   0.000001
    48  H    0.000240   0.000009  -0.000019   0.000001   0.000005   0.000000
             25         26         27         28         29         30
     1  C   -0.248760   0.041014  -2.481539  -0.172551  -0.055761  -0.124575
     2  C    0.088292  -0.015122  -0.135996   0.030788   0.017894   0.016432
     3  H   -0.000384   0.000004  -0.047507   0.000311  -0.000028   0.002245
     4  H    0.000284   0.000001   0.037680   0.001383   0.000133   0.000043
     5  C   -0.000832  -0.000818  -0.210947   0.001491  -0.006467   0.003199
     6  H   -0.000113   0.000001   0.005766  -0.000001   0.000002   0.000003
     7  C    0.139964  -0.002449  -0.103997   0.002779   0.003556  -0.006465
     8  H   -0.000933   0.000001   0.000344   0.000000   0.000000   0.000000
     9  C   -0.144322  -0.133196  -0.740936  -0.003996   0.016212   0.000913
    10  H    0.000295  -0.001070   0.025288   0.000000   0.000008   0.000004
    11  C    0.252151   0.124349   1.794696   0.046900  -0.040539   0.040633
[...]
    15  C   -0.050749  -0.013904  -0.036903  -0.000100   0.000067  -0.000287
    16  C    0.137917   0.080835   0.223973   0.007689   0.001130  -0.000465
    17  C    0.089727   0.043120   0.044242   0.000547   0.000300  -0.000023
    18  C   -0.012732  -0.001973  -0.005762  -0.000020   0.000002  -0.000017
    19  H   -0.000020  -0.000012   0.000006   0.000000   0.000000   0.000000
    20  H   -0.000008   0.000000   0.000006   0.000000   0.000000   0.000000
    21  O    0.009148  -0.004617   0.000921  -0.000196   0.000030  -0.000010
    22  H    0.000497  -0.000213  -0.000683  -0.000001   0.000000   0.000000
    23  O   -0.000314   0.000017  -0.002620   0.000000   0.000002   0.000000
    24  H   -0.000032   0.000000   0.000073   0.000000   0.000000   0.000000
    25  O    8.520367   0.212084  -0.050133  -0.000441   0.004248  -0.000013
    26  H    0.212084   0.341895   0.002635  -0.000042  -0.000210   0.000004
    27  C   -0.050133   0.002635   7.525573   0.459114   0.462810   0.472141
    28  H   -0.000441  -0.000042   0.459114   0.538387  -0.027214  -0.026532
    29  H    0.004248  -0.000210   0.462810  -0.027214   0.536252  -0.029633
    30  H   -0.000013   0.000004   0.472141  -0.026532  -0.029633   0.538069
    31  O   -0.000408   0.000174   0.012768   0.008781  -0.008093  -0.001401
    32  H    0.018078  -0.000723  -0.026908  -0.000032   0.002106  -0.000068
    33  H    0.000029   0.000000  -0.009216  -0.000004   0.000002  -0.000004
    34  C   -0.043623  -0.005211   0.076322  -0.000895  -0.001651   0.001373
    35  C   -0.003914   0.000750   0.023281  -0.000661  -0.000235   0.000039
    36  H   -0.000002   0.000000   0.000159   0.000000   0.000000   0.000000
    37  H   -0.000011   0.000000  -0.000172   0.000000   0.000000   0.000000
    38  C    0.004615   0.000117  -0.046361   0.003822   0.000370  -0.000593
    39  H    0.000055   0.000000   0.008348  -0.000009   0.000000   0.000000
    40  H   -0.000011   0.000000  -0.000317   0.000000   0.000000   0.000000
    41  H    0.000259   0.000010  -0.014094   0.000105   0.000004  -0.000002
    42  C    0.001789  -0.001144  -0.000820   0.000001   0.000000   0.000000
    43  H    0.000001   0.000000   0.000000   0.000000   0.000000   0.000000
    44  H    0.000001   0.000000   0.000000   0.000000   0.000000   0.000000
    45  C    0.000039   0.000018  -0.000012   0.000000   0.000000   0.000000
    46  H    0.000000   0.000000   0.000000   0.000000   0.000000   0.000000
    47  H    0.000001   0.000000   0.000000   0.000000   0.000000   0.000000
    48  H    0.000002   0.000000   0.000000   0.000000   0.000000   0.000000
             31         32         33         34         35         36
     1  C    0.045930   0.045366   0.028370   0.031442  -0.122870   0.000661
     2  C   -0.055562   0.027395  -0.095760   0.153750   0.025483  -0.000188
     3  H   -0.003760   0.000109  -0.001218  -0.002469  -0.002451   0.000000
     4  H    0.008468  -0.000235  -0.005142  -0.008145   0.012757   0.000001
     5  C    0.003825  -0.006495   0.562149   0.132017  -0.369775  -0.008336
     6  H    0.005960  -0.000203  -0.031794  -0.000902  -0.009126   0.000003
     7  C   -0.066765   0.023272  -0.148174  -2.394312   0.379893   0.029399
     8  H   -0.000191  -0.000010  -0.002139  -0.044416   0.066390   0.000415
     9  C    0.058452  -0.015055   0.013619  -0.089791   0.245331   0.002231
    10  H    0.011405  -0.000087  -0.000019   0.023722   0.005514   0.000004
    11  C    0.069781  -0.038194   0.043100  -1.022431   0.455314   0.001446
    12  H    0.006455   0.000599   0.000000  -0.034327   0.011707   0.000000
    13  C   -0.101415  -0.008390  -0.000965   0.478901  -0.194618  -0.001900
    14  C   -0.002029  -0.000043   0.000265  -0.038719   0.067214  -0.000097
    15  C    0.003934   0.001308  -0.005883  -0.153374   0.056309   0.006473
    16  C   -0.018255  -0.006385   0.000373   0.815650  -0.042978   0.001313
    17  C    0.003845   0.001206   0.000641  -0.845716   0.383936  -0.004145
    18  C    0.001414  -0.000222  -0.000941   0.034383  -0.034292   0.006372
    19  H    0.000000   0.000000   0.000000   0.000143   0.000591   0.000000
    20  H    0.000001   0.000000   0.000000  -0.000421   0.000258   0.000000
    21  O   -0.000440   0.000089   0.000004  -0.012518  -0.055786  -0.000146
    22  H   -0.000002   0.000000   0.000000  -0.004505  -0.000541  -0.000005
    23  O   -0.001198   0.000096   0.000010   0.030577  -0.020765  -0.000036
    24  H    0.000007   0.000000   0.000000   0.003523  -0.000248   0.000000
    25  O   -0.000408   0.018078   0.000029  -0.043623  -0.003914  -0.000002
    26  H    0.000174  -0.000723   0.000000  -0.005211   0.000750   0.000000
    27  C    0.012768  -0.026908  -0.009216   0.076322   0.023281   0.000159
    28  H    0.008781  -0.000032  -0.000004  -0.000895  -0.000661   0.000000
    29  H   -0.008093   0.002106   0.000002  -0.001651  -0.000235   0.000000
    30  H   -0.001401  -0.000068  -0.000004   0.001373   0.000039   0.000000
    31  O    8.420071   0.238759  -0.000833  -0.019082   0.014583   0.000001
    32  H    0.238759   0.342603   0.000009   0.000404  -0.000811   0.000000
    33  H   -0.000833   0.000009   0.568063  -0.022819  -0.024675  -0.000043
    34  C   -0.019082   0.000404  -0.022819  11.961337  -2.731957  -0.205254
    35  C    0.014583  -0.000811  -0.024675  -2.731957   8.759700   0.541363
    36  H    0.000001   0.000000  -0.000043  -0.205254   0.541363   0.538560
    37  H   -0.000002   0.000000  -0.000008  -0.240608   0.594978  -0.035567
    38  C   -0.012627   0.000608  -0.019660   0.099866  -1.319198  -0.022453
    39  H    0.000006   0.000000   0.000715  -0.086414   0.000887   0.000167
    40  H    0.000001   0.000000  -0.000013  -0.119206  -0.067457   0.003198
    41  H   -0.000213   0.000002   0.000253  -0.118057  -0.063380   0.000120
    42  C   -0.000066   0.000013   0.000014  -0.056415  -0.000882   0.000254
    43  H    0.000000   0.000000   0.000000  -0.000536   0.000296   0.000000
    44  H    0.000000   0.000000   0.000000   0.000023   0.000031   0.000000
    45  C    0.000000   0.000000   0.000000   0.001221   0.000097   0.000000
    46  H    0.000000   0.000000   0.000000  -0.000008   0.000003   0.000000
    47  H    0.000000   0.000000   0.000000   0.000038  -0.000012   0.000000
    48  H    0.000000   0.000000   0.000000  -0.000072   0.000032   0.000000
             37         38         39         40         41         42
     1  C   -0.001446   0.162370  -0.016219   0.005315   0.014966  -0.005776
     2  C   -0.002918  -0.105848   0.007754  -0.005663   0.002919   0.001153
     3  H    0.000000   0.000666   0.000126  -0.000003   0.000068   0.000000
     4  H   -0.000001  -0.016589  -0.000839   0.000168  -0.000662  -0.000003
     5  C   -0.003210   0.081910   0.001202   0.000866  -0.002565   0.008783
     6  H   -0.000011   0.010886   0.000012   0.000003  -0.000025   0.000017
     7  C   -0.028566  -0.155900   0.028459  -0.001337   0.003462   0.039376
     8  H    0.004905  -0.027416  -0.000110  -0.000117  -0.000139  -0.000482
     9  C    0.015302  -0.150902  -0.043314  -0.009415   0.041944   0.010415
    10  H   -0.000047   0.010943   0.000001   0.000003  -0.000050  -0.000079
    11  C    0.001586  -0.846349   0.040726  -0.001822  -0.089945  -0.037558
    12  H   -0.000003  -0.007988   0.000058   0.000095   0.001032   0.000240
    13  C    0.020863   0.411182  -0.018801   0.001209   0.021886  -0.961212
    14  C    0.008353  -0.028915  -0.000132   0.001142   0.000146  -2.034373
    15  C    0.006130   0.163753  -0.003463   0.000976   0.004723   0.108346
    16  C   -0.002278  -0.427412   0.013294   0.001986  -0.010985  -0.876866
    17  C    0.005908  -0.229291   0.001975   0.003140  -0.014532   0.841062
    18  C   -0.012278   0.119846  -0.000299   0.000498   0.001547   0.135645
    19  H    0.000000  -0.000018   0.000000   0.000000   0.000000  -0.018038
    20  H   -0.000001   0.000039   0.000000   0.000000   0.000000  -0.030644
    21  O   -0.000015  -0.006936   0.000245   0.000015   0.002672  -0.007561
    22  H    0.000000   0.003261   0.000001  -0.000012  -0.000117   0.001637
    23  O    0.001182   0.005096  -0.000022   0.000001   0.000054   0.007448
    24  H   -0.000009   0.000363   0.000000   0.000000   0.000000  -0.000326
    25  O   -0.000011   0.004615   0.000055  -0.000011   0.000259   0.001789
    26  H    0.000000   0.000117   0.000000   0.000000   0.000010  -0.001144
    27  C   -0.000172  -0.046361   0.008348  -0.000317  -0.014094  -0.000820
    28  H    0.000000   0.003822  -0.000009   0.000000   0.000105   0.000001
    29  H    0.000000   0.000370   0.000000   0.000000   0.000004   0.000000
    30  H    0.000000  -0.000593   0.000000   0.000000  -0.000002   0.000000
    31  O   -0.000002  -0.012627   0.000006   0.000001  -0.000213  -0.000066
    32  H    0.000000   0.000608   0.000000   0.000000   0.000002   0.000013
    33  H   -0.000008  -0.019660   0.000715  -0.000013   0.000253   0.000014
    34  C   -0.240608   0.099866  -0.086414  -0.119206  -0.118057  -0.056415
    35  C    0.594978  -1.319198   0.000887  -0.067457  -0.063380  -0.000882
    36  H   -0.035567  -0.022453   0.000167   0.003198   0.000120   0.000254
    37  H    0.549480  -0.023971  -0.000188   0.000246  -0.000209   0.001195
    38  C   -0.023971   7.481031   0.409950   0.539150   0.565804  -0.002147
    39  H   -0.000188   0.409950   0.534981  -0.026528  -0.027940  -0.000020
    40  H    0.000246   0.539150  -0.026528   0.547836  -0.027730   0.000142
    41  H   -0.000209   0.565804  -0.027940  -0.027730   0.537888   0.000092
    42  C    0.001195  -0.002147  -0.000020   0.000142   0.000092   7.906488
    43  H    0.000000  -0.000014   0.000000   0.000000   0.000000   0.544158
    44  H    0.000000  -0.000035   0.000000   0.000000   0.000000   0.535116
    45  C   -0.000019   0.000246   0.000000   0.000000   0.000000   0.097012
    46  H    0.000000  -0.000001   0.000000   0.000000   0.000000  -0.040406
    47  H    0.000000  -0.000001   0.000000   0.000000   0.000000  -0.032350
    48  H    0.000000  -0.000003   0.000000   0.000000   0.000000  -0.048914
             43         44         45         46         47         48
     1  C   -0.000004   0.000000   0.000113   0.000000  -0.000007   0.000005
     2  C    0.000000   0.000000  -0.000093   0.000000   0.000000   0.000000
     3  H    0.000000   0.000000   0.000000   0.000000   0.000000   0.000000
     4  H    0.000000   0.000000   0.000000   0.000000   0.000000   0.000000
     5  C    0.000009   0.000007  -0.000104   0.000000  -0.000002   0.000001
     6  H    0.000000   0.000000   0.000000   0.000000   0.000000   0.000000
     7  C    0.000339   0.000018   0.001284   0.000010  -0.000084   0.000013
     8  H    0.000000   0.000000   0.000000   0.000000   0.000000   0.000000
     9  C    0.000740   0.000098  -0.003965   0.000182  -0.000459  -0.000305
    10  H    0.000000   0.000000   0.000042   0.000000   0.000000   0.000000
    11  C   -0.000108  -0.000129  -0.002479   0.000021  -0.000207   0.000045
    12  H    0.000000   0.000000   0.000003   0.000000   0.000000   0.000000
    13  C   -0.014260  -0.008928   0.014752   0.000921  -0.001739  -0.014554
    14  C   -0.209605  -0.208572   0.123930  -0.045788   0.011746   0.062814
    15  C    0.035209  -0.017728  -0.012409   0.002311  -0.024185   0.010093
    16  C   -0.025585   0.016925   0.022117  -0.001348  -0.007520   0.014090
    17  C   -0.076224   0.094288  -0.043912   0.016050   0.072626  -0.151462
    18  C    0.087912  -0.068695  -0.015835   0.003880  -0.082241   0.065748
    19  H    0.000113   0.002451   0.003633  -0.000037   0.000010   0.000302
    20  H    0.002380   0.000107   0.003245  -0.000034   0.000202   0.000012
    21  O    0.000020   0.000067   0.000187   0.000000   0.000010  -0.000026
    22  H    0.000000  -0.000002   0.000073   0.000000   0.000000   0.000001
    23  O    0.000039   0.000031  -0.000186  -0.000001   0.000030   0.000006
    24  H    0.000000   0.000000   0.000172   0.000000   0.000000   0.000000
    25  O    0.000001   0.000001   0.000039   0.000000   0.000001   0.000002
    26  H    0.000000   0.000000   0.000018   0.000000   0.000000   0.000000
    27  C    0.000000   0.000000  -0.000012   0.000000   0.000000   0.000000
    28  H    0.000000   0.000000   0.000000   0.000000   0.000000   0.000000
    29  H    0.000000   0.000000   0.000000   0.000000   0.000000   0.000000
    30  H    0.000000   0.000000   0.000000   0.000000   0.000000   0.000000
    31  O    0.000000   0.000000   0.000000   0.000000   0.000000   0.000000
    32  H    0.000000   0.000000   0.000000   0.000000   0.000000   0.000000
    33  H    0.000000   0.000000   0.000000   0.000000   0.000000   0.000000
    34  C   -0.000536   0.000023   0.001221  -0.000008   0.000038  -0.000072
    35  C    0.000296   0.000031   0.000097   0.000003  -0.000012   0.000032
    36  H    0.000000   0.000000   0.000000   0.000000   0.000000   0.000000
    37  H    0.000000   0.000000  -0.000019   0.000000   0.000000   0.000000
    38  C   -0.000014  -0.000035   0.000246  -0.000001  -0.000001  -0.000003
    39  H    0.000000   0.000000   0.000000   0.000000   0.000000   0.000000
    40  H    0.000000   0.000000   0.000000   0.000000   0.000000   0.000000
    41  H    0.000000   0.000000   0.000000   0.000000   0.000000   0.000000
    42  C    0.544158   0.535116   0.097012  -0.040406  -0.032350  -0.048914
    43  H    0.565465  -0.033412  -0.025695  -0.003325  -0.004954   0.004913
    44  H   -0.033412   0.565053  -0.024822  -0.003309   0.004887  -0.004998
    45  C   -0.025695  -0.024822   5.189674   0.423225   0.420186   0.417712
    46  H   -0.003325  -0.003309   0.423225   0.548961  -0.026962  -0.026814
    47  H   -0.004954   0.004887   0.420186  -0.026962   0.541350  -0.028397
    48  H    0.004913  -0.004998   0.417712  -0.026814  -0.028397   0.542240
 Mulliken atomic charges:
              1
     1  C    0.395031
     2  C   -0.327812
     3  H    0.156101
     4  H    0.166608
     5  C   -0.584551
     6  H    0.158355
     7  C    0.291411
     8  H    0.145353
     9  C   -0.015351
    10  H    0.157785
    11  C   -0.114626
    12  H    0.161649
    13  C    0.684244
    14  C    0.000823
    15  C    0.614157
    16  C   -1.341503
    17  C   -0.389723
    18  C   -0.135742
    19  H    0.148633
    20  H    0.150505
    21  O   -0.596206
    22  H    0.455550
    23  O   -0.593171
    24  H    0.450749
    25  O   -0.679352
    26  H    0.424238
    27  C   -0.335197
    28  H    0.161000
    29  H    0.160100
    30  H    0.160884
    31  O   -0.622279
    32  H    0.401839
    33  H    0.151692
    34  C    0.459162
    35  C   -0.580105
    36  H    0.146029
    37  H    0.141411
    38  C   -0.625264
    39  H    0.175335
    40  H    0.153642
    41  H    0.170688
    42  C   -0.084316
    43  H    0.152126
    44  H    0.151527
    45  C   -0.589446
    46  H    0.152466
    47  H    0.158033
    48  H    0.157517
 Sum of Mulliken atomic charges =   0.00000
 Mulliken charges with hydrogens summed into heavy atoms:
              1
     1  C    0.395031
     2  C   -0.005103
     5  C   -0.274504
     7  C    0.436764
     9  C    0.142435
    11  C    0.047023
    13  C    0.684244
    14  C    0.000823
    15  C    0.614157
    16  C   -1.341503
    17  C   -0.241090
    18  C    0.014763
    21  O   -0.140656
    23  O   -0.142422
    25  O   -0.255113
    27  C    0.146786
    31  O   -0.220441
    34  C    0.459162
    35  C   -0.292666
    38  C   -0.125599
    42  C    0.219337
    45  C   -0.121430
 Sum of Mulliken charges with hydrogens summed into heavy atoms =   0.00000
 Electronic spatial extent (au):  <R**2>=           7149.3386
 Charge=              0.0000 electrons
 Dipole moment (field-independent basis, Debye):
    X=             -5.8214    Y=              1.9713    Z=             -3.1548  Tot=              6.9085
 Quadrupole moment (field-independent basis, Debye-Ang):
   XX=           -124.0924   YY=           -144.5159   ZZ=           -120.8850
   XY=              7.9757   XZ=             -9.2625   YZ=              0.9794
 Traceless Quadrupole moment (field-independent basis, Debye-Ang):
   XX=              5.7387   YY=            -14.6848   ZZ=              8.9461
   XY=              7.9757   XZ=             -9.2625   YZ=              0.9794
 Octapole moment (field-independent basis, Debye-Ang**2):
  XXX=            -75.4059  YYY=            -19.3489  ZZZ=             -6.9674  XYY=             -3.9105
  XXY=             25.1312  XXZ=            -15.4792  XZZ=            -56.6271  YZZ=              4.1995
  YYZ=             -5.1528  XYZ=              3.0561
 Hexadecapole moment (field-independent basis, Debye-Ang**3):
 XXXX=          -6432.5834 YYYY=          -1945.9265 ZZZZ=          -1006.7606 XXXY=             53.0263
 XXXZ=           -115.4417 YYYX=            -33.6985 YYYZ=            -45.2993 ZZZX=            -61.8496
 ZZZY=              4.4921 XXYY=          -1497.6252 XXZZ=          -1242.2165 YYZZ=           -522.5436
 XXYZ=             41.7945 YYXZ=             -7.0404 ZZXY=              9.4524
 N-N= 1.985794282620D+03 E-N=-6.304690924936D+03  KE= 9.931268354184D+02

 Test job not archived.
 1\1\GINC-COMPUTE-8-17\SP\RB3LYP\6-31+G(d,p)\C18H26O4\LPASSAGLIA.IQUIR\
 23-Dec-2022\0\\# B3LYP/6-31+G** geom=allcheck test scrf=(pcm,solvent=w
 ater,smd,dovacuum)\\comment\\0,1\C,0,1.717134158,2.54914264,-1.2850817
 84\C,0,0.968164044,3.571293308,-0.426728643\H,0,1.564942735,4.48868496
 ,-0.33932977\H,0,0.03453498,3.856832852,-0.920205531\C,0,0.683200939,3
 .068139739,0.988703913\H,0,1.638653001,3.020622565,1.529083234\C,0,0.0
 23388736,1.67542137,1.06522191\H,0,0.216206618,1.352193813,2.100628963
 \C,0,0.770069891,0.646568733,0.158280411\H,0,1.790744678,0.569314544,0
 .56442968\C,0,1.005365065,1.171627857,-1.281528658\H,0,0.077579588,1.2
 69476558,-1.847314791\C,0,0.202740093,-0.773939301,0.311079402\C,0,-0.
 823992191,-3.396499816,0.747003733\C,0,0.589502324,-1.549206574,1.4219
 2225\C,0,-0.721192366,-1.354739856,-0.568663108\C,0,-1.224456561,-2.64
 5576143,-0.362263255\C,0,0.094208209,-2.838437199,1.639160092\H,0,-1.9
 28616242,-3.079096988,-1.06784641\H,0,0.416730596,-3.413705684,2.50260
 5342\O,0,-1.147311828,-0.665888363,-1.66854554\H,0,-1.925616411,-1.115
 653202,-2.038008104\O,0,1.476933985,-1.022299193,2.323097651\H,0,1.671
 509174,-1.684015479,3.005805946\O,0,1.858477621,0.252752273,-1.9962578
 76\H,0,1.346015683,-0.575053462,-2.061977195\C,0,1.88357664,3.08601422
 9,-2.712186498\H,0,0.915992622,3.219712388,-3.206708357\H,0,2.49642732
 8,2.414261274,-3.323371757\H,0,2.40420901,4.050682624,-2.704596927\O,0
 ,3.040723941,2.389612103,-0.750557661\H,0,3.373411683,1.564378794,-1.1
 60549569\H,0,0.076246191,3.8093837,1.523517484\C,0,-1.50726365,1.71405
 1535,0.939327101\C,0,-2.275049768,1.099703012,1.859451303\H,0,-3.35898
 5426,1.116038564,1.805889311\H,0,-1.837835088,0.552769307,2.690007728\
 C,0,-2.164495878,2.457433957,-0.187757925\H,0,-2.015749535,3.535133207
 ,-0.07570334\H,0,-3.247058826,2.287326938,-0.211320386\H,0,-1.77845717
 2,2.140098087,-1.157432662\C,0,-1.350591382,-4.792306692,0.96028523\H,
 0,-1.412928134,-5.003348268,2.034830188\H,0,-2.376391533,-4.862182924,
 0.578294286\C,0,-0.47695391,-5.835960646,0.281323686\H,0,-0.882360784,
 -6.83816976,0.452547961\H,0,0.54616616,-5.81249355,0.671657558\H,0,-0.
 427549007,-5.670097834,-0.800218618\\Version=EM64L-G09RevC.01\State=1-
 A\HF=-1002.5476828\RMSD=4.233e-09\Dipole=-1.9293751,-1.9144088,-0.0121
 368\Quadrupole=-8.1112837,6.16112,1.9501637,-3.809027,9.0092531,-4.947
 8618\PG=C01 [X(C18H26O4)]\\@


 CONFIDENCE IS WHAT YOU FEEL BEFORE YOU FULLY
 COMPREHEND THE SITUATION.
 Job cpu time:  0 days  2 hours 14 minutes 58.5 seconds.
 File lengths (MBytes):  RWF=    241 Int=      0 D2E=      0 Chk=     19 Scr=      1
 Normal termination of Gaussian 09 at Fri Dec 23 15:48:38 2022.
