 Entering Gaussian System, Link 0=g09
 Input=/home/lpassaglia.iquir/Link1/04_RSSR_THC_003.gjc
 Output=/home/lpassaglia.iquir/Link1/04_RSSR_THC_003.log
 Initial command:
 /share/apps/Gaussian09/EM64T.SSE4.2-enabled/g09/l1.exe /tmp/Gau-21275.inp -scrdir=/tmp/
 Entering Link 1 = /share/apps/Gaussian09/EM64T.SSE4.2-enabled/g09/l1.exe PID=     21311.
  
 Copyright (c) 1988,1990,1992,1993,1995,1998,2003,2009,2011,
            Gaussian, Inc.  All Rights Reserved.
  
 This is part of the Gaussian(R) 09 program.  It is based on
 the Gaussian(R) 03 system (copyright 2003, Gaussian, Inc.),
 the Gaussian(R) 98 system (copyright 1998, Gaussian, Inc.),
 the Gaussian(R) 94 system (copyright 1995, Gaussian, Inc.),
 the Gaussian 92(TM) system (copyright 1992, Gaussian, Inc.),
 the Gaussian 90(TM) system (copyright 1990, Gaussian, Inc.),
 the Gaussian 88(TM) system (copyright 1988, Gaussian, Inc.),
 the Gaussian 86(TM) system (copyright 1986, Carnegie Mellon
 University), and the Gaussian 82(TM) system (copyright 1983,
 Carnegie Mellon University). Gaussian is a federally registered
 trademark of Gaussian, Inc.
  
 This software contains proprietary and confidential information,
 including trade secrets, belonging to Gaussian, Inc.
  
 This software is provided under written license and may be
 used, copied, transmitted, or stored only in accord with that
 written license.
  
 The following legend is applicable only to US Government
 contracts under FAR:
  
                    RESTRICTED RIGHTS LEGEND
  
 Use, reproduction and disclosure by the US Government is
 subject to restrictions as set forth in subparagraphs (a)
 and (c) of the Commercial Computer Software - Restricted
 Rights clause in FAR 52.227-19.
  
 Gaussian, Inc.
 340 Quinnipiac St., Bldg. 40, Wallingford CT 06492
  
  
 ---------------------------------------------------------------
 Warning -- This program may not be used in any manner that
 competes with the business of Gaussian, Inc. or will provide
 assistance to any competitor of Gaussian, Inc.  The licensee
 of this program is prohibited from giving any competitor of
 Gaussian, Inc. access to this program.  By using this program,
 the user acknowledges that Gaussian, Inc. is engaged in the
 business of creating and licensing software in the field of
 computational chemistry and represents and warrants to the
 licensee that it is not a competitor of Gaussian, Inc. and that
 it will not use this program in any manner prohibited above.
 ---------------------------------------------------------------
  

 Cite this work as:
 Gaussian 09, Revision C.01,
 M. J. Frisch, G. W. Trucks, H. B. Schlegel, G. E. Scuseria, 
 M. A. Robb, J. R. Cheeseman, G. Scalmani, V. Barone, B. Mennucci, 
 G. A. Petersson, H. Nakatsuji, M. Caricato, X. Li, H. P. Hratchian, 
 A. F. Izmaylov, J. Bloino, G. Zheng, J. L. Sonnenberg, M. Hada, 
 M. Ehara, K. Toyota, R. Fukuda, J. Hasegawa, M. Ishida, T. Nakajima, 
 Y. Honda, O. Kitao, H. Nakai, T. Vreven, J. A. Montgomery, Jr., 
 J. E. Peralta, F. Ogliaro, M. Bearpark, J. J. Heyd, E. Brothers, 
 K. N. Kudin, V. N. Staroverov, T. Keith, R. Kobayashi, J. Normand, 
 K. Raghavachari, A. Rendell, J. C. Burant, S. S. Iyengar, J. Tomasi, 
 M. Cossi, N. Rega, J. M. Millam, M. Klene, J. E. Knox, J. B. Cross, 
 V. Bakken, C. Adamo, J. Jaramillo, R. Gomperts, R. E. Stratmann, 
 O. Yazyev, A. J. Austin, R. Cammi, C. Pomelli, J. W. Ochterski, 
 R. L. Martin, K. Morokuma, V. G. Zakrzewski, G. A. Voth, 
 P. Salvador, J. J. Dannenberg, S. Dapprich, A. D. Daniels, 
 O. Farkas, J. B. Foresman, J. V. Ortiz, J. Cioslowski, 
 and D. J. Fox, Gaussian, Inc., Wallingford CT, 2010.
 
 ******************************************
 Gaussian 09:  EM64L-G09RevC.01 23-Sep-2011
                23-Dec-2022 
 ******************************************
 %chk=04_RSSR_THC_003_optB_NMR
 %nprocshared=4
 Will use up to    4 processors via shared memory.
 ------------------------------------------------
 # mPW1PW91/6-31+G** scrf=(PCM,solvent=water) nmr
 ------------------------------------------------
 1/38=1/1;
 2/12=2,17=6,18=5,40=1/2;
 3/5=1,6=6,7=111,11=2,16=1,25=1,30=1,70=2201,72=1,74=-7/1,2,8,3;
 4//1;
 5/5=2,38=5,53=1/2;
 8/6=1,10=90,11=11/1;
 10/13=100,45=16/2;
 6/7=2,8=2,9=2,10=2,28=1/1;
 99/9=1/99;
 -------
 comment
 -------
 Charge =  0 Multiplicity = 1
 Symbolic Z-Matrix:
 6                     1.65817   2.65535  -1.23324 
 6                     0.91394   3.5755   -0.26322 
 1                     1.46815   4.51501  -0.14276 
 1                    -0.07375   3.83306  -0.66387 
 6                     0.76157   2.94059   1.11588 
 1                     1.75695   2.79481   1.55607 
 6                     0.03409   1.58012   1.07654 
 1                     0.18631   1.14834   2.07526 
 6                     0.76078   0.6127    0.07512 
 1                     1.78601   0.49128   0.46203 
 6                     0.98892   1.25977  -1.32081 
 1                     0.0609    1.37486  -1.88232 
 6                     0.19623  -0.82005   0.1405 
 6                    -0.83673  -3.46675   0.44004 
 6                    -0.54898  -1.43942  -0.87369 
 6                     0.43416  -1.59181   1.29739 
 6                    -0.07151  -2.88682   1.45258 
 6                    -1.06142  -2.73677  -0.73 
 1                     0.13004  -3.4516    2.35864 
 1                    -1.63052  -3.19502  -1.53496 
 8                     1.20421  -1.06612   2.30239 
 1                     1.30932  -1.72734   3.00495 
 8                    -0.76716  -0.79832  -2.06154 
 1                    -1.42113  -1.30218  -2.57558 
 8                     1.86799   0.42234  -2.10283 
 1                     1.35405  -0.39265  -2.26467 
 6                     1.75201   3.31432  -2.6147 
 1                     0.76157   3.46636  -3.05576 
 1                     2.35105   2.71055  -3.30537 
 1                     2.25306   4.28693  -2.54657 
 8                     3.00678   2.49005  -0.76557 
 1                     3.33538   1.70071  -1.24461 
 1                     0.24645   3.64572   1.77839 
 6                    -1.48665   1.78167   0.98057 
 6                    -2.24514   1.65318  -0.11996 
 1                    -3.32084   1.80198  -0.08139 
 1                    -1.84887   1.39669  -1.09058 
 6                    -2.15861   2.12276   2.29241 
 1                    -1.97651   1.3323    3.02809 
 1                    -3.24402   2.2278    2.18799 
 1                    -1.77676   3.06658   2.69233 
 6                    -1.37238  -4.86739   0.58779 
 1                    -1.59932  -5.06641   1.64229 
 1                    -2.32493  -4.95648   0.05134 
 6                    -0.39072  -5.90665   0.06833 
 1                    -0.80571  -6.91237   0.18831 
 1                     0.55846  -5.86399   0.61323 
 1                    -0.1749   -5.75318  -0.99447 
 
                          Input orientation:                          
 ---------------------------------------------------------------------
 Center     Atomic      Atomic             Coordinates (Angstroms)
 Number     Number       Type             X           Y           Z
 ---------------------------------------------------------------------
      1          6           0        1.658173    2.655350   -1.233241
      2          6           0        0.913943    3.575502   -0.263222
      3          1           0        1.468146    4.515011   -0.142762
      4          1           0       -0.073750    3.833064   -0.663872
      5          6           0        0.761573    2.940595    1.115884
      6          1           0        1.756951    2.794805    1.556073
      7          6           0        0.034092    1.580116    1.076540
      8          1           0        0.186315    1.148337    2.075255
      9          6           0        0.760777    0.612702    0.075121
     10          1           0        1.786013    0.491277    0.462034
     11          6           0        0.988924    1.259767   -1.320805
     12          1           0        0.060904    1.374855   -1.882321
     13          6           0        0.196229   -0.820047    0.140500
     14          6           0       -0.836729   -3.466745    0.440037
     15          6           0       -0.548985   -1.439420   -0.873690
     16          6           0        0.434156   -1.591811    1.297391
     17          6           0       -0.071508   -2.886823    1.452579
     18          6           0       -1.061415   -2.736768   -0.729999
     19          1           0        0.130041   -3.451599    2.358645
     20          1           0       -1.630519   -3.195023   -1.534959
     21          8           0        1.204213   -1.066121    2.302386
     22          1           0        1.309318   -1.727337    3.004951
     23          8           0       -0.767158   -0.798316   -2.061541
     24          1           0       -1.421131   -1.302178   -2.575581
     25          8           0        1.867986    0.422344   -2.102834
     26          1           0        1.354048   -0.392651   -2.264669
     27          6           0        1.752005    3.314324   -2.614696
     28          1           0        0.761567    3.466356   -3.055763
     29          1           0        2.351051    2.710553   -3.305370
     30          1           0        2.253061    4.286926   -2.546568
     31          8           0        3.006780    2.490046   -0.765574
     32          1           0        3.335383    1.700707   -1.244606
     33          1           0        0.246454    3.645720    1.778389
     34          6           0       -1.486654    1.781670    0.980568
     35          6           0       -2.245144    1.653181   -0.119960
     36          1           0       -3.320841    1.801981   -0.081391
     37          1           0       -1.848869    1.396687   -1.090577
     38          6           0       -2.158610    2.122758    2.292408
     39          1           0       -1.976509    1.332305    3.028087
     40          1           0       -3.244018    2.227795    2.187995
     41          1           0       -1.776762    3.066582    2.692329
     42          6           0       -1.372380   -4.867390    0.587790
     43          1           0       -1.599321   -5.066414    1.642294
     44          1           0       -2.324935   -4.956478    0.051335
     45          6           0       -0.390716   -5.906651    0.068334
     46          1           0       -0.805714   -6.912375    0.188309
     47          1           0        0.558463   -5.863986    0.613235
     48          1           0       -0.174896   -5.753185   -0.994468
 ---------------------------------------------------------------------
                    Distance matrix (angstroms):
                    1          2          3          4          5
     1  C    0.000000
     2  C    1.530194   0.000000
     3  H    2.164161   1.097419   0.000000
     4  H    2.170425   1.096538   1.764667   0.000000
     5  C    2.530542   1.525863   2.135936   2.159120   0.000000
     6  H    2.794544   2.151739   2.434862   3.059020   1.098088
     7  C    3.021400   2.559427   3.486663   2.848936   1.543269
     8  H    3.922194   3.448050   4.230506   3.844244   2.112701
     9  C    2.586415   2.985988   3.971884   3.407826   2.549956
    10  H    2.752002   3.286175   4.081329   3.986718   2.734256
    11  C    1.550231   2.546907   3.494861   2.860541   2.968893
    12  H    2.147613   2.862168   3.855772   2.746914   3.454231
    13  C    4.012833   4.472019   5.491890   4.729835   3.925992
    14  C    6.819417   7.290588   8.328297   7.422127   6.638173
    15  C    4.665615   5.259494   6.329164   5.298015   4.986030
    16  C    5.093201   5.419118   6.358966   5.790837   4.547841
    17  C    6.396961   6.758457   7.726758   7.045300   5.896286
    18  C    6.060062   6.630587   7.702716   6.643986   6.242037
    19  H    7.247873   7.541144   8.456621   7.889453   6.542433
    20  H    6.718139   7.343815   8.425233   7.250953   7.098935
    21  O    5.153260   5.311428   6.098971   5.868040   4.202082
    22  H    6.106711   6.241585   6.992870   6.803764   5.065392
    23  O    4.300712   5.018998   6.075339   4.887123   5.139309
    24  H    5.190955   5.881440   6.935864   5.642763   6.032597
    25  O    2.405521   3.773165   4.555401   4.180186   4.233897
    26  H    3.232127   4.466064   5.347958   4.738969   4.784318
    27  C    1.533449   2.509978   2.762731   2.721798   3.877867
    28  H    2.187057   2.798824   3.175611   2.559955   4.204648
    29  H    2.185599   3.473914   3.746689   3.757286   4.703918
    30  H    2.177328   2.740991   2.538976   3.027306   4.177403
    31  O    1.436934   2.410506   2.618353   3.362098   2.963754
    32  H    1.929898   3.215795   3.552596   4.062805   3.705905
    33  H    3.470403   2.149104   2.437010   2.470277   1.096112
    34  C    3.943882   3.244644   4.178979   2.984745   2.532971
    35  C    4.180864   3.700767   4.688189   3.124530   3.496440
    36  H    5.181272   4.594763   5.504426   3.874040   4.404091
    37  H    3.728797   3.614538   4.650257   3.044513   3.750537
    38  C    5.223188   4.252328   4.980591   4.001423   3.252773
    39  H    5.755023   4.921318   5.661233   4.848181   3.706779
    40  H    5.993257   5.011329   5.733086   4.556384   4.207405
    41  H    5.232398   4.029165   4.545890   3.840811   2.990685
    42  C    8.312162   8.788284   9.830145   8.885438   8.111552
    43  H    8.860339   9.199467  10.217606   9.319146   8.364396
    44  H    8.686496   9.131483  10.204619   9.101396   8.545382
    45  C    8.899433   9.577228  10.588246   9.772340   8.983256
    46  H    9.981628  10.637512  11.656122  10.804001  10.019870
    47  H    8.786235   9.486753  10.446178   9.801198   8.821256
    48  H    8.609333   9.420440  10.433640   9.592481   8.995130
                    6          7          8          9         10
     6  H    0.000000
     7  C    2.161866   0.000000
     8  H    2.333946   1.098653   0.000000
     9  C    2.819070   1.570605   2.148825   0.000000
    10  H    2.550295   2.152305   2.365004   1.102522   0.000000
    11  C    3.350020   2.600306   3.491393   1.555427   2.098676
    12  H    4.088445   2.966093   3.966036   2.214108   3.041827
    13  C    4.184119   2.581325   2.760056   1.541349   2.085754
    14  C    6.868750   5.160840   5.001954   4.396257   4.748179
    15  C    5.399051   3.641562   3.991670   2.612838   3.311188
    16  C    4.589020   3.204676   2.859180   2.541752   2.620038
    17  C    5.969495   4.483983   4.091053   3.851852   3.980342
    18  C    6.615710   4.806163   4.951800   3.897121   4.466438
    19  H    6.504501   5.193376   4.609001   4.704344   4.678210
    20  H    7.543704   5.691467   5.932900   4.775921   5.408279
    21  O    3.971053   3.142365   2.447760   2.824145   2.480096
    22  H    4.769633   4.035371   3.224124   3.789537   3.408213
    23  O    5.689356   4.018269   4.670294   2.981758   3.814468
    24  H    6.629934   4.874759   5.497197   3.931120   4.767531
    25  O    4.362166   3.848639   4.561963   2.450640   2.567103
    26  H    4.992021   4.098508   4.751125   2.614827   2.898764
    27  C    4.203003   4.425372   5.398011   3.939087   4.175765
    28  H    4.765584   4.600331   5.659636   4.236245   4.719691
    29  H    4.898334   5.084026   6.006474   4.284585   4.408830
    30  H    4.393655   5.037614   5.956797   4.753955   4.865878
    31  O    2.654241   3.613618   4.222028   3.045607   2.644310
    32  H    3.395924   4.037423   4.609037   3.090959   2.603054
    33  H    1.747880   2.191897   2.515685   3.516369   3.748806
    34  C    3.446537   1.537043   2.097206   2.690217   3.555888
    35  C    4.486553   2.575241   3.314488   3.186882   4.235442
    36  H    5.426874   3.556066   4.168755   4.254232   5.300303
    37  H    4.686302   2.876731   3.771756   2.963736   4.054964
    38  C    4.040477   2.565295   2.548593   3.964777   4.644572
    39  H    4.271354   2.812911   2.370557   4.090303   4.631256
    40  H    5.072525   3.521480   3.597933   4.807405   5.594251
    41  H    3.721837   2.845970   2.813204   4.394361   4.929480
    42  C    8.333038   6.617203   6.389918   5.902932   6.221461
    43  H    8.548143   6.867639   6.480669   6.346530   6.613730
    44  H    8.888668   7.024466   6.904448   6.366942   6.837149
    45  C    9.085217   7.566281   7.357550   6.620267   6.769537
    46  H   10.132491   8.580013   8.337851   7.687229   7.848951
    47  H    8.792041   7.476916   7.172773   6.502153   6.474497
    48  H    9.127181   7.622995   7.562055   6.522578   6.705212
                   11         12         13         14         15
    11  C    0.000000
    12  H    1.090764   0.000000
    13  C    2.662593   2.987927   0.000000
    14  C    5.364092   5.444280   2.856875   0.000000
    15  C    3.138580   3.051138   1.402693   2.432843   0.000000
    16  C    3.910782   4.364744   1.410896   2.421896   2.388176
    17  C    5.100037   5.413039   2.462681   1.395390   2.781094
    18  C    4.530478   4.415076   2.452194   1.397259   1.402264
    19  H    6.039288   6.425358   3.442327   2.148471   3.867548
    20  H    5.172281   4.885218   3.432882   2.145820   2.165441
    21  O    4.310872   4.977680   2.397986   3.660161   3.646987
    22  H    5.266651   5.921787   3.204251   3.769594   4.310458
    23  O    2.805034   2.332483   2.403658   3.658312   1.367334
    24  H    3.734486   3.137442   3.197717   3.757769   1.917265
    25  O    1.444159   2.054617   3.061185   5.376494   3.289180
    26  H    1.937700   2.223172   2.703341   4.643812   2.579163
    27  C    2.545123   2.675394   5.206204   7.875013   5.560911
    28  H    2.816169   2.498454   5.376705   7.927362   5.526810
    29  H    2.810457   3.008975   5.383532   7.896140   5.616542
    30  H    3.502032   3.704988   6.126342   8.864876   6.590980
    31  O    2.427677   3.342000   4.435864   7.190927   5.300553
    32  H    2.388745   3.351876   4.257582   6.851795   5.008621
    33  H    3.981085   4.311850   4.756919   7.317898   5.790069
    34  C    3.420115   3.279721   3.210411   5.316055   3.833135
    35  C    3.472175   2.915688   3.484967   5.339558   3.606834
    36  H    4.517103   3.855124   4.392499   5.848263   4.337927
    37  H    2.850407   2.067502   3.257588   5.198094   3.127338
    38  C    4.868987   4.786853   4.340055   6.034998   5.030327
    39  H    5.264211   5.316481   4.206135   5.570277   4.994412
    40  H    5.582701   5.312013   5.031587   6.424810   5.485033
    41  H    5.197965   5.212137   5.050782   6.974299   5.876051
    42  C    6.838168   6.864501   4.363667   1.506838   3.816397
    43  H    7.449800   7.527895   4.848816   2.141473   4.537451
    44  H    7.176777   7.036834   4.845027   2.141297   4.047144
    45  C    7.429041   7.551777   5.120864   2.508033   4.568217
    46  H    8.501885   8.585844   6.174353   3.454952   5.580948
    47  H    7.394164   7.673082   5.078978   2.779087   4.797309
    48  H    7.116352   7.186991   5.075602   2.779143   4.331639
                   16         17         18         19         20
    16  C    0.000000
    17  C    1.398869   0.000000
    18  C    2.767303   2.401265   0.000000
    19  H    2.162766   1.086531   3.386778   0.000000
    20  H    3.854267   3.383915   1.087123   4.280835   0.000000
    21  O    1.370895   2.380040   4.137570   2.616776   5.224284
    22  H    1.923548   2.379275   4.537530   2.186661   5.604242
    23  O    3.654479   4.146665   2.370061   5.232869   2.601324
    24  H    4.304171   4.534165   2.365083   5.601136   2.170161
    25  O    4.204072   5.230027   4.521732   6.158951   5.064323
    26  H    3.869426   4.697982   3.699265   5.677181   4.158534
    27  C    6.411810   7.636893   6.934200   8.552344   7.414775
    28  H    6.681482   7.834669   6.871041   8.807539   7.239399
    29  H    6.585608   7.735469   6.924650   8.659450   7.339147
    30  H    7.255617   8.535776   7.976086   9.404951   8.490295
    31  O    5.247455   6.580789   6.623524   7.303392   7.376755
    32  H    5.071444   6.318793   6.268001   7.057188   6.979445
    33  H    5.262920   6.548387   6.981310   7.121952   7.829244
    34  C    3.894902   4.901047   4.850068   5.648000   5.578176
    35  C    4.440440   5.273443   4.587485   6.151729   5.087736
    36  H    5.245843   5.907293   5.111354   6.742586   5.471754
    37  H    4.454853   5.289150   4.223216   6.270494   4.618327
    38  C    4.637944   5.491558   5.826987   6.026257   6.573158
    39  H    4.166182   4.890020   5.614086   5.269862   6.437219
    40  H    5.376944   6.063413   6.158355   6.608246   6.772792
    41  H    5.341782   6.315687   6.775169   6.799553   7.556390
    42  C    3.807430   2.522454   2.524444   2.719864   2.714684
    43  H    4.040649   2.668486   3.368139   2.472140   3.687548
    44  H    4.526171   3.365247   2.670969   3.689884   2.470075
    45  C    4.561670   3.337272   3.336963   3.397645   3.385349
    46  H    5.574561   4.282815   4.283032   4.190818   4.179553
    47  H    4.328395   3.156717   3.769320   3.008257   4.065679
    48  H    4.789634   3.770246   3.155096   4.078437   2.992518
                   21         22         23         24         25
    21  O    0.000000
    22  H    0.970490   0.000000
    23  O    4.796028   5.553753   0.000000
    24  H    5.544611   6.227234   0.972519   0.000000
    25  O    4.697030   5.569803   2.904428   3.743762   0.000000
    26  H    4.618875   5.436201   2.169180   2.936924   0.977006
    27  C    6.608031   7.562721   4.854479   5.602000   2.939217
    28  H    7.032002   8.000421   4.638201   5.266276   3.376129
    29  H    6.857509   7.784615   4.856182   5.555534   2.629704
    30  H    7.298462   8.239015   5.934362   6.688692   3.908986
    31  O    5.030702   5.906316   5.170635   6.104382   2.713026
    32  H    4.977789   5.823673   4.872714   5.780418   2.126974
    33  H    4.836665   5.612832   5.960027   6.798498   5.299378
    34  C    4.134959   4.922268   4.053200   4.707505   4.754866
    35  C    5.016017   5.816114   3.458904   3.929786   4.729121
    36  H    5.863831   6.589383   4.147750   4.411993   5.737034
    37  H    5.186418   6.042104   2.632661   3.109994   3.973540
    38  C    4.634396   5.230438   5.424545   5.997614   6.198632
    39  H    4.049208   4.489834   5.648574   6.216916   6.475687
    40  H    5.536220   6.086326   5.775009   6.202844   6.914004
    41  H    5.110528   5.709929   6.209348   6.852985   6.577976
    42  C    4.901869   4.784779   4.893119   4.766553   6.761710
    43  H    4.929286   4.633189   5.712053   5.656120   7.494976
    44  H    5.714629   5.688496   4.917442   4.590367   7.152116
    45  C    5.564666   5.383354   5.547356   5.408624   7.062002
    46  H    6.533591   6.268289   6.514985   6.284277   8.136099
    47  H    5.127351   4.836936   5.879857   5.907405   6.972075
    48  H    5.894044   5.865637   5.102955   4.885129   6.598409
                   26         27         28         29         30
    26  H    0.000000
    27  C    3.744670   0.000000
    28  H    3.983567   1.094816   0.000000
    29  H    3.421542   1.095639   1.777639   0.000000
    30  H    4.773482   1.096199   1.776842   1.752236   0.000000
    31  O    3.645374   2.381836   3.352481   2.632331   2.639850
    32  H    3.057509   2.643480   3.608646   2.497087   3.091124
    33  H    5.820784   4.655717   4.864826   5.581081   4.810703
    34  C    4.829993   5.075812   4.917788   5.827527   5.718607
    35  C    4.662552   4.996029   4.576774   5.691211   5.749686
    36  H    5.606934   5.868440   5.318185   6.587102   6.581826
    37  H    3.852129   4.355062   3.867798   4.926548   5.224866
    38  C    6.279570   6.386893   6.239842   7.212327   6.896532
    39  H    6.487014   7.047781   7.004604   7.793589   7.595777
    40  H    6.916297   7.014743   6.713847   7.855883   7.541484
    41  H    6.807356   6.377937   6.296308   7.289581   6.721217
    42  C    5.966006   9.325135   9.342406   9.297627  10.332934
    43  H    6.769845   9.979484  10.022659  10.028261  10.948624
    44  H    6.302961   9.598715   9.493403   9.587267  10.637089
    45  C    6.236288   9.839526   9.946909   9.651703  10.850634
    46  H    7.293043  10.907984  10.986284  10.713156  11.927279
    47  H    6.233040   9.802319  10.027866   9.596435  10.765548
    48  H    5.717202   9.410515   9.493463   9.129925  10.445468
                   31         32         33         34         35
    31  O    0.000000
    32  H    0.980055   0.000000
    33  H    3.927688   4.739521   0.000000
    34  C    4.872552   5.311308   2.667370   0.000000
    35  C    5.357227   5.692923   3.712412   1.342751   0.000000
    36  H    6.401589   6.757858   4.425353   2.119531   1.086624
    37  H    4.987824   5.195442   4.204699   2.137535   1.079315
    38  C    6.013935   6.547714   2.892743   1.512875   2.459169
    39  H    6.369098   6.826993   3.443139   2.152724   3.175741
    40  H    6.918441   7.439696   3.789681   2.178356   2.579648
    41  H    5.930579   6.595384   2.294360   2.159927   3.182146
    42  C    8.668363   8.286170   8.747068   6.661632   6.616682
    43  H    9.171373   8.858861   8.906553   6.880903   6.976788
    44  H    9.194850   8.833843   9.142898   6.853381   6.612360
    45  C    9.096313   8.572019   9.725125   7.819433   7.786232
    46  H   10.190708   9.663701  10.728876   8.756584   8.691129
    47  H    8.813923   8.269670   9.585899   7.922973   8.056401
    48  H    8.838909   8.242884   9.808450   7.899083   7.739829
                   36         37         38         39         40
    36  H    0.000000
    37  H    1.830143   0.000000
    38  C    2.662443   3.473861   0.000000
    39  H    3.420041   4.121145   1.095080   0.000000
    40  H    2.310266   3.658718   1.095466   1.764720   0.000000
    41  H    3.417150   4.135713   1.093868   1.777737   1.763733
    42  C    6.980316   6.502509   7.237821   6.690011   7.510349
    43  H    7.287631   7.021576   7.240141   6.557918   7.497220
    44  H    6.832731   6.472504   7.427359   6.966437   7.551411
    45  C    8.248094   7.537110   8.517239   7.979809   8.877134
    46  H    9.074062   8.471377   9.375030   8.798286   9.668856
    47  H    8.619661   7.836810   8.601756   8.002762   9.078307
    48  H    8.234756   7.343847   8.761801   8.344515   9.123794
                   41         42         43         44         45
    41  H    0.000000
    42  C    8.218304   0.000000
    43  H    8.202419   1.096855   0.000000
    44  H    8.464327   1.096850   1.752070   0.000000
    45  C    9.451210   1.521040   2.155011   2.155068   0.000000
    46  H   10.334051   2.159319   2.480213   2.480388   1.094577
    47  H    9.462080   2.173018   2.520142   3.074620   1.095299
    48  H    9.692612   2.173049   3.074598   2.520142   1.095298
                   46         47         48
    46  H    0.000000
    47  H    1.772191   0.000000
    48  H    1.772178   1.770537   0.000000
 Stoichiometry    C18H26O4
 Framework group  C1[X(C18H26O4)]
 Deg. of freedom   138
 Full point group                 C1      NOp   1
 Largest Abelian subgroup         C1      NOp   1
 Largest concise Abelian subgroup C1      NOp   1
                         Standard orientation:                         
 ---------------------------------------------------------------------
 Center     Atomic      Atomic             Coordinates (Angstroms)
 Number     Number       Type             X           Y           Z
 ---------------------------------------------------------------------
      1          6           0       -3.107981   -1.091270   -0.202280
      2          6           0       -3.671192    0.326255   -0.080159
      3          1           0       -4.689204    0.358303   -0.488757
      4          1           0       -3.737640    0.620615    0.974039
      5          6           0       -2.826056    1.339643   -0.846349
      6          1           0       -2.863013    1.101243   -1.917609
      7          6           0       -1.350522    1.358877   -0.394565
      8          1           0       -0.828783    1.954982   -1.155804
      9          6           0       -0.742255   -0.086054   -0.489369
     10          1           0       -0.817493   -0.376881   -1.550177
     11          6           0       -1.619785   -1.151482    0.227676
     12          1           0       -1.587150   -1.054382    1.313619
     13          6           0        0.778396   -0.092447   -0.237697
     14          6           0        3.610882    0.031964    0.113413
     15          6           0        1.406325   -0.644790    0.888433
     16          6           0        1.628519    0.493917   -1.198996
     17          6           0        3.015740    0.561764   -1.032113
     18          6           0        2.795763   -0.582923    1.067262
     19          1           0        3.639816    1.022844   -1.792695
     20          1           0        3.256753   -1.025060    1.946944
     21          8           0        1.083161    1.001060   -2.349970
     22          1           0        1.793697    1.329183   -2.923839
     23          8           0        0.672344   -1.300345    1.837707
     24          1           0        1.239591   -1.476784    2.607703
     25          8           0       -1.141390   -2.473085   -0.104135
     26          1           0       -0.258558   -2.528013    0.310751
     27          6           0       -3.962412   -2.067979    0.614699
     28          1           0       -3.932766   -1.831391    1.683235
     29          1           0       -3.627413   -3.102194    0.478321
     30          1           0       -5.006899   -2.039518    0.283204
     31          8           0       -3.207556   -1.507993   -1.573851
     32          1           0       -2.598618   -2.273015   -1.640520
     33          1           0       -3.282651    2.331355   -0.748930
     34          6           0       -1.190504    2.174660    0.898259
     35          6           0       -1.042883    1.687972    2.140967
     36          1           0       -0.920307    2.351009    2.993088
     37          1           0       -1.032570    0.633505    2.370995
     38          6           0       -1.166156    3.673696    0.695554
     39          1           0       -0.345419    3.952175    0.026195
     40          1           0       -1.019880    4.217454    1.635222
     41          1           0       -2.106342    4.023563    0.259445
     42          6           0        5.105638    0.083199    0.296825
     43          1           0        5.503652    0.993020   -0.168903
     44          1           0        5.343745    0.160989    1.364689
     45          6           0        5.790841   -1.139048   -0.294928
     46          1           0        6.873481   -1.074479   -0.147214
     47          1           0        5.599317   -1.220266   -1.370289
     48          1           0        5.438032   -2.061070    0.179498
 ---------------------------------------------------------------------
 Rotational constants (GHZ):      0.4645700      0.1850729      0.1661550
 Standard basis: 6-31+G(d,p) (6D, 7F)
 There are   548 symmetry adapted basis functions of A   symmetry.
 Integral buffers will be    131072 words long.
 Raffenetti 2 integral format.
 Two-electron integral symmetry is turned on.
   548 basis functions,   886 primitive gaussians,   548 cartesian basis functions
    83 alpha electrons       83 beta electrons
       nuclear repulsion energy      1975.3759269032 Hartrees.
 NAtoms=   48 NActive=   48 NUniq=   48 SFac= 1.00D+00 NAtFMM=   60 NAOKFM=F Big=F
 ------------------------------------------------------------------------------
 Polarizable Continuum Model (PCM)
 =================================
 Model                : PCM.
 Atomic radii         : UFF (Universal Force Field).
 Polarization charges : Total charges.
 Charge compensation  : None.
 Solution method      : Matrix inversion.
 Cavity type          : Scaled VdW (van der Waals Surface) (Alpha=1.100).
 Cavity algorithm     : GePol (No added spheres)
                        Default sphere list used, NSphG=   48.
                        Lebedev-Laikov grids with approx.  5.0 points / Ang**2.
                        Smoothing algorithm: Karplus/York (Gamma=1.0000).
                        Polarization charges: spherical gaussians, with
                                              point-specific exponents (IZeta= 3).
                        Self-potential: point-specific (ISelfS= 7).
                        Self-field    : sphere-specific E.n sum rule (ISelfD= 2).
 Solvent              : Water, Eps=  78.355300 Eps(inf)=   1.777849
 ------------------------------------------------------------------------------
 One-electron integrals computed using PRISM.
 NBasis=   548 RedAO= T  NBF=   548
 NBsUse=   545 1.00D-06 NBFU=   545
 Harris functional with IExCor=  908 diagonalized for initial guess.
 ExpMin= 4.38D-02 ExpMax= 5.48D+03 ExpMxC= 8.25D+02 IAcc=2 IRadAn=         4 AccDes= 0.00D+00
 HarFok:  IExCor=  908 AccDes= 0.00D+00 IRadAn=         4 IDoV= 1
 ScaDFX=  1.000000  1.000000  1.000000  1.000000
 FoFCou: FMM=F IPFlag=           0 FMFlag=      100000 FMFlg1=           0
         NFxFlg=           0 DoJE=T BraDBF=F KetDBF=T FulRan=T
         Omega=  0.000000  0.000000  1.000000  0.000000  0.000000 ICntrl=     500 IOpCl=  0
         NMat0=    1 NMatS0=    1 NMatT0=    0 NMatD0=    1 NMtDS0=    0 NMtDT0=    0
         I1Cent=           4 NGrid=           0.
 Petite list used in FoFCou.
 Initial guess orbital symmetries:
       Occupied  (A) (A) (A) (A) (A) (A) (A) (A) (A) (A) (A) (A)
                 (A) (A) (A) (A) (A) (A) (A) (A) (A) (A) (A) (A)
                 (A) (A) (A) (A) (A) (A) (A) (A) (A) (A) (A) (A)
                 (A) (A) (A) (A) (A) (A) (A) (A) (A) (A) (A) (A)
                 (A) (A) (A) (A) (A) (A) (A) (A) (A) (A) (A) (A)
                 (A) (A) (A) (A) (A) (A) (A) (A) (A) (A) (A) (A)
                 (A) (A) (A) (A) (A) (A) (A) (A) (A) (A) (A)
       Virtual   (A) (A) (A) (A) (A) (A) (A) (A) (A) (A) (A) (A)
                 (A) (A) (A) (A) (A) (A) (A) (A) (A) (A) (A) (A)
                 (A) (A) (A) (A) (A) (A) (A) (A) (A) (A) (A) (A)
                 (A) (A) (A) (A) (A) (A) (A) (A) (A) (A) (A) (A)
                 (A) (A) (A) (A) (A) (A) (A) (A) (A) (A) (A) (A)
                 (A) (A) (A) (A) (A) (A) (A) (A) (A) (A) (A) (A)
                 (A) (A) (A) (A) (A) (A) (A) (A) (A) (A) (A) (A)
                 (A) (A) (A) (A) (A) (A) (A) (A) (A) (A) (A) (A)
                 (A) (A) (A) (A) (A) (A) (A) (A) (A) (A) (A) (A)
                 (A) (A) (A) (A) (A) (A) (A) (A) (A) (A) (A) (A)
                 (A) (A) (A) (A) (A) (A) (A) (A) (A) (A) (A) (A)
                 (A) (A) (A) (A) (A) (A) (A) (A) (A) (A) (A) (A)
                 (A) (A) (A) (A) (A) (A) (A) (A) (A) (A) (A) (A)
                 (A) (A) (A) (A) (A) (A) (A) (A) (A) (A) (A) (A)
                 (A) (A) (A) (A) (A) (A) (A) (A) (A) (A) (A) (A)
                 (A) (A) (A) (A) (A) (A) (A) (A) (A) (A) (A) (A)
                 (A) (A) (A) (A) (A) (A) (A) (A) (A) (A) (A) (A)
                 (A) (A) (A) (A) (A) (A) (A) (A) (A) (A) (A) (A)
                 (A) (A) (A) (A) (A) (A) (A) (A) (A) (A) (A) (A)
                 (A) (A) (A) (A) (A) (A) (A) (A) (A) (A) (A) (A)
                 (A) (A) (A) (A) (A) (A) (A) (A) (A) (A) (A) (A)
                 (A) (A) (A) (A) (A) (A) (A) (A) (A) (A) (A) (A)
                 (A) (A) (A) (A) (A) (A) (A) (A) (A) (A) (A) (A)
                 (A) (A) (A) (A) (A) (A) (A) (A) (A) (A) (A) (A)
                 (A) (A) (A) (A) (A) (A) (A) (A) (A) (A) (A) (A)
                 (A) (A) (A) (A) (A) (A) (A) (A) (A) (A) (A) (A)
                 (A) (A) (A) (A) (A) (A) (A) (A) (A) (A) (A) (A)
                 (A) (A) (A) (A) (A) (A) (A) (A) (A) (A) (A) (A)
                 (A) (A) (A) (A) (A) (A) (A) (A) (A) (A) (A) (A)
                 (A) (A) (A) (A) (A) (A) (A) (A) (A) (A) (A) (A)
                 (A) (A) (A) (A) (A) (A) (A) (A) (A) (A) (A) (A)
                 (A) (A) (A) (A) (A) (A) (A) (A) (A) (A) (A) (A)
                 (A) (A) (A) (A) (A) (A) (A) (A) (A) (A) (A) (A)
                 (A) (A) (A) (A) (A) (A) (A) (A) (A) (A) (A) (A)
                 (A) (A) (A) (A) (A) (A) (A) (A) (A) (A) (A) (A)
                 (A) (A) (A) (A) (A) (A) (A) (A) (A) (A) (A) (A)
                 (A) (A) (A) (A) (A) (A) (A) (A) (A) (A) (A) (A)
                 (A) (A) (A) (A) (A) (A) (A) (A) (A) (A) (A) (A)
                 (A) (A) (A) (A) (A) (A)
 The electronic state of the initial guess is 1-A.
 Requested convergence on RMS density matrix=1.00D-08 within 128 cycles.
 Requested convergence on MAX density matrix=1.00D-06.
 Requested convergence on             energy=1.00D-06.
 No special actions if energy rises.
 CoulSu:  requested number of processors reduced to:   2 ShMem   1 Linda.
 CoulSu:  requested number of processors reduced to:   2 ShMem   1 Linda.
 Error on total polarization charges =  0.01935
 SCF Done:  E(RmPW1PW91) =  -1002.30494399     A.U. after   14 cycles
             Convg  =    0.3693D-08             -V/T =  2.0095
 Range of M.O.s used for correlation:     1   545
 NBasis=   548 NAE=    83 NBE=    83 NFC=     0 NFV=     0
 NROrb=    545 NOA=    83 NOB=    83 NVA=   462 NVB=   462

 **** Warning!!: The largest alpha MO coefficient is  0.11771622D+03

 NEqPCM:  Using equilibrium solvation (IEInf=0, Eps=  78.3553, EpsInf=   1.7778)
          Differentiating once with respect to magnetic field using GIAOs.
          Electric field/nuclear overlap derivatives assumed to be zero.
 FoFCou: FMM=F IPFlag=           0 FMFlag=    10101102 FMFlg1=           0
         NFxFlg=    40000000 DoJE=F BraDBF=F KetDBF=T FulRan=T
         Omega=  0.000000  0.000000  1.000000  0.000000  0.000000 ICntrl=    6100 IOpCl=  0
         NMat0=    1 NMatS0=    1 NMatT0=    0 NMatD0=    1 NMtDS0=    0 NMtDT0=    0
         I1Cent=           7 NGrid=        3027.
 Symmetry not used in FoFCou.
          There are     3 degrees of freedom in the 1st order CPHF.  IDoFFX=0.
      3 vectors produced by pass  0 Test12= 1.28D-12 3.33D-08 XBig12= 5.57D+02 3.16D+00.
 AX will form     3 AO Fock derivatives at one time.
      3 vectors produced by pass  1 Test12= 1.28D-12 3.33D-08 XBig12= 1.34D+00 4.34D-01.
      3 vectors produced by pass  2 Test12= 1.28D-12 3.33D-08 XBig12= 5.93D-03 3.65D-02.
      3 vectors produced by pass  3 Test12= 1.28D-12 3.33D-08 XBig12= 3.01D-05 1.52D-03.
      3 vectors produced by pass  4 Test12= 1.28D-12 3.33D-08 XBig12= 8.64D-08 6.88D-05.
      3 vectors produced by pass  5 Test12= 1.28D-12 3.33D-08 XBig12= 2.69D-10 4.03D-06.
      3 vectors produced by pass  6 Test12= 1.28D-12 3.33D-08 XBig12= 1.29D-12 2.70D-07.
 Inverted reduced A of dimension    21 with in-core refinement.
 Calculating GIAO nuclear magnetic shielding tensors.
 SCF GIAO Magnetic shielding tensor (ppm):
      1  C    Isotropic =   122.8295   Anisotropy =    41.1391
   XX=   107.3591   YX=     3.6505   ZX=     4.4869
   XY=     3.7467   YY=   112.9034   ZY=    10.2547
   XZ=     7.8701   YZ=     1.6728   ZZ=   148.2260
   Eigenvalues:   105.2824   112.9506   150.2556
      2  C    Isotropic =   164.0806   Anisotropy =    33.5577
   XX=   157.5622   YX=    -4.7502   ZX=    -0.7420
   XY=    -2.5026   YY=   185.7308   ZY=    -2.1623
   XZ=     2.4101   YZ=    -3.9489   ZZ=   148.9489
   Eigenvalues:   148.6635   157.1259   186.4525
      3  H    Isotropic =    29.9873   Anisotropy =     9.6122
   XX=    36.2185   YX=     0.1276   ZX=     1.2859
   XY=    -1.0572   YY=    28.6048   ZY=    -1.5545
   XZ=     1.0865   YZ=    -1.5382   ZZ=    25.1387
   Eigenvalues:    24.4724    29.0941    36.3955
      4  H    Isotropic =    29.7126   Anisotropy =     6.0125
   XX=    28.9945   YX=     1.2892   ZX=    -2.9912
   XY=    -0.5159   YY=    29.3410   ZY=     2.3506
   XZ=    -3.0352   YZ=     2.3079   ZZ=    30.8023
   Eigenvalues:    25.8310    29.5860    33.7209
      5  C    Isotropic =   169.6881   Anisotropy =    20.3511
   XX=   182.4100   YX=     1.1068   ZX=     4.9387
   XY=     4.4062   YY=   166.5099   ZY=    -1.7677
   XZ=     1.2953   YZ=     0.4382   ZZ=   160.1446
   Eigenvalues:   159.5559   166.2530   183.2555
      6  H    Isotropic =    29.3414   Anisotropy =     7.4863
   XX=    27.4830   YX=     1.0186   ZX=     2.6396
   XY=     0.3931   YY=    27.2539   ZY=    -2.2748
   XZ=     1.6801   YZ=    -1.3633   ZZ=    33.2874
   Eigenvalues:    25.6288    28.0632    34.3323
      7  C    Isotropic =   149.0902   Anisotropy =    20.3964
   XX=   149.2100   YX=     1.4738   ZX=     4.6104
   XY=    -4.5890   YY=   153.2041   ZY=     8.0963
   XZ=    -2.3047   YZ=    17.8590   ZZ=   144.8566
   Eigenvalues:   135.1546   149.4283   162.6878
      8  H    Isotropic =    28.2097   Anisotropy =     6.8503
   XX=    29.1903   YX=     1.0056   ZX=    -4.0397
   XY=    -0.4428   YY=    29.7080   ZY=    -2.4805
   XZ=    -4.3295   YZ=    -1.9967   ZZ=    25.7308
   Eigenvalues:    22.5152    29.3373    32.7765
      9  C    Isotropic =   148.9362   Anisotropy =    29.2618
   XX=   143.4813   YX=     2.8944   ZX=    -3.3694
   XY=    -8.5443   YY=   168.1067   ZY=    -0.2293
   XZ=     1.1381   YZ=    -1.5530   ZZ=   135.2206
   Eigenvalues:   135.0237   143.3409   168.4440
     10  H    Isotropic =    27.9530   Anisotropy =     5.1319
   XX=    30.1588   YX=     1.4593   ZX=    -1.5373
   XY=     3.2598   YY=    24.7405   ZY=     0.2988
   XZ=    -0.4895   YZ=     0.0453   ZZ=    28.9598
   Eigenvalues:    23.8041    28.6807    31.3743
     11  C    Isotropic =   122.0209   Anisotropy =    34.6232
   XX=   120.3636   YX=    -8.1975   ZX=    -4.0092
   XY=   -11.9346   YY=   139.0540   ZY=     5.0428
   XZ=    -3.6623   YZ=     9.0363   ZZ=   106.6453
   Eigenvalues:   104.9442   116.0156   145.1031
     12  H    Isotropic =    26.4629   Anisotropy =     3.3370
   XX=    26.6950   YX=     0.5442   ZX=     0.6890
   XY=     0.3044   YY=    25.1827   ZY=     0.7848
   XZ=     2.1841   YZ=    -0.0093   ZZ=    27.5109
   Eigenvalues:    25.0717    25.6294    28.6875
     13  C    Isotropic =    87.9640   Anisotropy =   123.2108
   XX=    47.6375   YX=   -11.4773   ZX=    -3.0635
   XY=   -13.5564   YY=   142.1175   ZY=    50.2701
   XZ=    -8.4199   YZ=    49.6678   ZZ=    74.1369
   Eigenvalues:    45.7801    48.0072   170.1045
     14  C    Isotropic =    50.2598   Anisotropy =   188.8315
   XX=   -29.3740   YX=   -19.7356   ZX=   -15.7499
   XY=   -16.5620   YY=   137.3186   ZY=    69.5901
   XZ=   -14.1132   YZ=    68.0916   ZZ=    42.8349
   Eigenvalues:   -32.5227     7.1546   176.1475
     15  C    Isotropic =    44.2566   Anisotropy =   118.8556
   XX=    25.5445   YX=   -28.8703   ZX=    27.5712
   XY=   -23.3871   YY=    87.9926   ZY=    56.7309
   XZ=    18.4640   YZ=    61.7633   ZZ=    19.2326
   Eigenvalues:   -33.5515    42.8275   123.4936
     16  C    Isotropic =    43.8779   Anisotropy =   123.4358
   XX=    33.4406   YX=     2.8799   ZX=   -28.4743
   XY=     0.4523   YY=    95.8342   ZY=    61.2221
   XZ=   -19.1026   YZ=    59.0817   ZZ=     2.3587
   Eigenvalues:   -34.3382    39.8034   126.1684
     17  C    Isotropic =    90.4413   Anisotropy =   100.4058
   XX=    71.4821   YX=   -21.6991   ZX=    27.3664
   XY=   -16.1878   YY=   130.6234   ZY=    48.8694
   XZ=    31.6500   YZ=    48.0878   ZZ=    69.2183
   Eigenvalues:    19.1368    94.8085   157.3785
     18  C    Isotropic =    90.2418   Anisotropy =    97.9547
   XX=    81.7615   YX=     8.8895   ZX=   -29.0359
   XY=    15.4295   YY=   126.4932   ZY=    53.0400
   XZ=   -25.8461   YZ=    50.6917   ZZ=    62.4708
   Eigenvalues:    19.2339    95.9466   155.5450
     19  H    Isotropic =    25.0908   Anisotropy =     7.4081
   XX=    28.5171   YX=    -1.0857   ZX=     2.2629
   XY=    -1.1647   YY=    22.2315   ZY=    -2.2949
   XZ=     2.3447   YZ=    -1.7332   ZZ=    24.5238
   Eigenvalues:    21.0547    24.1882    30.0295
     20  H    Isotropic =    25.2327   Anisotropy =     7.7649
   XX=    29.6868   YX=     1.0787   ZX=    -1.6908
   XY=     0.8458   YY=    21.7886   ZY=    -1.1184
   XZ=    -1.8402   YZ=    -1.5936   ZZ=    24.2228
   Eigenvalues:    21.1802    24.1087    30.4093
     21  O    Isotropic =   224.1870   Anisotropy =    49.8563
   XX=   192.4189   YX=    -7.6409   ZX=    10.1994
   XY=   -24.2886   YY=   230.7863   ZY=    19.1652
   XZ=    28.7299   YZ=     4.6642   ZZ=   249.3557
   Eigenvalues:   179.4565   235.6799   257.4245
     22  H    Isotropic =    26.5076   Anisotropy =    15.4334
   XX=    29.7608   YX=     2.5871   ZX=    -4.5760
   XY=     3.1050   YY=    20.4030   ZY=    -5.0469
   XZ=    -5.6308   YZ=    -5.9164   ZZ=    29.3589
   Eigenvalues:    17.7874    24.9389    36.7965
     23  O    Isotropic =   226.9852   Anisotropy =    42.5129
   XX=   209.5441   YX=     1.8557   ZX=   -19.1490
   XY=    21.6075   YY=   246.5072   ZY=    -5.7874
   XZ=   -30.4488   YZ=    -1.3810   ZZ=   224.9043
   Eigenvalues:   190.2792   235.3493   255.3271
     24  H    Isotropic =    26.4832   Anisotropy =    15.7435
   XX=    27.7831   YX=    -0.4132   ZX=     4.7123
   XY=    -0.9476   YY=    19.7414   ZY=    -5.3026
   XZ=     6.1354   YZ=    -5.1865   ZZ=    31.9252
   Eigenvalues:    17.6097    24.8611    36.9789
     25  O    Isotropic =   291.4959   Anisotropy =    29.7950
   XX=   292.5794   YX=    -9.7691   ZX=     9.7484
   XY=    -3.3944   YY=   308.1347   ZY=    -0.6170
   XZ=    21.0040   YZ=     1.8150   ZZ=   273.7736
   Eigenvalues:   264.8238   298.3047   311.3592
     26  H    Isotropic =    28.5949   Anisotropy =    18.9425
   XX=    36.8953   YX=    -2.3729   ZX=     9.0375
   XY=    -0.6193   YY=    27.2760   ZY=    -0.3376
   XZ=     9.0867   YZ=     0.7634   ZZ=    21.6132
   Eigenvalues:    17.3320    27.2294    41.2232
     27  C    Isotropic =   167.1720   Anisotropy =    46.4846
   XX=   160.6928   YX=    18.9811   ZX=   -14.3083
   XY=    19.6371   YY=   164.0281   ZY=   -15.2207
   XZ=    -8.8412   YZ=   -14.3340   ZZ=   176.7950
   Eigenvalues:   142.8938   160.4604   198.1617
     28  H    Isotropic =    30.6324   Anisotropy =     9.6321
   XX=    28.4889   YX=     1.6673   ZX=    -2.9731
   XY=     1.5775   YY=    27.5928   ZY=    -2.2619
   XZ=    -2.2252   YZ=    -0.8106   ZZ=    35.8154
   Eigenvalues:    26.3396    28.5038    37.0538
     29  H    Isotropic =    29.8222   Anisotropy =     8.4624
   XX=    29.3544   YX=     2.0282   ZX=    -1.1235
   XY=     1.0739   YY=    34.5481   ZY=    -1.3360
   XZ=    -1.0672   YZ=    -2.6086   ZZ=    25.5640
   Eigenvalues:    25.0096    28.9932    35.4638
     30  H    Isotropic =    30.5026   Anisotropy =     9.2616
   XX=    35.6440   YX=     2.3156   ZX=     0.4176
   XY=     3.4394   YY=    28.6014   ZY=    -0.4537
   XZ=    -0.3509   YZ=    -1.2387   ZZ=    27.2624
   Eigenvalues:    26.5918    28.2390    36.6770
     31  O    Isotropic =   285.7151   Anisotropy =    30.9109
   XX=   276.8739   YX=   -12.8942   ZX=   -11.9134
   XY=   -14.6451   YY=   289.2830   ZY=     2.7540
   XZ=    -8.8120   YZ=     9.8169   ZZ=   290.9884
   Eigenvalues:   266.6164   284.2065   306.3224
     32  H    Isotropic =    28.8281   Anisotropy =    14.4186
   XX=    28.6509   YX=    -7.6031   ZX=     2.8028
   XY=    -7.3396   YY=    31.5404   ZY=     5.1920
   XZ=     1.1601   YZ=     5.3350   ZZ=    26.2930
   Eigenvalues:    19.0159    29.0280    38.4405
     33  H    Isotropic =    30.2132   Anisotropy =     9.9966
   XX=    30.5114   YX=    -2.9718   ZX=     2.1551
   XY=    -2.5739   YY=    35.3604   ZY=    -1.4233
   XZ=     1.0796   YZ=    -0.9735   ZZ=    24.7680
   Eigenvalues:    24.3224    29.4397    36.8777
     34  C    Isotropic =    46.5775   Anisotropy =   171.9220
   XX=   159.2929   YX=   -14.4920   ZX=   -15.6178
   XY=   -10.0472   YY=   -51.4769   ZY=   -37.9042
   XZ=   -12.6463   YZ=   -31.2439   ZZ=    31.9163
   Eigenvalues:   -65.1396    43.6799   161.1921
     35  C    Isotropic =    86.7717   Anisotropy =   111.7546
   XX=   159.9334   YX=    -3.1467   ZX=    -9.6338
   XY=    -9.0296   YY=    14.0862   ZY=   -33.6603
   XZ=   -10.3650   YZ=   -42.6826   ZZ=    86.2956
   Eigenvalues:    -2.9117   101.9522   161.2748
     36  H    Isotropic =    26.4238   Anisotropy =     4.4499
   XX=    25.0640   YX=    -0.1174   ZX=     0.6805
   XY=    -1.3428   YY=    24.8985   ZY=    -1.0066
   XZ=     0.2202   YZ=     0.3803   ZZ=    29.3089
   Eigenvalues:    24.2455    25.6354    29.3904
     37  H    Isotropic =    26.2560   Anisotropy =     4.8070
   XX=    25.0835   YX=    -1.2842   ZX=     0.4734
   XY=    -2.0392   YY=    24.2558   ZY=     1.5195
   XZ=     0.0763   YZ=    -1.8302   ZZ=    29.4287
   Eigenvalues:    22.9569    26.3505    29.4607
     38  C    Isotropic =   168.9337   Anisotropy =    44.0613
   XX=   144.3458   YX=     1.6624   ZX=    -4.1497
   XY=     3.8002   YY=   197.9554   ZY=    -1.5242
   XZ=    -3.3905   YZ=    -3.4561   ZZ=   164.5000
   Eigenvalues:   143.5704   164.9229   198.3079
     39  H    Isotropic =    30.1527   Anisotropy =     7.4431
   XX=    29.7786   YX=     2.6510   ZX=    -2.8319
   XY=     2.2313   YY=    32.6926   ZY=    -2.0976
   XZ=    -3.6219   YZ=    -0.1490   ZZ=    27.9870
   Eigenvalues:    25.4790    29.8644    35.1148
     40  H    Isotropic =    29.9920   Anisotropy =     8.6384
   XX=    26.0177   YX=     0.1286   ZX=     0.4262
   XY=     0.2180   YY=    32.9141   ZY=     4.8615
   XZ=     0.4382   YZ=     2.4123   ZZ=    31.0442
   Eigenvalues:    25.9765    28.2486    35.7509
     41  H    Isotropic =    29.5948   Anisotropy =     7.9841
   XX=    29.7838   YX=    -2.5316   ZX=     2.5811
   XY=    -3.5638   YY=    32.7845   ZY=    -0.7000
   XZ=     2.2901   YZ=     0.4661   ZZ=    26.2161
   Eigenvalues:    24.7429    29.1240    34.9175
     42  C    Isotropic =   164.4239   Anisotropy =    29.7954
   XX=   183.9702   YX=     6.2240   ZX=     6.1549
   XY=    -5.4500   YY=   153.3174   ZY=    -2.5365
   XZ=    -0.1710   YZ=    -1.4835   ZZ=   155.9839
   Eigenvalues:   152.1380   156.8461   184.2875
     43  H    Isotropic =    29.2942   Anisotropy =     7.3574
   XX=    30.3569   YX=     2.3269   ZX=    -1.0631
   XY=     2.5830   YY=    31.9326   ZY=    -2.6659
   XZ=     0.7055   YZ=    -2.0046   ZZ=    25.5930
   Eigenvalues:    24.7528    28.9306    34.1991
     44  H    Isotropic =    29.2720   Anisotropy =     7.2874
   XX=    29.9070   YX=    -0.2218   ZX=     2.2371
   XY=     1.3363   YY=    25.1218   ZY=     2.3560
   XZ=     1.5210   YZ=     1.4051   ZZ=    32.7871
   Eigenvalues:    24.6824    29.0033    34.1302
     45  C    Isotropic =   177.0246   Anisotropy =    29.9210
   XX=   182.7044   YX=    -7.7927   ZX=    -2.6358
   XY=   -18.1184   YY=   180.4652   ZY=     5.9600
   XZ=    -8.4406   YZ=     6.5797   ZZ=   167.9044
   Eigenvalues:   165.3060   168.7959   196.9720
     46  H    Isotropic =    30.2999   Anisotropy =    12.0300
   XX=    37.7256   YX=    -1.5805   ZX=     0.3435
   XY=    -3.5581   YY=    27.0584   ZY=     0.3713
   XZ=    -0.7856   YZ=     0.4506   ZZ=    26.1158
   Eigenvalues:    25.8943    26.6855    38.3199
     47  H    Isotropic =    30.6217   Anisotropy =     7.4744
   XX=    29.1540   YX=    -1.8379   ZX=    -0.8453
   XY=    -2.7775   YY=    28.0251   ZY=     2.5452
   XZ=    -1.0848   YZ=     1.3379   ZZ=    34.6859
   Eigenvalues:    26.1025    30.1579    35.6046
     48  H    Isotropic =    30.6066   Anisotropy =     7.4573
   XX=    29.4318   YX=    -0.8826   ZX=    -1.3122
   XY=    -1.5531   YY=    34.7112   ZY=    -3.2202
   XZ=    -1.8853   YZ=    -1.7414   ZZ=    27.6769
   Eigenvalues:    25.8710    30.3708    35.5782
 End of Minotr Frequency-dependent properties file   721 does not exist.
 End of Minotr Frequency-dependent properties file   722 does not exist.

 **********************************************************************

            Population analysis using the SCF density.

 **********************************************************************

 Orbital symmetries:
       Occupied  (A) (A) (A) (A) (A) (A) (A) (A) (A) (A) (A) (A)
                 (A) (A) (A) (A) (A) (A) (A) (A) (A) (A) (A) (A)
                 (A) (A) (A) (A) (A) (A) (A) (A) (A) (A) (A) (A)
                 (A) (A) (A) (A) (A) (A) (A) (A) (A) (A) (A) (A)
                 (A) (A) (A) (A) (A) (A) (A) (A) (A) (A) (A) (A)
                 (A) (A) (A) (A) (A) (A) (A) (A) (A) (A) (A) (A)
                 (A) (A) (A) (A) (A) (A) (A) (A) (A) (A) (A)
       Virtual   (A) (A) (A) (A) (A) (A) (A) (A) (A) (A) (A) (A)
                 (A) (A) (A) (A) (A) (A) (A) (A) (A) (A) (A) (A)
                 (A) (A) (A) (A) (A) (A) (A) (A) (A) (A) (A) (A)
                 (A) (A) (A) (A) (A) (A) (A) (A) (A) (A) (A) (A)
                 (A) (A) (A) (A) (A) (A) (A) (A) (A) (A) (A) (A)
                 (A) (A) (A) (A) (A) (A) (A) (A) (A) (A) (A) (A)
                 (A) (A) (A) (A) (A) (A) (A) (A) (A) (A) (A) (A)
                 (A) (A) (A) (A) (A) (A) (A) (A) (A) (A) (A) (A)
                 (A) (A) (A) (A) (A) (A) (A) (A) (A) (A) (A) (A)
                 (A) (A) (A) (A) (A) (A) (A) (A) (A) (A) (A) (A)
                 (A) (A) (A) (A) (A) (A) (A) (A) (A) (A) (A) (A)
                 (A) (A) (A) (A) (A) (A) (A) (A) (A) (A) (A) (A)
                 (A) (A) (A) (A) (A) (A) (A) (A) (A) (A) (A) (A)
                 (A) (A) (A) (A) (A) (A) (A) (A) (A) (A) (A) (A)
                 (A) (A) (A) (A) (A) (A) (A) (A) (A) (A) (A) (A)
                 (A) (A) (A) (A) (A) (A) (A) (A) (A) (A) (A) (A)
                 (A) (A) (A) (A) (A) (A) (A) (A) (A) (A) (A) (A)
                 (A) (A) (A) (A) (A) (A) (A) (A) (A) (A) (A) (A)
                 (A) (A) (A) (A) (A) (A) (A) (A) (A) (A) (A) (A)
                 (A) (A) (A) (A) (A) (A) (A) (A) (A) (A) (A) (A)
                 (A) (A) (A) (A) (A) (A) (A) (A) (A) (A) (A) (A)
                 (A) (A) (A) (A) (A) (A) (A) (A) (A) (A) (A) (A)
                 (A) (A) (A) (A) (A) (A) (A) (A) (A) (A) (A) (A)
                 (A) (A) (A) (A) (A) (A) (A) (A) (A) (A) (A) (A)
                 (A) (A) (A) (A) (A) (A) (A) (A) (A) (A) (A) (A)
                 (A) (A) (A) (A) (A) (A) (A) (A) (A) (A) (A) (A)
                 (A) (A) (A) (A) (A) (A) (A) (A) (A) (A) (A) (A)
                 (A) (A) (A) (A) (A) (A) (A) (A) (A) (A) (A) (A)
                 (A) (A) (A) (A) (A) (A) (A) (A) (A) (A) (A) (A)
                 (A) (A) (A) (A) (A) (A) (A) (A) (A) (A) (A) (A)
                 (A) (A) (A) (A) (A) (A) (A) (A) (A) (A) (A) (A)
                 (A) (A) (A) (A) (A) (A) (A) (A) (A) (A) (A) (A)
                 (A) (A) (A) (A) (A) (A) (A) (A) (A) (A) (A) (A)
                 (A) (A) (A) (A) (A) (A) (A) (A) (A) (A) (A) (A)
                 (A) (A) (A) (A) (A) (A) (A) (A) (A) (A) (A) (A)
                 (A) (A) (A) (A) (A) (A) (A) (A) (A) (A) (A) (A)
                 (A) (A) (A) (A) (A) (A) (A) (A) (A) (A) (A) (A)
                 (A) (A) (A) (A) (A) (A) (A) (A) (A) (A) (A) (A)
                 (A) (A) (A) (A) (A) (A)
 The electronic state is 1-A.
 Alpha  occ. eigenvalues --  -19.28988 -19.28508 -19.25498 -19.24455 -10.32553
 Alpha  occ. eigenvalues --  -10.32497 -10.30796 -10.30171 -10.26918 -10.26834
 Alpha  occ. eigenvalues --  -10.26789 -10.26404 -10.25921 -10.25087 -10.24998
 Alpha  occ. eigenvalues --  -10.24997 -10.24245 -10.24219 -10.23901 -10.23784
 Alpha  occ. eigenvalues --  -10.23260 -10.23186  -1.10776  -1.10028  -1.06832
 Alpha  occ. eigenvalues --   -1.04024  -0.89009  -0.86459  -0.82375  -0.81581
 Alpha  occ. eigenvalues --   -0.78281  -0.76674  -0.76249  -0.74002  -0.70442
 Alpha  occ. eigenvalues --   -0.70029  -0.66939  -0.66502  -0.63456  -0.62148
 Alpha  occ. eigenvalues --   -0.59986  -0.58056  -0.57895  -0.55196  -0.53719
 Alpha  occ. eigenvalues --   -0.52801  -0.51435  -0.50374  -0.48959  -0.47470
 Alpha  occ. eigenvalues --   -0.47234  -0.46809  -0.45349  -0.45045  -0.44768
 Alpha  occ. eigenvalues --   -0.44451  -0.43935  -0.42997  -0.42348  -0.41992
 Alpha  occ. eigenvalues --   -0.41608  -0.40873  -0.40615  -0.39840  -0.39360
 Alpha  occ. eigenvalues --   -0.39082  -0.38634  -0.38149  -0.37692  -0.36900
 Alpha  occ. eigenvalues --   -0.36328  -0.35564  -0.35013  -0.34708  -0.33721
 Alpha  occ. eigenvalues --   -0.32702  -0.32487  -0.31410  -0.29492  -0.28116
 Alpha  occ. eigenvalues --   -0.25884  -0.24511  -0.23736
 Alpha virt. eigenvalues --   -0.00711  -0.00229   0.00024   0.00630   0.01275
 Alpha virt. eigenvalues --    0.01674   0.01987   0.02705   0.03035   0.03533
 Alpha virt. eigenvalues --    0.03796   0.04326   0.04581   0.04769   0.05269
 Alpha virt. eigenvalues --    0.05892   0.06211   0.06751   0.06880   0.07182
 Alpha virt. eigenvalues --    0.07697   0.07924   0.08605   0.09095   0.09365
 Alpha virt. eigenvalues --    0.09485   0.09569   0.10340   0.10652   0.10836
 Alpha virt. eigenvalues --    0.11577   0.11722   0.12293   0.12505   0.12922
 Alpha virt. eigenvalues --    0.13335   0.13520   0.13979   0.14552   0.14632
 Alpha virt. eigenvalues --    0.14999   0.15600   0.15650   0.15919   0.16086
 Alpha virt. eigenvalues --    0.16539   0.16719   0.17404   0.17567   0.17828
 Alpha virt. eigenvalues --    0.18377   0.18778   0.18821   0.19155   0.19390
 Alpha virt. eigenvalues --    0.19430   0.20144   0.20460   0.20662   0.20918
 Alpha virt. eigenvalues --    0.21065   0.21268   0.21704   0.21960   0.21970
 Alpha virt. eigenvalues --    0.22198   0.22545   0.23134   0.23289   0.23491
 Alpha virt. eigenvalues --    0.24106   0.24403   0.24636   0.24852   0.25141
 Alpha virt. eigenvalues --    0.25603   0.25635   0.25845   0.25965   0.26363
 Alpha virt. eigenvalues --    0.27131   0.27200   0.27421   0.27650   0.28136
 Alpha virt. eigenvalues --    0.28335   0.28399   0.28881   0.29123   0.29447
 Alpha virt. eigenvalues --    0.30090   0.30120   0.30385   0.30820   0.31402
 Alpha virt. eigenvalues --    0.31702   0.31964   0.32494   0.32916   0.33736
 Alpha virt. eigenvalues --    0.34033   0.34096   0.34792   0.35456   0.35670
 Alpha virt. eigenvalues --    0.36052   0.36525   0.36874   0.37014   0.37561
 Alpha virt. eigenvalues --    0.38506   0.38679   0.39145   0.39623   0.39925
 Alpha virt. eigenvalues --    0.40236   0.41340   0.41551   0.42374   0.42673
 Alpha virt. eigenvalues --    0.43468   0.43812   0.44183   0.45514   0.45968
 Alpha virt. eigenvalues --    0.46518   0.46968   0.48272   0.48490   0.49085
 Alpha virt. eigenvalues --    0.50047   0.50193   0.51848   0.53111   0.54116
 Alpha virt. eigenvalues --    0.55308   0.59792   0.62971   0.65192   0.68092
 Alpha virt. eigenvalues --    0.68971   0.69355   0.69950   0.70953   0.71927
 Alpha virt. eigenvalues --    0.72031   0.72515   0.72997   0.73360   0.74393
 Alpha virt. eigenvalues --    0.74934   0.75230   0.75836   0.76518   0.76756
 Alpha virt. eigenvalues --    0.77250   0.78099   0.79235   0.79990   0.80252
 Alpha virt. eigenvalues --    0.80547   0.81530   0.82337   0.83249   0.84077
 Alpha virt. eigenvalues --    0.85213   0.86425   0.86642   0.86995   0.87837
 Alpha virt. eigenvalues --    0.88729   0.89359   0.89993   0.90290   0.91790
 Alpha virt. eigenvalues --    0.91920   0.92927   0.93830   0.94238   0.95392
 Alpha virt. eigenvalues --    0.96199   0.96622   0.96974   0.98071   0.99852
 Alpha virt. eigenvalues --    1.00705   1.01180   1.01751   1.02335   1.03264
 Alpha virt. eigenvalues --    1.04444   1.05436   1.06068   1.08565   1.09140
 Alpha virt. eigenvalues --    1.10310   1.10547   1.10834   1.11740   1.13087
 Alpha virt. eigenvalues --    1.13631   1.14175   1.14766   1.14880   1.15651
 Alpha virt. eigenvalues --    1.16015   1.16588   1.17785   1.18297   1.19035
 Alpha virt. eigenvalues --    1.20144   1.20699   1.21031   1.21666   1.22914
 Alpha virt. eigenvalues --    1.24201   1.24683   1.24739   1.25068   1.27232
 Alpha virt. eigenvalues --    1.27565   1.27955   1.28672   1.29597   1.30544
 Alpha virt. eigenvalues --    1.32256   1.32626   1.32651   1.33984   1.35274
 Alpha virt. eigenvalues --    1.35687   1.36286   1.37091   1.38266   1.38516
 Alpha virt. eigenvalues --    1.39575   1.40291   1.41318   1.43021   1.44013
 Alpha virt. eigenvalues --    1.44406   1.45613   1.46714   1.48556   1.50814
 Alpha virt. eigenvalues --    1.52063   1.52448   1.52935   1.54004   1.55528
 Alpha virt. eigenvalues --    1.56170   1.57780   1.58836   1.59407   1.60478
 Alpha virt. eigenvalues --    1.61522   1.62346   1.64840   1.64957   1.67470
 Alpha virt. eigenvalues --    1.67673   1.68112   1.69626   1.71312   1.73622
 Alpha virt. eigenvalues --    1.76810   1.77462   1.77871   1.79539   1.80428
 Alpha virt. eigenvalues --    1.81698   1.82519   1.83171   1.84484   1.85267
 Alpha virt. eigenvalues --    1.86460   1.86740   1.87750   1.88394   1.88870
 Alpha virt. eigenvalues --    1.89596   1.90255   1.91122   1.91399   1.92168
 Alpha virt. eigenvalues --    1.93575   1.93950   1.94831   1.95679   1.96070
 Alpha virt. eigenvalues --    1.96921   1.97748   1.98453   1.99010   2.00198
 Alpha virt. eigenvalues --    2.01706   2.03691   2.04903   2.05429   2.05989
 Alpha virt. eigenvalues --    2.06272   2.06708   2.07228   2.07636   2.08609
 Alpha virt. eigenvalues --    2.10751   2.11200   2.12892   2.13251   2.13806
 Alpha virt. eigenvalues --    2.14576   2.14959   2.15373   2.15642   2.16347
 Alpha virt. eigenvalues --    2.16942   2.18038   2.19210   2.19292   2.21425
 Alpha virt. eigenvalues --    2.22181   2.23096   2.23604   2.25242   2.26541
 Alpha virt. eigenvalues --    2.26972   2.28013   2.29698   2.30252   2.31060
 Alpha virt. eigenvalues --    2.32035   2.32527   2.32897   2.34781   2.35762
 Alpha virt. eigenvalues --    2.37269   2.38516   2.39236   2.40801   2.41307
 Alpha virt. eigenvalues --    2.43197   2.44171   2.45926   2.47180   2.49162
 Alpha virt. eigenvalues --    2.49341   2.49942   2.50973   2.51278   2.52172
 Alpha virt. eigenvalues --    2.53055   2.53859   2.54605   2.55583   2.56038
 Alpha virt. eigenvalues --    2.57681   2.57983   2.58289   2.59659   2.61301
 Alpha virt. eigenvalues --    2.62089   2.62707   2.63662   2.64336   2.65485
 Alpha virt. eigenvalues --    2.65810   2.67432   2.68288   2.68688   2.69841
 Alpha virt. eigenvalues --    2.70813   2.71402   2.72501   2.72877   2.73625
 Alpha virt. eigenvalues --    2.74398   2.76023   2.76678   2.77255   2.78749
 Alpha virt. eigenvalues --    2.79454   2.80398   2.80570   2.81320   2.83155
 Alpha virt. eigenvalues --    2.83992   2.84386   2.86372   2.87472   2.88440
 Alpha virt. eigenvalues --    2.89118   2.89479   2.89919   2.90653   2.91057
 Alpha virt. eigenvalues --    2.91476   2.95224   2.95360   2.96194   2.98179
 Alpha virt. eigenvalues --    3.01409   3.03027   3.04144   3.05480   3.07995
 Alpha virt. eigenvalues --    3.09370   3.10636   3.12740   3.16651   3.18307
 Alpha virt. eigenvalues --    3.20622   3.27302   3.27753   3.29176   3.29366
 Alpha virt. eigenvalues --    3.32565   3.35587   3.36351   3.39266   3.40509
 Alpha virt. eigenvalues --    3.43434   3.45240   3.48312   3.48504   3.48863
 Alpha virt. eigenvalues --    3.50041   3.51208   3.51998   3.52688   3.54481
 Alpha virt. eigenvalues --    3.55520   3.57196   3.59565   3.59763   3.60769
 Alpha virt. eigenvalues --    3.61935   3.62562   3.65882   3.69007   3.76530
 Alpha virt. eigenvalues --    4.35851   4.38367   4.38905   4.43791   4.47100
 Alpha virt. eigenvalues --    4.49869   4.52773   4.53682   4.56555   4.57112
 Alpha virt. eigenvalues --    4.61515   4.64416   4.66096   4.71978   4.72653
 Alpha virt. eigenvalues --    4.75903   4.77748   4.84944   4.88569   4.95318
 Alpha virt. eigenvalues --    5.01269   5.04497
          Condensed to atoms (all electrons):
              1          2          3          4          5          6
     1  C   11.728341  -1.234222  -0.009020  -0.065464  -0.134133  -0.018274
     2  C   -1.234222   7.329327   0.321966   0.392346   0.179369  -0.061564
     3  H   -0.009020   0.321966   0.530017  -0.025339  -0.034223  -0.003877
     4  H   -0.065464   0.392346  -0.025339   0.518168  -0.056189   0.004499
     5  C   -0.134133   0.179369  -0.034223  -0.056189   6.737527   0.478043
     6  H   -0.018274  -0.061564  -0.003877   0.004499   0.478043   0.528639
     7  C    0.882312  -0.257937   0.050812   0.024467  -1.248924  -0.087031
     8  H   -0.009391   0.043045  -0.000161  -0.000095  -0.010926  -0.007371
     9  C    1.065923   0.044573   0.017209  -0.039313   0.284633  -0.060944
    10  H   -0.011618   0.006014  -0.000068   0.000090  -0.064635   0.002719
    11  C   -4.375527  -0.310544   0.031065   0.028890   0.886064   0.038613
    12  H   -0.042330   0.030276  -0.000080   0.001354  -0.013077   0.000015
    13  C    0.999727  -0.203226   0.002102  -0.007455   0.051516  -0.022873
    14  C   -0.036835   0.001880  -0.000003  -0.000019   0.007022   0.000250
    15  C   -0.863527  -0.035302   0.002007   0.000740   0.006254  -0.000016
    16  C    0.135430   0.084135  -0.000616   0.003852  -0.325968   0.017709
    17  C    0.053070   0.026840  -0.000074   0.000526  -0.092782   0.004402
    18  C   -0.108795  -0.013612   0.000114  -0.000095  -0.023454  -0.000255
    19  H   -0.000060   0.000019   0.000000   0.000000   0.000087   0.000000
    20  H   -0.000400   0.000030   0.000000   0.000000   0.000013   0.000000
    21  O    0.000820   0.001919  -0.000001  -0.000017  -0.021766  -0.000632
    22  H    0.001175  -0.000055   0.000000   0.000000  -0.000037  -0.000002
    23  O   -0.021839  -0.004521  -0.000011  -0.000338   0.010309  -0.000053
    24  H    0.002567  -0.000173   0.000000   0.000000   0.000930   0.000000
    25  O   -0.162210   0.055987  -0.000463   0.000138   0.035836  -0.000222
    26  H    0.005353  -0.010691   0.000004   0.000001  -0.005143   0.000002
    27  C   -2.059211  -0.059156  -0.049713   0.016476  -0.124976   0.004292
    28  H   -0.176888   0.023359   0.000312   0.001254   0.004865  -0.000001
    29  H   -0.038316   0.019732  -0.000014   0.000091  -0.009486   0.000002
    30  H   -0.114781   0.012866   0.002323   0.000090   0.005443   0.000006
    31  O    0.196201  -0.119286  -0.002891   0.008998   0.014670   0.007078
    32  H    0.074350   0.049651   0.000019  -0.000238  -0.006702  -0.000289
    33  H    0.040295  -0.047039  -0.002800  -0.003462   0.395639  -0.027744
    34  C   -0.004599  -0.084355  -0.002321   0.016097  -0.338350   0.017181
    35  C    0.050555   0.261757   0.003977  -0.008448  -0.509241  -0.000317
    36  H   -0.006119   0.002447   0.000000   0.000060   0.001891   0.000003
    37  H   -0.016618   0.033142   0.000003  -0.000052  -0.025054  -0.000010
    38  C   -0.052896  -0.116254  -0.003524   0.006946   0.468271   0.009828
    39  H    0.000952  -0.005451   0.000000  -0.000002   0.014873  -0.000017
    40  H   -0.000820   0.001185   0.000000  -0.000004   0.008137   0.000001
    41  H    0.003021  -0.001565  -0.000009  -0.000002  -0.013858  -0.000086
    42  C    0.000023  -0.001029   0.000000   0.000000   0.006387   0.000011
    43  H   -0.000003   0.000001   0.000000   0.000000   0.000011   0.000000
    44  H    0.000003  -0.000002   0.000000   0.000000   0.000011   0.000000
    45  C   -0.000128   0.000018   0.000000   0.000000  -0.000012   0.000000
    46  H    0.000000   0.000000   0.000000   0.000000   0.000000   0.000000
    47  H   -0.000001   0.000000   0.000000   0.000000   0.000001   0.000000
    48  H   -0.000005   0.000000   0.000000   0.000000   0.000002   0.000000
              7          8          9         10         11         12
     1  C    0.882312  -0.009391   1.065923  -0.011618  -4.375527  -0.042330
     2  C   -0.257937   0.043045   0.044573   0.006014  -0.310544   0.030276
     3  H    0.050812  -0.000161   0.017209  -0.000068   0.031065  -0.000080
     4  H    0.024467  -0.000095  -0.039313   0.000090   0.028890   0.001354
     5  C   -1.248924  -0.010926   0.284633  -0.064635   0.886064  -0.013077
     6  H   -0.087031  -0.007371  -0.060944   0.002719   0.038613   0.000015
     7  C   15.142728   0.191703  -2.982522   0.216217  -4.669236   0.157154
     8  H    0.191703   0.566372   0.005260  -0.007865   0.010152  -0.000214
     9  C   -2.982522   0.005260  16.432015   0.273066  -5.105542   0.052179
    10  H    0.216217  -0.007865   0.273066   0.535720  -0.200245   0.004475
    11  C   -4.669236   0.010152  -5.105542  -0.200245  21.832498   0.145690
    12  H    0.157154  -0.000214   0.052179   0.004475   0.145690   0.574689
    13  C   -1.003304   0.018344   4.321016  -0.202238  -4.100781   0.098063
    14  C   -0.127646   0.000570  -0.250965   0.010574  -0.050124   0.002018
    15  C   -1.112775  -0.002788  -2.665346  -0.035946   4.276382  -0.102722
    16  C    1.436197   0.026790  -1.451977   0.168529  -2.789554   0.057429
    17  C    1.133632   0.002285  -1.800521   0.078828  -0.999694   0.014655
    18  C   -0.328436   0.001870  -1.052059  -0.010555   0.753229  -0.018880
    19  H   -0.001984   0.000008  -0.005738  -0.000004   0.000758   0.000000
    20  H    0.001465   0.000000   0.003399   0.000002  -0.000828   0.000001
    21  O   -0.051521  -0.006794   0.043349   0.008518  -0.102451   0.000142
    22  H   -0.005272   0.000100   0.063070   0.000006   0.004271   0.000000
    23  O   -0.056686  -0.000005  -0.064551  -0.001226   0.186447  -0.018263
    24  H   -0.002870   0.000000   0.016025   0.000003   0.008604   0.000086
    25  O    0.089985  -0.000637  -0.187866  -0.006574   0.348274  -0.047751
    26  H   -0.008284  -0.000001  -0.147185  -0.000636   0.139069  -0.006780
    27  C   -0.393925   0.002186  -0.482180   0.008304   1.281343  -0.040397
    28  H    0.002715   0.000000  -0.019171   0.000002   0.067750   0.002385
    29  H    0.004822   0.000000   0.018555   0.000004  -0.066793   0.000399
    30  H   -0.009419   0.000000   0.006026   0.000002   0.034250   0.000070
    31  O   -0.094307  -0.000727   0.020291   0.009882   0.120247   0.008058
    32  H    0.020508  -0.000001  -0.009134   0.000858  -0.089088   0.000775
    33  H   -0.118179  -0.002772   0.036419   0.000001   0.007548   0.000005
    34  C   -1.560183   0.016675  -0.598995   0.014021   0.022920  -0.027337
    35  C    0.637258  -0.023261  -0.309995   0.009768  -1.690672  -0.001004
    36  H    0.035295  -0.000145  -0.011349   0.000002   0.028352   0.000040
    37  H   -0.009343  -0.000049   0.055916  -0.000076  -0.063717   0.001937
    38  C   -0.293711   0.015910   0.434735   0.004009   0.487583   0.000397
    39  H    0.035018   0.003934   0.007918  -0.000007   0.003775  -0.000001
    40  H    0.003169   0.000274  -0.011396   0.000001   0.000117   0.000000
    41  H    0.014064  -0.000874   0.008573   0.000001  -0.003826   0.000002
    42  C   -0.038214  -0.000746   0.072082   0.000832  -0.021379   0.000279
    43  H    0.000335   0.000000   0.001785   0.000000   0.000018   0.000000
    44  H   -0.000061   0.000000   0.000052   0.000000  -0.000170   0.000000
    45  C    0.002234   0.000004  -0.005340   0.000029  -0.001506   0.000004
    46  H    0.000008   0.000000   0.000137   0.000000   0.000019   0.000000
    47  H   -0.000090   0.000000  -0.000428   0.000000  -0.000115   0.000000
    48  H   -0.000008   0.000000   0.000459   0.000000   0.000083   0.000000
             13         14         15         16         17         18
     1  C    0.999727  -0.036835  -0.863527   0.135430   0.053070  -0.108795
     2  C   -0.203226   0.001880  -0.035302   0.084135   0.026840  -0.013612
     3  H    0.002102  -0.000003   0.002007  -0.000616  -0.000074   0.000114
     4  H   -0.007455  -0.000019   0.000740   0.003852   0.000526  -0.000095
     5  C    0.051516   0.007022   0.006254  -0.325968  -0.092782  -0.023454
     6  H   -0.022873   0.000250  -0.000016   0.017709   0.004402  -0.000255
     7  C   -1.003304  -0.127646  -1.112775   1.436197   1.133632  -0.328436
     8  H    0.018344   0.000570  -0.002788   0.026790   0.002285   0.001870
     9  C    4.321016  -0.250965  -2.665346  -1.451977  -1.800521  -1.052059
    10  H   -0.202238   0.010574  -0.035946   0.168529   0.078828  -0.010555
    11  C   -4.100781  -0.050124   4.276382  -2.789554  -0.999694   0.753229
    12  H    0.098063   0.002018  -0.102722   0.057429   0.014655  -0.018880
    13  C   19.727819  -0.668138  -4.896680  -0.398556  -2.642830  -4.562946
    14  C   -0.668138   9.938323  -1.129437  -0.817151   0.272602   0.891548
    15  C   -4.896680  -1.129437  13.905852  -1.712253  -2.487696   3.006909
    16  C   -0.398556  -0.817151  -1.712253  10.582570   0.742827  -0.377874
    17  C   -2.642830   0.272602  -2.487696   0.742827  13.684337  -2.235023
    18  C   -4.562946   0.891548   3.006909  -0.377874  -2.235023  10.476743
    19  H    0.072858   0.050314  -0.005108  -0.036960   0.271797  -0.000601
    20  H    0.051201   0.045057  -0.067072  -0.011758  -0.003910   0.316612
    21  O   -0.249670   0.048490   0.062107   0.267663   0.007684   0.012967
    22  H    0.132587   0.003181  -0.004805   0.038967  -0.220083  -0.006204
    23  O   -0.709328   0.083959   0.446328  -0.100992  -0.057701   0.287304
    24  H    0.143152   0.006988  -0.032465  -0.001188   0.006584  -0.138027
    25  O   -0.174111  -0.000680   0.159232  -0.090839  -0.019110   0.026973
    26  H   -0.136800   0.008407   0.145611  -0.022776  -0.008138   0.069478
    27  C   -0.332404  -0.006433   0.124371  -0.043151  -0.004027   0.003479
    28  H   -0.003104   0.000053   0.004431  -0.000402  -0.000028   0.000233
    29  H    0.002427  -0.000007  -0.001999   0.000406   0.000020   0.000033
    30  H   -0.001507  -0.000008   0.000188  -0.000035  -0.000002  -0.000032
    31  O   -0.070809  -0.000017   0.011584  -0.006182  -0.000295  -0.000050
    32  H   -0.007786   0.000031   0.000549  -0.000478  -0.000150   0.000182
    33  H    0.006995   0.000090  -0.000383  -0.007733  -0.000978   0.000016
    34  C   -0.200901   0.063088   0.512155   0.238592  -0.103914   0.293611
    35  C    1.429931   0.003917  -1.335453   0.443721   0.327050  -0.445122
    36  H   -0.025473  -0.000384   0.014963  -0.004621  -0.000231   0.000802
    37  H    0.069325  -0.005920  -0.060776   0.017907   0.005228  -0.032516
    38  C   -0.362044   0.018709   0.347795  -0.208528  -0.142860   0.088602
    39  H    0.003035  -0.001657   0.001284   0.003790  -0.000888   0.001342
    40  H   -0.003197  -0.000187  -0.000605   0.002097   0.001507  -0.000601
    41  H    0.006135   0.000333  -0.000235  -0.000867  -0.000350   0.000147
    42  C   -0.767539  -2.123251  -0.010419   0.132043   0.206702  -0.004965
    43  H   -0.003601  -0.261503  -0.029300   0.055873   0.147789  -0.097315
    44  H   -0.006420  -0.252589   0.039025  -0.020439  -0.087470   0.137711
    45  C    0.005720   0.018295   0.006047  -0.001135   0.015353   0.052852
    46  H    0.001787   0.010404   0.001520   0.001982   0.011921   0.003916
    47  H   -0.006726  -0.053006  -0.000514  -0.001397  -0.015321   0.014367
    48  H   -0.001001  -0.053442  -0.008354   0.003303   0.015812  -0.008041
             19         20         21         22         23         24
     1  C   -0.000060  -0.000400   0.000820   0.001175  -0.021839   0.002567
     2  C    0.000019   0.000030   0.001919  -0.000055  -0.004521  -0.000173
     3  H    0.000000   0.000000  -0.000001   0.000000  -0.000011   0.000000
     4  H    0.000000   0.000000  -0.000017   0.000000  -0.000338   0.000000
     5  C    0.000087   0.000013  -0.021766  -0.000037   0.010309   0.000930
     6  H    0.000000   0.000000  -0.000632  -0.000002  -0.000053   0.000000
     7  C   -0.001984   0.001465  -0.051521  -0.005272  -0.056686  -0.002870
     8  H    0.000008   0.000000  -0.006794   0.000100  -0.000005   0.000000
     9  C   -0.005738   0.003399   0.043349   0.063070  -0.064551   0.016025
    10  H   -0.000004   0.000002   0.008518   0.000006  -0.001226   0.000003
    11  C    0.000758  -0.000828  -0.102451   0.004271   0.186447   0.008604
    12  H    0.000000   0.000001   0.000142   0.000000  -0.018263   0.000086
    13  C    0.072858   0.051201  -0.249670   0.132587  -0.709328   0.143152
    14  C    0.050314   0.045057   0.048490   0.003181   0.083959   0.006988
    15  C   -0.005108  -0.067072   0.062107  -0.004805   0.446328  -0.032465
    16  C   -0.036960  -0.011758   0.267663   0.038967  -0.100992  -0.001188
    17  C    0.271797  -0.003910   0.007684  -0.220083  -0.057701   0.006584
    18  C   -0.000601   0.316612   0.012967  -0.006204   0.287304  -0.138027
    19  H    0.517689  -0.000142  -0.017430   0.008085   0.000096  -0.000001
    20  H   -0.000142   0.519418   0.000091   0.000000  -0.020961   0.009125
    21  O   -0.017430   0.000091   8.308716   0.202749  -0.003348   0.000043
    22  H    0.008085   0.000000   0.202749   0.360660   0.000039   0.000000
    23  O    0.000096  -0.020961  -0.003348   0.000039   8.436904   0.205366
    24  H   -0.000001   0.009125   0.000043   0.000000   0.205366   0.341172
    25  O   -0.000003  -0.000045  -0.000997  -0.000028   0.010023   0.001295
    26  H    0.000000  -0.000017   0.000015   0.000000  -0.001920  -0.000336
    27  C    0.000002   0.000021  -0.001607   0.000045   0.007794  -0.000582
    28  H    0.000000   0.000000  -0.000001   0.000000  -0.000133  -0.000001
    29  H    0.000000   0.000000   0.000001   0.000000   0.000044   0.000000
    30  H    0.000000   0.000000   0.000000   0.000000  -0.000001   0.000000
    31  O    0.000000   0.000000  -0.000846   0.000008  -0.000397  -0.000001
    32  H    0.000000   0.000000  -0.000006   0.000000   0.000098   0.000000
    33  H    0.000000   0.000000   0.000166   0.000000   0.000000   0.000000
    34  C    0.001036  -0.001980   0.008503   0.002545   0.055005  -0.001642
    35  C    0.000149   0.001500   0.002580   0.000704  -0.116914   0.002337
    36  H    0.000000   0.000000  -0.000023   0.000000   0.000571  -0.000005
    37  H    0.000000  -0.000001   0.000062   0.000000  -0.001376  -0.000228
    38  C   -0.000178  -0.000069   0.001983  -0.000595   0.009649  -0.000088
    39  H    0.000000   0.000000  -0.000290   0.000003   0.000004   0.000000
    40  H    0.000000   0.000000  -0.000047   0.000000  -0.000025   0.000000
    41  H    0.000000   0.000000   0.000053   0.000000   0.000001   0.000000
    42  C   -0.030221  -0.015258   0.000380   0.001153  -0.004213   0.001754
    43  H    0.002156   0.000082   0.000056   0.000001   0.000035   0.000000
    44  H    0.000072   0.002225   0.000038   0.000000   0.000030   0.000000
    45  C    0.007117   0.007458   0.000140   0.000117  -0.000210   0.000102
    46  H   -0.000030  -0.000030   0.000000   0.000000   0.000001   0.000000
    47  H    0.000170   0.000011   0.000016   0.000001   0.000003   0.000000
    48  H    0.000010   0.000184   0.000007   0.000000   0.000014   0.000001
             25         26         27         28         29         30
     1  C   -0.162210   0.005353  -2.059211  -0.176888  -0.038316  -0.114781
     2  C    0.055987  -0.010691  -0.059156   0.023359   0.019732   0.012866
     3  H   -0.000463   0.000004  -0.049713   0.000312  -0.000014   0.002323
     4  H    0.000138   0.000001   0.016476   0.001254   0.000091   0.000090
     5  C    0.035836  -0.005143  -0.124976   0.004865  -0.009486   0.005443
     6  H   -0.000222   0.000002   0.004292  -0.000001   0.000002   0.000006
     7  C    0.089985  -0.008284  -0.393925   0.002715   0.004822  -0.009419
     8  H   -0.000637  -0.000001   0.002186   0.000000   0.000000   0.000000
     9  C   -0.187866  -0.147185  -0.482180  -0.019171   0.018555   0.006026
    10  H   -0.006574  -0.000636   0.008304   0.000002   0.000004   0.000002
    11  C    0.348274   0.139069   1.281343   0.067750  -0.066793   0.034250
[...]
    16  C   -0.104529  -0.021037  -0.057302  -0.000081  -0.000160  -0.000137
    17  C   -0.022823  -0.009241  -0.006034  -0.000022  -0.000005  -0.000005
    18  C    0.024575   0.071008   0.001632   0.000387   0.000048  -0.000036
    19  H   -0.000006   0.000000   0.000004   0.000000   0.000000   0.000000
    20  H   -0.000046  -0.000013   0.000000   0.000000   0.000000   0.000000
    21  O   -0.000592  -0.000036  -0.002367  -0.000001   0.000001   0.000000
    22  H   -0.000013   0.000000   0.000049   0.000000   0.000000   0.000000
    23  O    0.008119  -0.002331   0.011586  -0.000137   0.000072  -0.000010
    24  H    0.001188  -0.000417  -0.000941  -0.000001   0.000000   0.000000
    25  O    8.530772   0.215859  -0.044506  -0.000574   0.004455  -0.000203
    26  H    0.215859   0.341907   0.006392  -0.000028  -0.000242   0.000005
    27  C   -0.044506   0.006392   7.586367   0.471805   0.474021   0.465012
    28  H   -0.000574  -0.000028   0.471805   0.537782  -0.027383  -0.026538
    29  H    0.004455  -0.000242   0.474021  -0.027383   0.536389  -0.029546
    30  H   -0.000203   0.000005   0.465012  -0.026538  -0.029546   0.536920
    31  O    0.000838   0.000372   0.000640   0.008886  -0.007662  -0.002480
    32  H    0.020313  -0.000764  -0.022284  -0.000046   0.001960  -0.000011
    33  H    0.000054   0.000000  -0.006046  -0.000004   0.000002  -0.000004
    34  C   -0.011011   0.002988   0.073334  -0.000866  -0.002000   0.001441
    35  C   -0.017037  -0.003408  -0.030915   0.002951   0.001236  -0.000822
    36  H    0.000030   0.000000   0.001081   0.000000   0.000000   0.000000
    37  H    0.000007   0.000024   0.001798   0.000006   0.000001  -0.000001
    38  C    0.002797  -0.000080   0.008737   0.000017  -0.000107   0.000005
    39  H    0.000001   0.000000   0.000013   0.000000   0.000000   0.000000
    40  H    0.000000   0.000000   0.000167   0.000000   0.000000   0.000000
    41  H   -0.000002   0.000000  -0.000669   0.000000   0.000000   0.000000
    42  C    0.000574  -0.000827  -0.000712   0.000001   0.000000   0.000000
    43  H    0.000000   0.000000   0.000000   0.000000   0.000000   0.000000
    44  H    0.000000   0.000000   0.000000   0.000000   0.000000   0.000000
    45  C    0.000026   0.000036   0.000034   0.000000   0.000000   0.000000
    46  H    0.000000   0.000000   0.000000   0.000000   0.000000   0.000000
    47  H    0.000000   0.000000   0.000000   0.000000   0.000000   0.000000
    48  H    0.000001   0.000000   0.000001   0.000000   0.000000   0.000000
             31         32         33         34         35         36
     1  C    0.051243   0.072837   0.048174  -0.119049  -0.007261  -0.003103
     2  C   -0.065157   0.019826  -0.125498  -0.000149   0.328593   0.000831
     3  H   -0.003176   0.000083  -0.002668  -0.003987   0.010057   0.000000
     4  H    0.008176  -0.000232  -0.003794  -0.004778  -0.012692   0.000077
     5  C    0.018874  -0.004670   0.536265  -0.412219  -0.695100   0.003600
     6  H    0.008230  -0.000291  -0.031818  -0.011946   0.004789   0.000004
     7  C   -0.098797   0.018708  -0.141525  -2.096452   0.424119   0.030310
     8  H   -0.000460  -0.000006  -0.003106   0.013959  -0.019533  -0.000157
     9  C    0.040573  -0.023758   0.051688  -0.361010  -0.234782  -0.009673
    10  H    0.010362   0.000383   0.000028   0.002191   0.010663   0.000003
    11  C    0.072728  -0.056430   0.034784   0.185083  -1.645120   0.024202
    12  H    0.006765   0.000726   0.000008  -0.026706  -0.014032   0.000074
    13  C   -0.063072  -0.005928   0.004086  -0.308228   1.216905  -0.020531
    14  C   -0.000272  -0.000028   0.000031   0.089940   0.046916  -0.000619
    15  C   -0.002906  -0.001705  -0.001729   0.742772  -1.162061   0.009073
    16  C    0.007198  -0.001763  -0.010769   0.170154   0.469123  -0.003517
    17  C    0.003043  -0.000198  -0.001177  -0.211686   0.300542   0.000029
    18  C   -0.001398  -0.000055  -0.000108   0.377117  -0.406838  -0.001078
    19  H    0.000000   0.000000   0.000000   0.000506   0.000021   0.000000
    20  H    0.000000   0.000000   0.000000  -0.000786   0.000711   0.000000
    21  O   -0.000836   0.000013   0.000165   0.014239   0.000078  -0.000026
    22  H    0.000005   0.000000   0.000000   0.000286   0.000486   0.000000
    23  O   -0.000208   0.000197   0.000010   0.029580  -0.095733   0.000682
    24  H   -0.000003   0.000000   0.000000  -0.002033   0.003226  -0.000004
    25  O    0.000838   0.020313   0.000054  -0.011011  -0.017037   0.000030
    26  H    0.000372  -0.000764   0.000000   0.002988  -0.003408   0.000000
    27  C    0.000640  -0.022284  -0.006046   0.073334  -0.030915   0.001081
    28  H    0.008886  -0.000046  -0.000004  -0.000866   0.002951   0.000000
    29  H   -0.007662   0.001960   0.000002  -0.002000   0.001236   0.000000
    30  H   -0.002480  -0.000011  -0.000004   0.001441  -0.000822   0.000000
    31  O    8.424552   0.236870  -0.001205  -0.004269  -0.013852   0.000006
    32  H    0.236870   0.341733   0.000009  -0.000292   0.000019   0.000000
    33  H   -0.001205   0.000009   0.572736  -0.039925  -0.017529  -0.000011
    34  C   -0.004269  -0.000292  -0.039925  10.143216  -0.635806  -0.151483
    35  C   -0.013852   0.000019  -0.017529  -0.635806   9.609865   0.506047
    36  H    0.000006   0.000000  -0.000011  -0.151483   0.506047   0.545472
    37  H   -0.000157   0.000001   0.000019  -0.189787   0.649476  -0.037861
    38  C    0.003775   0.000162  -0.011132  -1.229938  -1.792488  -0.038987
    39  H   -0.000003   0.000000   0.000004  -0.186917  -0.047530   0.000257
    40  H    0.000000   0.000000  -0.000102  -0.129661  -0.032746   0.002966
    41  H    0.000016   0.000000   0.002454  -0.093040   0.005152   0.000242
    42  C    0.000025   0.000001   0.000004   0.023535  -0.014370  -0.000131
    43  H    0.000000   0.000000   0.000000  -0.000114   0.000035   0.000000
    44  H    0.000000   0.000000   0.000000   0.000056  -0.000030   0.000000
    45  C   -0.000002   0.000000   0.000000  -0.001407   0.000529   0.000000
    46  H    0.000000   0.000000   0.000000  -0.000002  -0.000002   0.000000
    47  H    0.000000   0.000000   0.000000   0.000026  -0.000002   0.000000
    48  H    0.000000   0.000000   0.000000  -0.000005  -0.000005   0.000000
             37         38         39         40         41         42
     1  C   -0.018826   0.012822   0.000890  -0.000397   0.001868  -0.005633
     2  C    0.033977  -0.187394  -0.004443   0.000131  -0.000539  -0.000705
     3  H    0.000006  -0.006390   0.000000   0.000000  -0.000008   0.000000
     4  H   -0.000156   0.009140  -0.000002  -0.000003  -0.000004  -0.000002
     5  C   -0.022556   0.536053   0.009207   0.013070  -0.028097   0.010652
     6  H   -0.000013   0.008391  -0.000016   0.000002  -0.000097   0.000015
     7  C   -0.037680  -0.251692   0.019221   0.004690   0.031938  -0.044518
     8  H   -0.000043   0.024857   0.003783   0.000352  -0.000924  -0.000697
     9  C    0.049667   0.236038   0.012484  -0.014207   0.001466   0.053844
    10  H   -0.000075   0.005556  -0.000006   0.000001   0.000001   0.000354
    11  C   -0.074423   0.418691   0.006036  -0.000934  -0.005891  -0.032970
    12  H    0.001501   0.002267  -0.000001   0.000000   0.000002   0.000189
    13  C    0.047196  -0.324146  -0.000993  -0.003666   0.008239  -1.021483
    14  C   -0.002030  -0.003823  -0.001564  -0.000099   0.000249  -2.076491
    15  C   -0.037516   0.270463  -0.002907  -0.000260   0.000812  -0.185473
    16  C    0.013460  -0.178867   0.001196   0.003306  -0.001378   0.242603
    17  C    0.002020  -0.079140   0.001696   0.001968  -0.000703   0.371933
    18  C   -0.020464   0.072945   0.000067  -0.000266   0.000338  -0.245279
    19  H    0.000000  -0.000179   0.000000   0.000000   0.000000  -0.038351
    20  H   -0.000001  -0.000027   0.000000   0.000000   0.000000  -0.027631
    21  O    0.000064   0.003659  -0.000108  -0.000059   0.000074   0.008103
    22  H    0.000000  -0.000212  -0.000001   0.000000   0.000000  -0.001032
    23  O   -0.000371   0.001817   0.000016  -0.000027  -0.000006  -0.005752
    24  H   -0.000253  -0.000175   0.000000   0.000000   0.000000   0.001199
    25  O    0.000007   0.002797   0.000001   0.000000  -0.000002   0.000574
    26  H    0.000024  -0.000080   0.000000   0.000000   0.000000  -0.000827
    27  C    0.001798   0.008737   0.000013   0.000167  -0.000669  -0.000712
    28  H    0.000006   0.000017   0.000000   0.000000   0.000000   0.000001
    29  H    0.000001  -0.000107   0.000000   0.000000   0.000000   0.000000
    30  H   -0.000001   0.000005   0.000000   0.000000   0.000000   0.000000
    31  O   -0.000157   0.003775  -0.000003   0.000000   0.000016   0.000025
    32  H    0.000001   0.000162   0.000000   0.000000   0.000000   0.000001
    33  H    0.000019  -0.011132   0.000004  -0.000102   0.002454   0.000004
    34  C   -0.189787  -1.229938  -0.186917  -0.129661  -0.093040   0.023535
    35  C    0.649476  -1.792488  -0.047530  -0.032746   0.005152  -0.014370
    36  H   -0.037861  -0.038987   0.000257   0.002966   0.000242  -0.000131
    37  H    0.549058  -0.049518  -0.000203   0.000221  -0.000195  -0.000060
    38  C   -0.049518   7.664599   0.537797   0.512927   0.430148   0.008905
    39  H   -0.000203   0.537797   0.543072  -0.026648  -0.030442  -0.000518
    40  H    0.000221   0.512927  -0.026648   0.537691  -0.027143   0.000000
    41  H   -0.000195   0.430148  -0.030442  -0.027143   0.536661   0.000040
    42  C   -0.000060   0.008905  -0.000518   0.000000   0.000040   7.961495
    43  H    0.000000  -0.000014   0.000000   0.000000   0.000000   0.548613
    44  H    0.000000   0.000037   0.000000   0.000000   0.000000   0.541899
    45  C   -0.000002   0.000106   0.000003   0.000000   0.000000   0.139652
    46  H    0.000000   0.000001   0.000000   0.000000   0.000000  -0.042331
    47  H    0.000000   0.000000   0.000000   0.000000   0.000000  -0.028552
    48  H    0.000000  -0.000001   0.000000   0.000000   0.000000  -0.036433
             43         44         45         46         47         48
     1  C   -0.000004   0.000001   0.000140   0.000000  -0.000003  -0.000009
     2  C    0.000001  -0.000002  -0.000017   0.000000   0.000000   0.000001
     3  H    0.000000   0.000000   0.000000   0.000000   0.000000   0.000000
     4  H    0.000000   0.000000   0.000000   0.000000   0.000000   0.000000
     5  C    0.000008   0.000010  -0.000084   0.000001  -0.000001   0.000000
     6  H    0.000000   0.000000   0.000000   0.000000   0.000000   0.000000
     7  C    0.000357  -0.000028   0.005262   0.000006  -0.000080  -0.000002
     8  H    0.000000   0.000000   0.000008   0.000000   0.000000   0.000000
     9  C    0.000680  -0.000024  -0.007439   0.000135  -0.000831   0.000381
    10  H    0.000000   0.000000   0.000048   0.000000   0.000000   0.000000
    11  C   -0.000122  -0.000103  -0.002038   0.000023  -0.000172   0.000056
    12  H    0.000000   0.000000   0.000004   0.000000   0.000000   0.000000
    13  C   -0.011760  -0.010807  -0.007027   0.000531  -0.006747  -0.004109
    14  C   -0.219976  -0.209761   0.082433  -0.043844   0.014475   0.016224
    15  C   -0.026290   0.020670  -0.007887   0.002818   0.004056  -0.033492
    16  C    0.037691  -0.016924  -0.026772   0.002328  -0.021221   0.011905
    17  C    0.086857  -0.064069   0.005456   0.011894  -0.061610   0.037369
    18  C   -0.075660   0.080205   0.023371   0.004024   0.038470  -0.053530
    19  H    0.002427   0.000105   0.003459  -0.000035   0.000198   0.000014
    20  H    0.000116   0.002470   0.003933  -0.000035   0.000015   0.000206
    21  O    0.000056   0.000034   0.000224  -0.000001   0.000037   0.000008
    22  H   -0.000001   0.000000   0.000120   0.000000   0.000000   0.000000
    23  O    0.000024   0.000047   0.000061  -0.000001   0.000005   0.000039
    24  H    0.000000  -0.000002   0.000065   0.000000   0.000000   0.000001
    25  O    0.000000   0.000000   0.000026   0.000000   0.000000   0.000001
    26  H    0.000000   0.000000   0.000036   0.000000   0.000000   0.000000
    27  C    0.000000   0.000000   0.000034   0.000000   0.000000   0.000001
    28  H    0.000000   0.000000   0.000000   0.000000   0.000000   0.000000
    29  H    0.000000   0.000000   0.000000   0.000000   0.000000   0.000000
    30  H    0.000000   0.000000   0.000000   0.000000   0.000000   0.000000
    31  O    0.000000   0.000000  -0.000002   0.000000   0.000000   0.000000
    32  H    0.000000   0.000000   0.000000   0.000000   0.000000   0.000000
    33  H    0.000000   0.000000   0.000000   0.000000   0.000000   0.000000
    34  C   -0.000114   0.000056  -0.001407  -0.000002   0.000026  -0.000005
    35  C    0.000035  -0.000030   0.000529  -0.000002  -0.000002  -0.000005
    36  H    0.000000   0.000000   0.000000   0.000000   0.000000   0.000000
    37  H    0.000000   0.000000  -0.000002   0.000000   0.000000   0.000000
    38  C   -0.000014   0.000037   0.000106   0.000001   0.000000  -0.000001
    39  H    0.000000   0.000000   0.000003   0.000000   0.000000   0.000000
    40  H    0.000000   0.000000   0.000000   0.000000   0.000000   0.000000
    41  H    0.000000   0.000000   0.000000   0.000000   0.000000   0.000000
    42  C    0.548613   0.541899   0.139652  -0.042331  -0.028552  -0.036433
    43  H    0.565906  -0.033253  -0.024248  -0.003277  -0.004920   0.004882
    44  H   -0.033253   0.565043  -0.024104  -0.003326   0.004874  -0.004954
    45  C   -0.024248  -0.024104   5.176055   0.423423   0.417807   0.417031
    46  H   -0.003277  -0.003326   0.423423   0.549119  -0.026893  -0.026889
    47  H   -0.004920   0.004874   0.417807  -0.026893   0.542073  -0.028562
    48  H    0.004882  -0.004954   0.417031  -0.026889  -0.028562   0.542496
 Mulliken atomic charges:
              1
     1  C    0.411085
     2  C   -0.311254
     3  H    0.156714
     4  H    0.166787
     5  C   -0.554469
     6  H    0.156701
     7  C    0.297462
     8  H    0.146603
     9  C    0.003958
    10  H    0.160748
    11  C    0.061222
    12  H    0.157826
    13  C    0.637402
    14  C    0.021694
    15  C   -0.464517
    16  C    0.256408
    17  C   -0.044490
    18  C   -0.940389
    19  H    0.150376
    20  H    0.148690
    21  O   -0.598832
    22  H    0.447966
    23  O   -0.623087
    24  H    0.459835
    25  O   -0.690281
    26  H    0.425782
    27  C   -0.341970
    28  H    0.161184
    29  H    0.160051
    30  H    0.161073
    31  O   -0.637266
    32  H    0.404620
    33  H    0.147632
    34  C    0.365128
    35  C   -0.691847
    36  H    0.142198
    37  H    0.143689
    38  C   -0.618405
    39  H    0.166560
    40  H    0.158725
    41  H    0.169438
    42  C   -0.103684
    43  H    0.151985
    44  H    0.151935
    45  C   -0.598260
    46  H    0.152334
    47  H    0.157559
    48  H    0.157378
 Sum of Mulliken atomic charges =   0.00000
 Mulliken charges with hydrogens summed into heavy atoms:
              1
     1  C    0.411085
     2  C    0.012247
     5  C   -0.250137
     7  C    0.444065
     9  C    0.164706
    11  C    0.219049
    13  C    0.637402
    14  C    0.021694
    15  C   -0.464517
    16  C    0.256408
    17  C    0.105887
    18  C   -0.791698
    21  O   -0.150866
    23  O   -0.163253
    25  O   -0.264500
    27  C    0.140338
    31  O   -0.232645
    34  C    0.365128
    35  C   -0.405960
    38  C   -0.123681
    42  C    0.200235
    45  C   -0.130989
 Sum of Mulliken charges with hydrogens summed into heavy atoms =   0.00000
 Electronic spatial extent (au):  <R**2>=           7287.2913
 Charge=              0.0000 electrons
 Dipole moment (field-independent basis, Debye):
    X=              6.4837    Y=              1.9817    Z=              2.8249  Tot=              7.3448
 Quadrupole moment (field-independent basis, Debye-Ang):
   XX=           -126.6544   YY=           -134.9632   ZZ=           -126.4307
   XY=             -6.5987   XZ=             -8.0981   YZ=            -11.6579
 Traceless Quadrupole moment (field-independent basis, Debye-Ang):
   XX=              2.6950   YY=             -5.6138   ZZ=              2.9187
   XY=             -6.5987   XZ=             -8.0981   YZ=            -11.6579
 Octapole moment (field-independent basis, Debye-Ang**2):
  XXX=             88.0614  YYY=              4.4042  ZZZ=              7.0798  XYY=              6.8073
  XXY=             21.6668  XXZ=             18.5289  XZZ=             51.8108  YZZ=             -4.1051
  YYZ=             -0.7154  XYZ=            -14.5349
 Hexadecapole moment (field-independent basis, Debye-Ang**3):
 XXXX=          -6503.8734 YYYY=          -2083.1257 ZZZZ=          -1019.8907 XXXY=             -5.8904
 XXXZ=            -84.9596 YYYX=            -10.8957 YYYZ=            -16.8534 ZZZX=            -39.1726
 ZZZY=            -98.5712 XXYY=          -1491.2418 XXZZ=          -1296.1900 YYZZ=           -495.3624
 XXYZ=           -117.1595 YYXZ=              3.9921 ZZXY=              8.5085
 N-N= 1.975389021493D+03 E-N=-6.283909103373D+03  KE= 9.930834659975D+02

 Test job not archived.
 1\1\GINC-COMPUTE-8-17\SP\RB3LYP\6-31+G(d,p)\C18H26O4\LPASSAGLIA.IQUIR\
 23-Dec-2022\0\\# B3LYP/6-31+G** geom=allcheck test scrf=(pcm,solvent=w
 ater,smd,dovacuum)\\comment\\0,1\C,0,1.658172765,2.655350307,-1.233241
 088\C,0,0.913943354,3.575502441,-0.263221735\H,0,1.468146402,4.5150108
 53,-0.14276164\H,0,-0.073749705,3.833064177,-0.663872371\C,0,0.7615726
 97,2.940594987,1.11588403\H,0,1.756950804,2.794805321,1.556072577\C,0,
 0.034091683,1.580116061,1.076539624\H,0,0.186314875,1.14833686,2.07525
 508\C,0,0.760776747,0.612701948,0.075120637\H,0,1.786013053,0.49127721
 1,0.462033941\C,0,0.988923738,1.259766745,-1.320805117\H,0,0.060903597
 ,1.374855212,-1.882320603\C,0,0.196228563,-0.820046665,0.140499936\C,0
 ,-0.836728652,-3.466745243,0.440036879\C,0,-0.548984512,-1.439420043,-
 0.873690285\C,0,0.434155954,-1.591811322,1.297391006\C,0,-0.071508235,
 -2.886822876,1.452578658\C,0,-1.061415057,-2.736768411,-0.729998714\H,
 0,0.130040531,-3.451599302,2.358644604\H,0,-1.630519467,-3.195022531,-
 1.534958689\O,0,1.204212723,-1.06612139,2.302386185\H,0,1.309318112,-1
 .727337406,3.004951079\O,0,-0.767158355,-0.798315648,-2.061540811\H,0,
 -1.42113074,-1.302177501,-2.575580724\O,0,1.867986053,0.422344268,-2.1
 02833848\H,0,1.35404842,-0.392651194,-2.264668771\C,0,1.752005171,3.31
 4323689,-2.614695612\H,0,0.761567369,3.466356479,-3.055762791\H,0,2.35
 1051075,2.710553206,-3.30536977\H,0,2.253061184,4.286925673,-2.5465678
 89\O,0,3.006780399,2.490046367,-0.765574213\H,0,3.335382596,1.70070732
 8,-1.244606412\H,0,0.246453609,3.645720462,1.778388672\C,0,-1.48665400
 8,1.781670225,0.980568436\C,0,-2.245144442,1.653180862,-0.119959999\H,
 0,-3.32084134,1.80198074,-0.08139098\H,0,-1.848868865,1.396686795,-1.0
 90577139\C,0,-2.158609715,2.122758271,2.292408497\H,0,-1.976509449,1.3
 32304773,3.028087371\H,0,-3.244017772,2.227795233,2.187994689\H,0,-1.7
 76762081,3.066581687,2.692328714\C,0,-1.372380458,-4.867390305,0.58778
 972\H,0,-1.599320697,-5.066413642,1.642293941\H,0,-2.32493495,-4.95647
 8371,0.051335451\C,0,-0.390716093,-5.906650563,0.068333606\H,0,-0.8057
 14317,-6.91237469,0.188309133\H,0,0.558463362,-5.863986252,0.613234911
 \H,0,-0.174895927,-5.753184826,-0.994468175\\Version=EM64L-G09RevC.01\
 State=1-A\HF=-1002.5465079\RMSD=4.113e-09\Dipole=-1.9334648,-2.1223357
 ,0.3279844\Quadrupole=-11.0420404,4.8161094,6.2259309,-3.5546375,6.592
 5777,-0.6876089\PG=C01 [X(C18H26O4)]\\@


 THE PROMISED LAND ALWAYS LIES ON THE OTHER SIDE OF A WILDERNESS.

                         -- HAVELOCK ELLIS
 Job cpu time:  0 days  2 hours 15 minutes  4.3 seconds.
 File lengths (MBytes):  RWF=    240 Int=      0 D2E=      0 Chk=     19 Scr=      1
 Normal termination of Gaussian 09 at Fri Dec 23 15:47:38 2022.
