 Entering Gaussian System, Link 0=g09
 Input=/home/fbruno.iquir/MPW_A_SMD/4_MMFF_001_NMR_MPW_A_SMD.gjc
 Output=/home/fbruno.iquir/MPW_A_SMD/4_MMFF_001_NMR_MPW_A_SMD.log
 Initial command:
 /share/apps/Gaussian09/EM64T.SSE4.2-enabled/g09/l1.exe /tmp/Gau-7680.inp -scrdir=/tmp/
 Entering Link 1 = /share/apps/Gaussian09/EM64T.SSE4.2-enabled/g09/l1.exe PID=      7681.
  
 Copyright (c) 1988,1990,1992,1993,1995,1998,2003,2009,2011,
            Gaussian, Inc.  All Rights Reserved.
  
 This is part of the Gaussian(R) 09 program.  It is based on
 the Gaussian(R) 03 system (copyright 2003, Gaussian, Inc.),
 the Gaussian(R) 98 system (copyright 1998, Gaussian, Inc.),
 the Gaussian(R) 94 system (copyright 1995, Gaussian, Inc.),
 the Gaussian 92(TM) system (copyright 1992, Gaussian, Inc.),
 the Gaussian 90(TM) system (copyright 1990, Gaussian, Inc.),
 the Gaussian 88(TM) system (copyright 1988, Gaussian, Inc.),
 the Gaussian 86(TM) system (copyright 1986, Carnegie Mellon
 University), and the Gaussian 82(TM) system (copyright 1983,
 Carnegie Mellon University). Gaussian is a federally registered
 trademark of Gaussian, Inc.
  
 This software contains proprietary and confidential information,
 including trade secrets, belonging to Gaussian, Inc.
  
 This software is provided under written license and may be
 used, copied, transmitted, or stored only in accord with that
 written license.
  
 The following legend is applicable only to US Government
 contracts under FAR:
  
                    RESTRICTED RIGHTS LEGEND
  
 Use, reproduction and disclosure by the US Government is
 subject to restrictions as set forth in subparagraphs (a)
 and (c) of the Commercial Computer Software - Restricted
 Rights clause in FAR 52.227-19.
  
 Gaussian, Inc.
 340 Quinnipiac St., Bldg. 40, Wallingford CT 06492
  
  
 ---------------------------------------------------------------
 Warning -- This program may not be used in any manner that
 competes with the business of Gaussian, Inc. or will provide
 assistance to any competitor of Gaussian, Inc.  The licensee
 of this program is prohibited from giving any competitor of
 Gaussian, Inc. access to this program.  By using this program,
 the user acknowledges that Gaussian, Inc. is engaged in the
 business of creating and licensing software in the field of
 computational chemistry and represents and warrants to the
 licensee that it is not a competitor of Gaussian, Inc. and that
 it will not use this program in any manner prohibited above.
 ---------------------------------------------------------------
  

 Cite this work as:
 Gaussian 09, Revision C.01,
 M. J. Frisch, G. W. Trucks, H. B. Schlegel, G. E. Scuseria, 
 M. A. Robb, J. R. Cheeseman, G. Scalmani, V. Barone, B. Mennucci, 
 G. A. Petersson, H. Nakatsuji, M. Caricato, X. Li, H. P. Hratchian, 
 A. F. Izmaylov, J. Bloino, G. Zheng, J. L. Sonnenberg, M. Hada, 
 M. Ehara, K. Toyota, R. Fukuda, J. Hasegawa, M. Ishida, T. Nakajima, 
 Y. Honda, O. Kitao, H. Nakai, T. Vreven, J. A. Montgomery, Jr., 
 J. E. Peralta, F. Ogliaro, M. Bearpark, J. J. Heyd, E. Brothers, 
 K. N. Kudin, V. N. Staroverov, T. Keith, R. Kobayashi, J. Normand, 
 K. Raghavachari, A. Rendell, J. C. Burant, S. S. Iyengar, J. Tomasi, 
 M. Cossi, N. Rega, J. M. Millam, M. Klene, J. E. Knox, J. B. Cross, 
 V. Bakken, C. Adamo, J. Jaramillo, R. Gomperts, R. E. Stratmann, 
 O. Yazyev, A. J. Austin, R. Cammi, C. Pomelli, J. W. Ochterski, 
 R. L. Martin, K. Morokuma, V. G. Zakrzewski, G. A. Voth, 
 P. Salvador, J. J. Dannenberg, S. Dapprich, A. D. Daniels, 
 O. Farkas, J. B. Foresman, J. V. Ortiz, J. Cioslowski, 
 and D. J. Fox, Gaussian, Inc., Wallingford CT, 2010.
 
 ******************************************
 Gaussian 09:  EM64L-G09RevC.01 23-Sep-2011
                16-Oct-2021 
 ******************************************
 %nprocshared=4
 Will use up to    4 processors via shared memory.
 -----------------------------------------------------------------
 # mPW1PW91/6-31g** scrf=(pcm,solvent=chloroform,smd,dovacuum) nmr
 -----------------------------------------------------------------
 1/38=1/1;
 2/12=2,17=6,18=5,40=1/2;
 3/5=1,6=6,7=101,11=2,16=1,25=1,30=1,70=32101,72=7,74=-7/1,2,8,3;
 4//1;
 5/5=2,38=5,53=7/2;
 8/6=1,10=90,11=11/1;
 10/13=100,45=16/2;
 6/7=2,8=2,9=2,10=2,28=1/1;
 99/9=1/99;
 -------
 comment
 -------
 Charge =  0 Multiplicity = 1
 Symbolic Z-Matrix:
 6                    -1.11346   1.48678   0.05243 
 1                    -2.14306   1.78299   0.18179 
 6                    -0.45462   1.35643  -1.10897 
 1                    -0.8508    1.53089  -2.09766 
 6                    -0.17253   1.04965   1.15447 
 1                    -0.41078   1.4444    2.14305 
 6                     0.92626   0.83279  -0.78592 
 1                     1.68117   1.03293  -1.54731 
 6                     1.13596   1.57592   0.5438 
 1                     1.16166   2.66819   0.43627 
 1                     2.03108   1.25193   1.08725 
 6                     0.08567  -0.47944   1.07916 
 1                     0.72139  -0.80377   1.91207 
 6                     0.85627  -0.6315   -0.27426 
 1                     1.87434  -0.99734  -0.08469 
 6                     0.07731  -1.64601  -1.11655 
 1                     0.69283  -2.52882  -1.32029 
 1                    -0.25783  -1.23887  -2.07482 
 6                    -1.08462  -1.39541   0.93131 
 1                    -1.83959  -1.52564   1.69438 
 6                    -1.08022  -2.02893  -0.24711 
 1                    -1.83642  -2.73716  -0.5584 
 
                          Input orientation:                          
 ---------------------------------------------------------------------
 Center     Atomic      Atomic             Coordinates (Angstroms)
 Number     Number       Type             X           Y           Z
 ---------------------------------------------------------------------
      1          6           0       -1.113460    1.486776    0.052428
      2          1           0       -2.143064    1.782995    0.181789
      3          6           0       -0.454618    1.356430   -1.108965
      4          1           0       -0.850803    1.530888   -2.097657
      5          6           0       -0.172531    1.049648    1.154465
      6          1           0       -0.410777    1.444399    2.143048
      7          6           0        0.926255    0.832795   -0.785917
      8          1           0        1.681167    1.032932   -1.547309
      9          6           0        1.135957    1.575918    0.543796
     10          1           0        1.161663    2.668188    0.436269
     11          1           0        2.031080    1.251934    1.087246
     12          6           0        0.085671   -0.479436    1.079162
     13          1           0        0.721390   -0.803774    1.912074
     14          6           0        0.856272   -0.631504   -0.274260
     15          1           0        1.874340   -0.997336   -0.084692
     16          6           0        0.077305   -1.646012   -1.116553
     17          1           0        0.692832   -2.528825   -1.320288
     18          1           0       -0.257832   -1.238867   -2.074819
     19          6           0       -1.084622   -1.395413    0.931309
     20          1           0       -1.839593   -1.525640    1.694382
     21          6           0       -1.080216   -2.028934   -0.247110
     22          1           0       -1.836417   -2.737163   -0.558398
 ---------------------------------------------------------------------
                    Distance matrix (angstroms):
                    1          2          3          4          5
     1  C    0.000000
     2  H    1.079150   0.000000
     3  C    1.341603   2.167684   0.000000
     4  H    2.166518   2.632370   1.079309   0.000000
     5  C    1.513576   2.316656   2.301479   3.356775   0.000000
     6  H    2.205957   2.638560   3.253498   4.264349   1.090818
     7  C    2.300207   3.355601   1.511742   2.316448   2.240411
     8  H    3.251934   4.263463   2.204172   2.638506   3.276593
     9  C    2.304184   3.305436   2.304284   3.305527   1.536886
    10  H    2.592152   3.430677   2.592455   3.429905   2.217104
    11  H    3.318754   4.304109   3.318578   4.304262   2.213897
    12  C    2.521525   3.300171   2.906925   3.874346   1.552558
    13  H    3.474417   4.229699   3.895658   4.899018   2.192770
    14  C    2.910959   3.877345   2.523301   3.303759   2.434331
    15  H    3.888002   4.892932   3.466035   4.227333   3.148862
    16  C    3.549479   4.286470   3.049206   3.452049   3.533628
    17  H    4.612168   5.374973   4.056662   4.412299   4.436071
    18  H    3.561799   4.216400   2.776178   2.832610   3.958896
    19  C    3.013350   3.432834   3.483140   4.218120   2.619166
    20  H    3.506840   3.650629   4.252439   4.969872   3.114917
    21  C    3.528604   3.980503   3.548924   4.018643   3.502281
    22  H    4.328676   4.590614   4.355456   4.642953   4.476868
                    6          7          8          9         10
     6  H    0.000000
     7  C    3.277278   0.000000
     8  H    4.261956   1.090718   0.000000
     9  C    2.228742   1.537642   2.228185   0.000000
    10  H    2.623608   2.217617   2.622695   1.097850   0.000000
    11  H    2.667288   2.214736   2.666699   1.096152   1.784777
    12  C    2.253765   2.430442   3.425086   2.369430   3.388009
    13  H    2.527733   3.162196   4.032616   2.776146   3.798205
    14  C    3.429018   1.552695   2.251989   2.370686   3.389112
    15  H    4.018290   2.177145   2.509693   2.749881   3.770328
    16  C    4.518170   2.640931   3.151930   3.776021   4.711625
    17  H    5.385086   3.411821   3.703304   4.529910   5.505836
    18  H    5.001371   2.712031   3.032995   4.089353   4.856502
    19  C    3.160207   3.457948   4.437342   3.729604   4.669444
    20  H    3.326251   4.400456   5.426841   4.449428   5.308349
    21  C    4.269080   3.536344   4.323284   4.304871   5.249379
    22  H    5.178389   4.519814   5.250234   5.352803   6.260644
                   11         12         13         14         15
    11  H    0.000000
    12  C    2.604289   0.000000
    13  H    2.573240   1.096848   0.000000
    14  C    2.604076   1.564833   2.197254   0.000000
    15  H    2.541107   2.195931   2.313835   1.098285   0.000000
    16  C    4.131835   2.486390   3.208861   1.531494   2.171371
    17  H    4.677742   3.213409   3.663984   2.172720   2.295237
    18  H    4.630536   3.262258   4.128377   2.202755   2.926619
    19  C    4.091499   1.493473   2.138602   2.409155   3.153756
    20  H    4.802670   2.275891   2.669665   3.455824   4.151807
    21  C    4.714315   2.349305   3.067389   2.388207   3.133684
    22  H    5.794702   3.387234   4.047666   3.430030   4.125664
                   16         17         18         19         20
    16  C    0.000000
    17  H    1.095326   0.000000
    18  H    1.093781   1.771178   0.000000
    19  C    2.367830   3.084422   3.121682   0.000000
    20  H    3.404460   4.062978   4.097693   1.081305   0.000000
    21  C    1.497470   2.131971   2.154308   1.337924   2.144609
    22  H    2.272549   2.649714   2.652613   2.141195   2.557893
                   21         22
    21  C    0.000000
    22  H    1.081817   0.000000
 Stoichiometry    C10H12
 Framework group  C1[X(C10H12)]
 Deg. of freedom    60
 Full point group                 C1      NOp   1
 Largest Abelian subgroup         C1      NOp   1
 Largest concise Abelian subgroup C1      NOp   1
                         Standard orientation:                         
 ---------------------------------------------------------------------
 Center     Atomic      Atomic             Coordinates (Angstroms)
 Number     Number       Type             X           Y           Z
 ---------------------------------------------------------------------
      1          6           0       -1.139972    0.678830    1.241922
      2          1           0       -1.159526    1.339577    2.094914
      3          6           0       -1.096654   -0.661878    1.264805
      4          1           0       -1.077857   -1.291113    2.141514
      5          6           0       -1.061473    1.106381   -0.207889
      6          1           0       -1.457102    2.101907   -0.413532
      7          6           0       -0.989459   -1.132514   -0.167806
      8          1           0       -1.321650   -2.157241   -0.338829
      9          6           0       -1.867099   -0.050921   -0.819150
     10          1           0       -2.913967   -0.078706   -0.489648
     11          1           0       -1.839592   -0.069340   -1.914802
     12          6           0        0.343723    0.801015   -0.793221
     13          1           0        0.417426    1.163350   -1.825867
     14          6           0        0.393611   -0.762834   -0.768902
     15          1           0        0.457173   -1.149933   -1.794740
     16          6           0        1.644460   -1.154375    0.023275
     17          1           0        2.344015   -1.707421   -0.612730
     18          1           0        1.421046   -1.772499    0.897556
     19          6           0        1.548199    1.211244   -0.011294
     20          1           0        1.813144    2.242389    0.177819
     21          6           0        2.251048    0.156707    0.417651
     22          1           0        3.158588    0.229100    1.001996
 ---------------------------------------------------------------------
 Rotational constants (GHZ):      2.5091448      1.4537882      1.3361955
 Standard basis: 6-31G(d,p) (6D, 7F)
 There are   210 symmetry adapted basis functions of A   symmetry.
 Integral buffers will be    131072 words long.
 Raffenetti 2 integral format.
 Two-electron integral symmetry is turned on.
   210 basis functions,   364 primitive gaussians,   210 cartesian basis functions
    36 alpha electrons       36 beta electrons
       nuclear repulsion energy       535.9769528597 Hartrees.
 NAtoms=   22 NActive=   22 NUniq=   22 SFac= 1.00D+00 NAtFMM=   60 NAOKFM=F Big=F
 ------------------------------------------------------------------------------
 Polarizable Continuum Model (PCM)
 =================================
 Model                : C-PCM.
 Atomic radii         : SMD-Coulomb.
 Polarization charges : Total charges.
 Charge compensation  : None.
 Solution method      : Matrix inversion.
 Cavity type          : VdW (van der Waals Surface) (Alpha=1.000).
 Cavity algorithm     : GePol (No added spheres)
                        Default sphere list used, NSphG=   22.
                        Lebedev-Laikov grids with approx.  5.0 points / Ang**2.
                        Smoothing algorithm: Karplus/York (Gamma=1.0000).
                        Polarization charges: spherical gaussians, with
                                              point-specific exponents (IZeta= 3).
                        Self-potential: point-specific (ISelfS= 7).
                        Self-field    : sphere-specific E.n sum rule (ISelfD= 2).
 Solvent              : Chloroform, Eps=   4.711300 Eps(inf)=   2.090627
 ------------------------------------------------------------------------------
 ------------------------------------------------------------------------------
 Atomic radii for non-electrostatic terms: SMD-CDS.
 ------------------------------------------------------------------------------
 Nuclear repulsion after PCM non-electrostatic terms =      535.9689898208 Hartrees.
 One-electron integrals computed using PRISM.
 NBasis=   210 RedAO= T  NBF=   210
 NBsUse=   210 1.00D-06 NBFU=   210
 Harris functional with IExCor=  908 diagonalized for initial guess.
 ExpMin= 1.61D-01 ExpMax= 3.05D+03 ExpMxC= 4.57D+02 IAcc=1 IRadAn=         1 AccDes= 0.00D+00
 HarFok:  IExCor=  908 AccDes= 0.00D+00 IRadAn=         1 IDoV= 1
 ScaDFX=  1.000000  1.000000  1.000000  1.000000
 FoFCou: FMM=F IPFlag=           0 FMFlag=      100000 FMFlg1=           0
         NFxFlg=           0 DoJE=T BraDBF=F KetDBF=T FulRan=T
         Omega=  0.000000  0.000000  1.000000  0.000000  0.000000 ICntrl=     500 IOpCl=  0
         NMat0=    1 NMatS0=    1 NMatT0=    0 NMatD0=    1 NMtDS0=    0 NMtDT0=    0
         I1Cent=           4 NGrid=           0.
 Petite list used in FoFCou.
 Initial guess orbital symmetries:
       Occupied  (A) (A) (A) (A) (A) (A) (A) (A) (A) (A) (A) (A)
                 (A) (A) (A) (A) (A) (A) (A) (A) (A) (A) (A) (A)
                 (A) (A) (A) (A) (A) (A) (A) (A) (A) (A) (A) (A)
       Virtual   (A) (A) (A) (A) (A) (A) (A) (A) (A) (A) (A) (A)
                 (A) (A) (A) (A) (A) (A) (A) (A) (A) (A) (A) (A)
                 (A) (A) (A) (A) (A) (A) (A) (A) (A) (A) (A) (A)
                 (A) (A) (A) (A) (A) (A) (A) (A) (A) (A) (A) (A)
                 (A) (A) (A) (A) (A) (A) (A) (A) (A) (A) (A) (A)
                 (A) (A) (A) (A) (A) (A) (A) (A) (A) (A) (A) (A)
                 (A) (A) (A) (A) (A) (A) (A) (A) (A) (A) (A) (A)
                 (A) (A) (A) (A) (A) (A) (A) (A) (A) (A) (A) (A)
                 (A) (A) (A) (A) (A) (A) (A) (A) (A) (A) (A) (A)
                 (A) (A) (A) (A) (A) (A) (A) (A) (A) (A) (A) (A)
                 (A) (A) (A) (A) (A) (A) (A) (A) (A) (A) (A) (A)
                 (A) (A) (A) (A) (A) (A) (A) (A) (A) (A) (A) (A)
                 (A) (A) (A) (A) (A) (A) (A) (A) (A) (A) (A) (A)
                 (A) (A) (A) (A) (A) (A) (A) (A) (A) (A) (A) (A)
                 (A) (A) (A) (A) (A) (A)
 The electronic state of the initial guess is 1-A.
 Requested convergence on RMS density matrix=1.00D-08 within 128 cycles.
 Requested convergence on MAX density matrix=1.00D-06.
 Requested convergence on             energy=1.00D-06.
 No special actions if energy rises.
 Error on total polarization charges =  0.03347
 SCF Done:  E(RmPW1PW91) =  -388.179576829     A.U. after   12 cycles
             Convg  =    0.2581D-08             -V/T =  2.0089
 SMD-CDS (non-electrostatic) energy       (kcal/mol) =      -5.00
 (included in total energy above)
 Range of M.O.s used for correlation:     1   210
 NBasis=   210 NAE=    36 NBE=    36 NFC=     0 NFV=     0
 NROrb=    210 NOA=    36 NOB=    36 NVA=   174 NVB=   174
 NEqPCM:  Using equilibrium solvation (IEInf=0, Eps=   4.7113, EpsInf=   2.0906)
          Differentiating once with respect to magnetic field using GIAOs.
          Electric field/nuclear overlap derivatives assumed to be zero.
 FoFCou: FMM=F IPFlag=           0 FMFlag=    10101102 FMFlg1=           0
         NFxFlg=    40000000 DoJE=F BraDBF=F KetDBF=T FulRan=T
         Omega=  0.000000  0.000000  1.000000  0.000000  0.000000 ICntrl=    6100 IOpCl=  0
         NMat0=    1 NMatS0=    1 NMatT0=    0 NMatD0=    1 NMtDS0=    0 NMtDT0=    0
         I1Cent=           7 NGrid=        1525.
 Symmetry not used in FoFCou.
          There are     3 degrees of freedom in the 1st order CPHF.  IDoFFX=0.
      3 vectors produced by pass  0 Test12= 2.09D-13 3.33D-08 XBig12= 1.34D+01 1.23D+00.
 AX will form     3 AO Fock derivatives at one time.
      3 vectors produced by pass  1 Test12= 2.09D-13 3.33D-08 XBig12= 3.82D-02 8.60D-02.
      3 vectors produced by pass  2 Test12= 2.09D-13 3.33D-08 XBig12= 1.55D-04 3.09D-03.
      3 vectors produced by pass  3 Test12= 2.09D-13 3.33D-08 XBig12= 2.85D-07 1.69D-04.
      3 vectors produced by pass  4 Test12= 2.09D-13 3.33D-08 XBig12= 1.27D-09 1.23D-05.
      3 vectors produced by pass  5 Test12= 2.09D-13 3.33D-08 XBig12= 3.33D-12 4.75D-07.
 Inverted reduced A of dimension    18 with in-core refinement.
 Calculating GIAO nuclear magnetic shielding tensors.
 SCF GIAO Magnetic shielding tensor (ppm):
      1  C    Isotropic =    58.1096   Anisotropy =   167.1882
   XX=   160.9522   YX=    52.9961   ZX=    30.2296
   XY=     5.7039   YY=    57.6831   ZY=    -1.7257
   XZ=     7.0268   YZ=   -34.2485   ZZ=   -44.3064
   Eigenvalues:   -50.0372    54.7977   169.5684
      2  H    Isotropic =    25.0297   Anisotropy =     2.0705
   XX=    25.1470   YX=     2.3436   ZX=     1.6144
   XY=    -0.5043   YY=    25.6593   ZY=     1.9543
   XZ=    -1.7760   YZ=    -1.0067   ZZ=    24.2828
   Eigenvalues:    23.9766    24.7025    26.4100
      3  C    Isotropic =    61.2277   Anisotropy =   164.0357
   XX=   164.6159   YX=   -46.6980   ZX=    33.4857
   XY=     1.2132   YY=    59.7163   ZY=    -3.6822
   XZ=     4.7745   YZ=    28.9482   ZZ=   -40.6490
   Eigenvalues:   -44.5260    57.6244   170.5849
      4  H    Isotropic =    25.0210   Anisotropy =     2.3816
   XX=    25.3014   YX=    -2.5581   ZX=     1.7152
   XY=     0.1633   YY=    25.3398   ZY=    -2.0068
   XZ=    -1.8935   YZ=     0.6178   ZZ=    24.4217
   Eigenvalues:    23.6766    24.7776    26.6087
      5  C    Isotropic =   150.6485   Anisotropy =    17.6885
   XX=   158.2103   YX=    16.8758   ZX=     6.3270
   XY=    -5.5512   YY=   148.3833   ZY=    -2.3424
   XZ=     4.7209   YZ=     3.5532   ZZ=   145.3518
   Eigenvalues:   142.7948   146.7099   162.4408
      6  H    Isotropic =    28.9854   Anisotropy =    10.1466
   XX=    27.4337   YX=    -4.3203   ZX=    -0.0509
   XY=    -2.7986   YY=    34.1599   ZY=    -0.5673
   XZ=    -0.0276   YZ=    -1.1260   ZZ=    25.3625
   Eigenvalues:    25.1289    26.0775    35.7498
      7  C    Isotropic =   149.8787   Anisotropy =    22.3768
   XX=   160.0316   YX=   -19.4228   ZX=     7.9101
   XY=     5.4309   YY=   146.6789   ZY=     2.4903
   XZ=     4.3667   YZ=    -5.3996   ZZ=   142.9257
   Eigenvalues:   140.7874   144.0521   164.7966
      8  H    Isotropic =    28.9484   Anisotropy =     9.7618
   XX=    27.2899   YX=     3.7009   ZX=    -0.3995
   XY=     2.5470   YY=    34.2391   ZY=     0.3267
   XZ=     0.0104   YZ=     0.7702   ZZ=    25.3163
   Eigenvalues:    25.1462    26.2428    35.4563
      9  C    Isotropic =   141.4885   Anisotropy =    29.9590
   XX=   126.5566   YX=    -0.6617   ZX=    20.0288
   XY=    -1.9081   YY=   145.1025   ZY=    -0.5113
   XZ=    14.6825   YZ=     0.5090   ZZ=   152.8063
   Eigenvalues:   117.8733   145.1310   161.4611
     10  H    Isotropic =    30.0772   Anisotropy =    10.6764
   XX=    36.9745   YX=     0.3064   ZX=     2.4542
   XY=     0.1808   YY=    27.0153   ZY=     0.0425
   XZ=     0.6115   YZ=    -0.0648   ZZ=    26.2419
   Eigenvalues:    26.0252    27.0117    37.1948
     11  H    Isotropic =    30.3674   Anisotropy =    11.4908
   XX=    29.2592   YX=     0.0323   ZX=     5.1766
   XY=     0.0407   YY=    26.3166   ZY=     0.1904
   XZ=     4.1792   YZ=     0.3007   ZZ=    35.5264
   Eigenvalues:    26.2970    26.7772    38.0279
     12  C    Isotropic =   140.8678   Anisotropy =    32.6723
   XX=   159.9978   YX=     1.3246   ZX=    13.1242
   XY=    -0.9362   YY=   147.1782   ZY=     5.8717
   XZ=     7.9469   YZ=    10.7897   ZZ=   115.4275
   Eigenvalues:   111.2393   148.7149   162.6493
     13  H    Isotropic =    28.1966   Anisotropy =     8.6826
   XX=    25.5308   YX=     0.4813   ZX=    -1.0845
   XY=     1.0468   YY=    27.8732   ZY=    -3.5300
   XZ=    -0.6693   YZ=    -4.4023   ZZ=    31.1859
   Eigenvalues:    25.1379    25.4669    33.9851
     14  C    Isotropic =   152.3369   Anisotropy =    31.1197
   XX=   170.7450   YX=    -1.9535   ZX=    13.8375
   XY=     6.3775   YY=   160.1476   ZY=    -5.3386
   XZ=     7.0830   YZ=   -11.7008   ZZ=   126.1182
   Eigenvalues:   121.7715   162.1559   173.0834
     15  H    Isotropic =    28.6826   Anisotropy =     8.8834
   XX=    26.4696   YX=    -1.5778   ZX=    -0.3608
   XY=    -1.9337   YY=    27.1127   ZY=     3.2199
   XZ=    -0.8185   YZ=     4.2494   ZZ=    32.4654
   Eigenvalues:    24.3399    27.1030    34.6048
     16  C    Isotropic =   161.4484   Anisotropy =    23.2225
   XX=   170.3584   YX=     6.8948   ZX=    10.4758
   XY=     2.5303   YY=   162.4197   ZY=    -0.6891
   XZ=    13.1381   YZ=    -2.6509   ZZ=   151.5670
   Eigenvalues:   145.1270   162.2880   176.9300
     17  H    Isotropic =    29.4152   Anisotropy =    11.1771
   XX=    32.3775   YX=    -5.3931   ZX=    -2.1137
   XY=    -4.4049   YY=    29.0299   ZY=     2.5831
   XZ=    -1.4507   YZ=     3.1624   ZZ=    26.8380
   Eigenvalues:    24.4366    26.9424    36.8666
     18  H    Isotropic =    29.9197   Anisotropy =     8.5837
   XX=    29.7927   YX=    -1.0756   ZX=     0.9763
   XY=    -1.2514   YY=    30.2488   ZY=    -4.5753
   XZ=     1.3560   YZ=    -5.8019   ZZ=    29.7176
   Eigenvalues:    24.7874    29.3295    35.6422
     19  C    Isotropic =    65.6183   Anisotropy =   133.8307
   XX=    58.5723   YX=   -58.7381   ZX=   -65.8420
   XY=   -32.9503   YY=    27.3672   ZY=   -24.0482
   XZ=   -64.1956   YZ=   -35.8876   ZZ=   110.9154
   Eigenvalues:   -34.1217    76.1379   154.8388
     20  H    Isotropic =    25.6680   Anisotropy =     1.4653
   XX=    26.5090   YX=    -0.9808   ZX=    -0.1765
   XY=     1.2990   YY=    26.2981   ZY=    -0.1167
   XZ=     0.2868   YZ=    -1.2606   ZZ=    24.1970
   Eigenvalues:    23.9876    26.3716    26.6449
     21  C    Isotropic =    63.6266   Anisotropy =   121.3820
   XX=    47.7148   YX=   -31.6723   ZX=   -65.8532
   XY=   -55.1542   YY=    36.2056   ZY=   -36.7843
   XZ=   -54.1946   YZ=   -28.6828   ZZ=   106.9595
   Eigenvalues:   -32.4153    78.7473   144.5480
     22  H    Isotropic =    25.8596   Anisotropy =     3.7397
   XX=    27.0805   YX=     0.3548   ZX=     0.7662
   XY=    -2.3437   YY=    25.4565   ZY=    -1.5390
   XZ=     2.1138   YZ=     0.0154   ZZ=    25.0419
   Eigenvalues:    24.2364    24.9898    28.3528
 End of Minotr Frequency-dependent properties file   721 does not exist.
 End of Minotr Frequency-dependent properties file   722 does not exist.

 **********************************************************************

            Population analysis using the SCF density.

 **********************************************************************

 Orbital symmetries:
       Occupied  (A) (A) (A) (A) (A) (A) (A) (A) (A) (A) (A) (A)
                 (A) (A) (A) (A) (A) (A) (A) (A) (A) (A) (A) (A)
                 (A) (A) (A) (A) (A) (A) (A) (A) (A) (A) (A) (A)
       Virtual   (A) (A) (A) (A) (A) (A) (A) (A) (A) (A) (A) (A)
                 (A) (A) (A) (A) (A) (A) (A) (A) (A) (A) (A) (A)
                 (A) (A) (A) (A) (A) (A) (A) (A) (A) (A) (A) (A)
                 (A) (A) (A) (A) (A) (A) (A) (A) (A) (A) (A) (A)
                 (A) (A) (A) (A) (A) (A) (A) (A) (A) (A) (A) (A)
                 (A) (A) (A) (A) (A) (A) (A) (A) (A) (A) (A) (A)
                 (A) (A) (A) (A) (A) (A) (A) (A) (A) (A) (A) (A)
                 (A) (A) (A) (A) (A) (A) (A) (A) (A) (A) (A) (A)
                 (A) (A) (A) (A) (A) (A) (A) (A) (A) (A) (A) (A)
                 (A) (A) (A) (A) (A) (A) (A) (A) (A) (A) (A) (A)
                 (A) (A) (A) (A) (A) (A) (A) (A) (A) (A) (A) (A)
                 (A) (A) (A) (A) (A) (A) (A) (A) (A) (A) (A) (A)
                 (A) (A) (A) (A) (A) (A) (A) (A) (A) (A) (A) (A)
                 (A) (A) (A) (A) (A) (A) (A) (A) (A) (A) (A) (A)
                 (A) (A) (A) (A) (A) (A)
 The electronic state is 1-A.
 Alpha  occ. eigenvalues --  -10.24129 -10.24026 -10.23952 -10.23814 -10.23363
 Alpha  occ. eigenvalues --  -10.23311 -10.23203 -10.23114 -10.23076 -10.23046
 Alpha  occ. eigenvalues --   -0.91129  -0.83711  -0.74974  -0.74185  -0.69058
 Alpha  occ. eigenvalues --   -0.68391  -0.57446  -0.57045  -0.54563  -0.52420
 Alpha  occ. eigenvalues --   -0.50661  -0.49351  -0.47353  -0.42347  -0.40194
 Alpha  occ. eigenvalues --   -0.39226  -0.37595  -0.36942  -0.35090  -0.34549
 Alpha  occ. eigenvalues --   -0.33582  -0.32261  -0.31542  -0.30799  -0.24171
 Alpha  occ. eigenvalues --   -0.24133
 Alpha virt. eigenvalues --    0.02658   0.03874   0.10889   0.14574   0.14910
 Alpha virt. eigenvalues --    0.15999   0.17158   0.17545   0.18827   0.19206
 Alpha virt. eigenvalues --    0.19774   0.20187   0.20745   0.21929   0.22325
 Alpha virt. eigenvalues --    0.23112   0.23768   0.26033   0.26452   0.28625
 Alpha virt. eigenvalues --    0.29719   0.34847   0.36041   0.38234   0.39772
 Alpha virt. eigenvalues --    0.44810   0.49983   0.53398   0.56240   0.58632
 Alpha virt. eigenvalues --    0.59282   0.59627   0.60469   0.62595   0.64388
 Alpha virt. eigenvalues --    0.64845   0.66091   0.66676   0.67652   0.67887
 Alpha virt. eigenvalues --    0.69145   0.70467   0.72706   0.74410   0.76331
 Alpha virt. eigenvalues --    0.78900   0.80532   0.81573   0.83954   0.84894
 Alpha virt. eigenvalues --    0.85549   0.86087   0.86568   0.87249   0.87385
 Alpha virt. eigenvalues --    0.89941   0.91079   0.92092   0.93047   0.94124
 Alpha virt. eigenvalues --    0.96171   0.96253   0.97630   0.98895   1.01200
 Alpha virt. eigenvalues --    1.06511   1.07803   1.11710   1.16988   1.21008
 Alpha virt. eigenvalues --    1.28137   1.30680   1.37363   1.39003   1.41296
 Alpha virt. eigenvalues --    1.43064   1.46862   1.50107   1.52352   1.55240
 Alpha virt. eigenvalues --    1.58592   1.63847   1.66459   1.70785   1.75069
 Alpha virt. eigenvalues --    1.77209   1.77859   1.80303   1.81192   1.82124
 Alpha virt. eigenvalues --    1.84530   1.87036   1.89065   1.92453   1.94320
 Alpha virt. eigenvalues --    1.96959   2.00154   2.01860   2.03314   2.06480
 Alpha virt. eigenvalues --    2.06590   2.08997   2.10269   2.10597   2.12407
 Alpha virt. eigenvalues --    2.13677   2.16032   2.17286   2.19372   2.21581
 Alpha virt. eigenvalues --    2.25122   2.27397   2.30098   2.31442   2.37885
 Alpha virt. eigenvalues --    2.38305   2.40300   2.41335   2.41869   2.46218
 Alpha virt. eigenvalues --    2.46703   2.47926   2.48478   2.51574   2.52777
 Alpha virt. eigenvalues --    2.53474   2.54485   2.55986   2.56827   2.57596
 Alpha virt. eigenvalues --    2.61392   2.63282   2.64525   2.66210   2.67144
 Alpha virt. eigenvalues --    2.69986   2.72183   2.72972   2.74949   2.77084
 Alpha virt. eigenvalues --    2.80275   2.81124   2.85455   2.87796   2.88698
 Alpha virt. eigenvalues --    2.91183   2.94132   2.97339   2.98793   3.00236
 Alpha virt. eigenvalues --    3.17978   3.20530   3.29171   3.31365   3.32918
 Alpha virt. eigenvalues --    3.34551   3.39526   3.41682   3.46452   3.47495
 Alpha virt. eigenvalues --    3.51793   3.53957   3.67883   3.75160   4.22769
 Alpha virt. eigenvalues --    4.37083   4.40027   4.54118   4.66667   4.70702
 Alpha virt. eigenvalues --    4.79401   4.81679   4.91461   5.05862
          Condensed to atoms (all electrons):
              1          2          3          4          5          6
     1  C    4.983925   0.384558   0.660504  -0.039495   0.380144  -0.039264
     2  H    0.384558   0.547699  -0.039473  -0.003266  -0.036621  -0.002423
     3  C    0.660504  -0.039473   4.986406   0.385138  -0.090895   0.006570
     4  H   -0.039495  -0.003266   0.385138   0.547979   0.005608  -0.000123
     5  C    0.380144  -0.036621  -0.090895   0.005608   5.100015   0.391875
     6  H   -0.039264  -0.002423   0.006570  -0.000123   0.391875   0.582724
     7  C   -0.090951   0.005603   0.383511  -0.036991  -0.041104   0.006316
     8  H    0.006407  -0.000126  -0.039211  -0.002393   0.006455  -0.000166
     9  C   -0.080424   0.004802  -0.080625   0.004701   0.346658  -0.033312
    10  H   -0.000121   0.000050  -0.000472   0.000054  -0.032223  -0.001601
    11  H    0.007656  -0.000119   0.007708  -0.000118  -0.041005  -0.001968
    12  C   -0.040137   0.000667  -0.024362  -0.000351   0.351233  -0.034094
    13  H    0.004614  -0.000105   0.000620   0.000016  -0.038352  -0.003396
    14  C   -0.025631  -0.000387  -0.041452   0.001021  -0.082621   0.006030
    15  H    0.000692   0.000016   0.004296  -0.000108   0.001961  -0.000159
    16  C    0.001283  -0.000004  -0.008542   0.000449   0.004103  -0.000175
    17  H    0.000062   0.000000   0.000282  -0.000002  -0.000281   0.000003
    18  H    0.000635   0.000020   0.004790   0.000085   0.000485   0.000003
    19  C   -0.002854   0.001219   0.001546  -0.000014  -0.052247  -0.000217
    20  H    0.000231  -0.000066   0.000031  -0.000001  -0.000183   0.000524
    21  C    0.002787   0.000002   0.001562   0.000040  -0.003209  -0.000085
    22  H    0.000002  -0.000001   0.000004   0.000000  -0.000126   0.000005
              7          8          9         10         11         12
     1  C   -0.090951   0.006407  -0.080424  -0.000121   0.007656  -0.040137
     2  H    0.005603  -0.000126   0.004802   0.000050  -0.000119   0.000667
     3  C    0.383511  -0.039211  -0.080625  -0.000472   0.007708  -0.024362
     4  H   -0.036991  -0.002393   0.004701   0.000054  -0.000118  -0.000351
     5  C   -0.041104   0.006455   0.346658  -0.032223  -0.041005   0.351233
     6  H    0.006316  -0.000166  -0.033312  -0.001601  -0.001968  -0.034094
     7  C    5.065777   0.392292   0.347874  -0.032402  -0.040277  -0.079395
     8  H    0.392292   0.581814  -0.032804  -0.001543  -0.002057   0.005885
     9  C    0.347874  -0.032804   5.142385   0.381425   0.380577  -0.072699
    10  H   -0.032402  -0.001543   0.381425   0.571403  -0.029440   0.005794
    11  H   -0.040277  -0.002057   0.380577  -0.029440   0.594459  -0.000702
    12  C   -0.079395   0.005885  -0.072699   0.005794  -0.000702   5.083715
    13  H    0.002375  -0.000147  -0.002879  -0.000068   0.001409   0.385228
    14  C    0.364383  -0.034384  -0.073370   0.005819  -0.000971   0.383335
    15  H   -0.033678  -0.003534  -0.002569  -0.000088   0.001456  -0.032843
    16  C   -0.037534  -0.000566   0.005866  -0.000143   0.000152  -0.089367
    17  H    0.002706  -0.000003  -0.000153   0.000002  -0.000009   0.004153
    18  H   -0.007412   0.000926   0.000192  -0.000002  -0.000016   0.004672
    19  C    0.000107  -0.000225   0.006440  -0.000153   0.000251   0.381785
    20  H   -0.000110   0.000003  -0.000093   0.000001   0.000000  -0.041796
    21  C    0.000350  -0.000056   0.000163   0.000001  -0.000039  -0.053483
    22  H   -0.000098   0.000004   0.000009   0.000000   0.000000   0.006231
             13         14         15         16         17         18
     1  C    0.004614  -0.025631   0.000692   0.001283   0.000062   0.000635
     2  H   -0.000105  -0.000387   0.000016  -0.000004   0.000000   0.000020
     3  C    0.000620  -0.041452   0.004296  -0.008542   0.000282   0.004790
     4  H    0.000016   0.001021  -0.000108   0.000449  -0.000002   0.000085
     5  C   -0.038352  -0.082621   0.001961   0.004103  -0.000281   0.000485
     6  H   -0.003396   0.006030  -0.000159  -0.000175   0.000003   0.000003
     7  C    0.002375   0.364383  -0.033678  -0.037534   0.002706  -0.007412
     8  H   -0.000147  -0.034384  -0.003534  -0.000566  -0.000003   0.000926
     9  C   -0.002879  -0.073370  -0.002569   0.005866  -0.000153   0.000192
    10  H   -0.000068   0.005819  -0.000088  -0.000143   0.000002  -0.000002
    11  H    0.001409  -0.000971   0.001456   0.000152  -0.000009  -0.000016
    12  C    0.385228   0.383335  -0.032843  -0.089367   0.004153   0.004672
    13  H    0.583247  -0.035726  -0.007540   0.006335   0.000317  -0.000237
    14  C   -0.035726   5.106694   0.387916   0.348107  -0.032766  -0.039645
    15  H   -0.007540   0.387916   0.576917  -0.036463  -0.007860   0.003316
    16  C    0.006335   0.348107  -0.036463   5.043318   0.383532   0.385901
    17  H    0.000317  -0.032766  -0.007860   0.383532   0.579583  -0.032936
    18  H   -0.000237  -0.039645   0.003316   0.385901  -0.032936   0.573252
    19  C   -0.038316  -0.062000   0.005042  -0.064295  -0.001003  -0.000048
    20  H   -0.000129   0.004686  -0.000136   0.006193  -0.000173  -0.000150
    21  C   -0.000822  -0.056329   0.002780   0.368707  -0.038643  -0.036119
    22  H   -0.000230   0.004994  -0.000171  -0.042594   0.000091  -0.000121
             19         20         21         22
     1  C   -0.002854   0.000231   0.002787   0.000002
     2  H    0.001219  -0.000066   0.000002  -0.000001
     3  C    0.001546   0.000031   0.001562   0.000004
     4  H   -0.000014  -0.000001   0.000040   0.000000
     5  C   -0.052247  -0.000183  -0.003209  -0.000126
     6  H   -0.000217   0.000524  -0.000085   0.000005
     7  C    0.000107  -0.000110   0.000350  -0.000098
     8  H   -0.000225   0.000003  -0.000056   0.000004
     9  C    0.006440  -0.000093   0.000163   0.000009
    10  H   -0.000153   0.000001   0.000001   0.000000
    11  H    0.000251   0.000000  -0.000039   0.000000
    12  C    0.381785  -0.041796  -0.053483   0.006231
    13  H   -0.038316  -0.000129  -0.000822  -0.000230
    14  C   -0.062000   0.004686  -0.056329   0.004994
    15  H    0.005042  -0.000136   0.002780  -0.000171
    16  C   -0.064295   0.006193   0.368707  -0.042594
    17  H   -0.001003  -0.000173  -0.038643   0.000091
    18  H   -0.000048  -0.000150  -0.036119  -0.000121
    19  C    4.912005   0.382395   0.676829  -0.038248
    20  H    0.382395   0.559210  -0.040446  -0.003499
    21  C    0.676829  -0.040446   4.942746   0.378843
    22  H   -0.038248  -0.003499   0.378843   0.562549
 Mulliken atomic charges:
              1
     1  C   -0.114624
     2  H    0.137954
     3  C   -0.117937
     4  H    0.137771
     5  C   -0.169673
     6  H    0.122932
     7  C   -0.171344
     8  H    0.123429
     9  C   -0.242166
    10  H    0.133707
    11  H    0.123054
    12  C   -0.143469
    13  H    0.143784
    14  C   -0.127703
    15  H    0.140755
    16  C   -0.274262
    17  H    0.143098
    18  H    0.142409
    19  C   -0.108000
    20  H    0.133507
    21  C   -0.145579
    22  H    0.132358
 Sum of Mulliken atomic charges =   0.00000
 Mulliken charges with hydrogens summed into heavy atoms:
              1
     1  C    0.023330
     3  C    0.019835
     5  C   -0.046741
     7  C   -0.047916
     9  C    0.014595
    12  C    0.000315
    14  C    0.013052
    16  C    0.011245
    19  C    0.025507
    21  C   -0.013221
 Sum of Mulliken charges with hydrogens summed into heavy atoms =   0.00000
 Electronic spatial extent (au):  <R**2>=           1112.9728
 Charge=              0.0000 electrons
 Dipole moment (field-independent basis, Debye):
    X=              0.0691    Y=             -0.1746    Z=             -0.2998  Tot=              0.3538
 Quadrupole moment (field-independent basis, Debye-Ang):
   XX=            -60.2772   YY=            -56.3433   ZZ=            -57.8657
   XY=             -0.5693   XZ=              0.9010   YZ=             -0.0411
 Traceless Quadrupole moment (field-independent basis, Debye-Ang):
   XX=             -2.1151   YY=              1.8187   ZZ=              0.2964
   XY=             -0.5693   XZ=              0.9010   YZ=             -0.0411
 Octapole moment (field-independent basis, Debye-Ang**2):
  XXX=              6.1637  YYY=              3.1286  ZZZ=              0.4132  XYY=              0.0042
  XXY=             -1.1422  XXZ=              2.0557  XZZ=             -0.9100  YZZ=             -1.4680
  YYZ=              2.2834  XYZ=              0.8559
 Hexadecapole moment (field-independent basis, Debye-Ang**3):
 XXXX=           -795.6931 YYYY=           -384.4486 ZZZZ=           -300.1525 XXXY=             -4.4122
 XXXZ=             21.9028 YYYX=              5.3075 YYYZ=              0.7603 ZZZX=             -5.1924
 ZZZY=             -1.0300 XXYY=           -194.4815 XXZZ=           -188.3494 YYZZ=           -112.1238
 XXYZ=              4.4534 YYXZ=             -2.0901 ZZXY=             -2.7618
 N-N= 5.359689898208D+02 E-N=-1.970919195056D+03  KE= 3.847409336726D+02
 1\1\GINC-COMPUTE-8-13\SP\RmPW1PW91\6-31G(d,p)\C10H12\FBRUNO.IQUIR\16-O
 ct-2021\0\\# mPW1PW91/6-31g** scrf=(pcm,solvent=chloroform,smd,dovacuu
 m) nmr\\comment\\0,1\C,0,-1.11346,1.48677624,0.052428448\H,0,-2.143063
 928,1.782994794,0.181789477\C,0,-0.454618133,1.356429882,-1.108965328\
 H,0,-0.850802926,1.530888032,-2.097656551\C,0,-0.172531151,1.049648103
 ,1.154465152\H,0,-0.410777279,1.444399091,2.143047576\C,0,0.926255135,
 0.832794548,-0.785917328\H,0,1.681166909,1.0329324,-1.547309302\C,0,1.
 135956913,1.575918317,0.543795559\H,0,1.161662915,2.668187838,0.436269
 07\H,0,2.031079915,1.251934415,1.087245988\C,0,0.085671098,-0.47943580
 5,1.079161853\H,0,0.721390301,-0.803773938,1.912073614\C,0,0.856272396
 ,-0.631504254,-0.274260291\H,0,1.874339625,-0.997336234,-0.084691749\C
 ,0,0.077305493,-1.646012024,-1.1165532\H,0,0.692832404,-2.528824829,-1
 .320287764\H,0,-0.257831878,-1.23886723,-2.074819272\C,0,-1.084622486,
 -1.395412624,0.931309095\H,0,-1.839592576,-1.525639599,1.694382212\C,0
 ,-1.080215869,-2.028934313,-0.247109741\H,0,-1.836416772,-2.737162864,
 -0.558397517\\Version=EM64L-G09RevC.01\State=1-A\HF=-388.1795768\RMSD=
 2.581e-09\Dipole=0.1241717,-0.0628624,-0.0004769\Quadrupole=0.5411377,
 -1.7182073,1.1770696,-0.2206466,-0.3077527,0.5873611\PG=C01 [X(C10H12)
 ]\\@


 WE STILL HAVE JUDGEMENT HERE,
 THAT WE TEACH BUT BLOODY INSTRUCTIONS,
 WHICH, BEING TAUGHT,
 RETURN TO PLAGUE THE INVENTOR.
           MACBETH ACT I, SCENE VII
 Job cpu time:  0 days  0 hours 14 minutes  3.2 seconds.
 File lengths (MBytes):  RWF=     51 Int=      0 D2E=      0 Chk=      4 Scr=      1
 Normal termination of Gaussian 09 at Sat Oct 16 14:03:00 2021.
