 Entering Gaussian System, Link 0=g09
 Input=/home/fbruno.iquir/MPW_A_SMD/51_MMFF_002_NMR_MPW_A_SMD.gjc
 Output=/home/fbruno.iquir/MPW_A_SMD/51_MMFF_002_NMR_MPW_A_SMD.log
 Initial command:
 /share/apps/Gaussian09/EM64T.SSE4.2-enabled/g09/l1.exe /tmp/Gau-57637.inp -scrdir=/tmp/
 Entering Link 1 = /share/apps/Gaussian09/EM64T.SSE4.2-enabled/g09/l1.exe PID=     57638.
  
 Copyright (c) 1988,1990,1992,1993,1995,1998,2003,2009,2011,
            Gaussian, Inc.  All Rights Reserved.
  
 This is part of the Gaussian(R) 09 program.  It is based on
 the Gaussian(R) 03 system (copyright 2003, Gaussian, Inc.),
 the Gaussian(R) 98 system (copyright 1998, Gaussian, Inc.),
 the Gaussian(R) 94 system (copyright 1995, Gaussian, Inc.),
 the Gaussian 92(TM) system (copyright 1992, Gaussian, Inc.),
 the Gaussian 90(TM) system (copyright 1990, Gaussian, Inc.),
 the Gaussian 88(TM) system (copyright 1988, Gaussian, Inc.),
 the Gaussian 86(TM) system (copyright 1986, Carnegie Mellon
 University), and the Gaussian 82(TM) system (copyright 1983,
 Carnegie Mellon University). Gaussian is a federally registered
 trademark of Gaussian, Inc.
  
 This software contains proprietary and confidential information,
 including trade secrets, belonging to Gaussian, Inc.
  
 This software is provided under written license and may be
 used, copied, transmitted, or stored only in accord with that
 written license.
  
 The following legend is applicable only to US Government
 contracts under FAR:
  
                    RESTRICTED RIGHTS LEGEND
  
 Use, reproduction and disclosure by the US Government is
 subject to restrictions as set forth in subparagraphs (a)
 and (c) of the Commercial Computer Software - Restricted
 Rights clause in FAR 52.227-19.
  
 Gaussian, Inc.
 340 Quinnipiac St., Bldg. 40, Wallingford CT 06492
  
  
 ---------------------------------------------------------------
 Warning -- This program may not be used in any manner that
 competes with the business of Gaussian, Inc. or will provide
 assistance to any competitor of Gaussian, Inc.  The licensee
 of this program is prohibited from giving any competitor of
 Gaussian, Inc. access to this program.  By using this program,
 the user acknowledges that Gaussian, Inc. is engaged in the
 business of creating and licensing software in the field of
 computational chemistry and represents and warrants to the
 licensee that it is not a competitor of Gaussian, Inc. and that
 it will not use this program in any manner prohibited above.
 ---------------------------------------------------------------
  

 Cite this work as:
 Gaussian 09, Revision C.01,
 M. J. Frisch, G. W. Trucks, H. B. Schlegel, G. E. Scuseria, 
 M. A. Robb, J. R. Cheeseman, G. Scalmani, V. Barone, B. Mennucci, 
 G. A. Petersson, H. Nakatsuji, M. Caricato, X. Li, H. P. Hratchian, 
 A. F. Izmaylov, J. Bloino, G. Zheng, J. L. Sonnenberg, M. Hada, 
 M. Ehara, K. Toyota, R. Fukuda, J. Hasegawa, M. Ishida, T. Nakajima, 
 Y. Honda, O. Kitao, H. Nakai, T. Vreven, J. A. Montgomery, Jr., 
 J. E. Peralta, F. Ogliaro, M. Bearpark, J. J. Heyd, E. Brothers, 
 K. N. Kudin, V. N. Staroverov, T. Keith, R. Kobayashi, J. Normand, 
 K. Raghavachari, A. Rendell, J. C. Burant, S. S. Iyengar, J. Tomasi, 
 M. Cossi, N. Rega, J. M. Millam, M. Klene, J. E. Knox, J. B. Cross, 
 V. Bakken, C. Adamo, J. Jaramillo, R. Gomperts, R. E. Stratmann, 
 O. Yazyev, A. J. Austin, R. Cammi, C. Pomelli, J. W. Ochterski, 
 R. L. Martin, K. Morokuma, V. G. Zakrzewski, G. A. Voth, 
 P. Salvador, J. J. Dannenberg, S. Dapprich, A. D. Daniels, 
 O. Farkas, J. B. Foresman, J. V. Ortiz, J. Cioslowski, 
 and D. J. Fox, Gaussian, Inc., Wallingford CT, 2010.
 
 ******************************************
 Gaussian 09:  EM64L-G09RevC.01 23-Sep-2011
                16-Oct-2021 
 ******************************************
 %nprocshared=4
 Will use up to    4 processors via shared memory.
 -----------------------------------------------------------------
 # mPW1PW91/6-31g** scrf=(pcm,solvent=chloroform,smd,dovacuum) nmr
 -----------------------------------------------------------------
 1/38=1/1;
 2/12=2,17=6,18=5,40=1/2;
 3/5=1,6=6,7=101,11=2,16=1,25=1,30=1,70=32101,72=7,74=-7/1,2,8,3;
 4//1;
 5/5=2,38=5,53=7/2;
 8/6=1,10=90,11=11/1;
 10/13=100,45=16/2;
 6/7=2,8=2,9=2,10=2,28=1/1;
 99/9=1/99;
 -------
 comment
 -------
 Charge =  0 Multiplicity = 1
 Symbolic Z-Matrix:
 1                     2.36591   0.24942  -1.10877 
 6                     2.3652    0.1824   -0.01828 
 1                     2.87313  -0.77161   0.18096 
 6                     3.24483   1.29806   0.52332 
 1                     4.29469   1.10195   0.27971 
 1                     2.9859    2.26484   0.07881 
 6                     1.6997    1.77704   2.53968 
 6                     0.61988   1.43785   1.4476 
 6                     0.9154    0.15001   0.58041 
 6                     3.08939   1.39122   2.01979 
 8                     4.05349   1.22496   2.76646 
 6                     1.74037   3.30497   2.7701 
 1                     1.95685   3.84569   1.84152 
 1                     2.52686   3.57664   3.48453 
 1                     0.79061   3.67981   3.16494 
 6                     1.45715   1.11531   3.90809 
 1                     1.42121   0.02637   3.84899 
 1                     0.52379   1.46013   4.36545 
 1                     2.2597    1.36094   4.61436 
 6                    -0.82606   1.44901   1.99795 
 1                    -0.95425   0.67457   2.7618 
 1                    -1.03077   2.40487   2.49364 
 6                    -0.18678   0.03861  -0.57619 
 6                    -1.88739   1.23616   0.91794 
 1                    -1.95008   2.12994   0.28639 
 1                    -2.86784   1.1345    1.39944 
 6                    -1.59785  -0.00373   0.07056 
 1                     0.66215   2.27952   0.74314 
 6                     0.87392  -1.13716   1.46177 
 1                     0.90497  -2.04464   0.84849 
 1                    -0.01641  -1.20219   2.09073 
 1                     1.74177  -1.19566   2.12632 
 6                    -0.06918   1.19489  -1.61158 
 1                    -0.81522   1.10396  -2.40798 
 1                     0.8875    1.17853  -2.14023 
 1                    -0.19456   2.18543  -1.17021 
 1                    -1.65075  -0.87834   0.73362 
 8                     0.06457  -1.18885  -1.2983 
 6                    -0.96922  -1.74005  -2.03413 
 6                    -2.24093  -1.31295  -1.93287 
 6                    -2.68201  -0.24498  -0.98362 
 1                    -3.60611  -0.54539  -0.47402 
 1                    -2.9094    0.67199  -1.53989 
 8                    -0.5977   -2.76274  -2.89525 
 6                    -1.54723  -3.37457  -3.69265 
 6                    -1.00209  -4.45862  -4.56595 
 1                    -0.23571  -4.05523  -5.23553 
 1                    -1.78009  -4.91966  -5.18323 
 1                    -0.54774  -5.24445  -3.95404 
 6                    -2.83834  -3.02399  -3.68204 
 1                    -3.59387  -3.49037  -4.29991 
 6                    -3.27395  -1.94343  -2.78409 
 8                    -4.44741  -1.59099  -2.75777 
 
 Stoichiometry    C21H28O4
 Framework group  C1[X(C21H28O4)]
 Deg. of freedom   153
 Full point group                 C1      NOp   1
 Largest Abelian subgroup         C1      NOp   1
 Largest concise Abelian subgroup C1      NOp   1
                         Standard orientation:                         
 ---------------------------------------------------------------------
 Center     Atomic      Atomic             Coordinates (Angstroms)
 Number     Number       Type             X           Y           Z
 ---------------------------------------------------------------------
      1          1           0       -0.971403   -2.137644    1.273472
      2          6           0       -1.675210   -1.829207    0.496822
      3          1           0       -1.582550   -2.618543   -0.262240
      4          6           0       -3.079139   -1.904943    1.075626
      5          1           0       -3.361799   -2.950008    1.242818
      6          1           0       -3.142470   -1.395159    2.042791
      7          6           0       -3.884787    0.231051   -0.137238
      8          6           0       -2.404694    0.649783    0.190914
      9          6           0       -1.305780   -0.439609   -0.130821
     10          6           0       -4.059908   -1.269533    0.123453
     11          8           0       -4.984090   -1.922637   -0.360282
     12          6           0       -4.852268    0.947413    0.832353
     13          1           0       -4.615962    0.718311    1.877908
     14          1           0       -5.888157    0.628299    0.665388
     15          1           0       -4.816850    2.034623    0.709122
     16          6           0       -4.342880    0.564451   -1.568414
     17          1           0       -3.720949    0.092295   -2.330551
     18          1           0       -4.342871    1.643877   -1.753011
     19          1           0       -5.368176    0.217731   -1.746728
     20          6           0       -2.027057    2.040528   -0.372082
     21          1           0       -2.077078    2.040519   -1.466231
     22          1           0       -2.750106    2.790978   -0.032515
     23          6           0        0.111930    0.079208    0.403835
     24          6           0       -0.630145    2.503615    0.043033
     25          1           0       -0.631637    2.758082    1.109279
     26          1           0       -0.390994    3.431627   -0.490876
     27          6           0        0.433684    1.446712   -0.257688
     28          1           0       -2.384744    0.770287    1.282493
     29          6           0       -1.215639   -0.704038   -1.666161
     30          1           0       -0.347112   -1.323427   -1.916396
     31          1           0       -1.142471    0.210157   -2.258944
     32          1           0       -2.089554   -1.253760   -2.029871
     33          6           0        0.154013    0.173779    1.956938
     34          1           0        1.130819    0.513869    2.316505
     35          1           0        0.020262   -0.801313    2.432634
     36          1           0       -0.591652    0.856156    2.369304
     37          1           0        0.464369    1.307681   -1.347239
     38          8           0        1.104431   -0.901289    0.023243
     39          6           0        2.428711   -0.505187   -0.034854
     40          6           0        2.804410    0.784960    0.030579
     41          6           0        1.839722    1.924363    0.116208
     42          1           0        2.133141    2.725355   -0.573873
     43          1           0        1.861374    2.350891    1.125956
     44          8           0        3.346647   -1.538711   -0.155975
     45          6           0        4.699923   -1.259449   -0.205456
     46          6           0        5.567037   -2.469954   -0.338834
     47          1           0        5.411252   -3.142132    0.511053
     48          1           0        6.630586   -2.212078   -0.373994
     49          1           0        5.321160   -3.011721   -1.257762
     50          6           0        5.186758   -0.015078   -0.138250
     51          1           0        6.241707    0.221359   -0.173751
     52          6           0        4.247454    1.109446   -0.008414
     53          8           0        4.661144    2.260615    0.066260
 ---------------------------------------------------------------------
 Rotational constants (GHZ):      0.5320438      0.1239960      0.1096682
 Standard basis: 6-31G(d,p) (6D, 7F)
 There are   515 symmetry adapted basis functions of A   symmetry.
 Integral buffers will be    131072 words long.
 Raffenetti 2 integral format.
 Two-electron integral symmetry is turned on.
   515 basis functions,   896 primitive gaussians,   515 cartesian basis functions
    93 alpha electrons       93 beta electrons
       nuclear repulsion energy      2393.1392969489 Hartrees.
 NAtoms=   53 NActive=   53 NUniq=   53 SFac= 1.00D+00 NAtFMM=   60 NAOKFM=F Big=F
 ------------------------------------------------------------------------------
 Polarizable Continuum Model (PCM)
 =================================
 Model                : C-PCM.
 Atomic radii         : SMD-Coulomb.
 Polarization charges : Total charges.
 Charge compensation  : None.
 Solution method      : Matrix inversion.
 Cavity type          : VdW (van der Waals Surface) (Alpha=1.000).
 Cavity algorithm     : GePol (No added spheres)
                        Default sphere list used, NSphG=   53.
                        Lebedev-Laikov grids with approx.  5.0 points / Ang**2.
                        Smoothing algorithm: Karplus/York (Gamma=1.0000).
                        Polarization charges: spherical gaussians, with
                                              point-specific exponents (IZeta= 3).
                        Self-potential: point-specific (ISelfS= 7).
                        Self-field    : sphere-specific E.n sum rule (ISelfD= 2).
 Solvent              : Chloroform, Eps=   4.711300 Eps(inf)=   2.090627
 ------------------------------------------------------------------------------
 ------------------------------------------------------------------------------
 Atomic radii for non-electrostatic terms: SMD-CDS.
 ------------------------------------------------------------------------------
 Nuclear repulsion after PCM non-electrostatic terms =     2393.1308693471 Hartrees.
 One-electron integrals computed using PRISM.
 NBasis=   515 RedAO= T  NBF=   515
 NBsUse=   515 1.00D-06 NBFU=   515
 Harris functional with IExCor=  908 diagonalized for initial guess.
 ExpMin= 1.61D-01 ExpMax= 5.48D+03 ExpMxC= 8.25D+02 IAcc=1 IRadAn=         1 AccDes= 0.00D+00
 HarFok:  IExCor=  908 AccDes= 0.00D+00 IRadAn=         1 IDoV= 1
 ScaDFX=  1.000000  1.000000  1.000000  1.000000
 FoFCou: FMM=F IPFlag=           0 FMFlag=      100000 FMFlg1=           0
         NFxFlg=           0 DoJE=T BraDBF=F KetDBF=T FulRan=T
         Omega=  0.000000  0.000000  1.000000  0.000000  0.000000 ICntrl=     500 IOpCl=  0
         NMat0=    1 NMatS0=    1 NMatT0=    0 NMatD0=    1 NMtDS0=    0 NMtDT0=    0
         I1Cent=           4 NGrid=           0.
 Petite list used in FoFCou.
 Initial guess orbital symmetries:
       Occupied  (A) (A) (A) (A) (A) (A) (A) (A) (A) (A) (A) (A)
                 (A) (A) (A) (A) (A) (A) (A) (A) (A) (A) (A) (A)
                 (A) (A) (A) (A) (A) (A) (A) (A) (A) (A) (A) (A)
                 (A) (A) (A) (A) (A) (A) (A) (A) (A) (A) (A) (A)
                 (A) (A) (A) (A) (A) (A) (A) (A) (A) (A) (A) (A)
                 (A) (A) (A) (A) (A) (A) (A) (A) (A) (A) (A) (A)
                 (A) (A) (A) (A) (A) (A) (A) (A) (A) (A) (A) (A)
                 (A) (A) (A) (A) (A) (A) (A) (A) (A)
       Virtual   (A) (A) (A) (A) (A) (A) (A) (A) (A) (A) (A) (A)
                 (A) (A) (A) (A) (A) (A) (A) (A) (A) (A) (A) (A)
                 (A) (A) (A) (A) (A) (A) (A) (A) (A) (A) (A) (A)
                 (A) (A) (A) (A) (A) (A) (A) (A) (A) (A) (A) (A)
                 (A) (A) (A) (A) (A) (A) (A) (A) (A) (A) (A) (A)
                 (A) (A) (A) (A) (A) (A) (A) (A) (A) (A) (A) (A)
                 (A) (A) (A) (A) (A) (A) (A) (A) (A) (A) (A) (A)
                 (A) (A) (A) (A) (A) (A) (A) (A) (A) (A) (A) (A)
                 (A) (A) (A) (A) (A) (A) (A) (A) (A) (A) (A) (A)
                 (A) (A) (A) (A) (A) (A) (A) (A) (A) (A) (A) (A)
                 (A) (A) (A) (A) (A) (A) (A) (A) (A) (A) (A) (A)
                 (A) (A) (A) (A) (A) (A) (A) (A) (A) (A) (A) (A)
                 (A) (A) (A) (A) (A) (A) (A) (A) (A) (A) (A) (A)
                 (A) (A) (A) (A) (A) (A) (A) (A) (A) (A) (A) (A)
                 (A) (A) (A) (A) (A) (A) (A) (A) (A) (A) (A) (A)
                 (A) (A) (A) (A) (A) (A) (A) (A) (A) (A) (A) (A)
                 (A) (A) (A) (A) (A) (A) (A) (A) (A) (A) (A) (A)
                 (A) (A) (A) (A) (A) (A) (A) (A) (A) (A) (A) (A)
                 (A) (A) (A) (A) (A) (A) (A) (A) (A) (A) (A) (A)
                 (A) (A) (A) (A) (A) (A) (A) (A) (A) (A) (A) (A)
                 (A) (A) (A) (A) (A) (A) (A) (A) (A) (A) (A) (A)
                 (A) (A) (A) (A) (A) (A) (A) (A) (A) (A) (A) (A)
                 (A) (A) (A) (A) (A) (A) (A) (A) (A) (A) (A) (A)
                 (A) (A) (A) (A) (A) (A) (A) (A) (A) (A) (A) (A)
                 (A) (A) (A) (A) (A) (A) (A) (A) (A) (A) (A) (A)
                 (A) (A) (A) (A) (A) (A) (A) (A) (A) (A) (A) (A)
                 (A) (A) (A) (A) (A) (A) (A) (A) (A) (A) (A) (A)
                 (A) (A) (A) (A) (A) (A) (A) (A) (A) (A) (A) (A)
                 (A) (A) (A) (A) (A) (A) (A) (A) (A) (A) (A) (A)
                 (A) (A) (A) (A) (A) (A) (A) (A) (A) (A) (A) (A)
                 (A) (A) (A) (A) (A) (A) (A) (A) (A) (A) (A) (A)
                 (A) (A) (A) (A) (A) (A) (A) (A) (A) (A) (A) (A)
                 (A) (A) (A) (A) (A) (A) (A) (A) (A) (A) (A) (A)
                 (A) (A) (A) (A) (A) (A) (A) (A) (A) (A) (A) (A)
                 (A) (A) (A) (A) (A) (A) (A) (A) (A) (A) (A) (A)
                 (A) (A)
 The electronic state of the initial guess is 1-A.
 Requested convergence on RMS density matrix=1.00D-08 within 128 cycles.
 Requested convergence on MAX density matrix=1.00D-06.
 Requested convergence on             energy=1.00D-06.
 No special actions if energy rises.
 Error on total polarization charges =  0.03696
 SCF Done:  E(RmPW1PW91) =  -1117.79742961     A.U. after   13 cycles
             Convg  =    0.6031D-08             -V/T =  2.0096
 SMD-CDS (non-electrostatic) energy       (kcal/mol) =      -5.29
 (included in total energy above)
 Range of M.O.s used for correlation:     1   515
 NBasis=   515 NAE=    93 NBE=    93 NFC=     0 NFV=     0
 NROrb=    515 NOA=    93 NOB=    93 NVA=   422 NVB=   422
 NEqPCM:  Using equilibrium solvation (IEInf=0, Eps=   4.7113, EpsInf=   2.0906)
          Differentiating once with respect to magnetic field using GIAOs.
          Electric field/nuclear overlap derivatives assumed to be zero.
 FoFCou: FMM=F IPFlag=           0 FMFlag=    10101102 FMFlg1=           0
         NFxFlg=    40000000 DoJE=F BraDBF=F KetDBF=T FulRan=T
         Omega=  0.000000  0.000000  1.000000  0.000000  0.000000 ICntrl=    6100 IOpCl=  0
         NMat0=    1 NMatS0=    1 NMatT0=    0 NMatD0=    1 NMtDS0=    0 NMtDT0=    0
         I1Cent=           7 NGrid=        3352.
 Symmetry not used in FoFCou.
          There are     3 degrees of freedom in the 1st order CPHF.  IDoFFX=0.
      3 vectors produced by pass  0 Test12= 1.31D-12 3.33D-08 XBig12= 1.11D+02 3.61D+00.
 AX will form     3 AO Fock derivatives at one time.
      3 vectors produced by pass  1 Test12= 1.31D-12 3.33D-08 XBig12= 4.00D-01 2.95D-01.
      3 vectors produced by pass  2 Test12= 1.31D-12 3.33D-08 XBig12= 1.82D-03 2.53D-02.
      3 vectors produced by pass  3 Test12= 1.31D-12 3.33D-08 XBig12= 1.28D-05 1.41D-03.
      3 vectors produced by pass  4 Test12= 1.31D-12 3.33D-08 XBig12= 6.21D-08 5.64D-05.
      3 vectors produced by pass  5 Test12= 1.31D-12 3.33D-08 XBig12= 1.91D-10 3.10D-06.
      3 vectors produced by pass  6 Test12= 1.31D-12 3.33D-08 XBig12= 9.51D-13 2.32D-07.
 Inverted reduced A of dimension    21 with in-core refinement.
 Calculating GIAO nuclear magnetic shielding tensors.
 SCF GIAO Magnetic shielding tensor (ppm):
      1  H    Isotropic =    29.0380   Anisotropy =     5.6125
   XX=    30.4803   YX=     0.9878   ZX=     2.1200
   XY=    -0.0785   YY=    29.6924   ZY=    -4.2711
   XZ=     2.5678   YZ=    -3.0863   ZZ=    26.9415
   Eigenvalues:    23.6765    30.6580    32.7797
      2  C    Isotropic =   162.2102   Anisotropy =    38.2258
   XX=   149.4470   YX=    10.2654   ZX=   -10.5202
   XY=     7.9507   YY=   179.3522   ZY=    -9.7187
   XZ=    -8.3816   YZ=   -11.8511   ZZ=   157.8314
   Eigenvalues:   143.1850   155.7515   187.6941
      3  H    Isotropic =    29.9667   Anisotropy =     8.5984
   XX=    27.4857   YX=     0.5797   ZX=    -2.2973
   XY=     0.3688   YY=    35.0899   ZY=     2.5121
   XZ=    -2.5382   YZ=     1.9898   ZZ=    27.3245
   Eigenvalues:    24.6137    29.5874    35.6990
      4  C    Isotropic =   159.5516   Anisotropy =    30.4394
   XX=   160.6683   YX=   -10.3630   ZX=     7.5888
   XY=    -6.5682   YY=   162.1716   ZY=   -14.0921
   XZ=     5.4153   YZ=   -15.0467   ZZ=   155.8148
   Eigenvalues:   144.0764   154.7338   179.8445
      5  H    Isotropic =    29.4759   Anisotropy =    10.0862
   XX=    29.3498   YX=     2.3889   ZX=    -0.8017
   XY=     4.4851   YY=    33.1261   ZY=    -2.0334
   XZ=    -1.8479   YZ=    -3.9814   ZZ=    25.9517
   Eigenvalues:    24.8562    27.3713    36.2000
      6  H    Isotropic =    28.8008   Anisotropy =     6.0908
   XX=    27.4417   YX=     0.5008   ZX=    -3.3838
   XY=     0.1793   YY=    27.6292   ZY=    -1.9325
   XZ=    -1.7685   YZ=    -0.2664   ZZ=    31.3316
   Eigenvalues:    26.1322    27.4090    32.8613
      7  C    Isotropic =   146.8725   Anisotropy =    20.8257
   XX=   142.8321   YX=     8.4196   ZX=    -8.5123
   XY=     3.2834   YY=   153.7095   ZY=   -10.1766
   XZ=    -4.2212   YZ=    -2.8784   ZZ=   144.0758
   Eigenvalues:   137.0567   142.8045   160.7563
      8  C    Isotropic =   148.5309   Anisotropy =    21.8811
   XX=   162.5404   YX=    -0.0912   ZX=    -3.2083
   XY=     5.7412   YY=   149.0961   ZY=    -0.4294
   XZ=     2.0433   YZ=     1.2080   ZZ=   133.9561
   Eigenvalues:   133.9308   148.5435   163.1183
      9  C    Isotropic =   148.7610   Anisotropy =    17.3507
   XX=   159.5176   YX=     0.2431   ZX=     3.7010
   XY=     0.5149   YY=   143.0391   ZY=     7.0605
   XZ=     3.2406   YZ=     0.6098   ZZ=   143.7265
   Eigenvalues:   139.3107   146.6442   160.3282
     10  C    Isotropic =   -24.3166   Anisotropy =   204.0095
   XX=   -20.0541   YX=   -26.8027   ZX=   -94.0360
   XY=   -25.6606   YY=   -75.4482   ZY=    39.0064
   XZ=   -99.2579   YZ=    37.7046   ZZ=    22.5524
   Eigenvalues:   -98.7416   -85.8979   111.6897
     11  O    Isotropic =  -259.3816   Anisotropy =   929.7518
   XX=  -310.2438   YX=  -261.0938   ZX=  -431.7322
   XY=  -308.6620   YY=  -467.9727   ZY=    20.0843
   XZ=  -460.0843   YZ=    26.4173   ZZ=     0.0719
   Eigenvalues:  -790.8630  -347.7347   360.4530
     12  C    Isotropic =   167.5428   Anisotropy =    43.4723
   XX=   176.7963   YX=    -8.7214   ZX=   -13.4571
   XY=   -13.4057   YY=   150.1512   ZY=    17.2617
   XZ=    -9.8571   YZ=    17.0162   ZZ=   175.6809
   Eigenvalues:   140.8353   165.2688   196.5243
     13  H    Isotropic =    30.6692   Anisotropy =     8.7544
   XX=    29.9573   YX=    -2.1377   ZX=    -3.4903
   XY=    -0.7965   YY=    26.4146   ZY=     0.6355
   XZ=    -1.1355   YZ=    -0.2343   ZZ=    35.6355
   Eigenvalues:    25.8452    29.6568    36.5054
     14  H    Isotropic =    30.7839   Anisotropy =    10.8474
   XX=    37.8367   YX=     0.5264   ZX=    -0.7589
   XY=    -0.2738   YY=    26.7061   ZY=     0.7319
   XZ=    -1.9422   YZ=     1.2424   ZZ=    27.8088
   Eigenvalues:    26.0709    28.2653    38.0155
     15  H    Isotropic =    30.2320   Anisotropy =     8.0727
   XX=    30.4680   YX=    -2.9468   ZX=    -1.9160
   XY=    -1.8446   YY=    33.6388   ZY=     1.1942
   XZ=    -1.6744   YZ=     2.5082   ZZ=    26.5892
   Eigenvalues:    25.7713    29.3109    35.6138
     16  C    Isotropic =   174.9121   Anisotropy =    24.9738
   XX=   168.4278   YX=    -1.8424   ZX=     5.1697
   XY=    -0.5961   YY=   165.4877   ZY=    -3.0728
   XZ=     2.3458   YZ=    -0.2116   ZZ=   190.8207
   Eigenvalues:   165.0445   168.1304   191.5613
     17  H    Isotropic =    30.5709   Anisotropy =     7.1775
   XX=    31.5372   YX=    -1.6280   ZX=     0.0610
   XY=    -2.5425   YY=    25.5784   ZY=     2.1774
   XZ=    -0.7642   YZ=     2.4489   ZZ=    34.5971
   Eigenvalues:    24.4792    31.8776    35.3559
     18  H    Isotropic =    30.9212   Anisotropy =     7.3290
   XX=    30.0951   YX=    -0.8645   ZX=     2.8157
   XY=    -0.4521   YY=    33.0207   ZY=    -2.9437
   XZ=     2.7256   YZ=    -3.6435   ZZ=    29.6478
   Eigenvalues:    26.3785    30.5779    35.8072
     19  H    Isotropic =    30.1729   Anisotropy =    10.8975
   XX=    34.7953   YX=     2.7713   ZX=     3.7812
   XY=     1.8129   YY=    26.9583   ZY=     0.0111
   XZ=     4.7076   YZ=     0.5651   ZZ=    28.7651
   Eigenvalues:    25.7609    27.3199    37.4379
     20  C    Isotropic =   171.5291   Anisotropy =    14.4192
   XX=   178.5167   YX=     2.4545   ZX=     5.1957
   XY=     5.5390   YY=   171.3104   ZY=    -4.5790
   XZ=     4.3070   YZ=     0.9104   ZZ=   164.7600
   Eigenvalues:   162.2554   171.1900   181.1419
     21  H    Isotropic =    29.9007   Anisotropy =     6.4743
   XX=    29.7343   YX=     1.4675   ZX=     3.2598
   XY=     0.7817   YY=    28.0871   ZY=    -2.8807
   XZ=     2.2584   YZ=    -2.3662   ZZ=    31.8808
   Eigenvalues:    25.4174    30.0679    34.2169
     22  H    Isotropic =    30.0608   Anisotropy =     9.3364
   XX=    33.5943   YX=    -3.0200   ZX=    -0.8236
   XY=    -2.4844   YY=    33.2381   ZY=     1.1618
   XZ=    -0.3578   YZ=     1.0760   ZZ=    23.3499
   Eigenvalues:    23.2166    30.6807    36.2850
     23  C    Isotropic =   106.8144   Anisotropy =    50.0321
   XX=   117.2697   YX=   -19.5994   ZX=    -8.7875
   XY=   -23.2505   YY=   107.7210   ZY=    12.6610
   XZ=    -9.6444   YZ=    15.1983   ZZ=    95.4526
   Eigenvalues:    85.3194    94.9548   140.1692
     24  C    Isotropic =   165.8575   Anisotropy =    22.8867
   XX=   179.6562   YX=    -1.1283   ZX=     2.8026
   XY=    -8.5120   YY=   163.3546   ZY=     2.9643
   XZ=     2.8178   YZ=     3.1348   ZZ=   154.5618
   Eigenvalues:   152.9408   163.5164   181.1154
     25  H    Isotropic =    30.2557   Anisotropy =     6.5142
   XX=    29.2282   YX=    -0.5545   ZX=     0.9732
   XY=    -0.1501   YY=    30.7564   ZY=     4.1102
   XZ=     0.3526   YZ=     3.5296   ZZ=    30.7826
   Eigenvalues:    26.7420    29.4266    34.5986
     26  H    Isotropic =    29.8049   Anisotropy =    10.3155
   XX=    29.7099   YX=     1.7215   ZX=     0.0589
   XY=     1.5112   YY=    35.3027   ZY=    -3.8410
   XZ=     0.5878   YZ=    -3.3288   ZZ=    24.4021
   Eigenvalues:    23.2341    29.4988    36.6819
     27  C    Isotropic =   161.5450   Anisotropy =     5.3334
   XX=   160.7332   YX=    -1.2876   ZX=    -0.3801
   XY=    -4.8206   YY=   160.2916   ZY=    -8.3490
   XZ=    -4.2679   YZ=     6.7462   ZZ=   163.6101
   Eigenvalues:   156.7445   162.7898   165.1006
     28  H    Isotropic =    29.1028   Anisotropy =     4.4937
   XX=    31.7820   YX=    -1.1908   ZX=    -0.7287
   XY=    -0.9090   YY=    25.9442   ZY=     0.6215
   XZ=    -0.3562   YZ=    -0.1014   ZZ=    29.5821
   Eigenvalues:    25.7541    29.4556    32.0986
     29  C    Isotropic =   174.2216   Anisotropy =    21.7574
   XX=   161.4130   YX=     7.0417   ZX=    -1.8283
   XY=     4.9870   YY=   173.0919   ZY=     1.7553
   XZ=    -1.9632   YZ=    -5.9105   ZZ=   188.1599
   Eigenvalues:   158.8393   175.0991   188.7265
     30  H    Isotropic =    30.3193   Anisotropy =     8.4470
   XX=    31.9573   YX=    -2.8189   ZX=    -1.1983
   XY=    -3.1743   YY=    28.2003   ZY=     4.0939
   XZ=    -1.1079   YZ=     4.4720   ZZ=    30.8003
   Eigenvalues:    24.5760    30.4312    35.9507
     31  H    Isotropic =    30.3108   Anisotropy =     6.9042
   XX=    27.2535   YX=     0.9627   ZX=    -0.3674
   XY=     0.0385   YY=    30.1201   ZY=    -1.5332
   XZ=    -0.1035   YZ=    -3.5016   ZZ=    33.5590
   Eigenvalues:    27.1603    28.8585    34.9137
     32  H    Isotropic =    30.8877   Anisotropy =     8.1896
   XX=    32.3203   YX=     1.8131   ZX=     2.2412
   XY=     1.7788   YY=    28.5518   ZY=     3.7217
   XZ=     2.4542   YZ=     3.6285   ZZ=    31.7910
   Eigenvalues:    26.1456    30.1701    36.3475
     33  C    Isotropic =   181.5261   Anisotropy =    22.4835
   XX=   172.6241   YX=    -4.0728   ZX=     1.4518
   XY=    -5.6786   YY=   175.7839   ZY=     0.9962
   XZ=    -5.0840   YZ=     2.3026   ZZ=   196.1703
   Eigenvalues:   169.0694   178.9939   196.5151
     34  H    Isotropic =    30.3557   Anisotropy =     7.9261
   XX=    32.6602   YX=     2.5071   ZX=     3.0695
   XY=     2.2969   YY=    25.8394   ZY=    -0.1574
   XZ=     2.2504   YZ=     0.5534   ZZ=    32.5674
   Eigenvalues:    25.0224    30.4048    35.6398
     35  H    Isotropic =    30.3140   Anisotropy =     8.4237
   XX=    27.5794   YX=     1.3826   ZX=     1.4969
   XY=     1.6003   YY=    31.4682   ZY=    -3.5431
   XZ=     0.3436   YZ=    -4.9106   ZZ=    31.8945
   Eigenvalues:    25.7918    29.2204    35.9299
     36  H    Isotropic =    30.1323   Anisotropy =     7.8760
   XX=    29.9038   YX=    -3.0880   ZX=    -1.1472
   XY=    -3.2989   YY=    28.2837   ZY=     2.2337
   XZ=    -2.5343   YZ=     2.9375   ZZ=    32.2093
   Eigenvalues:    25.6398    29.3741    35.3830
     37  H    Isotropic =    29.4764   Anisotropy =     4.1294
   XX=    30.0823   YX=     2.4211   ZX=    -0.2510
   XY=     2.1160   YY=    26.4003   ZY=    -0.4668
   XZ=     1.6060   YZ=     0.0077   ZZ=    31.9467
   Eigenvalues:    25.2822    30.9178    32.2293
     38  O    Isotropic =   185.5226   Anisotropy =    80.1892
   XX=   170.4895   YX=    38.6986   ZX=     8.2047
   XY=    38.9447   YY=   154.0101   ZY=   -12.8189
   XZ=    29.8149   YZ=    11.5792   ZZ=   232.0683
   Eigenvalues:   121.1338   196.4520   238.9821
     39  C    Isotropic =    31.5657   Anisotropy =    79.9979
   XX=   -35.9819   YX=    35.4114   ZX=    11.3798
   XY=    16.8732   YY=    47.4092   ZY=    -4.3050
   XZ=     7.7771   YZ=   -10.3563   ZZ=    83.2698
   Eigenvalues:   -44.4884    54.2879    84.8976
     40  C    Isotropic =    90.4856   Anisotropy =   106.8810
   XX=    61.4602   YX=     6.1314   ZX=     5.2805
   XY=    21.0391   YY=    49.4355   ZY=    -5.5217
   XZ=     0.1307   YZ=   -17.3117   ZZ=   160.5612
   Eigenvalues:    39.5791    70.1381   161.7396
     41  C    Isotropic =   169.8420   Anisotropy =    20.4527
   XX=   182.8732   YX=    -6.0222   ZX=     1.4257
   XY=     1.7775   YY=   156.3568   ZY=    -1.0356
   XZ=     3.2373   YZ=    -0.7087   ZZ=   170.2959
   Eigenvalues:   156.1543   169.8945   183.4771
     42  H    Isotropic =    29.2521   Anisotropy =    10.0261
   XX=    31.2175   YX=     2.9488   ZX=    -1.5513
   XY=     3.1827   YY=    30.5971   ZY=    -4.1126
   XZ=    -1.1387   YZ=    -5.4833   ZZ=    25.9415
   Eigenvalues:    22.9039    28.9162    35.9361
     43  H    Isotropic =    29.7264   Anisotropy =     6.9307
   XX=    29.5422   YX=     1.1253   ZX=     1.2623
   XY=     1.6512   YY=    29.0737   ZY=     3.3651
   XZ=     0.2855   YZ=     4.6319   ZZ=    30.5632
   Eigenvalues:    25.6603    29.1721    34.3468
     44  O    Isotropic =   125.4440   Anisotropy =   224.3983
   XX=    44.1145   YX=   -18.3270   ZX=    13.7906
   XY=    -4.4561   YY=    58.6023   ZY=   -16.3876
   XZ=     9.0389   YZ=    -9.7928   ZZ=   273.6152
   Eigenvalues:    37.7978    63.4913   275.0429
     45  C    Isotropic =    34.7041   Anisotropy =   109.8602
   XX=   -45.9095   YX=    25.9681   ZX=     9.9461
   XY=    36.8716   YY=    42.9789   ZY=    -6.6398
   XZ=    11.8428   YZ=    -3.3241   ZZ=   107.0430
   Eigenvalues:   -56.7575    52.9256   107.9443
     46  C    Isotropic =   175.1894   Anisotropy =    35.6722
   XX=   180.2449   YX=   -12.3368   ZX=    -2.1087
   XY=   -14.2073   YY=   189.0235   ZY=     3.1402
   XZ=    -2.3598   YZ=     3.2693   ZZ=   156.2997
   Eigenvalues:   155.9418   170.6554   198.9708
     47  H    Isotropic =    29.3959   Anisotropy =     8.4366
   XX=    28.0826   YX=    -2.1847   ZX=    -0.0998
   XY=    -1.3598   YY=    31.4966   ZY=    -4.7325
   XZ=    -0.0042   YZ=    -4.1686   ZZ=    28.6086
   Eigenvalues:    24.9699    28.1975    35.0203
     48  H    Isotropic =    29.4881   Anisotropy =     8.9912
   XX=    35.4444   YX=     0.5914   ZX=    -0.5035
   XY=    -0.9994   YY=    28.3250   ZY=     0.3373
   XZ=    -0.6551   YZ=     0.2293   ZZ=    24.6948
   Eigenvalues:    24.6436    28.3385    35.4822
     49  H    Isotropic =    29.3966   Anisotropy =     8.4940
   XX=    28.0563   YX=    -1.7186   ZX=    -0.0459
   XY=    -0.8312   YY=    30.0866   ZY=     5.0990
   XZ=    -0.1139   YZ=     4.6201   ZZ=    30.0470
   Eigenvalues:    24.9698    28.1609    35.0593
     50  C    Isotropic =    81.9343   Anisotropy =    98.7356
   XX=     2.5046   YX=    -0.9614   ZX=     7.2486
   XY=   -16.9271   YY=    96.1881   ZY=    -2.7288
   XZ=     7.9170   YZ=    -3.5080   ZZ=   147.1102
   Eigenvalues:     1.2970    96.7480   147.7580
     51  H    Isotropic =    25.3012   Anisotropy =     5.2738
   XX=    24.5074   YX=    -0.2457   ZX=    -0.0961
   XY=    -1.6313   YY=    28.5572   ZY=     0.5154
   XZ=    -0.1843   YZ=     0.5745   ZZ=    22.8389
   Eigenvalues:    22.7857    24.3007    28.8171
     52  C    Isotropic =    22.4822   Anisotropy =   148.4598
   XX=   -40.0953   YX=    16.9556   ZX=     8.2244
   XY=    11.7690   YY=   -12.5505   ZY=   -11.3909
   XZ=     6.7626   YZ=   -13.1614   ZZ=   120.0923
   Eigenvalues:   -47.0503    -6.9586   121.4554
     53  O    Isotropic =  -113.0083   Anisotropy =   748.9626
   XX=  -210.7931   YX=   -81.4957   ZX=    19.4133
   XY=  -122.7304   YY=  -508.0172   ZY=   -64.2712
   XZ=    11.7621   YZ=   -76.7615   ZZ=   379.7854
   Eigenvalues:  -543.9929  -181.3321   386.3001
 End of Minotr Frequency-dependent properties file   721 does not exist.
 End of Minotr Frequency-dependent properties file   722 does not exist.

 **********************************************************************

            Population analysis using the SCF density.

 **********************************************************************

 Orbital symmetries:
       Occupied  (A) (A) (A) (A) (A) (A) (A) (A) (A) (A) (A) (A)
                 (A) (A) (A) (A) (A) (A) (A) (A) (A) (A) (A) (A)
                 (A) (A) (A) (A) (A) (A) (A) (A) (A) (A) (A) (A)
                 (A) (A) (A) (A) (A) (A) (A) (A) (A) (A) (A) (A)
                 (A) (A) (A) (A) (A) (A) (A) (A) (A) (A) (A) (A)
                 (A) (A) (A) (A) (A) (A) (A) (A) (A) (A) (A) (A)
                 (A) (A) (A) (A) (A) (A) (A) (A) (A) (A) (A) (A)
                 (A) (A) (A) (A) (A) (A) (A) (A) (A)
       Virtual   (A) (A) (A) (A) (A) (A) (A) (A) (A) (A) (A) (A)
                 (A) (A) (A) (A) (A) (A) (A) (A) (A) (A) (A) (A)
                 (A) (A) (A) (A) (A) (A) (A) (A) (A) (A) (A) (A)
                 (A) (A) (A) (A) (A) (A) (A) (A) (A) (A) (A) (A)
                 (A) (A) (A) (A) (A) (A) (A) (A) (A) (A) (A) (A)
                 (A) (A) (A) (A) (A) (A) (A) (A) (A) (A) (A) (A)
                 (A) (A) (A) (A) (A) (A) (A) (A) (A) (A) (A) (A)
                 (A) (A) (A) (A) (A) (A) (A) (A) (A) (A) (A) (A)
                 (A) (A) (A) (A) (A) (A) (A) (A) (A) (A) (A) (A)
                 (A) (A) (A) (A) (A) (A) (A) (A) (A) (A) (A) (A)
                 (A) (A) (A) (A) (A) (A) (A) (A) (A) (A) (A) (A)
                 (A) (A) (A) (A) (A) (A) (A) (A) (A) (A) (A) (A)
                 (A) (A) (A) (A) (A) (A) (A) (A) (A) (A) (A) (A)
                 (A) (A) (A) (A) (A) (A) (A) (A) (A) (A) (A) (A)
                 (A) (A) (A) (A) (A) (A) (A) (A) (A) (A) (A) (A)
                 (A) (A) (A) (A) (A) (A) (A) (A) (A) (A) (A) (A)
                 (A) (A) (A) (A) (A) (A) (A) (A) (A) (A) (A) (A)
                 (A) (A) (A) (A) (A) (A) (A) (A) (A) (A) (A) (A)
                 (A) (A) (A) (A) (A) (A) (A) (A) (A) (A) (A) (A)
                 (A) (A) (A) (A) (A) (A) (A) (A) (A) (A) (A) (A)
                 (A) (A) (A) (A) (A) (A) (A) (A) (A) (A) (A) (A)
                 (A) (A) (A) (A) (A) (A) (A) (A) (A) (A) (A) (A)
                 (A) (A) (A) (A) (A) (A) (A) (A) (A) (A) (A) (A)
                 (A) (A) (A) (A) (A) (A) (A) (A) (A) (A) (A) (A)
                 (A) (A) (A) (A) (A) (A) (A) (A) (A) (A) (A) (A)
                 (A) (A) (A) (A) (A) (A) (A) (A) (A) (A) (A) (A)
                 (A) (A) (A) (A) (A) (A) (A) (A) (A) (A) (A) (A)
                 (A) (A) (A) (A) (A) (A) (A) (A) (A) (A) (A) (A)
                 (A) (A) (A) (A) (A) (A) (A) (A) (A) (A) (A) (A)
                 (A) (A) (A) (A) (A) (A) (A) (A) (A) (A) (A) (A)
                 (A) (A) (A) (A) (A) (A) (A) (A) (A) (A) (A) (A)
                 (A) (A) (A) (A) (A) (A) (A) (A) (A) (A) (A) (A)
                 (A) (A) (A) (A) (A) (A) (A) (A) (A) (A) (A) (A)
                 (A) (A) (A) (A) (A) (A) (A) (A) (A) (A) (A) (A)
                 (A) (A) (A) (A) (A) (A) (A) (A) (A) (A) (A) (A)
                 (A) (A)
 The electronic state is 1-A.
 Alpha  occ. eigenvalues --  -19.32556 -19.28782 -19.22298 -19.19655 -10.38502
 Alpha  occ. eigenvalues --  -10.33746 -10.32732 -10.32420 -10.31786 -10.27139
 Alpha  occ. eigenvalues --  -10.26510 -10.25390 -10.25113 -10.25072 -10.24937
 Alpha  occ. eigenvalues --  -10.24569 -10.24422 -10.24145 -10.24081 -10.23814
 Alpha  occ. eigenvalues --  -10.23646 -10.23608 -10.23471 -10.22679 -10.22603
 Alpha  occ. eigenvalues --   -1.15117  -1.09212  -1.05472  -1.04096  -0.88109
 Alpha  occ. eigenvalues --   -0.84821  -0.84038  -0.82631  -0.81051  -0.77598
 Alpha  occ. eigenvalues --   -0.76820  -0.74573  -0.72683  -0.70186  -0.69678
 Alpha  occ. eigenvalues --   -0.67833  -0.66778  -0.66471  -0.62837  -0.62332
 Alpha  occ. eigenvalues --   -0.59306  -0.58490  -0.55805  -0.54176  -0.52419
 Alpha  occ. eigenvalues --   -0.51144  -0.50165  -0.49811  -0.49190  -0.48095
 Alpha  occ. eigenvalues --   -0.47484  -0.46592  -0.45042  -0.44639  -0.44185
 Alpha  occ. eigenvalues --   -0.43964  -0.43408  -0.42991  -0.42564  -0.42413
 Alpha  occ. eigenvalues --   -0.41621  -0.41329  -0.41025  -0.40846  -0.40205
 Alpha  occ. eigenvalues --   -0.39764  -0.39440  -0.38753  -0.38280  -0.38252
 Alpha  occ. eigenvalues --   -0.37731  -0.37019  -0.36799  -0.35793  -0.35730
 Alpha  occ. eigenvalues --   -0.34544  -0.34394  -0.34284  -0.33832  -0.33308
 Alpha  occ. eigenvalues --   -0.32634  -0.30567  -0.30026  -0.29081  -0.26500
 Alpha  occ. eigenvalues --   -0.24643  -0.24456  -0.23930
 Alpha virt. eigenvalues --   -0.01809  -0.00580   0.01389   0.08575   0.09242
 Alpha virt. eigenvalues --    0.10831   0.11547   0.12366   0.12512   0.13602
 Alpha virt. eigenvalues --    0.13737   0.14234   0.14557   0.14695   0.15346
 Alpha virt. eigenvalues --    0.15741   0.16359   0.16880   0.16973   0.17608
 Alpha virt. eigenvalues --    0.17854   0.18635   0.19320   0.19472   0.19533
 Alpha virt. eigenvalues --    0.19594   0.19872   0.20681   0.20840   0.20946
 Alpha virt. eigenvalues --    0.21453   0.22157   0.22809   0.23027   0.23616
 Alpha virt. eigenvalues --    0.23960   0.24495   0.25097   0.25263   0.25777
 Alpha virt. eigenvalues --    0.26229   0.26828   0.27247   0.28318   0.29030
 Alpha virt. eigenvalues --    0.29556   0.30011   0.30732   0.30805   0.32144
 Alpha virt. eigenvalues --    0.32581   0.34150   0.35652   0.36802   0.37456
 Alpha virt. eigenvalues --    0.38957   0.40814   0.43503   0.47381   0.48452
 Alpha virt. eigenvalues --    0.49941   0.51015   0.51566   0.52133   0.52827
 Alpha virt. eigenvalues --    0.53143   0.54516   0.54885   0.55303   0.55714
 Alpha virt. eigenvalues --    0.56377   0.57176   0.57602   0.58410   0.58864
 Alpha virt. eigenvalues --    0.59571   0.60514   0.61639   0.62858   0.62931
 Alpha virt. eigenvalues --    0.63938   0.64515   0.65012   0.65183   0.66121
 Alpha virt. eigenvalues --    0.66852   0.66901   0.67561   0.68841   0.69125
 Alpha virt. eigenvalues --    0.69490   0.69846   0.71464   0.71924   0.72196
 Alpha virt. eigenvalues --    0.72772   0.73734   0.74472   0.76059   0.77247
 Alpha virt. eigenvalues --    0.77852   0.78696   0.78978   0.80316   0.80854
 Alpha virt. eigenvalues --    0.81487   0.82094   0.82605   0.83865   0.84345
 Alpha virt. eigenvalues --    0.85364   0.85851   0.86020   0.86698   0.87322
 Alpha virt. eigenvalues --    0.88313   0.88615   0.88978   0.89415   0.90033
 Alpha virt. eigenvalues --    0.90392   0.90566   0.90684   0.92005   0.92494
 Alpha virt. eigenvalues --    0.92824   0.92872   0.93670   0.93906   0.94409
 Alpha virt. eigenvalues --    0.94929   0.95266   0.95442   0.96132   0.97652
 Alpha virt. eigenvalues --    0.98392   0.98763   0.99467   0.99895   1.00663
 Alpha virt. eigenvalues --    1.00713   1.01910   1.03283   1.03717   1.04122
 Alpha virt. eigenvalues --    1.05023   1.05065   1.05976   1.06710   1.07031
 Alpha virt. eigenvalues --    1.08770   1.09904   1.11125   1.11457   1.13457
 Alpha virt. eigenvalues --    1.13937   1.15402   1.16283   1.16798   1.18776
 Alpha virt. eigenvalues --    1.20412   1.21462   1.22351   1.23660   1.25019
 Alpha virt. eigenvalues --    1.25932   1.26425   1.27380   1.29072   1.29868
 Alpha virt. eigenvalues --    1.30570   1.32278   1.34130   1.34525   1.37445
 Alpha virt. eigenvalues --    1.38283   1.38600   1.42775   1.43489   1.44637
 Alpha virt. eigenvalues --    1.46388   1.48045   1.48723   1.50264   1.51273
 Alpha virt. eigenvalues --    1.52038   1.54395   1.54779   1.55104   1.56891
 Alpha virt. eigenvalues --    1.59566   1.61722   1.63391   1.63892   1.64286
 Alpha virt. eigenvalues --    1.66152   1.68931   1.69383   1.69809   1.70516
 Alpha virt. eigenvalues --    1.71404   1.72341   1.72872   1.73540   1.74042
 Alpha virt. eigenvalues --    1.75278   1.75716   1.77724   1.78245   1.78648
 Alpha virt. eigenvalues --    1.80054   1.80384   1.81823   1.82223   1.83346
 Alpha virt. eigenvalues --    1.83700   1.83984   1.85136   1.85620   1.86267
 Alpha virt. eigenvalues --    1.86475   1.87658   1.88185   1.88276   1.88906
 Alpha virt. eigenvalues --    1.90021   1.90327   1.91704   1.92334   1.93043
 Alpha virt. eigenvalues --    1.93502   1.94657   1.95735   1.96186   1.96577
 Alpha virt. eigenvalues --    1.97080   1.98304   1.99094   1.99610   2.01089
 Alpha virt. eigenvalues --    2.01880   2.02782   2.03044   2.04056   2.04803
 Alpha virt. eigenvalues --    2.05013   2.05946   2.06134   2.06713   2.07044
 Alpha virt. eigenvalues --    2.07671   2.08815   2.09263   2.09386   2.09879
 Alpha virt. eigenvalues --    2.11304   2.12265   2.12561   2.13560   2.13826
 Alpha virt. eigenvalues --    2.14077   2.15104   2.16362   2.17285   2.17555
 Alpha virt. eigenvalues --    2.18051   2.18461   2.18817   2.20027   2.20362
 Alpha virt. eigenvalues --    2.20926   2.21767   2.22172   2.23469   2.24314
 Alpha virt. eigenvalues --    2.25491   2.26683   2.27824   2.28748   2.29782
 Alpha virt. eigenvalues --    2.31541   2.32182   2.33125   2.34558   2.35077
 Alpha virt. eigenvalues --    2.35633   2.36165   2.38034   2.38708   2.39350
 Alpha virt. eigenvalues --    2.40289   2.41918   2.42822   2.43402   2.44039
 Alpha virt. eigenvalues --    2.45135   2.45835   2.47213   2.47612   2.48926
 Alpha virt. eigenvalues --    2.49775   2.50181   2.52046   2.53467   2.54259
 Alpha virt. eigenvalues --    2.54851   2.55329   2.58387   2.58655   2.59307
 Alpha virt. eigenvalues --    2.60194   2.61901   2.62563   2.63396   2.64138
 Alpha virt. eigenvalues --    2.65231   2.65723   2.66784   2.67775   2.68822
 Alpha virt. eigenvalues --    2.69495   2.70479   2.70981   2.71402   2.73043
 Alpha virt. eigenvalues --    2.74493   2.74668   2.75205   2.76331   2.77467
 Alpha virt. eigenvalues --    2.77593   2.78370   2.79461   2.80770   2.80884
 Alpha virt. eigenvalues --    2.82205   2.83062   2.84118   2.84408   2.85763
 Alpha virt. eigenvalues --    2.86060   2.87304   2.88132   2.88879   2.89047
 Alpha virt. eigenvalues --    2.90465   2.90704   2.90889   2.91589   2.91748
 Alpha virt. eigenvalues --    2.92645   2.93470   2.93752   2.94589   2.95076
 Alpha virt. eigenvalues --    2.97025   2.99075   3.00091   3.02434   3.03276
 Alpha virt. eigenvalues --    3.05201   3.05977   3.08988   3.10564   3.13653
 Alpha virt. eigenvalues --    3.16033   3.20416   3.21874   3.22915   3.25442
 Alpha virt. eigenvalues --    3.27162   3.27916   3.30267   3.30778   3.31594
 Alpha virt. eigenvalues --    3.33887   3.37415   3.38489   3.39558   3.44078
 Alpha virt. eigenvalues --    3.44379   3.45497   3.46836   3.48516   3.48982
 Alpha virt. eigenvalues --    3.51197   3.51380   3.51665   3.52022   3.52677
 Alpha virt. eigenvalues --    3.53456   3.54227   3.54955   3.55760   3.56605
 Alpha virt. eigenvalues --    3.61623   3.64838   4.00526   4.16170   4.21192
 Alpha virt. eigenvalues --    4.23050   4.24255   4.31131   4.39905   4.43903
 Alpha virt. eigenvalues --    4.46506   4.49618   4.50900   4.55894   4.58608
 Alpha virt. eigenvalues --    4.61238   4.62795   4.64790   4.68294   4.70085
 Alpha virt. eigenvalues --    4.74493   4.77840   4.79450   4.84578   4.90122
 Alpha virt. eigenvalues --    4.91607   4.99448
          Condensed to atoms (all electrons):
 Mulliken atomic charges:
              1
     1  H    0.147512
     2  C   -0.268522
     3  H    0.151990
     4  C   -0.327889
     5  H    0.156585
     6  H    0.167866
     7  C   -0.086349
     8  C   -0.101606
     9  C    0.003655
    10  C    0.467720
    11  O   -0.517942
    12  C   -0.395598
    13  H    0.141837
    14  H    0.150366
    15  H    0.151816
    16  C   -0.388297
    17  H    0.140133
    18  H    0.137111
    19  H    0.144041
    20  C   -0.257705
    21  H    0.139356
    22  H    0.136716
    23  C    0.243754
    24  C   -0.254366
    25  H    0.135383
    26  H    0.141371
    27  C   -0.145149
    28  H    0.134254
    29  C   -0.416923
    30  H    0.147447
    31  H    0.137331
    32  H    0.145165
    33  C   -0.410326
    34  H    0.151644
    35  H    0.153142
    36  H    0.155278
    37  H    0.153626
    38  O   -0.565398
    39  C    0.601437
    40  C   -0.089413
    41  C   -0.269424
    42  H    0.162646
    43  H    0.156516
    44  O   -0.545334
    45  C    0.331575
    46  C   -0.461906
    47  H    0.179838
    48  H    0.180179
    49  H    0.180229
    50  C   -0.231237
    51  H    0.171982
    52  C    0.414904
    53  O   -0.581021
 Sum of Mulliken atomic charges =   0.00000
 Mulliken charges with hydrogens summed into heavy atoms:
              1
     2  C    0.030980
     4  C   -0.003438
     7  C   -0.086349
     8  C    0.032648
     9  C    0.003655
    10  C    0.467720
    11  O   -0.517942
    12  C    0.048422
    16  C    0.032988
    20  C    0.018368
    23  C    0.243754
    24  C    0.022387
    27  C    0.008477
    29  C    0.013020
    33  C    0.049738
    38  O   -0.565398
    39  C    0.601437
    40  C   -0.089413
    41  C    0.049738
    44  O   -0.545334
    45  C    0.331575
    46  C    0.078340
    50  C   -0.059255
    52  C    0.414904
    53  O   -0.581021
 Sum of Mulliken charges with hydrogens summed into heavy atoms =   0.00000
 Electronic spatial extent (au):  <R**2>=           9852.0454
 Charge=              0.0000 electrons
 Dipole moment (field-independent basis, Debye):
    X=              0.1626    Y=             -1.0211    Z=              1.5949  Tot=              1.9008
 Quadrupole moment (field-independent basis, Debye-Ang):
   XX=           -167.8962   YY=           -154.8541   ZZ=           -143.5174
   XY=            -39.4137   XZ=             -8.6538   YZ=             -2.5264
 Traceless Quadrupole moment (field-independent basis, Debye-Ang):
   XX=            -12.4736   YY=              0.5684   ZZ=             11.9052
   XY=            -39.4137   XZ=             -8.6538   YZ=             -2.5264
 Octapole moment (field-independent basis, Debye-Ang**2):
  XXX=            177.4651  YYY=            -27.5867  ZZZ=              4.9103  XYY=             -3.1631
  XXY=            -69.1630  XXZ=             15.4109  XZZ=             -3.2020  YZZ=             -4.4255
  YYZ=              1.2382  XYZ=             11.5546
 Hexadecapole moment (field-independent basis, Debye-Ang**3):
 XXXX=         -10237.2108 YYYY=          -2121.5858 ZZZZ=           -780.9678 XXXY=          -1149.7912
 XXXZ=           -216.4280 YYYX=           -216.9621 YYYZ=            -15.3751 ZZZX=             -6.4677
 ZZZY=              2.9787 XXYY=          -2262.6674 XXZZ=          -1803.4922 YYZZ=           -464.8968
 XXYZ=            -34.6424 YYXZ=            -35.5060 ZZXY=              8.0353
 N-N= 2.393130869347D+03 E-N=-7.384453845391D+03  KE= 1.107182660913D+03
 1\1\GINC-COMPUTE-8-11\SP\RmPW1PW91\6-31G(d,p)\C21H28O4\FBRUNO.IQUIR\16
 -Oct-2021\0\\# mPW1PW91/6-31g** scrf=(pcm,solvent=chloroform,smd,dovac
 uum) nmr\\comment\\0,1\H,0,2.365908812,0.249423131,-1.108769778\C,0,2.
 365202765,0.182399222,-0.018278325\H,0,2.873129727,-0.771605561,0.1809
 6022\C,0,3.244828942,1.29806117,0.523315725\H,0,4.294689666,1.10194993
 2,0.279707834\H,0,2.985898898,2.26484496,0.078813659\C,0,1.699695273,1
 .777042793,2.539677048\C,0,0.61987588,1.43785113,1.447598174\C,0,0.915
 401759,0.150005739,0.580406572\C,0,3.089385626,1.391219208,2.019793614
 \O,0,4.053493294,1.224964981,2.766460957\C,0,1.740372788,3.304966978,2
 .770100902\H,0,1.956851018,3.845687771,1.841515777\H,0,2.526860428,3.5
 76642314,3.484528514\H,0,0.790606853,3.679814985,3.164940505\C,0,1.457
 149709,1.115313162,3.908090592\H,0,1.421207068,0.026369432,3.848992743
 \H,0,0.523789759,1.460125434,4.365451497\H,0,2.259700615,1.360938115,4
 .61436456\C,0,-0.826061476,1.449009838,1.997948461\H,0,-0.954250012,0.
 67457027,2.761803528\H,0,-1.030765288,2.404867569,2.493641691\C,0,-0.1
 86781514,0.038608612,-0.57618814\C,0,-1.887386809,1.236155455,0.917941
 419\H,0,-1.950076833,2.129938338,0.28638911\H,0,-2.867836068,1.1345008
 37,1.399442857\C,0,-1.597854473,-0.003733395,0.070561061\H,0,0.6621478
 98,2.279524763,0.743138856\C,0,0.873919656,-1.137158123,1.461772411\H,
 0,0.904971661,-2.044641077,0.848494622\H,0,-0.016405552,-1.202188157,2
 .090730802\H,0,1.741771162,-1.195658039,2.126317004\C,0,-0.069178092,1
 .194885599,-1.61158106\H,0,-0.815222038,1.103961896,-2.407979348\H,0,0
 .887504827,1.178530634,-2.140232721\H,0,-0.194562849,2.185425505,-1.17
 0209172\H,0,-1.650751817,-0.878343288,0.733624373\O,0,0.064566841,-1.1
 88853354,-1.298299247\C,0,-0.969224231,-1.740050765,-2.034130223\C,0,-
 2.240933576,-1.312953009,-1.932873903\C,0,-2.682010385,-0.244981041,-0
 .983620296\H,0,-3.606109468,-0.545392652,-0.474024231\H,0,-2.909401987
 ,0.671994855,-1.539886914\O,0,-0.59769807,-2.762740686,-2.895246967\C,
 0,-1.547229362,-3.374568607,-3.692647535\C,0,-1.002089173,-4.458617132
 ,-4.565950849\H,0,-0.23570832,-4.055226698,-5.235529663\H,0,-1.7800858
 53,-4.919660114,-5.183229941\H,0,-0.547742049,-5.244446035,-3.95403765
 3\C,0,-2.838340005,-3.023991091,-3.68204476\H,0,-3.593866263,-3.490367
 053,-4.29990736\C,0,-3.273950487,-1.943425048,-2.784089187\O,0,-4.4474
 08878,-1.590993706,-2.757767813\\Version=EM64L-G09RevC.01\State=1-A\HF
 =-1117.7974296\RMSD=6.031e-09\Dipole=0.3927379,0.2473243,-0.5863576\Qu
 adrupole=-26.4330855,19.4562363,6.9768493,-3.7083481,-18.9374438,7.107
 4722\PG=C01 [X(C21H28O4)]\\@


 OPTIMIST - A PESSIMIST WHO LACKS EXPERIENCE
 Job cpu time:  0 days  2 hours 37 minutes 47.1 seconds.
 File lengths (MBytes):  RWF=    246 Int=      0 D2E=      0 Chk=     16 Scr=      1
 Normal termination of Gaussian 09 at Sat Oct 16 15:47:34 2021.
