 Entering Gaussian System, Link 0=g09
 Input=/home/eluciano.iquir/todos_optB3L_MPW_B_PCM/01_epoxido28_011_optB3L_nmr_MPW_B_PCM.gjc
 Output=/home/eluciano.iquir/todos_optB3L_MPW_B_PCM/01_epoxido28_011_optB3L_nmr_MPW_B_PCM.log
 Initial command:
 /share/apps/Gaussian09/EM64T.SSE4.2-enabled/g09/l1.exe /tmp/Gau-39412.inp -scrdir=/tmp/
 Entering Link 1 = /share/apps/Gaussian09/EM64T.SSE4.2-enabled/g09/l1.exe PID=     39413.
  
 Copyright (c) 1988,1990,1992,1993,1995,1998,2003,2009,2011,
            Gaussian, Inc.  All Rights Reserved.
  
 This is part of the Gaussian(R) 09 program.  It is based on
 the Gaussian(R) 03 system (copyright 2003, Gaussian, Inc.),
 the Gaussian(R) 98 system (copyright 1998, Gaussian, Inc.),
 the Gaussian(R) 94 system (copyright 1995, Gaussian, Inc.),
 the Gaussian 92(TM) system (copyright 1992, Gaussian, Inc.),
 the Gaussian 90(TM) system (copyright 1990, Gaussian, Inc.),
 the Gaussian 88(TM) system (copyright 1988, Gaussian, Inc.),
 the Gaussian 86(TM) system (copyright 1986, Carnegie Mellon
 University), and the Gaussian 82(TM) system (copyright 1983,
 Carnegie Mellon University). Gaussian is a federally registered
 trademark of Gaussian, Inc.
  
 This software contains proprietary and confidential information,
 including trade secrets, belonging to Gaussian, Inc.
  
 This software is provided under written license and may be
 used, copied, transmitted, or stored only in accord with that
 written license.
  
 The following legend is applicable only to US Government
 contracts under FAR:
  
                    RESTRICTED RIGHTS LEGEND
  
 Use, reproduction and disclosure by the US Government is
 subject to restrictions as set forth in subparagraphs (a)
 and (c) of the Commercial Computer Software - Restricted
 Rights clause in FAR 52.227-19.
  
 Gaussian, Inc.
 340 Quinnipiac St., Bldg. 40, Wallingford CT 06492
  
  
 ---------------------------------------------------------------
 Warning -- This program may not be used in any manner that
 competes with the business of Gaussian, Inc. or will provide
 assistance to any competitor of Gaussian, Inc.  The licensee
 of this program is prohibited from giving any competitor of
 Gaussian, Inc. access to this program.  By using this program,
 the user acknowledges that Gaussian, Inc. is engaged in the
 business of creating and licensing software in the field of
 computational chemistry and represents and warrants to the
 licensee that it is not a competitor of Gaussian, Inc. and that
 it will not use this program in any manner prohibited above.
 ---------------------------------------------------------------
  

 Cite this work as:
 Gaussian 09, Revision C.01,
 M. J. Frisch, G. W. Trucks, H. B. Schlegel, G. E. Scuseria, 
 M. A. Robb, J. R. Cheeseman, G. Scalmani, V. Barone, B. Mennucci, 
 G. A. Petersson, H. Nakatsuji, M. Caricato, X. Li, H. P. Hratchian, 
 A. F. Izmaylov, J. Bloino, G. Zheng, J. L. Sonnenberg, M. Hada, 
 M. Ehara, K. Toyota, R. Fukuda, J. Hasegawa, M. Ishida, T. Nakajima, 
 Y. Honda, O. Kitao, H. Nakai, T. Vreven, J. A. Montgomery, Jr., 
 J. E. Peralta, F. Ogliaro, M. Bearpark, J. J. Heyd, E. Brothers, 
 K. N. Kudin, V. N. Staroverov, T. Keith, R. Kobayashi, J. Normand, 
 K. Raghavachari, A. Rendell, J. C. Burant, S. S. Iyengar, J. Tomasi, 
 M. Cossi, N. Rega, J. M. Millam, M. Klene, J. E. Knox, J. B. Cross, 
 V. Bakken, C. Adamo, J. Jaramillo, R. Gomperts, R. E. Stratmann, 
 O. Yazyev, A. J. Austin, R. Cammi, C. Pomelli, J. W. Ochterski, 
 R. L. Martin, K. Morokuma, V. G. Zakrzewski, G. A. Voth, 
 P. Salvador, J. J. Dannenberg, S. Dapprich, A. D. Daniels, 
 O. Farkas, J. B. Foresman, J. V. Ortiz, J. Cioslowski, 
 and D. J. Fox, Gaussian, Inc., Wallingford CT, 2010.
 
 ******************************************
 Gaussian 09:  EM64L-G09RevC.01 23-Sep-2011
                 6-Dec-2022 
 ******************************************
 %nprocshared=4
 Will use up to    4 processors via shared memory.
 %mem=80MW
 -----------------------------------------------------
 # mPW1PW91/6-31+g** scrf=(PCM,solvent=chloroform) nmr
 -----------------------------------------------------
 1/38=1/1;
 2/12=2,17=6,18=5,40=1/2;
 3/5=1,6=6,7=111,11=2,16=1,25=1,30=1,70=2201,72=7,74=-7/1,2,8,3;
 4//1;
 5/5=2,38=5,53=7/2;
 8/6=1,10=90,11=11/1;
 10/13=100,45=16/2;
 6/7=2,8=2,9=2,10=2,28=1/1;
 99/9=1/99;
 -------
 comment
 -------
 Charge =  0 Multiplicity = 1
 Symbolic Z-Matrix:
 1                     0.17579   0.66777  -1.95095 
 6                     0.5601    0.07671  -1.10686 
 6                     1.86672  -2.02932  -0.51691 
 6                     2.24707   0.10466   0.7926 
 6                     2.87119  -1.16318   0.2241 
 6                     1.63758   0.89804  -0.37169 
 6                     1.19638  -1.21791  -1.64164 
 1                     1.10141  -2.38801   0.18142 
 1                     1.43472  -0.19083   1.47444 
 1                     2.45188   1.1209   -1.07727 
 1                     1.94879  -0.95896  -2.39739 
 1                     2.37846  -2.90376  -0.93215 
 1                     0.42224  -1.81393  -2.13698 
 6                     4.12398  -1.6973    0.76927 
 1                     4.60567  -1.1828    1.59791 
 1                     4.33382  -2.7645    0.68211 
 8                     4.11911  -0.97077  -0.47199 
 8                     3.21191   0.87907   1.47786 
 1                     2.79577   1.75011   1.59261 
 8                     1.14069   2.12696   0.16714 
 6                     1.24673   3.23566  -0.7132 
 1                     2.29366   3.42627  -0.99067 
 1                     0.8527    4.10386  -0.17858 
 1                     0.66156   3.09153  -1.6321 
 8                    -0.50723  -0.27561  -0.2367 
 14                   -1.96596   0.49721   0.09354 
 6                    -1.84299   1.44233   1.72166 
 1                    -2.76594   1.99205   1.94302 
 1                    -1.01822   2.15991   1.66836 
 1                    -1.64361   0.77125   2.56509 
 6                    -3.25142  -0.91876   0.22274 
 6                    -2.41006   1.69597  -1.30332 
 1                    -3.41963   2.09779  -1.15339 
 1                    -2.39192   1.21755  -2.28939 
 1                    -1.72546   2.55119  -1.33174 
 6                    -3.3916   -1.63381  -1.13786 
 1                    -3.75653  -0.95779  -1.92099 
 1                    -4.10937  -2.46382  -1.06388 
 1                    -2.43601  -2.05304  -1.47405 
 6                    -4.62643  -0.35139   0.63737 
 1                    -5.00839   0.37816  -0.08796 
 1                    -4.59153   0.13828   1.61814 
 1                    -5.36899  -1.15986   0.7038 
 6                    -2.7903   -1.9453    1.27973 
 1                    -3.51288  -2.77145   1.35383 
 1                    -2.70578  -1.49767   2.27761 
 1                    -1.81625  -2.37665   1.02333 
 
                          Input orientation:                          
 ---------------------------------------------------------------------
 Center     Atomic      Atomic             Coordinates (Angstroms)
 Number     Number       Type             X           Y           Z
 ---------------------------------------------------------------------
      1          1           0        0.175787    0.667771   -1.950951
      2          6           0        0.560102    0.076707   -1.106863
      3          6           0        1.866717   -2.029317   -0.516912
      4          6           0        2.247068    0.104655    0.792601
      5          6           0        2.871187   -1.163180    0.224096
      6          6           0        1.637581    0.898041   -0.371688
      7          6           0        1.196378   -1.217908   -1.641642
      8          1           0        1.101406   -2.388006    0.181423
      9          1           0        1.434718   -0.190833    1.474435
     10          1           0        2.451878    1.120903   -1.077267
     11          1           0        1.948790   -0.958956   -2.397390
     12          1           0        2.378460   -2.903760   -0.932153
     13          1           0        0.422242   -1.813926   -2.136981
     14          6           0        4.123979   -1.697300    0.769272
     15          1           0        4.605671   -1.182804    1.597906
     16          1           0        4.333823   -2.764500    0.682108
     17          8           0        4.119108   -0.970773   -0.471989
     18          8           0        3.211908    0.879065    1.477856
     19          1           0        2.795767    1.750114    1.592610
     20          8           0        1.140687    2.126960    0.167141
     21          6           0        1.246730    3.235656   -0.713196
     22          1           0        2.293662    3.426266   -0.990673
     23          1           0        0.852695    4.103865   -0.178583
     24          1           0        0.661557    3.091527   -1.632098
     25          8           0       -0.507226   -0.275613   -0.236695
     26         14           0       -1.965963    0.497211    0.093536
     27          6           0       -1.842990    1.442326    1.721658
     28          1           0       -2.765938    1.992054    1.943019
     29          1           0       -1.018220    2.159913    1.668359
     30          1           0       -1.643614    0.771249    2.565092
     31          6           0       -3.251420   -0.918759    0.222737
     32          6           0       -2.410055    1.695966   -1.303322
     33          1           0       -3.419632    2.097785   -1.153388
     34          1           0       -2.391919    1.217551   -2.289394
     35          1           0       -1.725458    2.551194   -1.331743
     36          6           0       -3.391596   -1.633805   -1.137860
     37          1           0       -3.756533   -0.957794   -1.920985
     38          1           0       -4.109370   -2.463823   -1.063884
     39          1           0       -2.436007   -2.053037   -1.474052
     40          6           0       -4.626433   -0.351394    0.637365
     41          1           0       -5.008393    0.378155   -0.087956
     42          1           0       -4.591531    0.138284    1.618143
     43          1           0       -5.368992   -1.159859    0.703800
     44          6           0       -2.790296   -1.945295    1.279726
     45          1           0       -3.512878   -2.771449    1.353826
     46          1           0       -2.705784   -1.497666    2.277611
     47          1           0       -1.816248   -2.376654    1.023330
 ---------------------------------------------------------------------
                    Distance matrix (angstroms):
                    1          2          3          4          5
     1  H    0.000000
     2  C    1.099791   0.000000
     3  C    3.491417   2.547670   0.000000
     4  C    3.483444   2.540590   2.532455   0.000000
     5  C    3.917702   2.941069   1.519291   1.523197   0.000000
     6  C    2.164241   1.541439   2.939901   1.535091   2.474949
     7  C    2.166348   1.538461   1.540375   2.962881   2.507780
     8  H    3.839474   2.833284   1.096372   2.810594   2.152706
     9  H    3.749050   2.738545   2.744469   1.100965   2.138282
    10  H    2.479767   2.161027   3.252737   2.138016   2.662029
    11  H    2.447261   2.160211   2.165319   3.375838   2.786523
    12  H    4.318049   3.495731   1.094969   3.470245   2.146930
    13  H    2.500833   2.157462   2.181175   3.948847   3.463450
    14  C    5.346157   4.400932   2.619110   2.601996   1.466966
    15  H    5.970166   5.026805   3.562430   2.805187   2.212730
    16  H    6.000229   5.051123   2.839851   3.549480   2.216598
    17  O    4.519064   3.763881   2.489136   2.502053   1.441826
    18  O    4.584691   3.789014   3.774563   1.414285   2.420490
    19  H    4.537905   3.884024   4.426886   1.910136   3.219596
    20  O    2.747104   2.482681   4.274305   2.388513   3.717915
    21  C    3.045158   3.256592   5.304984   3.615421   4.781959
    22  H    3.607883   3.773364   5.492733   3.770323   4.782490
    23  H    3.925078   4.143105   6.225643   4.345245   5.654929
    24  H    2.492435   3.061912   5.377648   4.161059   5.141056
    25  O    2.072475   1.421447   2.964727   2.964825   3.523319
    26  Si   2.965824   2.828212   4.630921   4.288639   5.115854
    27  C    4.261860   3.954782   5.552065   4.402395   5.590601
    28  H    5.056726   4.902334   6.609401   5.478683   6.684862
    29  H    4.092865   3.812178   5.536056   3.956405   5.315668
    30  H    4.869864   4.338434   5.446498   4.327063   5.441113
    31  C    4.357493   4.157702   5.289210   5.621876   6.127484
    32  C    2.857129   3.388573   5.725989   5.349202   6.196712
    33  H    3.950707   4.463766   6.736732   6.314343   7.218432
    34  H    2.647625   3.378510   5.640906   5.679563   6.299666
    35  H    2.746895   3.376010   5.877819   5.126339   6.111166
    36  C    4.322568   4.306127   5.309601   6.208338   6.426419
    37  H    4.255173   4.512906   5.894109   6.673498   6.969234
    38  H    5.381109   5.316024   6.016776   7.102670   7.216560
    39  H    3.801539   3.694226   4.407960   5.632454   5.642859
    40  C    5.549720   5.488693   6.805055   6.890362   7.552754
    41  H    5.516371   5.668966   7.297058   7.313816   8.034978
    42  H    5.978805   5.828274   7.139042   6.888330   7.702554
    43  H    6.413463   6.321531   7.389288   7.720832   8.254131
    44  C    5.105197   4.583608   4.992268   5.460277   5.811923
    45  H    6.029597   5.545823   5.743732   6.462502   6.679753
    46  H    5.556375   4.959771   5.385144   5.413264   5.952429
    47  H    4.699263   4.025387   4.007146   4.766620   4.907478
                    6          7          8          9         10
     6  C    0.000000
     7  C    2.506927   0.000000
     8  H    3.375133   2.168344   0.000000
     9  H    2.152898   3.289624   2.571098   0.000000
    10  H    1.100268   2.713823   3.964911   3.044084   0.000000
    11  H    2.765639   1.097422   3.067657   3.980617   2.514286
    12  H    3.913657   2.177795   1.771135   3.747304   4.027947
    13  H    3.456599   1.095392   2.483109   4.086791   3.722316
    14  C    3.770910   3.822718   3.155723   3.162091   3.761369
    15  H    4.125382   4.703103   3.967217   3.324785   4.135510
    16  H    4.668449   4.199443   3.292560   3.956811   4.661917
    17  O    3.108135   3.157770   3.397355   3.406292   2.742467
    18  O    2.428925   4.265082   4.099843   2.074391   2.676712
    19  H    2.434315   4.672000   4.688960   2.373541   2.764491
    20  O    1.430903   3.803017   4.515159   2.677244   2.068798
    21  C    2.394543   4.549591   5.696230   4.069631   2.461120
    22  H    2.684307   4.816238   6.049880   4.460712   2.312408
    23  H    3.306152   5.529912   6.506601   4.638497   3.501868
    24  H    2.711575   4.342506   5.788576   4.584999   2.719641
    25  O    2.448649   2.400846   2.687885   2.589652   3.378330
    26  Si   3.655493   3.994105   4.212001   3.734289   4.612710
    27  C    4.097892   5.256081   5.070822   3.670381   5.136456
    28  H    5.093693   6.233265   6.102827   4.757108   6.091522
    29  H    3.578742   5.222090   5.233293   3.403016   4.545282
    30  H    4.405337   5.451505   4.816420   3.404594   5.492003
    31  C    5.249422   4.832009   4.594289   4.904744   6.194985
    32  C    4.229419   4.648815   5.586918   5.104726   4.901040
    33  H    5.256029   5.704363   6.507213   5.975612   5.952707
    34  H    4.473986   4.384851   5.595382   5.549154   4.994093
    35  H    3.868417   4.779047   5.888678   5.037863   4.422740
    36  C    5.682419   4.634250   4.743036   5.674466   6.460517
    37  H    5.911084   4.967597   5.483174   6.250295   6.601304
    38  H    6.693931   5.480609   5.358052   6.507416   7.476658
    39  H    5.149581   3.730918   3.919961   5.209980   5.841468
    40  C    6.466618   6.312674   6.096213   6.120786   7.430350
    41  H    6.672313   6.592461   6.712217   6.654209   7.562146
    42  H    6.583198   6.779775   6.391857   6.036940   7.605287
    43  H    7.381307   6.971983   6.606608   6.915444   8.339070
    44  C    5.515235   4.995703   4.067875   4.578951   6.514397
    45  H    6.555134   5.793394   4.776314   5.581472   7.525884
    46  H    5.623435   5.537660   4.436373   4.415502   6.686822
    47  H    4.959701   4.185772   3.036716   3.943360   5.904432
                   11         12         13         14         15
    11  H    0.000000
    12  H    2.472610   0.000000
    13  H    1.768936   2.542860   0.000000
    14  C    3.912077   2.719785   4.707735   0.000000
    15  H    4.803282   3.784621   5.643472   1.087827   0.000000
    16  H    4.293213   2.539424   4.914399   1.091122   1.847796
    17  O    2.901308   2.641599   4.141247   1.438261   2.136859
    18  O    4.471165   4.562077   5.301083   2.823406   2.491644
    19  H    4.896584   5.311037   5.678543   3.785062   3.446417
    20  O    4.093010   5.296100   4.621225   4.887490   5.000774
    21  C    4.574294   6.246694   5.310859   5.900028   6.012193
    22  H    4.618221   6.330864   5.681184   5.718251   5.769719
    23  H    5.635307   7.211285   6.248269   6.727053   6.722322
    24  H    4.318455   6.275440   4.937170   6.378700   6.652734
    25  O    3.341792   3.964594   2.615608   4.947850   5.507311
    26  Si   4.863170   5.611832   4.002510   6.508448   6.947802
    27  C    6.091823   6.614516   5.533855   6.809479   6.963609
    28  H    7.055230   7.661621   6.426226   7.903162   8.033645
    29  H    5.921217   6.628792   5.687437   6.490659   6.542696
    30  H    6.365941   6.474063   5.749816   6.525629   6.618711
    31  C    5.823132   6.080259   4.457060   7.436487   7.980895
    32  C    5.219686   6.650197   4.586528   7.648758   8.119412
    33  H    6.301679   7.660435   5.570362   8.660563   9.096009
    34  H    4.857016   6.448552   4.139153   7.765869   8.356977
    35  H    5.191999   6.838007   4.931054   7.528604   7.912571
    36  C    5.528251   5.911738   3.946650   7.754035   8.464284
    37  H    5.725179   6.511736   4.271039   8.359834   9.075223
    38  H    6.383116   6.504063   4.702065   8.469714   9.202069
    39  H    4.612593   4.918991   2.943847   6.942079   7.731718
    40  C    7.267216   7.618824   5.943493   8.854297   9.319100
    41  H    7.451426   8.127068   6.204476   9.404391   9.884784
    42  H    7.752692   8.021148   6.561250   8.947070   9.291620
    43  H    7.950325   8.108054   6.483535   9.508398  10.014682
    44  C    6.078897   5.703254   4.691646   6.937526   7.441973
    45  H    6.869248   6.320686   5.346752   7.734151   8.276123
    46  H    6.618980   6.174886   5.419704   6.997185   7.349729
    47  H    5.280786   4.658039   3.913447   5.984343   6.557169
                   16         17         18         19         20
    16  H    0.000000
    17  O    2.143711   0.000000
    18  O    3.894544   2.836690   0.000000
    19  H    4.855550   3.662926   0.972146   0.000000
    20  O    5.864102   4.344586   2.750486   2.216589   0.000000
    21  C    6.890493   5.099292   3.770432   3.150094   1.419664
    22  H    6.729490   4.789075   3.664020   3.120088   2.087602
    23  H    7.748127   6.042143   4.325391   3.528852   2.027466
    24  H    7.289317   5.459193   4.590326   4.093041   2.096954
    25  O    5.520373   4.684184   4.254988   4.284821   2.941268
    26  Si   7.118460   6.285132   5.373314   5.146947   3.508956
    27  C    7.545268   6.795715   5.092023   4.650748   3.433304
    28  H    8.638363   7.874926   6.098341   5.577982   4.293444
    29  H    7.339407   6.385485   4.423895   3.836687   2.629757
    30  H    7.195617   6.742957   4.976927   4.648871   3.916689
    31  C    7.820083   7.403380   6.825108   6.750400   5.345100
    32  C    8.325718   7.101590   6.325247   5.957343   3.867271
    33  H    9.334180   8.167800   7.237821   6.803864   4.747753
    34  H    8.361947   7.105293   6.760889   6.501205   4.397828
    35  H    8.308254   6.877673   5.921777   5.443808   3.262118
    36  C    8.017035   7.569258   7.534106   7.562396   6.032244
    37  H    8.688736   8.007839   7.967769   7.912696   6.152946
    38  H    8.627074   8.383757   8.440169   8.514408   7.081935
    39  H    7.140434   6.719000   7.014979   7.158200   5.740961
    40  C    9.279616   8.837352   7.978724   7.772894   6.294682
    41  H    9.886672   9.234628   8.383080   8.100092   6.398014
    42  H    9.432087   9.026289   7.839777   7.561139   6.238474
    43  H    9.834631   9.562545   8.853712   8.713278   7.312120
    44  C    7.195924   7.194308   6.636469   6.705076   5.768339
    45  H    7.875403   8.051288   7.652737   7.765343   6.859905
    46  H    7.328476   7.376792   6.427094   6.425291   5.690987
    47  H    6.171728   6.280202   6.007383   6.214900   5.455187
                   21         22         23         24         25
    21  C    0.000000
    22  H    1.099724   0.000000
    23  H    1.093097   1.787461   0.000000
    24  H    1.098900   1.785285   1.781591   0.000000
    25  O    3.953786   4.702910   4.586130   3.827641   0.000000
    26  Si   4.297824   5.281977   4.585503   4.075800   1.683515
    27  C    4.323299   5.329601   4.238092   4.498922   2.927580
    28  H    4.970264   6.021882   4.696323   5.073266   3.872370
    29  H    3.458182   4.432004   3.269628   3.818713   3.134028
    30  H    5.017426   5.932514   4.986546   5.321081   3.199579
    31  C    6.194230   7.148394   6.498582   5.902050   2.855751
    32  C    4.011355   5.021617   4.208153   3.389762   2.940336
    33  H    4.823220   5.867970   4.819479   4.227622   3.867228
    34  H    4.449372   5.340390   4.828442   3.642463   3.161515
    35  H    3.112072   4.127397   3.222955   2.465768   3.267118
    36  C    6.738402   7.612368   7.201047   6.245085   3.313061
    37  H    6.639007   7.529298   7.064088   5.999998   3.722929
    38  H    7.829103   8.700421   8.278911   7.344830   4.295107
    39  H    6.489355   7.254391   7.099383   6.007197   2.900084
    40  C    7.013201   8.050400   7.108864   6.705744   4.211602
    41  H    6.905273   7.964037   6.945609   6.472642   4.550829
    42  H    7.008149   8.063661   6.970915   6.846944   4.504807
    43  H    8.068222   9.089557   8.197242   7.739394   5.030228
    44  C    6.863787   7.736602   7.210436   6.764879   3.209327
    45  H    7.937995   8.810463   8.287125   7.792056   4.218163
    46  H    6.853585   7.740882   7.076214   6.905469   3.556516
    47  H    6.625359   7.390633   7.110906   6.564436   2.777692
                   26         27         28         29         30
    26  Si   0.000000
    27  C    1.886570   0.000000
    28  H    2.509004   1.096829   0.000000
    29  H    2.478480   1.094540   1.777114   0.000000
    30  H    2.507508   1.096119   1.771144   1.767381   0.000000
    31  C    1.916785   3.131319   3.415830   4.068811   3.305721
    32  C    1.893527   3.088106   3.279184   3.314112   4.050575
    33  H    2.495959   3.343847   3.166422   3.705792   4.329091
    34  H    2.525606   4.054674   4.318919   4.294054   4.932056
    35  H    2.511595   3.250640   3.481279   3.107072   4.284883
    36  C    2.844292   4.476338   4.798970   5.282052   4.748850
    37  H    3.062919   4.763515   4.961190   5.486515   5.251562
    38  H    3.834258   5.306008   5.540859   6.196716   5.451157
    39  H    3.030188   4.773028   5.305468   5.443695   4.991910
    40  C    2.844992   3.484348   3.264647   4.515397   3.724737
    41  H    3.050163   3.798281   3.429014   4.709648   4.302897
    42  H    3.057264   3.043964   2.621983   4.105856   3.160312
    43  H    3.833916   4.498899   4.271546   5.557021   4.590428
    44  C    2.837676   3.545232   3.992902   4.488209   3.216622
    45  H    3.829545   4.547497   4.857574   5.535393   4.184737
    46  H    3.049107   3.114009   3.506240   4.073935   2.521671
    47  H    3.024241   3.882394   4.564356   4.651167   3.509434
                   31         32         33         34         35
    31  C    0.000000
    32  C    3.142219   0.000000
    33  H    3.319872   1.096898   0.000000
    34  H    3.407839   1.096151   1.766781   0.000000
    35  H    4.097016   1.095854   1.762843   1.771968   0.000000
    36  C    1.543426   3.475367   3.731728   3.233514   4.508639
    37  H    2.202773   3.039236   3.168481   2.594229   4.097007
    38  H    2.186023   4.499872   4.614327   4.243115   5.559243
    39  H    2.197858   3.752978   4.277811   3.370975   4.660909
    40  C    1.544176   3.587517   3.265217   4.002569   4.551709
    41  H    2.205781   3.156755   2.572243   3.520916   4.128773
    42  H    2.204630   3.964867   3.590874   4.612153   4.768473
    43  H    2.184871   4.575979   4.226274   4.845023   5.584863
    44  C    1.543903   4.480569   4.760526   4.785490   5.307736
    45  H    2.186363   5.313610   5.477614   5.517402   6.223960
    46  H    2.203488   4.807268   5.020817   5.322448   5.511964
    47  H    2.196844   4.727806   5.227767   4.921773   5.462444
                   36         37         38         39         40
    36  C    0.000000
    37  H    1.097021   0.000000
    38  H    1.099819   1.768400   0.000000
    39  H    1.096326   1.772878   1.771194   0.000000
    40  C    2.514125   2.769405   2.761152   3.485920   0.000000
    41  H    2.786452   2.590735   3.136482   3.801201   1.097372
    42  H    3.489369   3.797899   3.767852   4.360028   1.096781
    43  H    2.743434   3.087127   2.532129   3.760746   1.099738
    44  C    2.510639   3.486162   2.738857   2.778565   2.514865
    45  H    2.741795   3.751413   2.509135   3.110090   2.758621
    46  H    3.486304   4.361622   3.750880   3.802130   2.773669
    47  H    2.775660   3.800903   3.102011   2.593404   3.485368
                   41         42         43         44         45
    41  H    0.000000
    42  H    1.772593   0.000000
    43  H    1.767030   1.767949   0.000000
    44  C    3.491265   2.774937   2.756497   0.000000
    45  H    3.772970   3.114467   2.542620   1.100066   0.000000
    46  H    3.796922   2.582106   3.111860   1.096945   1.768418
    47  H    4.360472   3.792217   3.768910   1.095709   1.773032
                   46         47
    46  H    0.000000
    47  H    1.771190   0.000000
 Stoichiometry    C14H28O4Si
 Framework group  C1[X(C14H28O4Si)]
 Deg. of freedom   135
 Full point group                 C1      NOp   1
 Largest Abelian subgroup         C1      NOp   1
 Largest concise Abelian subgroup C1      NOp   1
                         Standard orientation:                         
 ---------------------------------------------------------------------
 Center     Atomic      Atomic             Coordinates (Angstroms)
 Number     Number       Type             X           Y           Z
 ---------------------------------------------------------------------
      1          1           0        0.175787    0.667771   -1.950951
      2          6           0        0.560102    0.076707   -1.106863
      3          6           0        1.866717   -2.029317   -0.516912
      4          6           0        2.247068    0.104655    0.792601
      5          6           0        2.871187   -1.163180    0.224096
      6          6           0        1.637581    0.898041   -0.371688
      7          6           0        1.196378   -1.217908   -1.641642
      8          1           0        1.101406   -2.388006    0.181423
      9          1           0        1.434718   -0.190833    1.474435
     10          1           0        2.451878    1.120903   -1.077267
     11          1           0        1.948790   -0.958956   -2.397390
     12          1           0        2.378460   -2.903760   -0.932153
     13          1           0        0.422242   -1.813926   -2.136981
     14          6           0        4.123979   -1.697300    0.769272
     15          1           0        4.605671   -1.182804    1.597906
     16          1           0        4.333823   -2.764500    0.682108
     17          8           0        4.119108   -0.970773   -0.471989
     18          8           0        3.211908    0.879065    1.477856
     19          1           0        2.795767    1.750114    1.592610
     20          8           0        1.140687    2.126960    0.167141
     21          6           0        1.246730    3.235656   -0.713196
     22          1           0        2.293662    3.426266   -0.990673
     23          1           0        0.852695    4.103865   -0.178583
     24          1           0        0.661557    3.091527   -1.632098
     25          8           0       -0.507226   -0.275613   -0.236695
     26         14           0       -1.965963    0.497211    0.093536
     27          6           0       -1.842990    1.442326    1.721658
     28          1           0       -2.765938    1.992054    1.943019
     29          1           0       -1.018220    2.159913    1.668359
     30          1           0       -1.643614    0.771249    2.565092
     31          6           0       -3.251420   -0.918759    0.222737
     32          6           0       -2.410055    1.695966   -1.303322
     33          1           0       -3.419632    2.097785   -1.153388
     34          1           0       -2.391919    1.217551   -2.289394
     35          1           0       -1.725458    2.551194   -1.331743
     36          6           0       -3.391596   -1.633805   -1.137860
     37          1           0       -3.756533   -0.957794   -1.920985
     38          1           0       -4.109370   -2.463823   -1.063884
     39          1           0       -2.436007   -2.053037   -1.474052
     40          6           0       -4.626433   -0.351394    0.637365
     41          1           0       -5.008393    0.378155   -0.087956
     42          1           0       -4.591531    0.138284    1.618143
     43          1           0       -5.368992   -1.159859    0.703800
     44          6           0       -2.790296   -1.945295    1.279726
     45          1           0       -3.512878   -2.771449    1.353826
     46          1           0       -2.705784   -1.497666    2.277611
     47          1           0       -1.816248   -2.376654    1.023330
 ---------------------------------------------------------------------
 Rotational constants (GHZ):      0.5560831      0.2206725      0.1911553
 Standard basis: 6-31+G(d,p) (6D, 7F)
 There are   505 symmetry adapted basis functions of A   symmetry.
 Integral buffers will be    131072 words long.
 Raffenetti 2 integral format.
 Two-electron integral symmetry is turned on.
   505 basis functions,   828 primitive gaussians,   505 cartesian basis functions
    79 alpha electrons       79 beta electrons
       nuclear repulsion energy      1831.3910396258 Hartrees.
 NAtoms=   47 NActive=   47 NUniq=   47 SFac= 1.00D+00 NAtFMM=   60 NAOKFM=F Big=F
 ------------------------------------------------------------------------------
 Polarizable Continuum Model (PCM)
 =================================
 Model                : PCM.
 Atomic radii         : UFF (Universal Force Field).
 Polarization charges : Total charges.
 Charge compensation  : None.
 Solution method      : Matrix inversion.
 Cavity type          : Scaled VdW (van der Waals Surface) (Alpha=1.100).
 Cavity algorithm     : GePol (No added spheres)
                        Default sphere list used, NSphG=   47.
                        Lebedev-Laikov grids with approx.  5.0 points / Ang**2.
                        Smoothing algorithm: Karplus/York (Gamma=1.0000).
                        Polarization charges: spherical gaussians, with
                                              point-specific exponents (IZeta= 3).
                        Self-potential: point-specific (ISelfS= 7).
                        Self-field    : sphere-specific E.n sum rule (ISelfD= 2).
 Solvent              : Chloroform, Eps=   4.711300 Eps(inf)=   2.090627
 ------------------------------------------------------------------------------
 One-electron integrals computed using PRISM.
 NBasis=   505 RedAO= T  NBF=   505
 NBsUse=   505 1.00D-06 NBFU=   505
 Harris functional with IExCor=  908 diagonalized for initial guess.
 ExpMin= 3.31D-02 ExpMax= 1.61D+04 ExpMxC= 2.43D+03 IAcc=3 IRadAn=         5 AccDes= 0.00D+00
 HarFok:  IExCor=  908 AccDes= 0.00D+00 IRadAn=         5 IDoV= 1
 ScaDFX=  1.000000  1.000000  1.000000  1.000000
 FoFCou: FMM=F IPFlag=           0 FMFlag=      100000 FMFlg1=           0
         NFxFlg=           0 DoJE=T BraDBF=F KetDBF=T FulRan=T
         Omega=  0.000000  0.000000  1.000000  0.000000  0.000000 ICntrl=     500 IOpCl=  0
         NMat0=    1 NMatS0=    1 NMatT0=    0 NMatD0=    1 NMtDS0=    0 NMtDT0=    0
         I1Cent=           4 NGrid=           0.
 Petite list used in FoFCou.
 Initial guess orbital symmetries:
       Occupied  (A) (A) (A) (A) (A) (A) (A) (A) (A) (A) (A) (A)
                 (A) (A) (A) (A) (A) (A) (A) (A) (A) (A) (A) (A)
                 (A) (A) (A) (A) (A) (A) (A) (A) (A) (A) (A) (A)
                 (A) (A) (A) (A) (A) (A) (A) (A) (A) (A) (A) (A)
                 (A) (A) (A) (A) (A) (A) (A) (A) (A) (A) (A) (A)
                 (A) (A) (A) (A) (A) (A) (A) (A) (A) (A) (A) (A)
                 (A) (A) (A) (A) (A) (A) (A)
       Virtual   (A) (A) (A) (A) (A) (A) (A) (A) (A) (A) (A) (A)
                 (A) (A) (A) (A) (A) (A) (A) (A) (A) (A) (A) (A)
                 (A) (A) (A) (A) (A) (A) (A) (A) (A) (A) (A) (A)
                 (A) (A) (A) (A) (A) (A) (A) (A) (A) (A) (A) (A)
                 (A) (A) (A) (A) (A) (A) (A) (A) (A) (A) (A) (A)
                 (A) (A) (A) (A) (A) (A) (A) (A) (A) (A) (A) (A)
                 (A) (A) (A) (A) (A) (A) (A) (A) (A) (A) (A) (A)
                 (A) (A) (A) (A) (A) (A) (A) (A) (A) (A) (A) (A)
                 (A) (A) (A) (A) (A) (A) (A) (A) (A) (A) (A) (A)
                 (A) (A) (A) (A) (A) (A) (A) (A) (A) (A) (A) (A)
                 (A) (A) (A) (A) (A) (A) (A) (A) (A) (A) (A) (A)
                 (A) (A) (A) (A) (A) (A) (A) (A) (A) (A) (A) (A)
                 (A) (A) (A) (A) (A) (A) (A) (A) (A) (A) (A) (A)
                 (A) (A) (A) (A) (A) (A) (A) (A) (A) (A) (A) (A)
                 (A) (A) (A) (A) (A) (A) (A) (A) (A) (A) (A) (A)
                 (A) (A) (A) (A) (A) (A) (A) (A) (A) (A) (A) (A)
                 (A) (A) (A) (A) (A) (A) (A) (A) (A) (A) (A) (A)
                 (A) (A) (A) (A) (A) (A) (A) (A) (A) (A) (A) (A)
                 (A) (A) (A) (A) (A) (A) (A) (A) (A) (A) (A) (A)
                 (A) (A) (A) (A) (A) (A) (A) (A) (A) (A) (A) (A)
                 (A) (A) (A) (A) (A) (A) (A) (A) (A) (A) (A) (A)
                 (A) (A) (A) (A) (A) (A) (A) (A) (A) (A) (A) (A)
                 (A) (A) (A) (A) (A) (A) (A) (A) (A) (A) (A) (A)
                 (A) (A) (A) (A) (A) (A) (A) (A) (A) (A) (A) (A)
                 (A) (A) (A) (A) (A) (A) (A) (A) (A) (A) (A) (A)
                 (A) (A) (A) (A) (A) (A) (A) (A) (A) (A) (A) (A)
                 (A) (A) (A) (A) (A) (A) (A) (A) (A) (A) (A) (A)
                 (A) (A) (A) (A) (A) (A) (A) (A) (A) (A) (A) (A)
                 (A) (A) (A) (A) (A) (A) (A) (A) (A) (A) (A) (A)
                 (A) (A) (A) (A) (A) (A) (A) (A) (A) (A) (A) (A)
                 (A) (A) (A) (A) (A) (A) (A) (A) (A) (A) (A) (A)
                 (A) (A) (A) (A) (A) (A) (A) (A) (A) (A) (A) (A)
                 (A) (A) (A) (A) (A) (A) (A) (A) (A) (A) (A) (A)
                 (A) (A) (A) (A) (A) (A) (A) (A) (A) (A) (A) (A)
                 (A) (A) (A) (A) (A) (A) (A) (A) (A) (A) (A) (A)
                 (A) (A) (A) (A) (A) (A)
 The electronic state of the initial guess is 1-A.
 Requested convergence on RMS density matrix=1.00D-08 within 128 cycles.
 Requested convergence on MAX density matrix=1.00D-06.
 Requested convergence on             energy=1.00D-06.
 No special actions if energy rises.
 Error on total polarization charges =  0.01535
 SCF Done:  E(RmPW1PW91) =  -1140.62598637     A.U. after   13 cycles
             Convg  =    0.3971D-08             -V/T =  2.0080
 Range of M.O.s used for correlation:     1   505
 NBasis=   505 NAE=    79 NBE=    79 NFC=     0 NFV=     0
 NROrb=    505 NOA=    79 NOB=    79 NVA=   426 NVB=   426

 **** Warning!!: The largest alpha MO coefficient is  0.74044259D+02

 NEqPCM:  Using equilibrium solvation (IEInf=0, Eps=   4.7113, EpsInf=   2.0906)
          Differentiating once with respect to magnetic field using GIAOs.
          Electric field/nuclear overlap derivatives assumed to be zero.
 FoFCou: FMM=F IPFlag=           0 FMFlag=    10101102 FMFlg1=           0
         NFxFlg=    40000000 DoJE=F BraDBF=F KetDBF=T FulRan=T
         Omega=  0.000000  0.000000  1.000000  0.000000  0.000000 ICntrl=    6100 IOpCl=  0
         NMat0=    1 NMatS0=    1 NMatT0=    0 NMatD0=    1 NMtDS0=    0 NMtDT0=    0
         I1Cent=           7 NGrid=        3007.
 Symmetry not used in FoFCou.
          There are     3 degrees of freedom in the 1st order CPHF.  IDoFFX=0.
      3 vectors produced by pass  0 Test12= 1.12D-12 3.33D-08 XBig12= 1.40D+02 1.95D+00.
 AX will form     3 AO Fock derivatives at one time.
      3 vectors produced by pass  1 Test12= 1.12D-12 3.33D-08 XBig12= 3.69D-01 9.73D-02.
      3 vectors produced by pass  2 Test12= 1.12D-12 3.33D-08 XBig12= 8.03D-04 4.84D-03.
      3 vectors produced by pass  3 Test12= 1.12D-12 3.33D-08 XBig12= 4.08D-06 3.72D-04.
      3 vectors produced by pass  4 Test12= 1.12D-12 3.33D-08 XBig12= 1.54D-08 2.00D-05.
      3 vectors produced by pass  5 Test12= 1.12D-12 3.33D-08 XBig12= 4.25D-11 8.94D-07.
      1 vectors produced by pass  6 Test12= 1.12D-12 3.33D-08 XBig12= 1.20D-13 3.37D-08.
 Inverted reduced A of dimension    19 with in-core refinement.
 Calculating GIAO nuclear magnetic shielding tensors.
 SCF GIAO Magnetic shielding tensor (ppm):
      1  H    Isotropic =    27.0950   Anisotropy =     3.4695
   XX=    27.9412   YX=    -0.5995   ZX=    -1.7927
   XY=    -1.2674   YY=    25.6204   ZY=    -1.9155
   XZ=    -0.2656   YZ=    -2.9008   ZZ=    27.7234
   Eigenvalues:    23.6233    28.2537    29.4080
      2  C    Isotropic =   126.1911   Anisotropy =    52.4599
   XX=   141.6230   YX=    12.8205   ZX=   -28.4519
   XY=     6.8394   YY=   114.9358   ZY=     4.4169
   XZ=   -24.6447   YZ=    -0.2682   ZZ=   122.0145
   Eigenvalues:    99.7865   117.6224   161.1644
      3  C    Isotropic =   166.5756   Anisotropy =    29.8477
   XX=   170.0575   YX=     7.3235   ZX=     7.6070
   XY=     4.0468   YY=   168.6918   ZY=    11.7351
   XZ=    12.1586   YZ=    16.5829   ZZ=   160.9774
   Eigenvalues:   149.0450   164.2077   186.4740
      4  C    Isotropic =   128.1512   Anisotropy =    42.8232
   XX=   130.6883   YX=     6.9042   ZX=    13.9046
   XY=    20.8168   YY=   133.1865   ZY=    18.0694
   XZ=    14.7312   YZ=     9.3544   ZZ=   120.5788
   Eigenvalues:   109.5846   118.1690   156.7000
      5  C    Isotropic =   135.5984   Anisotropy =    60.3326
   XX=   106.5976   YX=    21.5411   ZX=   -13.9744
   XY=    23.0818   YY=   158.1179   ZY=    22.7221
   XZ=   -16.7574   YZ=    22.8927   ZZ=   142.0798
   Eigenvalues:    88.3612   142.6139   175.8202
      6  C    Isotropic =   108.7709   Anisotropy =    44.4220
   XX=   105.7781   YX=   -10.7146   ZX=     1.7974
   XY=   -20.9501   YY=   126.1431   ZY=     7.4103
   XZ=    -8.5027   YZ=    17.5354   ZZ=    94.3914
   Eigenvalues:    89.6667    98.2604   138.3856
      7  C    Isotropic =   163.0134   Anisotropy =    20.4123
   XX=   162.9783   YX=    -5.4383   ZX=    -5.9830
   XY=    -9.8378   YY=   168.7988   ZY=     9.8544
   XZ=    -1.2541   YZ=     2.2500   ZZ=   157.2631
   Eigenvalues:   154.6456   157.7730   176.6216
      8  H    Isotropic =    29.1278   Anisotropy =     7.2048
   XX=    31.8579   YX=     1.3732   ZX=    -1.8745
   XY=     2.1683   YY=    29.6905   ZY=    -3.2904
   XZ=    -1.2902   YZ=    -2.6763   ZZ=    25.8350
   Eigenvalues:    24.1683    29.2841    33.9310
      9  H    Isotropic =    27.2873   Anisotropy =     6.5153
   XX=    31.0378   YX=     1.9507   ZX=     0.4261
   XY=     2.0965   YY=    24.2909   ZY=    -0.5394
   XZ=     0.3106   YZ=     0.9375   ZZ=    26.5333
   Eigenvalues:    23.7274    26.5038    31.6308
     10  H    Isotropic =    28.3707   Anisotropy =     5.4278
   XX=    28.7283   YX=    -0.9785   ZX=    -1.4974
   XY=    -2.9989   YY=    30.5801   ZY=     0.7892
   XZ=    -2.0422   YZ=    -0.9227   ZZ=    25.8036
   Eigenvalues:    24.8089    28.3138    31.9892
     11  H    Isotropic =    29.7860   Anisotropy =     8.7637
   XX=    29.7414   YX=    -1.2541   ZX=    -3.2838
   XY=    -0.9352   YY=    25.8307   ZY=     0.8433
   XZ=    -3.1343   YZ=    -0.1438   ZZ=    33.7858
   Eigenvalues:    25.5082    28.2213    35.6285
     12  H    Isotropic =    30.5559   Anisotropy =    10.9569
   XX=    28.7052   YX=    -2.8753   ZX=     1.4178
   XY=    -3.0292   YY=    35.9291   ZY=     3.6448
   XZ=     1.5318   YZ=     3.7470   ZZ=    27.0333
   Eigenvalues:    24.2795    29.5276    37.8605
     13  H    Isotropic =    29.7885   Anisotropy =     8.8495
   XX=    30.6167   YX=     0.3597   ZX=     3.3573
   XY=     1.6501   YY=    28.7695   ZY=     4.0118
   XZ=     3.6845   YZ=     3.9599   ZZ=    29.9795
   Eigenvalues:    24.8214    28.8560    35.6882
     14  C    Isotropic =   145.8970   Anisotropy =    32.3181
   XX=   122.4213   YX=    18.8933   ZX=   -12.8208
   XY=    16.2475   YY=   160.1958   ZY=     9.5904
   XZ=   -14.7621   YZ=     4.7356   ZZ=   155.0737
   Eigenvalues:   110.1850   160.0635   167.4423
     15  H    Isotropic =    28.4282   Anisotropy =     9.4587
   XX=    27.0604   YX=    -2.8376   ZX=     4.7790
   XY=     0.7670   YY=    27.6788   ZY=     3.4167
   XZ=     6.0405   YZ=     1.2629   ZZ=    30.5455
   Eigenvalues:    22.2017    28.3490    34.7340
     16  H    Isotropic =    29.0280   Anisotropy =    11.3489
   XX=    25.9871   YX=    -1.2575   ZX=     2.4176
   XY=    -5.1398   YY=    35.2697   ZY=    -2.4306
   XZ=     1.3352   YZ=    -0.3123   ZZ=    25.8273
   Eigenvalues:    23.8574    26.6328    36.5940
     17  O    Isotropic =   310.8312   Anisotropy =   120.8314
   XX=   347.5933   YX=   -23.9997   ZX=    62.3217
   XY=   -48.0943   YY=   353.0517   ZY=    78.5820
   XZ=    84.6695   YZ=    77.8233   ZZ=   231.8487
   Eigenvalues:   158.1440   382.9642   391.3855
     18  O    Isotropic =   315.2253   Anisotropy =    37.3386
   XX=   315.1741   YX=     7.7068   ZX=    11.5847
   XY=    -4.2518   YY=   339.8599   ZY=    10.3737
   XZ=    -6.5556   YZ=    -5.5058   ZZ=   290.6420
   Eigenvalues:   290.2848   315.2735   340.1177
     19  H    Isotropic =    29.2418   Anisotropy =    18.2610
   XX=    26.4367   YX=    -4.9944   ZX=     3.7631
   XY=    -7.2761   YY=    38.3322   ZY=     4.8266
   XZ=     5.2003   YZ=     5.0957   ZZ=    22.9565
   Eigenvalues:    17.1390    29.1706    41.4158
     20  O    Isotropic =   310.6401   Anisotropy =    64.2893
   XX=   304.3973   YX=   -30.5144   ZX=   -31.1344
   XY=   -13.3767   YY=   310.6751   ZY=    16.7977
   XZ=   -21.1550   YZ=    14.6224   ZZ=   316.8479
   Eigenvalues:   280.6657   297.7550   353.4996
     21  C    Isotropic =   138.6495   Anisotropy =    82.1390
   XX=   116.5476   YX=     1.8073   ZX=    -8.1493
   XY=     2.0984   YY=   167.4538   ZY=   -38.5676
   XZ=    -7.0269   YZ=   -40.3635   ZZ=   131.9472
   Eigenvalues:   104.0910   118.4488   193.4088
     22  H    Isotropic =    28.3491   Anisotropy =    10.6083
   XX=    28.7918   YX=     2.9592   ZX=    -0.8617
   XY=     4.7636   YY=    30.2796   ZY=    -4.3569
   XZ=    -2.8561   YZ=    -3.6392   ZZ=    25.9760
   Eigenvalues:    23.5420    26.0840    35.4213
     23  H    Isotropic =    27.8694   Anisotropy =    10.3404
   XX=    24.9165   YX=    -0.4686   ZX=    -0.8052
   XY=    -1.2432   YY=    34.6445   ZY=     0.6116
   XZ=    -0.0342   YZ=    -2.0576   ZZ=    24.0471
   Eigenvalues:    23.7853    25.0598    34.7630
     24  H    Isotropic =    27.9805   Anisotropy =     8.6002
   XX=    26.5180   YX=     1.2831   ZX=     1.4643
   XY=    -0.4074   YY=    28.7613   ZY=    -5.9643
   XZ=     2.4957   YZ=    -3.7004   ZZ=    28.6623
   Eigenvalues:    23.0125    27.2151    33.7140
     25  O    Isotropic =   288.7925   Anisotropy =    18.8237
   XX=   279.9600   YX=    -7.8442   ZX=    18.7746
   XY=     2.9909   YY=   300.6926   ZY=    -0.8585
   XZ=     9.0976   YZ=     0.8969   ZZ=   285.7249
   Eigenvalues:   268.4997   296.5362   301.3417
     26  Si   Isotropic =   379.4580   Anisotropy =    36.4041
   XX=   402.7247   YX=   -13.6064   ZX=     3.2434
   XY=     3.1329   YY=   375.3760   ZY=     6.9242
   XZ=    -3.0642   YZ=     7.1860   ZZ=   360.2731
   Eigenvalues:   357.3993   377.2473   403.7274
     27  C    Isotropic =   198.4969   Anisotropy =     8.4153
   XX=   202.1234   YX=    -1.8284   ZX=    -0.4140
   XY=    -2.8668   YY=   192.3512   ZY=     5.2115
   XZ=    -1.2898   YZ=     2.6646   ZZ=   201.0161
   Eigenvalues:   190.5175   200.8660   204.1071
     28  H    Isotropic =    31.7230   Anisotropy =    10.8793
   XX=    34.5854   YX=    -3.9626   ZX=    -2.8800
   XY=    -3.5766   YY=    31.1638   ZY=     3.5163
   XZ=    -2.8831   YZ=     3.3796   ZZ=    29.4199
   Eigenvalues:    26.7350    29.4582    38.9759
     29  H    Isotropic =    30.9868   Anisotropy =    10.1028
   XX=    34.1537   YX=     5.0118   ZX=    -1.8659
   XY=     5.0547   YY=    30.5362   ZY=     1.5559
   XZ=    -1.6763   YZ=     1.7233   ZZ=    28.2704
   Eigenvalues:    25.1815    30.0568    37.7220
     30  H    Isotropic =    31.3235   Anisotropy =     8.3540
   XX=    28.1610   YX=     0.0505   ZX=     1.1963
   XY=     0.4684   YY=    30.1502   ZY=    -2.2842
   XZ=     1.0574   YZ=    -3.1969   ZZ=    35.6594
   Eigenvalues:    27.7183    29.3594    36.8929
     31  C    Isotropic =   172.8862   Anisotropy =     7.7529
   XX=   175.5099   YX=    -3.9052   ZX=    -0.8036
   XY=    -2.2042   YY=   172.5621   ZY=     1.2393
   XZ=    -2.3803   YZ=     1.8148   ZZ=   170.5867
   Eigenvalues:   169.7542   170.8496   178.0548
     32  C    Isotropic =   201.1129   Anisotropy =     4.5627
   XX=   201.5420   YX=     0.0841   ZX=     1.4120
   XY=     0.1504   YY=   198.3389   ZY=    -0.9980
   XZ=     0.8606   YZ=     3.0669   ZZ=   203.4577
   Eigenvalues:   198.1345   201.0495   204.1547
     33  H    Isotropic =    31.5509   Anisotropy =    10.5520
   XX=    36.5349   YX=    -4.1009   ZX=     0.0602
   XY=    -3.8343   YY=    30.7756   ZY=    -1.6209
   XZ=    -0.3394   YZ=    -1.3702   ZZ=    27.3422
   Eigenvalues:    26.4652    29.6020    38.5856
     34  H    Isotropic =    31.4160   Anisotropy =     8.7779
   XX=    28.1935   YX=     0.1907   ZX=     1.0857
   XY=     0.2227   YY=    29.1603   ZY=     1.2449
   XZ=     0.8343   YZ=     1.6808   ZZ=    36.8944
   Eigenvalues:    28.0862    28.8940    37.2680
     35  H    Isotropic =    31.3393   Anisotropy =     9.6647
   XX=    32.5856   YX=     4.0049   ZX=     0.5782
   XY=     4.1877   YY=    34.2923   ZY=    -1.9729
   XZ=     0.3210   YZ=    -2.0656   ZZ=    27.1401
   Eigenvalues:    26.1488    30.0867    37.7825
     36  C    Isotropic =   170.6405   Anisotropy =    37.4109
   XX=   157.2028   YX=     3.0824   ZX=     3.0057
   XY=     1.5795   YY=   165.6531   ZY=    15.9376
   XZ=    -0.4480   YZ=    11.6778   ZZ=   189.0656
   Eigenvalues:   156.2566   160.0838   195.5811
     37  H    Isotropic =    30.6370   Anisotropy =     8.3152
   XX=    28.0690   YX=     0.7309   ZX=     3.1178
   XY=     1.0435   YY=    29.1490   ZY=    -0.9079
   XZ=     3.3246   YZ=    -2.2000   ZZ=    34.6931
   Eigenvalues:    26.0874    29.6431    36.1805
     38  H    Isotropic =    31.0121   Anisotropy =     9.8433
   XX=    30.7555   YX=     4.3554   ZX=     1.1910
   XY=     4.7018   YY=    33.0641   ZY=     2.1205
   XZ=     1.8323   YZ=     2.8154   ZZ=    29.2166
   Eigenvalues:    27.1500    28.3120    37.5742
     39  H    Isotropic =    30.3871   Anisotropy =     7.8200
   XX=    32.4691   YX=    -0.5407   ZX=    -2.0181
   XY=    -1.3454   YY=    29.1041   ZY=     3.9894
   XZ=    -3.2274   YZ=     4.1680   ZZ=    29.5882
   Eigenvalues:    25.0732    30.4877    35.6004
     40  C    Isotropic =   170.3352   Anisotropy =    39.0898
   XX=   186.9402   YX=   -16.2401   ZX=    -9.4266
   XY=   -11.6111   YY=   164.1248   ZY=     3.7889
   XZ=    -8.7264   YZ=     5.5985   ZZ=   159.9407
   Eigenvalues:   156.8936   157.7170   196.3951
     41  H    Isotropic =    30.7062   Anisotropy =     9.0824
   XX=    33.6804   YX=    -3.6918   ZX=     1.9331
   XY=    -3.0461   YY=    30.8289   ZY=    -3.3868
   XZ=     0.5835   YZ=    -2.6749   ZZ=    27.6094
   Eigenvalues:    25.7172    29.6403    36.7612
     42  H    Isotropic =    30.7064   Anisotropy =     8.8126
   XX=    31.2542   YX=    -0.9322   ZX=    -3.8571
   XY=    -0.5217   YY=    28.8530   ZY=     4.3289
   XZ=    -2.4937   YZ=     3.8423   ZZ=    32.0122
   Eigenvalues:    25.7350    29.8028    36.5815
     43  H    Isotropic =    30.9549   Anisotropy =    10.1648
   XX=    36.1529   YX=     3.8109   ZX=    -1.6848
   XY=     2.5716   YY=    29.4114   ZY=    -0.3177
   XZ=    -1.8276   YZ=    -0.5421   ZZ=    27.3004
   Eigenvalues:    26.9422    28.1910    37.7314
     44  C    Isotropic =   170.5287   Anisotropy =    37.8940
   XX=   162.9582   YX=    -4.3879   ZX=     8.6965
   XY=    -9.0489   YY=   172.6689   ZY=   -18.8627
   XZ=    11.7490   YZ=   -15.0110   ZZ=   175.9588
   Eigenvalues:   156.0169   159.7778   195.7913
     45  H    Isotropic =    31.0215   Anisotropy =     9.8231
   XX=    29.7225   YX=     3.0144   ZX=    -0.6591
   XY=     3.7569   YY=    34.5094   ZY=    -3.1103
   XZ=    -1.1413   YZ=    -3.5472   ZZ=    28.8326
   Eigenvalues:    27.0322    28.4620    37.5702
     46  H    Isotropic =    30.4878   Anisotropy =     8.3331
   XX=    27.0747   YX=     1.3837   ZX=     1.4958
   XY=     1.0421   YY=    28.6037   ZY=    -1.5958
   XZ=     1.1923   YZ=    -0.0528   ZZ=    35.7851
   Eigenvalues:    26.1479    29.2722    36.0432
     47  H    Isotropic =    30.2068   Anisotropy =     8.2749
   XX=    34.0478   YX=    -2.4550   ZX=    -0.9870
   XY=    -3.2068   YY=    30.5642   ZY=    -2.3117
   XZ=     0.0921   YZ=    -3.0023   ZZ=    26.0085
   Eigenvalues:    24.4985    30.3985    35.7234
 End of Minotr Frequency-dependent properties file   721 does not exist.
 End of Minotr Frequency-dependent properties file   722 does not exist.

 **********************************************************************

            Population analysis using the SCF density.

 **********************************************************************

 Orbital symmetries:
       Occupied  (A) (A) (A) (A) (A) (A) (A) (A) (A) (A) (A) (A)
                 (A) (A) (A) (A) (A) (A) (A) (A) (A) (A) (A) (A)
                 (A) (A) (A) (A) (A) (A) (A) (A) (A) (A) (A) (A)
                 (A) (A) (A) (A) (A) (A) (A) (A) (A) (A) (A) (A)
                 (A) (A) (A) (A) (A) (A) (A) (A) (A) (A) (A) (A)
                 (A) (A) (A) (A) (A) (A) (A) (A) (A) (A) (A) (A)
                 (A) (A) (A) (A) (A) (A) (A)
       Virtual   (A) (A) (A) (A) (A) (A) (A) (A) (A) (A) (A) (A)
                 (A) (A) (A) (A) (A) (A) (A) (A) (A) (A) (A) (A)
                 (A) (A) (A) (A) (A) (A) (A) (A) (A) (A) (A) (A)
                 (A) (A) (A) (A) (A) (A) (A) (A) (A) (A) (A) (A)
                 (A) (A) (A) (A) (A) (A) (A) (A) (A) (A) (A) (A)
                 (A) (A) (A) (A) (A) (A) (A) (A) (A) (A) (A) (A)
                 (A) (A) (A) (A) (A) (A) (A) (A) (A) (A) (A) (A)
                 (A) (A) (A) (A) (A) (A) (A) (A) (A) (A) (A) (A)
                 (A) (A) (A) (A) (A) (A) (A) (A) (A) (A) (A) (A)
                 (A) (A) (A) (A) (A) (A) (A) (A) (A) (A) (A) (A)
                 (A) (A) (A) (A) (A) (A) (A) (A) (A) (A) (A) (A)
                 (A) (A) (A) (A) (A) (A) (A) (A) (A) (A) (A) (A)
                 (A) (A) (A) (A) (A) (A) (A) (A) (A) (A) (A) (A)
                 (A) (A) (A) (A) (A) (A) (A) (A) (A) (A) (A) (A)
                 (A) (A) (A) (A) (A) (A) (A) (A) (A) (A) (A) (A)
                 (A) (A) (A) (A) (A) (A) (A) (A) (A) (A) (A) (A)
                 (A) (A) (A) (A) (A) (A) (A) (A) (A) (A) (A) (A)
                 (A) (A) (A) (A) (A) (A) (A) (A) (A) (A) (A) (A)
                 (A) (A) (A) (A) (A) (A) (A) (A) (A) (A) (A) (A)
                 (A) (A) (A) (A) (A) (A) (A) (A) (A) (A) (A) (A)
                 (A) (A) (A) (A) (A) (A) (A) (A) (A) (A) (A) (A)
                 (A) (A) (A) (A) (A) (A) (A) (A) (A) (A) (A) (A)
                 (A) (A) (A) (A) (A) (A) (A) (A) (A) (A) (A) (A)
                 (A) (A) (A) (A) (A) (A) (A) (A) (A) (A) (A) (A)
                 (A) (A) (A) (A) (A) (A) (A) (A) (A) (A) (A) (A)
                 (A) (A) (A) (A) (A) (A) (A) (A) (A) (A) (A) (A)
                 (A) (A) (A) (A) (A) (A) (A) (A) (A) (A) (A) (A)
                 (A) (A) (A) (A) (A) (A) (A) (A) (A) (A) (A) (A)
                 (A) (A) (A) (A) (A) (A) (A) (A) (A) (A) (A) (A)
                 (A) (A) (A) (A) (A) (A) (A) (A) (A) (A) (A) (A)
                 (A) (A) (A) (A) (A) (A) (A) (A) (A) (A) (A) (A)
                 (A) (A) (A) (A) (A) (A) (A) (A) (A) (A) (A) (A)
                 (A) (A) (A) (A) (A) (A) (A) (A) (A) (A) (A) (A)
                 (A) (A) (A) (A) (A) (A) (A) (A) (A) (A) (A) (A)
                 (A) (A) (A) (A) (A) (A) (A) (A) (A) (A) (A) (A)
                 (A) (A) (A) (A) (A) (A)
 The electronic state is 1-A.
 Alpha  occ. eigenvalues --  -66.30322 -19.26502 -19.25879 -19.25108 -19.23334
 Alpha  occ. eigenvalues --  -10.31313 -10.31014 -10.30474 -10.30447 -10.29627
 Alpha  occ. eigenvalues --  -10.29470 -10.25263 -10.25099 -10.24560 -10.23537
 Alpha  occ. eigenvalues --  -10.23318 -10.23230 -10.22547 -10.21800  -5.33684
 Alpha  occ. eigenvalues --   -3.67608  -3.67316  -3.67275  -1.10752  -1.08337
 Alpha  occ. eigenvalues --   -1.05348  -1.03185  -0.84718  -0.82092  -0.77558
 Alpha  occ. eigenvalues --   -0.75353  -0.72099  -0.70884  -0.70345  -0.70075
 Alpha  occ. eigenvalues --   -0.69372  -0.68485  -0.63960  -0.61648  -0.58574
 Alpha  occ. eigenvalues --   -0.56317  -0.54691  -0.52915  -0.52594  -0.50478
 Alpha  occ. eigenvalues --   -0.49199  -0.48331  -0.47621  -0.47259  -0.45423
 Alpha  occ. eigenvalues --   -0.45136  -0.44505  -0.44103  -0.43075  -0.42372
 Alpha  occ. eigenvalues --   -0.41782  -0.41060  -0.40603  -0.40381  -0.39856
 Alpha  occ. eigenvalues --   -0.39243  -0.39037  -0.38702  -0.38560  -0.38174
 Alpha  occ. eigenvalues --   -0.37126  -0.36348  -0.35467  -0.34605  -0.34197
 Alpha  occ. eigenvalues --   -0.33613  -0.32977  -0.32045  -0.31020  -0.29793
 Alpha  occ. eigenvalues --   -0.29489  -0.28577  -0.27596  -0.26022
 Alpha virt. eigenvalues --   -0.00235   0.00703   0.01138   0.01688   0.02679
 Alpha virt. eigenvalues --    0.02940   0.03304   0.03411   0.03961   0.04647
 Alpha virt. eigenvalues --    0.04964   0.05486   0.05933   0.06030   0.06448
 Alpha virt. eigenvalues --    0.06724   0.07041   0.07368   0.07953   0.08073
 Alpha virt. eigenvalues --    0.08674   0.08773   0.09107   0.09349   0.09872
 Alpha virt. eigenvalues --    0.10096   0.10699   0.10860   0.11115   0.11550
 Alpha virt. eigenvalues --    0.11898   0.12070   0.12312   0.12628   0.12697
 Alpha virt. eigenvalues --    0.13207   0.14017   0.14132   0.14404   0.14642
 Alpha virt. eigenvalues --    0.15133   0.15409   0.15522   0.15859   0.16609
 Alpha virt. eigenvalues --    0.16683   0.17220   0.17375   0.17842   0.17983
 Alpha virt. eigenvalues --    0.18328   0.18451   0.18800   0.19360   0.19765
 Alpha virt. eigenvalues --    0.20343   0.20444   0.20575   0.20852   0.20955
 Alpha virt. eigenvalues --    0.21793   0.21881   0.22350   0.22459   0.22542
 Alpha virt. eigenvalues --    0.22881   0.23031   0.23916   0.24254   0.24497
 Alpha virt. eigenvalues --    0.25034   0.25163   0.25575   0.25937   0.26213
 Alpha virt. eigenvalues --    0.26535   0.27203   0.27500   0.27813   0.28412
 Alpha virt. eigenvalues --    0.28499   0.28676   0.29147   0.29448   0.29752
 Alpha virt. eigenvalues --    0.29886   0.30457   0.30703   0.31099   0.31559
 Alpha virt. eigenvalues --    0.31714   0.32184   0.32441   0.33053   0.33649
 Alpha virt. eigenvalues --    0.34039   0.34509   0.35120   0.35926   0.36492
 Alpha virt. eigenvalues --    0.36747   0.37326   0.37638   0.38216   0.38539
 Alpha virt. eigenvalues --    0.39126   0.39765   0.39895   0.40665   0.40720
 Alpha virt. eigenvalues --    0.41196   0.41920   0.42216   0.43769   0.44121
 Alpha virt. eigenvalues --    0.45138   0.45751   0.46753   0.47326   0.48040
 Alpha virt. eigenvalues --    0.49612   0.51372   0.51643   0.53822   0.54620
 Alpha virt. eigenvalues --    0.55412   0.59342   0.62795   0.66046   0.66282
 Alpha virt. eigenvalues --    0.67256   0.69445   0.70999   0.71584   0.72168
 Alpha virt. eigenvalues --    0.72739   0.73368   0.73774   0.74529   0.75155
 Alpha virt. eigenvalues --    0.75900   0.76478   0.77649   0.78195   0.78913
 Alpha virt. eigenvalues --    0.79183   0.79816   0.80739   0.81045   0.81753
 Alpha virt. eigenvalues --    0.82914   0.83827   0.84608   0.86075   0.86557
 Alpha virt. eigenvalues --    0.87450   0.88019   0.88410   0.88815   0.89793
 Alpha virt. eigenvalues --    0.90577   0.91105   0.92537   0.92984   0.93519
 Alpha virt. eigenvalues --    0.94321   0.95510   0.96755   0.97734   0.98178
 Alpha virt. eigenvalues --    0.98814   0.99971   1.00506   1.01085   1.02347
 Alpha virt. eigenvalues --    1.03326   1.04075   1.04933   1.05240   1.06111
 Alpha virt. eigenvalues --    1.06696   1.07122   1.07467   1.08144   1.08324
 Alpha virt. eigenvalues --    1.08823   1.09316   1.09621   1.11012   1.11245
 Alpha virt. eigenvalues --    1.13489   1.14681   1.15997   1.16801   1.17350
 Alpha virt. eigenvalues --    1.17744   1.18423   1.19576   1.21100   1.22051
 Alpha virt. eigenvalues --    1.22908   1.23736   1.24388   1.25613   1.26271
 Alpha virt. eigenvalues --    1.27763   1.28757   1.29682   1.30185   1.33379
 Alpha virt. eigenvalues --    1.33725   1.35050   1.35235   1.35853   1.36504
 Alpha virt. eigenvalues --    1.39402   1.39836   1.41786   1.42258   1.43824
 Alpha virt. eigenvalues --    1.46390   1.46689   1.47305   1.47811   1.48379
 Alpha virt. eigenvalues --    1.50156   1.51135   1.51983   1.52686   1.54171
 Alpha virt. eigenvalues --    1.57438   1.58796   1.59264   1.61944   1.62941
 Alpha virt. eigenvalues --    1.64114   1.64545   1.65955   1.67372   1.67459
 Alpha virt. eigenvalues --    1.70728   1.71451   1.73143   1.74661   1.75978
 Alpha virt. eigenvalues --    1.77767   1.78535   1.80055   1.80859   1.82066
 Alpha virt. eigenvalues --    1.82595   1.84192   1.85548   1.86283   1.88689
 Alpha virt. eigenvalues --    1.89568   1.90790   1.91043   1.92991   1.93276
 Alpha virt. eigenvalues --    1.94735   1.95584   1.96122   1.97062   1.97383
 Alpha virt. eigenvalues --    1.99163   1.99987   2.01263   2.01574   2.01895
 Alpha virt. eigenvalues --    2.03439   2.04059   2.04638   2.05494   2.06348
 Alpha virt. eigenvalues --    2.06988   2.07648   2.08853   2.08995   2.09229
 Alpha virt. eigenvalues --    2.10565   2.10764   2.11773   2.12887   2.13826
 Alpha virt. eigenvalues --    2.14292   2.14584   2.15042   2.16061   2.16448
 Alpha virt. eigenvalues --    2.16686   2.16874   2.17641   2.17882   2.19032
 Alpha virt. eigenvalues --    2.19430   2.19791   2.20704   2.21152   2.22037
 Alpha virt. eigenvalues --    2.22966   2.24467   2.24796   2.25461   2.27367
 Alpha virt. eigenvalues --    2.28182   2.29086   2.30727   2.31524   2.33767
 Alpha virt. eigenvalues --    2.35836   2.38949   2.39235   2.39403   2.40546
 Alpha virt. eigenvalues --    2.41324   2.42312   2.42681   2.43350   2.44162
 Alpha virt. eigenvalues --    2.44598   2.47871   2.48531   2.51401   2.52335
 Alpha virt. eigenvalues --    2.53865   2.55981   2.56772   2.57503   2.58598
 Alpha virt. eigenvalues --    2.59656   2.60138   2.61445   2.64840   2.65905
 Alpha virt. eigenvalues --    2.67088   2.68296   2.69166   2.69908   2.70514
 Alpha virt. eigenvalues --    2.71870   2.72884   2.73979   2.74238   2.76741
 Alpha virt. eigenvalues --    2.76823   2.78143   2.78396   2.78957   2.80336
 Alpha virt. eigenvalues --    2.81178   2.82358   2.82554   2.85877   2.86156
 Alpha virt. eigenvalues --    2.86499   2.86934   2.87335   2.88166   2.88458
 Alpha virt. eigenvalues --    2.88740   2.88853   2.89811   2.90916   2.91270
 Alpha virt. eigenvalues --    2.92350   2.93188   2.94774   2.95482   2.97405
 Alpha virt. eigenvalues --    2.99008   2.99376   3.01112   3.04289   3.06934
 Alpha virt. eigenvalues --    3.09464   3.15459   3.19845   3.24417   3.26250
 Alpha virt. eigenvalues --    3.27841   3.28978   3.30443   3.30867   3.31485
 Alpha virt. eigenvalues --    3.31925   3.37288   3.38219   3.40186   3.45047
 Alpha virt. eigenvalues --    3.47264   3.47920   3.48122   3.48771   3.49461
 Alpha virt. eigenvalues --    3.50367   3.50590   3.51070   3.51435   3.51655
 Alpha virt. eigenvalues --    3.52498   3.53177   3.55630   3.56253   3.56770
 Alpha virt. eigenvalues --    3.58252   3.61087   3.63512   4.38265   4.44344
 Alpha virt. eigenvalues --    4.46134   4.50759   4.53857   4.56317   4.59649
 Alpha virt. eigenvalues --    4.61116   4.61898   4.64137   4.65912   4.68727
 Alpha virt. eigenvalues --    4.71457   4.73554   4.80352   4.83979   4.93871
 Alpha virt. eigenvalues --    5.05070
          Condensed to atoms (all electrons):
              1          2          3          4          5          6
     1  H    0.604180   0.143218   0.006527   0.009220   0.014296   0.117849
     2  C    0.143218  11.300911  -1.020253  -1.323272   1.342661  -4.394039
     3  C    0.006527  -1.020253   7.376532  -0.549283  -1.097876   0.619731
     4  C    0.009220  -1.323272  -0.549283  10.343273  -2.697465   1.032422
     5  C    0.014296   1.342661  -1.097876  -2.697465  10.987040  -1.552471
     6  C    0.117849  -4.394039   0.619731   1.032422  -1.552471  12.003957
     7  C    0.025354  -1.236537   0.741094  -0.115610  -0.278780   0.207868
     8  H   -0.000079  -0.022307   0.370448   0.036211  -0.055051   0.010378
     9  H   -0.000264   0.119236  -0.030020   0.248040   0.011898  -0.168432
    10  H   -0.003969   0.065838  -0.027152  -0.165582   0.124518   0.250026
    11  H   -0.002565  -0.068971  -0.062700   0.013094   0.014490  -0.012574
    12  H   -0.000115   0.077867   0.351001   0.034000  -0.025320  -0.004443
    13  H   -0.004393  -0.032757  -0.058797   0.003385   0.039695   0.021589
    14  C    0.003247   0.581847  -0.235312  -0.431340  -1.329418  -1.182041
    15  H    0.000000  -0.004441  -0.024427   0.120738  -0.130224   0.008250
    16  H    0.000000   0.005144   0.041711  -0.021961  -0.127189  -0.016330
    17  O   -0.000393  -0.002030  -0.102220  -0.235307   0.308628   0.049685
    18  O   -0.000737   0.064462   0.092204   0.323685  -0.060484  -0.165542
    19  H   -0.000011   0.042491  -0.017411   0.004644   0.066191  -0.122277
    20  O   -0.009990   0.077002  -0.007098  -0.158517   0.095890   0.065742
    21  C   -0.013234   0.089455   0.021071  -0.029135  -0.031280  -0.164853
    22  H   -0.000020  -0.018892   0.000862   0.009822  -0.000359  -0.003852
    23  H   -0.000034   0.012314  -0.000722  -0.013703   0.003534   0.014817
    24  H    0.000986   0.017801   0.000996   0.002499   0.001571  -0.026594
    25  O   -0.054155   0.160608  -0.008151  -0.097445   0.087344  -0.185876
    26  Si   0.029363  -0.406899  -0.023185  -0.385954   0.130030   0.297273
    27  C   -0.002964   0.090121  -0.004313   0.053621   0.001713  -0.138381
    28  H    0.000001   0.005942  -0.000009  -0.000169  -0.000162  -0.001769
    29  H   -0.000006  -0.004203  -0.000071   0.002154   0.001041  -0.002444
    30  H   -0.000003   0.004052  -0.000263  -0.001397   0.002268  -0.003668
    31  C    0.000434   0.005104  -0.012013  -0.028131   0.020447   0.039389
    32  C   -0.005460   0.063576  -0.001107   0.034401  -0.006665  -0.046936
    33  H    0.000032  -0.001775   0.000020   0.000292  -0.000027   0.000610
    34  H    0.000234  -0.001582   0.000685   0.000489  -0.000797   0.002293
    35  H   -0.000679   0.005867  -0.000026  -0.001399   0.000605  -0.001444
    36  C   -0.004732  -0.063313   0.031971   0.021949  -0.023522   0.018548
    37  H    0.000001   0.000751  -0.000680   0.000008   0.000045   0.000415
    38  H    0.000000   0.000456  -0.000038   0.000083  -0.000040  -0.000185
    39  H    0.000011  -0.002794   0.005146   0.000550  -0.001065   0.000004
    40  C    0.000516  -0.013036  -0.003310  -0.011920   0.007019   0.008953
    41  H    0.000000   0.000690  -0.000025  -0.000027   0.000022  -0.000054
    42  H    0.000000  -0.000329   0.000018  -0.000037   0.000002   0.000026
    43  H    0.000000  -0.000360  -0.000041   0.000005   0.000015  -0.000001
    44  C    0.001862   0.064008  -0.023573   0.016505   0.003857  -0.069041
    45  H    0.000000   0.000231  -0.000022   0.000104  -0.000229   0.000014
    46  H    0.000000   0.000190   0.001198  -0.000407  -0.000209  -0.000075
    47  H   -0.000005  -0.006015  -0.004321   0.001890   0.000356   0.002277
              7          8          9         10         11         12
     1  H    0.025354  -0.000079  -0.000264  -0.003969  -0.002565  -0.000115
     2  C   -1.236537  -0.022307   0.119236   0.065838  -0.068971   0.077867
     3  C    0.741094   0.370448  -0.030020  -0.027152  -0.062700   0.351001
     4  C   -0.115610   0.036211   0.248040  -0.165582   0.013094   0.034000
     5  C   -0.278780  -0.055051   0.011898   0.124518   0.014490  -0.025320
     6  C    0.207868   0.010378  -0.168432   0.250026  -0.012574  -0.004443
     7  C    6.721755  -0.035853   0.010036   0.000661   0.418900  -0.074456
     8  H   -0.035853   0.519141   0.000193  -0.000009   0.004353  -0.023116
     9  H    0.010036   0.000193   0.576215   0.005390  -0.000016   0.000022
    10  H    0.000661  -0.000009   0.005390   0.576322   0.000460  -0.000031
    11  H    0.418900   0.004353  -0.000016   0.000460   0.522314  -0.003944
    12  H   -0.074456  -0.023116   0.000022  -0.000031  -0.003944   0.528174
    13  H    0.365666  -0.003107  -0.000021  -0.000092  -0.023037  -0.001330
    14  C   -0.223907  -0.010705   0.037849   0.030791   0.002854  -0.025818
    15  H   -0.005389   0.000169  -0.000098  -0.000046   0.000002   0.000091
    16  H    0.007894  -0.000131   0.000218   0.000006  -0.000018   0.001086
    17  O    0.026009   0.009838   0.009135   0.006123   0.004247   0.000722
    18  O    0.022488  -0.000455  -0.033844   0.009798  -0.000243  -0.000491
    19  H   -0.006393   0.000001  -0.003872  -0.000752   0.000001   0.000003
    20  O    0.034185  -0.000592   0.007801  -0.055089  -0.001401   0.000141
    21  C   -0.033862  -0.000538  -0.003678  -0.017982  -0.002324   0.000291
    22  H    0.005329   0.000000   0.000007   0.009016   0.000005   0.000000
    23  H    0.000111   0.000000   0.000023   0.000188   0.000000   0.000000
    24  H   -0.011873   0.000000  -0.000009  -0.001759   0.000005   0.000000
    25  O   -0.071513   0.008705   0.011478   0.016695   0.012577  -0.001938
    26  Si   0.118541   0.004247   0.032901   0.015494   0.001595  -0.002556
    27  C   -0.029753  -0.000158  -0.001643  -0.002125  -0.000007   0.000074
    28  H    0.000275   0.000000   0.000002   0.000000   0.000000   0.000000
    29  H   -0.000500   0.000000   0.000024   0.000000   0.000000   0.000000
    30  H    0.001391  -0.000001   0.000063   0.000000   0.000000   0.000000
    31  C   -0.027670   0.000859  -0.000540   0.000977  -0.000072   0.000273
    32  C   -0.056323   0.000234  -0.001476  -0.001527   0.000434   0.000092
    33  H    0.000949   0.000000   0.000000   0.000000   0.000000   0.000000
    34  H   -0.007588   0.000000   0.000000   0.000000   0.000001   0.000000
    35  H    0.001999   0.000000   0.000001   0.000006   0.000000   0.000000
    36  C    0.011972   0.000393  -0.000110  -0.000218   0.000337  -0.000292
    37  H   -0.000203   0.000000   0.000000   0.000000   0.000000   0.000000
    38  H    0.000714   0.000000   0.000000   0.000000   0.000000   0.000000
    39  H   -0.005498   0.000035   0.000000   0.000000   0.000002  -0.000001
    40  C   -0.005603   0.000267   0.000822   0.000031   0.000047  -0.000006
    41  H    0.000078   0.000000   0.000000   0.000000   0.000000   0.000000
    42  H   -0.000113   0.000000   0.000000   0.000000   0.000000   0.000000
    43  H    0.000014   0.000000   0.000000   0.000000   0.000000   0.000000
    44  C    0.039647  -0.001959  -0.001094  -0.000041  -0.000154   0.000163
    45  H    0.000013  -0.000001   0.000000   0.000000   0.000000   0.000000
    46  H   -0.001095  -0.000008  -0.000005   0.000000   0.000000   0.000000
    47  H    0.004263   0.000762   0.000017   0.000000   0.000001  -0.000002
             13         14         15         16         17         18
     1  H   -0.004393   0.003247   0.000000   0.000000  -0.000393  -0.000737
     2  C   -0.032757   0.581847  -0.004441   0.005144  -0.002030   0.064462
     3  C   -0.058797  -0.235312  -0.024427   0.041711  -0.102220   0.092204
     4  C    0.003385  -0.431340   0.120738  -0.021961  -0.235307   0.323685
     5  C    0.039695  -1.329418  -0.130224  -0.127189   0.308628  -0.060484
     6  C    0.021589  -1.182041   0.008250  -0.016330   0.049685  -0.165542
     7  C    0.365666  -0.223907  -0.005389   0.007894   0.026009   0.022488
     8  H   -0.003107  -0.010705   0.000169  -0.000131   0.009838  -0.000455
     9  H   -0.000021   0.037849  -0.000098   0.000218   0.009135  -0.033844
    10  H   -0.000092   0.030791  -0.000046   0.000006   0.006123   0.009798
    11  H   -0.023037   0.002854   0.000002  -0.000018   0.004247  -0.000243
    12  H   -0.001330  -0.025818   0.000091   0.001086   0.000722  -0.000491
    13  H    0.527379   0.003149   0.000001  -0.000002  -0.000172   0.000054
    14  C    0.003149   8.062446   0.413181   0.478155   0.020702  -0.193245
    15  H    0.000001   0.413181   0.513484  -0.034975  -0.032412  -0.004950
    16  H   -0.000002   0.478155  -0.034975   0.536292  -0.038415   0.001244
    17  O   -0.000172   0.020702  -0.032412  -0.038415   8.293079   0.031026
    18  O    0.000054  -0.193245  -0.004950   0.001244   0.031026   8.230746
    19  H    0.000000   0.030631   0.000075  -0.000008  -0.001825   0.221643
    20  O   -0.000319   0.014341  -0.000072   0.000040   0.003621  -0.004159
    21  C    0.000595  -0.032260   0.000041  -0.000057   0.002117  -0.003202
    22  H   -0.000001  -0.000371   0.000000   0.000000  -0.000026   0.002476
    23  H    0.000000   0.000358   0.000000   0.000000   0.000006   0.000352
    24  H    0.000007   0.000160   0.000000   0.000000   0.000000  -0.000747
    25  O   -0.007872   0.015480  -0.000088  -0.000027   0.001708  -0.002075
    26  Si  -0.000268  -0.045230  -0.000475  -0.000009   0.000202  -0.004086
    27  C   -0.000004   0.006304   0.000034   0.000015   0.000331   0.000964
    28  H    0.000000  -0.000004   0.000000   0.000000   0.000000   0.000002
    29  H    0.000000   0.000160   0.000000   0.000000   0.000001  -0.000034
    30  H    0.000000   0.000060   0.000000   0.000000   0.000000   0.000066
    31  C    0.001000   0.001558   0.000005   0.000006  -0.000100  -0.000199
    32  C   -0.000407   0.002990   0.000003   0.000001   0.000019  -0.000649
    33  H    0.000000   0.000001   0.000000   0.000000   0.000000   0.000000
    34  H    0.000013  -0.000014   0.000000   0.000000   0.000000  -0.000001
    35  H   -0.000001   0.000032   0.000000   0.000000   0.000000  -0.000002
    36  C    0.000762   0.000772   0.000001  -0.000005   0.000025   0.000004
    37  H   -0.000007  -0.000005   0.000000   0.000000   0.000000   0.000000
    38  H   -0.000003   0.000007   0.000000   0.000000   0.000000   0.000000
    39  H    0.000556  -0.000040   0.000000   0.000000   0.000000   0.000000
    40  C    0.000023   0.000695  -0.000001   0.000001  -0.000012  -0.000098
    41  H    0.000000   0.000000   0.000000   0.000000   0.000000   0.000000
    42  H    0.000000   0.000001   0.000000   0.000000   0.000000   0.000000
    43  H    0.000000   0.000001   0.000000   0.000000   0.000000   0.000000
    44  C   -0.002653   0.002816  -0.000005  -0.000001   0.000029   0.001024
    45  H    0.000000  -0.000002   0.000000   0.000000   0.000000   0.000000
    46  H    0.000001   0.000035   0.000000   0.000000   0.000000   0.000001
    47  H    0.000003  -0.000312   0.000000   0.000000  -0.000001  -0.000005
             19         20         21         22         23         24
     1  H   -0.000011  -0.009990  -0.013234  -0.000020  -0.000034   0.000986
     2  C    0.042491   0.077002   0.089455  -0.018892   0.012314   0.017801
     3  C   -0.017411  -0.007098   0.021071   0.000862  -0.000722   0.000996
     4  C    0.004644  -0.158517  -0.029135   0.009822  -0.013703   0.002499
     5  C    0.066191   0.095890  -0.031280  -0.000359   0.003534   0.001571
     6  C   -0.122277   0.065742  -0.164853  -0.003852   0.014817  -0.026594
     7  C   -0.006393   0.034185  -0.033862   0.005329   0.000111  -0.011873
     8  H    0.000001  -0.000592  -0.000538   0.000000   0.000000   0.000000
     9  H   -0.003872   0.007801  -0.003678   0.000007   0.000023  -0.000009
    10  H   -0.000752  -0.055089  -0.017982   0.009016   0.000188  -0.001759
    11  H    0.000001  -0.001401  -0.002324   0.000005   0.000000   0.000005
    12  H    0.000003   0.000141   0.000291   0.000000   0.000000   0.000000
    13  H    0.000000  -0.000319   0.000595  -0.000001   0.000000   0.000007
    14  C    0.030631   0.014341  -0.032260  -0.000371   0.000358   0.000160
    15  H    0.000075  -0.000072   0.000041   0.000000   0.000000   0.000000
    16  H   -0.000008   0.000040  -0.000057   0.000000   0.000000   0.000000
    17  O   -0.001825   0.003621   0.002117  -0.000026   0.000006   0.000000
    18  O    0.221643  -0.004159  -0.003202   0.002476   0.000352  -0.000747
    19  H    0.371750   0.033769  -0.007903  -0.000195  -0.000054   0.000073
    20  O    0.033769   8.352724  -0.018491  -0.064404  -0.065295  -0.040507
    21  C   -0.007903  -0.018491   5.132948   0.413497   0.411868   0.410425
    22  H   -0.000195  -0.064404   0.413497   0.551045  -0.025461  -0.041748
    23  H   -0.000054  -0.065295   0.411868  -0.025461   0.520277  -0.029183
    24  H    0.000073  -0.040507   0.410425  -0.041748  -0.029183   0.559583
    25  O   -0.000129   0.018763  -0.004136   0.000027  -0.000273   0.001973
    26  Si  -0.000947   0.071306  -0.032835   0.001346   0.002506   0.001540
    27  C    0.000041  -0.033754   0.017322  -0.000473  -0.000279  -0.000533
    28  H    0.000000   0.000407  -0.000259   0.000000  -0.000002  -0.000001
    29  H    0.000028  -0.000989   0.002374  -0.000016   0.000127   0.000075
    30  H   -0.000003  -0.000124  -0.000748   0.000000   0.000001   0.000000
    31  C   -0.000042   0.007291  -0.001576   0.000068  -0.000022   0.000260
    32  C    0.000073  -0.019205   0.004718  -0.000612  -0.000678   0.000235
    33  H    0.000000   0.000108   0.000051   0.000000  -0.000001  -0.000005
    34  H    0.000000   0.000192   0.001793   0.000000   0.000002   0.000041
    35  H    0.000000   0.000414  -0.001386   0.000020   0.000132   0.000661
    36  C   -0.000008   0.000432   0.000316   0.000016  -0.000005  -0.000228
    37  H    0.000000  -0.000003  -0.000017   0.000000   0.000000   0.000000
    38  H    0.000000   0.000000  -0.000002   0.000000   0.000000   0.000000
    39  H    0.000000  -0.000016   0.000017   0.000000   0.000000   0.000000
    40  C    0.000000  -0.000819   0.000511  -0.000004  -0.000007   0.000026
    41  H    0.000000  -0.000001   0.000004   0.000000   0.000000   0.000000
    42  H    0.000000  -0.000003   0.000011   0.000000   0.000000   0.000000
    43  H    0.000000   0.000001  -0.000001   0.000000   0.000000   0.000000
    44  C   -0.000012   0.001370  -0.003591   0.000000   0.000034  -0.000049
    45  H    0.000000   0.000002   0.000001   0.000000   0.000000   0.000000
    46  H    0.000000  -0.000017   0.000011   0.000000   0.000000   0.000000
    47  H    0.000000  -0.000054  -0.000062   0.000000   0.000000   0.000000
             25         26         27         28         29         30
     1  H   -0.054155   0.029363  -0.002964   0.000001  -0.000006  -0.000003
     2  C    0.160608  -0.406899   0.090121   0.005942  -0.004203   0.004052
     3  C   -0.008151  -0.023185  -0.004313  -0.000009  -0.000071  -0.000263
     4  C   -0.097445  -0.385954   0.053621  -0.000169   0.002154  -0.001397
     5  C    0.087344   0.130030   0.001713  -0.000162   0.001041   0.002268
     6  C   -0.185876   0.297273  -0.138381  -0.001769  -0.002444  -0.003668
     7  C   -0.071513   0.118541  -0.029753   0.000275  -0.000500   0.001391
     8  H    0.008705   0.004247  -0.000158   0.000000   0.000000  -0.000001
     9  H    0.011478   0.032901  -0.001643   0.000002   0.000024   0.000063
    10  H    0.016695   0.015494  -0.002125   0.000000   0.000000   0.000000
    11  H    0.012577   0.001595  -0.000007   0.000000   0.000000   0.000000
    12  H   -0.001938  -0.002556   0.000074   0.000000   0.000000   0.000000
    13  H   -0.007872  -0.000268  -0.000004   0.000000   0.000000   0.000000
    14  C    0.015480  -0.045230   0.006304  -0.000004   0.000160   0.000060
    15  H   -0.000088  -0.000475   0.000034   0.000000   0.000000   0.000000
    16  H   -0.000027  -0.000009   0.000015   0.000000   0.000000   0.000000
    17  O    0.001708   0.000202   0.000331   0.000000   0.000001   0.000000
    18  O   -0.002075  -0.004086   0.000964   0.000002  -0.000034   0.000066
    19  H   -0.000129  -0.000947   0.000041   0.000000   0.000028  -0.000003
    20  O    0.018763   0.071306  -0.033754   0.000407  -0.000989  -0.000124
    21  C   -0.004136  -0.032835   0.017322  -0.000259   0.002374  -0.000748
    22  H    0.000027   0.001346  -0.000473   0.000000  -0.000016   0.000000
    23  H   -0.000273   0.002506  -0.000279  -0.000002   0.000127   0.000001
    24  H    0.001973   0.001540  -0.000533  -0.000001   0.000075   0.000000
    25  O    8.410778   0.073927  -0.044375   0.010045  -0.001215  -0.011072
    26  Si   0.073927  13.399588   0.135511  -0.032151  -0.046213  -0.020696
    27  C   -0.044375   0.135511   5.557429   0.395436   0.408194   0.397245
    28  H    0.010045  -0.032151   0.395436   0.497557  -0.021839  -0.022511
    29  H   -0.001215  -0.046213   0.408194  -0.021839   0.475224  -0.021833
    30  H   -0.011072  -0.020696   0.397245  -0.022511  -0.021833   0.494878
    31  C   -0.048198   0.255662  -0.140995  -0.017236   0.013713  -0.014543
    32  C   -0.061298   0.193624   0.037662  -0.011037  -0.007553   0.007715
    33  H    0.009508  -0.029837  -0.007680   0.000117   0.000087   0.000018
    34  H   -0.001361  -0.038132   0.007567   0.000020   0.000004  -0.000017
    35  H   -0.006221  -0.037233  -0.009035   0.000131   0.000456   0.000003
    36  C    0.022701  -0.094167  -0.002247   0.000154  -0.001586  -0.002343
    37  H   -0.002278  -0.001326  -0.000217   0.000001  -0.000001   0.000000
    38  H   -0.000984   0.017120  -0.001367   0.000000   0.000000   0.000000
    39  H    0.008879  -0.007529  -0.000852   0.000000  -0.000001   0.000001
    40  C    0.014890  -0.017793   0.024453   0.007103  -0.001810  -0.001704
    41  H    0.000810  -0.010330  -0.000328  -0.000001  -0.000006   0.000025
    42  H    0.000457  -0.012199   0.003847  -0.000109   0.000017   0.000027
    43  H   -0.000664   0.018849  -0.000051   0.000026   0.000000  -0.000008
    44  C   -0.007687  -0.151870  -0.028187   0.008209   0.002102   0.010828
    45  H   -0.000756   0.019303   0.000431  -0.000001   0.000000  -0.000011
    46  H   -0.004399   0.009467   0.000000   0.000061  -0.000003   0.000297
    47  H    0.007455  -0.020245  -0.000117   0.000003  -0.000005   0.000029
             31         32         33         34         35         36
     1  H    0.000434  -0.005460   0.000032   0.000234  -0.000679  -0.004732
     2  C    0.005104   0.063576  -0.001775  -0.001582   0.005867  -0.063313
     3  C   -0.012013  -0.001107   0.000020   0.000685  -0.000026   0.031971
     4  C   -0.028131   0.034401   0.000292   0.000489  -0.001399   0.021949
     5  C    0.020447  -0.006665  -0.000027  -0.000797   0.000605  -0.023522
     6  C    0.039389  -0.046936   0.000610   0.002293  -0.001444   0.018548
     7  C   -0.027670  -0.056323   0.000949  -0.007588   0.001999   0.011972
     8  H    0.000859   0.000234   0.000000   0.000000   0.000000   0.000393
     9  H   -0.000540  -0.001476   0.000000   0.000000   0.000001  -0.000110
    10  H    0.000977  -0.001527   0.000000   0.000000   0.000006  -0.000218
    11  H   -0.000072   0.000434   0.000000   0.000001   0.000000   0.000337
    12  H    0.000273   0.000092   0.000000   0.000000   0.000000  -0.000292
    13  H    0.001000  -0.000407   0.000000   0.000013  -0.000001   0.000762
    14  C    0.001558   0.002990   0.000001  -0.000014   0.000032   0.000772
    15  H    0.000005   0.000003   0.000000   0.000000   0.000000   0.000001
    16  H    0.000006   0.000001   0.000000   0.000000   0.000000  -0.000005
    17  O   -0.000100   0.000019   0.000000   0.000000   0.000000   0.000025
    18  O   -0.000199  -0.000649   0.000000  -0.000001  -0.000002   0.000004
    19  H   -0.000042   0.000073   0.000000   0.000000   0.000000  -0.000008
    20  O    0.007291  -0.019205   0.000108   0.000192   0.000414   0.000432
    21  C   -0.001576   0.004718   0.000051   0.001793  -0.001386   0.000316
    22  H    0.000068  -0.000612   0.000000   0.000000   0.000020   0.000016
    23  H   -0.000022  -0.000678  -0.000001   0.000002   0.000132  -0.000005
    24  H    0.000260   0.000235  -0.000005   0.000041   0.000661  -0.000228
    25  O   -0.048198  -0.061298   0.009508  -0.001361  -0.006221   0.022701
    26  Si   0.255662   0.193624  -0.029837  -0.038132  -0.037233  -0.094167
    27  C   -0.140995   0.037662  -0.007680   0.007567  -0.009035  -0.002247
    28  H   -0.017236  -0.011037   0.000117   0.000020   0.000131   0.000154
    29  H    0.013713  -0.007553   0.000087   0.000004   0.000456  -0.001586
    30  H   -0.014543   0.007715   0.000018  -0.000017   0.000003  -0.002343
    31  C    8.037672  -0.128006  -0.017920  -0.020776   0.015318  -0.291286
    32  C   -0.128006   5.512021   0.398132   0.412918   0.393487   0.019217
    33  H   -0.017920   0.398132   0.486370  -0.021499  -0.021128   0.004993
    34  H   -0.020776   0.412918  -0.021499   0.490635  -0.023357   0.010789
    35  H    0.015318   0.393487  -0.021128  -0.023357   0.496360   0.000892
    36  C   -0.291286   0.019217   0.004993   0.010789   0.000892   5.820653
    37  H   -0.062881   0.002007   0.000073  -0.000094   0.000019   0.422780
    38  H   -0.153585   0.000143  -0.000002   0.000002   0.000000   0.452737
    39  H   -0.114256  -0.001001   0.000017   0.000064  -0.000005   0.478667
    40  C   -0.410193   0.007849   0.007672   0.004023  -0.000272   0.013969
    41  H   -0.081782   0.002336   0.000537   0.000021  -0.000013  -0.012291
    42  H   -0.083885  -0.000101  -0.000003   0.000006  -0.000006   0.004151
    43  H   -0.151177   0.001072   0.000007  -0.000004   0.000001   0.004927
    44  C   -0.275222  -0.030014   0.000900  -0.003832  -0.000554  -0.258528
    45  H   -0.158693  -0.001646   0.000000   0.000000   0.000000  -0.000744
    46  H   -0.066010   0.000117   0.000000   0.000000  -0.000001   0.001943
    47  H   -0.098437  -0.000899   0.000000   0.000002   0.000000  -0.001673
             37         38         39         40         41         42
     1  H    0.000001   0.000000   0.000011   0.000516   0.000000   0.000000
     2  C    0.000751   0.000456  -0.002794  -0.013036   0.000690  -0.000329
     3  C   -0.000680  -0.000038   0.005146  -0.003310  -0.000025   0.000018
     4  C    0.000008   0.000083   0.000550  -0.011920  -0.000027  -0.000037
     5  C    0.000045  -0.000040  -0.001065   0.007019   0.000022   0.000002
     6  C    0.000415  -0.000185   0.000004   0.008953  -0.000054   0.000026
     7  C   -0.000203   0.000714  -0.005498  -0.005603   0.000078  -0.000113
     8  H    0.000000   0.000000   0.000035   0.000267   0.000000   0.000000
     9  H    0.000000   0.000000   0.000000   0.000822   0.000000   0.000000
    10  H    0.000000   0.000000   0.000000   0.000031   0.000000   0.000000
    11  H    0.000000   0.000000   0.000002   0.000047   0.000000   0.000000
    12  H    0.000000   0.000000  -0.000001  -0.000006   0.000000   0.000000
    13  H   -0.000007  -0.000003   0.000556   0.000023   0.000000   0.000000
    14  C   -0.000005   0.000007  -0.000040   0.000695   0.000000   0.000001
    15  H    0.000000   0.000000   0.000000  -0.000001   0.000000   0.000000
    16  H    0.000000   0.000000   0.000000   0.000001   0.000000   0.000000
    17  O    0.000000   0.000000   0.000000  -0.000012   0.000000   0.000000
    18  O    0.000000   0.000000   0.000000  -0.000098   0.000000   0.000000
    19  H    0.000000   0.000000   0.000000   0.000000   0.000000   0.000000
    20  O   -0.000003   0.000000  -0.000016  -0.000819  -0.000001  -0.000003
    21  C   -0.000017  -0.000002   0.000017   0.000511   0.000004   0.000011
    22  H    0.000000   0.000000   0.000000  -0.000004   0.000000   0.000000
    23  H    0.000000   0.000000   0.000000  -0.000007   0.000000   0.000000
    24  H    0.000000   0.000000   0.000000   0.000026   0.000000   0.000000
    25  O   -0.002278  -0.000984   0.008879   0.014890   0.000810   0.000457
    26  Si  -0.001326   0.017120  -0.007529  -0.017793  -0.010330  -0.012199
    27  C   -0.000217  -0.001367  -0.000852   0.024453  -0.000328   0.003847
    28  H    0.000001   0.000000   0.000000   0.007103  -0.000001  -0.000109
    29  H   -0.000001   0.000000  -0.000001  -0.001810  -0.000006   0.000017
    30  H    0.000000   0.000000   0.000001  -0.001704   0.000025   0.000027
    31  C   -0.062881  -0.153585  -0.114256  -0.410193  -0.081782  -0.083885
    32  C    0.002007   0.000143  -0.001001   0.007849   0.002336  -0.000101
    33  H    0.000073  -0.000002   0.000017   0.007672   0.000537  -0.000003
    34  H   -0.000094   0.000002   0.000064   0.004023   0.000021   0.000006
    35  H    0.000019   0.000000  -0.000005  -0.000272  -0.000013  -0.000006
    36  C    0.422780   0.452737   0.478667   0.013969  -0.012291   0.004151
    37  H    0.535075  -0.027868  -0.026725  -0.006283   0.002716   0.000028
    38  H   -0.027868   0.543746  -0.027217   0.008669  -0.000320   0.000005
    39  H   -0.026725  -0.027217   0.525538  -0.000863   0.000032  -0.000146
    40  C   -0.006283   0.008669  -0.000863   5.670173   0.444735   0.460471
    41  H    0.002716  -0.000320   0.000032   0.444735   0.536599  -0.027259
    42  H    0.000028   0.000005  -0.000146   0.460471  -0.027259   0.529960
    43  H   -0.000334   0.005404   0.000023   0.451516  -0.028027  -0.027539
    44  C    0.000317   0.014937  -0.006920  -0.129793   0.007445  -0.019413
    45  H    0.000035   0.005573  -0.000329   0.010097  -0.000004  -0.000325
    46  H   -0.000152   0.000021   0.000037  -0.002998   0.000032   0.002741
    47  H    0.000023  -0.000303   0.003098   0.001491  -0.000147   0.000038
             43         44         45         46         47
     1  H    0.000000   0.001862   0.000000   0.000000  -0.000005
     2  C   -0.000360   0.064008   0.000231   0.000190  -0.006015
     3  C   -0.000041  -0.023573  -0.000022   0.001198  -0.004321
     4  C    0.000005   0.016505   0.000104  -0.000407   0.001890
     5  C    0.000015   0.003857  -0.000229  -0.000209   0.000356
     6  C   -0.000001  -0.069041   0.000014  -0.000075   0.002277
     7  C    0.000014   0.039647   0.000013  -0.001095   0.004263
     8  H    0.000000  -0.001959  -0.000001  -0.000008   0.000762
     9  H    0.000000  -0.001094   0.000000  -0.000005   0.000017
    10  H    0.000000  -0.000041   0.000000   0.000000   0.000000
    11  H    0.000000  -0.000154   0.000000   0.000000   0.000001
    12  H    0.000000   0.000163   0.000000   0.000000  -0.000002
    13  H    0.000000  -0.002653   0.000000   0.000001   0.000003
    14  C    0.000001   0.002816  -0.000002   0.000035  -0.000312
    15  H    0.000000  -0.000005   0.000000   0.000000   0.000000
    16  H    0.000000  -0.000001   0.000000   0.000000   0.000000
    17  O    0.000000   0.000029   0.000000   0.000000  -0.000001
    18  O    0.000000   0.001024   0.000000   0.000001  -0.000005
    19  H    0.000000  -0.000012   0.000000   0.000000   0.000000
    20  O    0.000001   0.001370   0.000002  -0.000017  -0.000054
    21  C   -0.000001  -0.003591   0.000001   0.000011  -0.000062
    22  H    0.000000   0.000000   0.000000   0.000000   0.000000
    23  H    0.000000   0.000034   0.000000   0.000000   0.000000
    24  H    0.000000  -0.000049   0.000000   0.000000   0.000000
    25  O   -0.000664  -0.007687  -0.000756  -0.004399   0.007455
    26  Si   0.018849  -0.151870   0.019303   0.009467  -0.020245
    27  C   -0.000051  -0.028187   0.000431   0.000000  -0.000117
    28  H    0.000026   0.008209  -0.000001   0.000061   0.000003
    29  H    0.000000   0.002102   0.000000  -0.000003  -0.000005
    30  H   -0.000008   0.010828  -0.000011   0.000297   0.000029
    31  C   -0.151177  -0.275222  -0.158693  -0.066010  -0.098437
    32  C    0.001072  -0.030014  -0.001646   0.000117  -0.000899
    33  H    0.000007   0.000900   0.000000   0.000000   0.000000
    34  H   -0.000004  -0.003832   0.000000   0.000000   0.000002
    35  H    0.000001  -0.000554   0.000000  -0.000001   0.000000
    36  C    0.004927  -0.258528  -0.000744   0.001943  -0.001673
    37  H   -0.000334   0.000317   0.000035  -0.000152   0.000023
    38  H    0.005404   0.014937   0.005573   0.000021  -0.000303
    39  H    0.000023  -0.006920  -0.000329   0.000037   0.003098
    40  C    0.451516  -0.129793   0.010097  -0.002998   0.001491
    41  H   -0.028027   0.007445  -0.000004   0.000032  -0.000147
    42  H   -0.027539  -0.019413  -0.000325   0.002741   0.000038
    43  H    0.540812   0.015684   0.005385  -0.000365   0.000012
    44  C    0.015684   6.027399   0.471436   0.413450   0.466182
    45  H    0.005385   0.471436   0.544405  -0.028284  -0.027597
    46  H   -0.000365   0.413450  -0.028284   0.535790  -0.025922
    47  H    0.000012   0.466182  -0.027597  -0.025922   0.521394
 Mulliken atomic charges:
              1
     1  H    0.146477
     2  C    0.281961
     3  C   -0.346798
     4  C   -0.045024
     5  C    0.153459
     6  C   -0.508794
     7  C   -0.538687
     8  H    0.187837
     9  H    0.173751
    10  H    0.164032
    11  H    0.182306
    12  H    0.169860
    13  H    0.171370
    14  C   -0.000599
    15  H    0.181527
    16  H    0.167314
    17  O   -0.354340
    18  O   -0.526991
    19  H    0.390425
    20  O   -0.304623
    21  C   -0.106024
    22  H    0.162898
    23  H    0.169068
    24  H    0.154317
    25  O   -0.270622
    26  Si   0.592771
    27  C   -0.688477
    28  H    0.181767
    29  H    0.204544
    30  H    0.181976
    31  C    0.005410
    32  C   -0.712473
    33  H    0.189380
    34  H    0.187258
    35  H    0.186358
    36  C   -0.588774
    37  H    0.164780
    38  H    0.162297
    39  H    0.172580
    40  C   -0.539497
    41  H    0.164533
    42  H    0.169660
    43  H    0.164819
    44  C   -0.556013
    45  H    0.161614
    46  H    0.164560
    47  H    0.176827
 Sum of Mulliken atomic charges =   0.00000
 Mulliken charges with hydrogens summed into heavy atoms:
              1
     2  C    0.428438
     3  C    0.010899
     4  C    0.128727
     5  C    0.153459
     6  C   -0.344762
     7  C   -0.185010
    14  C    0.348242
    17  O   -0.354340
    18  O   -0.136566
    20  O   -0.304623
    21  C    0.380259
    25  O   -0.270622
    26  Si   0.592771
    27  C   -0.120191
    31  C    0.005410
    32  C   -0.149477
    36  C   -0.089117
    40  C   -0.040486
    44  C   -0.053012
 Sum of Mulliken charges with hydrogens summed into heavy atoms =   0.00000
 Electronic spatial extent (au):  <R**2>=           6260.2693
 Charge=              0.0000 electrons
 Dipole moment (field-independent basis, Debye):
    X=             -2.7389    Y=              1.0312    Z=             -1.2533  Tot=              3.1837
 Quadrupole moment (field-independent basis, Debye-Ang):
   XX=           -141.8030   YY=           -114.6805   ZZ=           -125.2101
   XY=             -2.5485   XZ=              1.2159   YZ=             -3.9778
 Traceless Quadrupole moment (field-independent basis, Debye-Ang):
   XX=            -14.5718   YY=             12.5507   ZZ=              2.0211
   XY=             -2.5485   XZ=              1.2159   YZ=             -3.9778
 Octapole moment (field-independent basis, Debye-Ang**2):
  XXX=            -48.3831  YYY=             29.6302  ZZZ=             -3.9630  XYY=             40.7581
  XXY=             -3.4828  XXZ=             15.3254  XZZ=              9.7801  YZZ=              4.5359
  YYZ=             -1.7255  XYZ=            -11.2877
 Hexadecapole moment (field-independent basis, Debye-Ang**3):
 XXXX=          -5948.3439 YYYY=          -1793.6133 ZZZZ=           -979.9864 XXXY=            -67.2886
 XXXZ=            101.1796 YYYX=              8.4242 YYYZ=              2.7064 ZZZX=              4.0471
 ZZZY=              5.2157 XXYY=          -1163.4596 XXZZ=          -1117.8952 YYZZ=           -484.5192
 XXYZ=            -48.3123 YYXZ=             13.7493 ZZXY=              3.7241
 N-N= 1.831391039626D+03 E-N=-6.333452932273D+03  KE= 1.131541548291D+03
 1\1\GINC-COMPUTE-8-19\SP\RmPW1PW91\6-31+G(d,p)\C14H28O4Si1\ELUCIANO.IQ
 UIR\06-Dec-2022\0\\# mPW1PW91/6-31+g** scrf=(PCM,solvent=chloroform) n
 mr\\comment\\0,1\H,0,0.175787,0.667771,-1.950951\C,0,0.560102,0.076707
 ,-1.106863\C,0,1.866717,-2.029317,-0.516912\C,0,2.247068,0.104655,0.79
 2601\C,0,2.871187,-1.16318,0.224096\C,0,1.637581,0.898041,-0.371688\C,
 0,1.196378,-1.217908,-1.641642\H,0,1.101406,-2.388006,0.181423\H,0,1.4
 34718,-0.190833,1.474435\H,0,2.451878,1.120903,-1.077267\H,0,1.94879,-
 0.958956,-2.39739\H,0,2.37846,-2.90376,-0.932153\H,0,0.422242,-1.81392
 6,-2.136981\C,0,4.123979,-1.6973,0.769272\H,0,4.605671,-1.182804,1.597
 906\H,0,4.333823,-2.7645,0.682108\O,0,4.119108,-0.970773,-0.471989\O,0
 ,3.211908,0.879065,1.477856\H,0,2.795767,1.750114,1.59261\O,0,1.140687
 ,2.12696,0.167141\C,0,1.24673,3.235656,-0.713196\H,0,2.293662,3.426266
 ,-0.990673\H,0,0.852695,4.103865,-0.178583\H,0,0.661557,3.091527,-1.63
 2098\O,0,-0.507226,-0.275613,-0.236695\Si,0,-1.965963,0.497211,0.09353
 6\C,0,-1.84299,1.442326,1.721658\H,0,-2.765938,1.992054,1.943019\H,0,-
 1.01822,2.159913,1.668359\H,0,-1.643614,0.771249,2.565092\C,0,-3.25142
 ,-0.918759,0.222737\C,0,-2.410055,1.695966,-1.303322\H,0,-3.419632,2.0
 97785,-1.153388\H,0,-2.391919,1.217551,-2.289394\H,0,-1.725458,2.55119
 4,-1.331743\C,0,-3.391596,-1.633805,-1.13786\H,0,-3.756533,-0.957794,-
 1.920985\H,0,-4.10937,-2.463823,-1.063884\H,0,-2.436007,-2.053037,-1.4
 74052\C,0,-4.626433,-0.351394,0.637365\H,0,-5.008393,0.378155,-0.08795
 6\H,0,-4.591531,0.138284,1.618143\H,0,-5.368992,-1.159859,0.7038\C,0,-
 2.790296,-1.945295,1.279726\H,0,-3.512878,-2.771449,1.353826\H,0,-2.70
 5784,-1.497666,2.277611\H,0,-1.816248,-2.376654,1.02333\\Version=EM64L
 -G09RevC.01\State=1-A\HF=-1140.6259864\RMSD=3.971e-09\Dipole=-1.077570
 1,0.405715,-0.4930995\Quadrupole=-10.8337855,9.3311596,1.5026259,-1.89
 47144,0.9039744,-2.9573728\PG=C01 [X(C14H28O4Si1)]\\@


 PICNIC:  A SNACK IN THE GRASS.
 Job cpu time:  0 days  3 hours 20 minutes 29.7 seconds.
 File lengths (MBytes):  RWF=    296 Int=      0 D2E=      0 Chk=     16 Scr=      1
 Normal termination of Gaussian 09 at Tue Dec  6 14:43:33 2022.
