 Entering Gaussian System, Link 0=g09
 Input=/home/eluciano.iquir/todos_optB3L_MPW_B_PCM/02_epoxido28_001_optB3L_nmr_MPW_B_PCM.gjc
 Output=/home/eluciano.iquir/todos_optB3L_MPW_B_PCM/02_epoxido28_001_optB3L_nmr_MPW_B_PCM.log
 Initial command:
 /share/apps/Gaussian09/EM64T.SSE4.2-enabled/g09/l1.exe /tmp/Gau-32857.inp -scrdir=/tmp/
 Entering Link 1 = /share/apps/Gaussian09/EM64T.SSE4.2-enabled/g09/l1.exe PID=     32858.
  
 Copyright (c) 1988,1990,1992,1993,1995,1998,2003,2009,2011,
            Gaussian, Inc.  All Rights Reserved.
  
 This is part of the Gaussian(R) 09 program.  It is based on
 the Gaussian(R) 03 system (copyright 2003, Gaussian, Inc.),
 the Gaussian(R) 98 system (copyright 1998, Gaussian, Inc.),
 the Gaussian(R) 94 system (copyright 1995, Gaussian, Inc.),
 the Gaussian 92(TM) system (copyright 1992, Gaussian, Inc.),
 the Gaussian 90(TM) system (copyright 1990, Gaussian, Inc.),
 the Gaussian 88(TM) system (copyright 1988, Gaussian, Inc.),
 the Gaussian 86(TM) system (copyright 1986, Carnegie Mellon
 University), and the Gaussian 82(TM) system (copyright 1983,
 Carnegie Mellon University). Gaussian is a federally registered
 trademark of Gaussian, Inc.
  
 This software contains proprietary and confidential information,
 including trade secrets, belonging to Gaussian, Inc.
  
 This software is provided under written license and may be
 used, copied, transmitted, or stored only in accord with that
 written license.
  
 The following legend is applicable only to US Government
 contracts under FAR:
  
                    RESTRICTED RIGHTS LEGEND
  
 Use, reproduction and disclosure by the US Government is
 subject to restrictions as set forth in subparagraphs (a)
 and (c) of the Commercial Computer Software - Restricted
 Rights clause in FAR 52.227-19.
  
 Gaussian, Inc.
 340 Quinnipiac St., Bldg. 40, Wallingford CT 06492
  
  
 ---------------------------------------------------------------
 Warning -- This program may not be used in any manner that
 competes with the business of Gaussian, Inc. or will provide
 assistance to any competitor of Gaussian, Inc.  The licensee
 of this program is prohibited from giving any competitor of
 Gaussian, Inc. access to this program.  By using this program,
 the user acknowledges that Gaussian, Inc. is engaged in the
 business of creating and licensing software in the field of
 computational chemistry and represents and warrants to the
 licensee that it is not a competitor of Gaussian, Inc. and that
 it will not use this program in any manner prohibited above.
 ---------------------------------------------------------------
  

 Cite this work as:
 Gaussian 09, Revision C.01,
 M. J. Frisch, G. W. Trucks, H. B. Schlegel, G. E. Scuseria, 
 M. A. Robb, J. R. Cheeseman, G. Scalmani, V. Barone, B. Mennucci, 
 G. A. Petersson, H. Nakatsuji, M. Caricato, X. Li, H. P. Hratchian, 
 A. F. Izmaylov, J. Bloino, G. Zheng, J. L. Sonnenberg, M. Hada, 
 M. Ehara, K. Toyota, R. Fukuda, J. Hasegawa, M. Ishida, T. Nakajima, 
 Y. Honda, O. Kitao, H. Nakai, T. Vreven, J. A. Montgomery, Jr., 
 J. E. Peralta, F. Ogliaro, M. Bearpark, J. J. Heyd, E. Brothers, 
 K. N. Kudin, V. N. Staroverov, T. Keith, R. Kobayashi, J. Normand, 
 K. Raghavachari, A. Rendell, J. C. Burant, S. S. Iyengar, J. Tomasi, 
 M. Cossi, N. Rega, J. M. Millam, M. Klene, J. E. Knox, J. B. Cross, 
 V. Bakken, C. Adamo, J. Jaramillo, R. Gomperts, R. E. Stratmann, 
 O. Yazyev, A. J. Austin, R. Cammi, C. Pomelli, J. W. Ochterski, 
 R. L. Martin, K. Morokuma, V. G. Zakrzewski, G. A. Voth, 
 P. Salvador, J. J. Dannenberg, S. Dapprich, A. D. Daniels, 
 O. Farkas, J. B. Foresman, J. V. Ortiz, J. Cioslowski, 
 and D. J. Fox, Gaussian, Inc., Wallingford CT, 2010.
 
 ******************************************
 Gaussian 09:  EM64L-G09RevC.01 23-Sep-2011
                 6-Dec-2022 
 ******************************************
 %nprocshared=4
 Will use up to    4 processors via shared memory.
 %mem=80MW
 -----------------------------------------------------
 # mPW1PW91/6-31+g** scrf=(PCM,solvent=chloroform) nmr
 -----------------------------------------------------
 1/38=1/1;
 2/12=2,17=6,18=5,40=1/2;
 3/5=1,6=6,7=111,11=2,16=1,25=1,30=1,70=2201,72=7,74=-7/1,2,8,3;
 4//1;
 5/5=2,38=5,53=7/2;
 8/6=1,10=90,11=11/1;
 10/13=100,45=16/2;
 6/7=2,8=2,9=2,10=2,28=1/1;
 99/9=1/99;
 -------
 comment
 -------
 Charge =  0 Multiplicity = 1
 Symbolic Z-Matrix:
 1                     0.07064   0.38199  -2.06003 
 6                     0.48761  -0.09774  -1.1641 
 6                     1.81325  -2.11324  -0.35425 
 6                     2.27755   0.20723   0.59918 
 6                     2.84786  -1.15054   0.1869 
 6                     1.56525   0.85407  -0.59781 
 6                     1.09926  -1.45482  -1.54837 
 1                     1.08011  -2.34163   0.42788 
 1                     1.52656   0.03616   1.38483 
 1                     2.31274   1.03401  -1.38898 
 1                     1.8105   -1.30616  -2.3725 
 1                     2.28893  -3.05542  -0.64662 
 1                     0.30056  -2.10421  -1.92195 
 8                     3.83472  -1.65475   1.10695 
 6                     4.25954  -1.25292  -0.21445 
 8                     3.30221   1.0653    1.08098 
 1                     3.78923   0.53648   1.73809 
 8                     0.92173   2.07539  -0.27162 
 6                     1.74302   3.23631  -0.31448 
 1                     2.51581   3.21522   0.45887 
 1                     1.07793   4.08894  -0.15252 
 1                     2.22372   3.34356  -1.29935 
 8                    -0.54083  -0.33444  -0.21459 
 14                   -1.96107   0.53087   0.07798 
 6                    -1.77957   1.50786   1.68142 
 1                    -2.68318   2.08573   1.91102 
 1                    -0.93969   2.20335   1.5897 
 1                    -1.57826   0.85075   2.53536 
 6                    -3.32327  -0.8111    0.25073 
 6                    -2.32903   1.70222  -1.35957 
 1                    -3.26254   2.25034  -1.18395 
 1                    -2.43101   1.1782   -2.31711 
 1                    -1.52241   2.4357   -1.45834 
 6                    -3.47593  -1.58157  -1.07751 
 1                    -3.79596  -0.92668  -1.89727 
 1                    -4.23241  -2.37407  -0.97939 
 1                    -2.53532  -2.05905  -1.37671 
 6                    -4.67255  -0.15225   0.60918 
 1                    -5.00132   0.55847  -0.15964 
 1                    -4.62589   0.38576   1.56372 
 1                    -5.45988  -0.91448   0.70327 
 6                    -2.93636  -1.8096    1.36245 
 1                    -3.69958  -2.59649   1.45632 
 1                    -2.85148  -1.32183   2.34117 
 1                    -1.97921  -2.29845   1.1485 
 1                     4.57247  -2.07278  -0.86093 
 1                     4.88146  -0.36107  -0.24484 
 
                          Input orientation:                          
 ---------------------------------------------------------------------
 Center     Atomic      Atomic             Coordinates (Angstroms)
 Number     Number       Type             X           Y           Z
 ---------------------------------------------------------------------
      1          1           0        0.070639    0.381985   -2.060034
      2          6           0        0.487611   -0.097744   -1.164098
      3          6           0        1.813253   -2.113240   -0.354253
      4          6           0        2.277552    0.207228    0.599176
      5          6           0        2.847855   -1.150536    0.186900
      6          6           0        1.565253    0.854066   -0.597813
      7          6           0        1.099263   -1.454823   -1.548370
      8          1           0        1.080110   -2.341628    0.427876
      9          1           0        1.526561    0.036156    1.384830
     10          1           0        2.312738    1.034007   -1.388980
     11          1           0        1.810495   -1.306156   -2.372495
     12          1           0        2.288931   -3.055424   -0.646615
     13          1           0        0.300560   -2.104212   -1.921950
     14          8           0        3.834721   -1.654752    1.106952
     15          6           0        4.259540   -1.252915   -0.214453
     16          8           0        3.302214    1.065299    1.080975
     17          1           0        3.789231    0.536480    1.738092
     18          8           0        0.921726    2.075393   -0.271621
     19          6           0        1.743018    3.236313   -0.314481
     20          1           0        2.515812    3.215217    0.458874
     21          1           0        1.077925    4.088942   -0.152524
     22          1           0        2.223722    3.343562   -1.299347
     23          8           0       -0.540825   -0.334437   -0.214585
     24         14           0       -1.961074    0.530867    0.077983
     25          6           0       -1.779566    1.507862    1.681419
     26          1           0       -2.683183    2.085731    1.911015
     27          1           0       -0.939693    2.203350    1.589698
     28          1           0       -1.578263    0.850749    2.535356
     29          6           0       -3.323267   -0.811101    0.250734
     30          6           0       -2.329029    1.702224   -1.359573
     31          1           0       -3.262540    2.250340   -1.183949
     32          1           0       -2.431009    1.178201   -2.317114
     33          1           0       -1.522405    2.435700   -1.458344
     34          6           0       -3.475929   -1.581573   -1.077508
     35          1           0       -3.795961   -0.926680   -1.897269
     36          1           0       -4.232412   -2.374071   -0.979389
     37          1           0       -2.535322   -2.059045   -1.376708
     38          6           0       -4.672547   -0.152249    0.609184
     39          1           0       -5.001319    0.558468   -0.159635
     40          1           0       -4.625894    0.385758    1.563720
     41          1           0       -5.459875   -0.914477    0.703271
     42          6           0       -2.936364   -1.809595    1.362448
     43          1           0       -3.699579   -2.596487    1.456318
     44          1           0       -2.851484   -1.321825    2.341171
     45          1           0       -1.979214   -2.298452    1.148496
     46          1           0        4.572475   -2.072783   -0.860933
     47          1           0        4.881456   -0.361066   -0.244836
 ---------------------------------------------------------------------
                    Distance matrix (angstroms):
                    1          2          3          4          5
     1  H    0.000000
     2  C    1.098502   0.000000
     3  C    3.488917   2.544681   0.000000
     4  C    3.460116   2.531014   2.551308   0.000000
     5  C    3.887192   2.916216   1.513290   1.529294   0.000000
     6  C    2.143554   1.545294   2.987596   1.535758   2.505847
     7  C    2.166502   1.537350   1.539224   2.960191   2.482202
     8  H    3.824499   2.814330   1.096077   2.821326   2.145155
     9  H    3.755848   2.755790   2.779659   1.100230   2.142217
    10  H    2.429497   2.159287   3.350419   2.153501   2.746266
    11  H    2.444289   2.161135   2.173636   3.367388   2.766014
    12  H    4.328320   3.501487   1.095197   3.492424   2.153077
    13  H    2.500621   2.152961   2.178531   3.950611   3.441723
    14  O    5.324135   4.334177   2.536073   2.479835   1.440359
    15  C    4.860654   4.057548   2.596926   2.592737   1.471197
    16  O    4.558062   3.783518   3.792096   1.420686   2.432229
    17  H    5.317665   4.441356   3.911958   1.921122   2.477581
    18  O    2.605840   2.389037   4.283258   2.467102   3.785080
    19  C    3.740454   3.662490   5.350162   3.208715   4.551537
    20  H    4.511205   4.209911   5.435735   3.020671   4.386801
    21  H    4.288910   4.347424   6.248877   4.131811   5.540757
    22  H    3.739699   3.856807   5.553231   3.666589   4.774452
    23  O    2.071915   1.419605   2.953867   2.983095   3.508612
    24  Si   2.953158   2.816731   4.628571   4.282795   5.095564
    25  C    4.323116   3.976811   5.492239   4.395805   5.541994
    26  H    5.124014   4.927253   6.555969   5.464301   6.636142
    27  H    4.202224   3.862075   5.476368   3.913605   5.249944
    28  H    4.904715   4.342054   5.351397   4.362364   5.395453
    29  C    4.275711   4.127156   5.333424   5.703295   6.180780
    30  C    2.827027   3.348366   5.720746   5.224203   6.109824
    31  H    3.920250   4.424650   6.744843   6.168181   7.126157
    32  H    2.637858   3.387599   5.718406   5.622996   6.289635
    33  H    2.667877   3.247319   5.747911   4.862011   5.887876
    34  C    4.171218   4.233072   5.364813   6.254088   6.463340
    35  H    4.085302   4.424213   5.937348   6.663749   6.966646
    36  H    5.223015   5.243510   6.083493   7.178761   7.279248
    37  H    3.635463   3.609713   4.467489   5.674845   5.678807
    38  C    5.468816   5.456623   6.843924   6.959397   7.598115
    39  H    5.419172   5.618533   7.322178   7.326741   8.040542
    40  H    5.932034   5.815729   7.168419   6.972789   7.753242
    41  H    6.316902   6.287027   7.446730   7.819005   8.327109
    42  C    5.055539   4.586663   5.059459   5.642258   5.939147
    43  H    5.954038   5.535599   5.822629   6.657447   6.824301
    44  H    5.550890   4.993480   5.445312   5.628460   6.095301
    45  H    4.656319   4.034406   4.083548   4.969934   5.054006
    46  H    5.265953   4.547395   2.805649   3.549231   2.218740
    47  H    5.195289   4.496694   3.534962   2.795645   2.223779
                    6          7          8          9         10
     6  C    0.000000
     7  C    2.540015   0.000000
     8  H    3.391145   2.166181   0.000000
     9  H    2.145075   3.318021   2.601718   0.000000
    10  H    1.103203   2.773482   4.026816   3.050869   0.000000
    11  H    2.806457   1.098697   3.073718   3.999989   2.587646
    12  H    3.976205   2.188697   1.767847   3.777015   4.156335
    13  H    3.479108   1.095077   2.487116   4.125415   3.765811
    14  O    3.788255   3.817517   2.919045   2.874715   3.971843
    15  C    3.441732   3.436197   3.421499   3.418857   3.224835
    16  O    2.424867   4.256461   4.119640   2.074706   2.660962
    17  H    3.240894   4.690634   4.164074   2.344098   3.493729
    18  O    1.418509   3.758195   4.474869   2.695949   2.065887
    19  C    2.405614   4.893226   5.666036   3.629809   2.515806
    20  H    2.755936   5.276828   5.739401   3.455784   2.865917
    21  H    3.301544   5.716832   6.456710   4.357729   3.519405
    22  H    2.668955   4.934665   6.050829   4.316222   2.313007
    23  O    2.448462   2.392517   2.658760   2.639991   3.375598
    24  Si   3.605016   3.994202   4.197911   3.757151   4.546493
    25  C    4.100020   5.243729   4.956580   3.631027   5.137980
    26  H    5.085315   6.229748   5.996964   4.711642   6.079089
    27  H    3.588945   5.233263   5.107471   3.289545   4.562696
    28  H    4.438294   5.400151   4.658293   3.409869   5.529366
    29  C    5.233588   4.817668   4.665150   5.052212   6.152856
    30  C    4.057719   4.664309   5.583005   5.017281   4.689710
    31  H    5.059716   5.734663   6.522481   5.868281   5.710099
    32  H    4.362473   4.470638   5.679095   5.538142   4.835841
    33  H    3.574313   4.692272   5.757931   4.810160   4.083856
    34  C    5.619249   4.601104   4.858123   5.805606   6.359791
    35  H    5.796745   4.935978   5.584303   6.326805   6.435748
    36  H    6.646758   5.440176   5.495847   6.675664   7.390653
    37  H    5.089952   3.688463   4.050645   5.339930   5.750722
    38  C    6.432702   6.298058   6.157866   6.250285   7.361662
    39  H    6.587810   6.572597   6.763099   6.728402   7.431881
    40  H    6.574332   6.771282   6.425516   6.164976   7.568572
    41  H    7.360230   6.955872   6.699553   7.083679   8.281764
    42  C    5.585899   4.988488   4.157950   4.829596   6.573393
    43  H    6.621497   5.775849   4.895720   5.852218   7.577873
    44  H    5.734082   5.545685   4.489780   4.682518   6.792140
    45  H    5.054821   4.178734   3.143345   4.218614   5.997076
    46  H    4.204648   3.594113   3.732281   4.332282   3.877807
    47  H    3.549414   4.147347   4.338825   3.750856   3.139045
                   11         12         13         14         15
    11  H    0.000000
    12  H    2.503498   0.000000
    13  H    1.766292   2.546547   0.000000
    14  O    4.040490   2.725132   4.676169   0.000000
    15  C    3.264629   2.705384   4.394744   1.445010   0.000000
    16  O    4.446963   4.581666   5.298423   2.771807   2.822893
    17  H    4.920125   4.565030   5.704383   2.280768   2.689899
    18  O    4.079026   5.323077   4.536357   4.929502   4.714012
    19  C    4.987384   6.324104   5.760716   5.506197   5.147432
    20  H    5.381165   6.371383   6.234741   5.086858   4.843362
    21  H    5.879797   7.263100   6.487705   6.494323   6.217873
    22  H    4.789810   6.432522   5.810717   5.776568   5.142874
    23  O    3.336093   3.949423   2.599063   4.757635   4.887444
    24  Si   4.858418   5.607947   4.007289   6.279088   6.477919
    25  C    6.102578   6.541864   5.509834   6.469340   6.905579
    26  H    7.074355   7.595714   6.414824   7.557831   7.991594
    27  H    5.964825   6.563521   5.694294   6.157355   6.498673
    28  H    6.342154   6.351245   5.668276   6.133373   6.787252
    29  C    5.786357   6.110564   4.418689   7.258212   7.609899
    30  C    5.216514   6.668514   4.660468   7.439412   7.311182
    31  H    6.308486   7.697967   5.674720   8.418378   8.354305
    32  H    4.915837   6.556827   4.288573   7.681746   7.422598
    33  H    5.093661   6.733322   4.914156   7.211889   6.970225
    34  C    5.449690   5.965863   3.904882   7.630388   7.790402
    35  H    5.639343   6.566704   4.262473   8.233027   8.235860
    36  H    6.292687   6.565280   4.637788   8.363544   8.599731
    37  H    4.521566   4.979882   2.888175   6.849049   6.940521
    38  C    7.228537   7.646413   5.911733   8.653259   9.037257
    39  H    7.400972   8.151387   6.189147   9.196640   9.436505
    40  H    7.731977   8.033811   6.528384   8.715178   9.208588
    41  H    7.903925   8.151677   6.441263   9.332764   9.768510
    42  C    6.061016   5.735166   4.620795   6.777673   7.387662
    43  H    6.832692   6.363584   5.258911   7.600960   8.242829
    44  H    6.629701   6.193230   5.359264   6.807310   7.556628
    45  H    5.267250   4.691747   3.829195   5.849608   6.470922
    46  H    3.240535   2.495213   4.401818   2.142802   1.089976
    47  H    3.853690   3.760609   5.180336   2.143970   1.087703
                   16         17         18         19         20
    16  O    0.000000
    17  H    0.973980   0.000000
    18  O    2.918309   3.824890   0.000000
    19  C    3.015243   3.960952   1.422706   0.000000
    20  H    2.372253   3.230112   2.091395   1.093496   0.000000
    21  H    3.951126   4.852380   2.023107   1.093414   1.790174
    22  H    3.466924   4.422280   2.087982   1.101154   1.786933
    23  O    4.290301   4.829164   2.819502   4.239832   4.732507
    24  Si   5.384590   5.985148   3.289121   4.603668   5.233863
    25  C    5.136232   5.653167   3.381336   4.402245   4.781208
    26  H    6.128232   6.657494   4.214187   5.086052   5.514889
    27  H    4.421282   5.016293   2.635481   3.448166   3.774010
    28  H    5.097089   5.435475   3.953330   4.984315   5.163713
    29  C    6.935934   7.390253   5.159910   6.509091   7.095731
    30  C    6.170320   6.956119   3.448232   4.475177   5.391510
    31  H    7.044870   7.823242   4.286144   5.175300   6.084341
    32  H    6.665553   7.453045   4.028626   5.066445   6.027154
    33  H    5.621662   6.483650   2.740786   3.551393   4.537683
    34  C    7.590007   8.074423   5.776004   7.143644   7.827555
    35  H    7.951227   8.537671   5.823379   7.107462   7.908552
    36  H    8.534926   8.955600   6.845714   8.223398   8.879598
    37  H    7.062475   7.512569   5.501452   6.890090   7.530017
    38  C    8.080954   8.564489   6.085565   7.314027   7.939454
    39  H    8.410984   8.993087   6.115232   7.258162   7.996757
    40  H    7.971808   8.418281   6.082716   7.226088   7.760830
    41  H    8.990905   9.419241   7.114392   8.375353   8.984747
    42  C    6.874889   7.132938   5.713858   7.083071   7.469364
    43  H    7.910415   8.122632   6.794755   8.171851   8.567490
    44  H    6.719706   6.922145   5.710069   6.995610   7.275690
    45  H    6.262017   6.454411   5.437160   6.828538   7.147124
    46  H    3.902836   3.765190   5.557213   6.040773   5.825350
    47  H    2.507249   2.435272   4.649356   4.774493   4.345259
                   21         22         23         24         25
    21  H    0.000000
    22  H    1.784277   0.000000
    23  O    4.710678   4.727273   0.000000
    24  Si   4.684928   5.226931   1.688625   0.000000
    25  C    4.265041   5.317995   2.919482   1.886391   0.000000
    26  H    4.734657   5.997189   3.868473   2.509791   1.096891
    27  H    3.265207   4.433267   3.139251   2.475015   1.094305
    28  H    4.976538   5.947617   3.169088   2.507499   1.096143
    29  C    6.598752   7.101624   2.861069   1.919972   3.131687
    30  C    4.331365   4.839954   2.942220   1.890512   3.096340
    31  H    4.825343   5.595312   3.876657   2.498574   3.310713
    32  H    5.046829   5.233656   3.206477   2.525147   4.064643
    33  H    3.346654   3.857844   3.191253   2.486186   3.284072
    34  C    7.331297   7.536059   3.303758   2.844705   4.475928
    35  H    7.208007   7.404665   3.711885   3.064780   4.774919
    36  H    8.405589   8.629911   4.286356   3.836102   5.307142
    37  H    7.235463   7.200184   2.881462   3.025480   4.758795
    38  C    7.185807   7.963775   4.216979   2.846209   3.503569
    39  H    7.030043   7.826679   4.549319   3.049642   3.830212
    40  H    7.013745   7.991433   4.513185   3.054462   3.061789
    41  H    8.277041   9.009941   5.037456   3.836875   4.513222
    42  C    7.293997   7.763161   3.225172   2.842324   3.527810
    43  H    8.373045   8.829687   4.229245   3.834390   4.536827
    44  H    7.136888   7.795956   3.584127   3.057338   3.097000
    45  H    7.199830   7.449089   2.790037   3.025124   3.848622
    46  H    7.119029   5.919936   5.439251   7.095620   7.722240
    47  H    5.854737   4.679724   5.422431   6.907964   7.181404
                   26         27         28         29         30
    26  H    0.000000
    27  H    1.776749   0.000000
    28  H    1.770828   1.769624   0.000000
    29  C    3.399688   4.069541   3.320585   0.000000
    30  C    3.311986   3.298421   4.056985   3.146172   0.000000
    31  H    3.153023   3.618141   4.316118   3.381483   1.096685
    32  H    4.331775   4.305593   4.937698   3.368574   1.096305
    33  H    3.580847   3.111929   4.297072   4.087269   1.094708
    34  C    4.796753   5.279406   4.750801   1.543101   3.489737
    35  H    4.981558   5.487649   5.265511   2.202434   3.058127
    36  H    5.535737   6.196369   5.458700   2.186921   4.514819
    37  H    5.292462   5.432643   4.968612   2.196995   3.766961
    38  C    3.265101   4.521554   3.780309   1.543739   3.578708
    39  H    3.463218   4.718327   4.366431   2.204536   3.144704
    40  H    2.604736   4.110036   3.232390   2.203007   3.943896
    41  H    4.262618   5.562252   4.641063   2.186451   4.572160
    42  C    3.941902   4.487991   3.208985   1.543565   4.484543
    43  H    4.812793   5.538339   4.189002   2.186926   5.318512
    44  H    3.438720   4.080014   2.525644   2.203031   4.807633
    45  H    4.505338   4.641280   3.464334   2.196513   4.734785
    46  H    8.810307   7.394248   7.610085   8.072818   7.882263
    47  H    8.237613   6.620236   7.136241   8.231986   7.582275
                   31         32         33         34         35
    31  H    0.000000
    32  H    1.767764   0.000000
    33  H    1.771361   1.773232   0.000000
    34  C    3.839326   3.200755   4.483277   0.000000
    35  H    3.299518   2.543597   4.082562   1.096956   0.000000
    36  H    4.729447   4.201571   5.541429   1.099976   1.768597
    37  H    4.374563   3.372685   4.608188   1.096468   1.772694
    38  C    3.312987   3.918904   4.571165   2.513920   2.765945
    39  H    2.633439   3.412518   4.160948   2.783717   2.584168
    40  H    3.589580   4.528395   4.792367   3.488394   3.793379
    41  H    4.290215   4.761938   5.603565   2.748133   3.087324
    42  C    4.803499   4.766706   5.289487   2.509285   3.484853
    43  H    5.536582   5.486012   6.209529   2.738676   3.747545
    44  H    5.035454   5.303447   5.506520   3.484934   4.360338
    45  H    5.270553   4.929674   5.423697   2.776538   3.802501
    46  H    8.954395   7.857363   7.604662   8.066288   8.509892
    47  H    8.603839   7.754729   7.092527   8.486982   8.851442
                   36         37         38         39         40
    36  H    0.000000
    37  H    1.771219   0.000000
    38  C    2.766546   3.485308   0.000000
    39  H    3.140541   3.796549   1.097403   0.000000
    40  H    3.773445   4.358173   1.096707   1.772209   0.000000
    41  H    2.543310   3.766877   1.099877   1.767611   1.768193
    42  C    2.735429   2.779575   2.515658   3.491203   2.777516
    43  H    2.503208   3.109723   2.763802   3.776185   3.124641
    44  H    3.747039   3.803430   2.771995   3.796225   2.582402
    45  H    3.100083   2.596772   3.485841   4.359624   3.792402
    46  H    8.810837   7.126499   9.556156   9.953534   9.825139
    47  H    9.362390   7.692390   9.594370   9.925827   9.706612
                   41         42         43         44         45
    41  H    0.000000
    42  C    2.757509   0.000000
    43  H    2.548505   1.100231   0.000000
    44  H    3.106824   1.096824   1.768331   0.000000
    45  H    3.772083   1.095853   1.772917   1.771194   0.000000
    46  H   10.219416   7.835519   8.606439   8.119888   6.856629
    47  H   10.399437   8.111714   9.029130   8.210289   7.263858
                   46         47
    46  H    0.000000
    47  H    1.845270   0.000000
 Stoichiometry    C14H28O4Si
 Framework group  C1[X(C14H28O4Si)]
 Deg. of freedom   135
 Full point group                 C1      NOp   1
 Largest Abelian subgroup         C1      NOp   1
 Largest concise Abelian subgroup C1      NOp   1
                         Standard orientation:                         
 ---------------------------------------------------------------------
 Center     Atomic      Atomic             Coordinates (Angstroms)
 Number     Number       Type             X           Y           Z
 ---------------------------------------------------------------------
      1          1           0        0.070639    0.381985   -2.060034
      2          6           0        0.487611   -0.097744   -1.164098
      3          6           0        1.813253   -2.113240   -0.354253
      4          6           0        2.277552    0.207228    0.599176
      5          6           0        2.847855   -1.150536    0.186900
      6          6           0        1.565253    0.854066   -0.597813
      7          6           0        1.099263   -1.454823   -1.548370
      8          1           0        1.080110   -2.341628    0.427876
      9          1           0        1.526561    0.036156    1.384830
     10          1           0        2.312738    1.034007   -1.388980
     11          1           0        1.810495   -1.306156   -2.372495
     12          1           0        2.288931   -3.055424   -0.646615
     13          1           0        0.300560   -2.104212   -1.921950
     14          8           0        3.834721   -1.654752    1.106952
     15          6           0        4.259540   -1.252915   -0.214453
     16          8           0        3.302214    1.065299    1.080975
     17          1           0        3.789231    0.536480    1.738092
     18          8           0        0.921726    2.075393   -0.271621
     19          6           0        1.743018    3.236313   -0.314481
     20          1           0        2.515812    3.215217    0.458874
     21          1           0        1.077925    4.088942   -0.152524
     22          1           0        2.223722    3.343562   -1.299347
     23          8           0       -0.540825   -0.334437   -0.214585
     24         14           0       -1.961074    0.530867    0.077983
     25          6           0       -1.779566    1.507862    1.681419
     26          1           0       -2.683183    2.085731    1.911015
     27          1           0       -0.939693    2.203350    1.589698
     28          1           0       -1.578263    0.850749    2.535356
     29          6           0       -3.323267   -0.811101    0.250734
     30          6           0       -2.329029    1.702224   -1.359573
     31          1           0       -3.262540    2.250340   -1.183949
     32          1           0       -2.431009    1.178201   -2.317114
     33          1           0       -1.522405    2.435700   -1.458344
     34          6           0       -3.475929   -1.581573   -1.077508
     35          1           0       -3.795961   -0.926680   -1.897269
     36          1           0       -4.232412   -2.374071   -0.979389
     37          1           0       -2.535322   -2.059045   -1.376708
     38          6           0       -4.672547   -0.152249    0.609184
     39          1           0       -5.001319    0.558468   -0.159635
     40          1           0       -4.625894    0.385758    1.563720
     41          1           0       -5.459875   -0.914477    0.703271
     42          6           0       -2.936364   -1.809595    1.362448
     43          1           0       -3.699579   -2.596487    1.456318
     44          1           0       -2.851484   -1.321825    2.341171
     45          1           0       -1.979214   -2.298452    1.148496
     46          1           0        4.572475   -2.072783   -0.860933
     47          1           0        4.881456   -0.361066   -0.244836
 ---------------------------------------------------------------------
 Rotational constants (GHZ):      0.5603382      0.2196394      0.1882456
 Standard basis: 6-31+G(d,p) (6D, 7F)
 There are   505 symmetry adapted basis functions of A   symmetry.
 Integral buffers will be    131072 words long.
 Raffenetti 2 integral format.
 Two-electron integral symmetry is turned on.
   505 basis functions,   828 primitive gaussians,   505 cartesian basis functions
    79 alpha electrons       79 beta electrons
       nuclear repulsion energy      1829.3979170609 Hartrees.
 NAtoms=   47 NActive=   47 NUniq=   47 SFac= 1.00D+00 NAtFMM=   60 NAOKFM=F Big=F
 ------------------------------------------------------------------------------
 Polarizable Continuum Model (PCM)
 =================================
 Model                : PCM.
 Atomic radii         : UFF (Universal Force Field).
 Polarization charges : Total charges.
 Charge compensation  : None.
 Solution method      : Matrix inversion.
 Cavity type          : Scaled VdW (van der Waals Surface) (Alpha=1.100).
 Cavity algorithm     : GePol (No added spheres)
                        Default sphere list used, NSphG=   47.
                        Lebedev-Laikov grids with approx.  5.0 points / Ang**2.
                        Smoothing algorithm: Karplus/York (Gamma=1.0000).
                        Polarization charges: spherical gaussians, with
                                              point-specific exponents (IZeta= 3).
                        Self-potential: point-specific (ISelfS= 7).
                        Self-field    : sphere-specific E.n sum rule (ISelfD= 2).
 Solvent              : Chloroform, Eps=   4.711300 Eps(inf)=   2.090627
 ------------------------------------------------------------------------------
 One-electron integrals computed using PRISM.
 NBasis=   505 RedAO= T  NBF=   505
 NBsUse=   505 1.00D-06 NBFU=   505
 Harris functional with IExCor=  908 diagonalized for initial guess.
 ExpMin= 3.31D-02 ExpMax= 1.61D+04 ExpMxC= 2.43D+03 IAcc=3 IRadAn=         5 AccDes= 0.00D+00
 HarFok:  IExCor=  908 AccDes= 0.00D+00 IRadAn=         5 IDoV= 1
 ScaDFX=  1.000000  1.000000  1.000000  1.000000
 FoFCou: FMM=F IPFlag=           0 FMFlag=      100000 FMFlg1=           0
         NFxFlg=           0 DoJE=T BraDBF=F KetDBF=T FulRan=T
         Omega=  0.000000  0.000000  1.000000  0.000000  0.000000 ICntrl=     500 IOpCl=  0
         NMat0=    1 NMatS0=    1 NMatT0=    0 NMatD0=    1 NMtDS0=    0 NMtDT0=    0
         I1Cent=           4 NGrid=           0.
 Petite list used in FoFCou.
 Initial guess orbital symmetries:
       Occupied  (A) (A) (A) (A) (A) (A) (A) (A) (A) (A) (A) (A)
                 (A) (A) (A) (A) (A) (A) (A) (A) (A) (A) (A) (A)
                 (A) (A) (A) (A) (A) (A) (A) (A) (A) (A) (A) (A)
                 (A) (A) (A) (A) (A) (A) (A) (A) (A) (A) (A) (A)
                 (A) (A) (A) (A) (A) (A) (A) (A) (A) (A) (A) (A)
                 (A) (A) (A) (A) (A) (A) (A) (A) (A) (A) (A) (A)
                 (A) (A) (A) (A) (A) (A) (A)
       Virtual   (A) (A) (A) (A) (A) (A) (A) (A) (A) (A) (A) (A)
                 (A) (A) (A) (A) (A) (A) (A) (A) (A) (A) (A) (A)
                 (A) (A) (A) (A) (A) (A) (A) (A) (A) (A) (A) (A)
                 (A) (A) (A) (A) (A) (A) (A) (A) (A) (A) (A) (A)
                 (A) (A) (A) (A) (A) (A) (A) (A) (A) (A) (A) (A)
                 (A) (A) (A) (A) (A) (A) (A) (A) (A) (A) (A) (A)
                 (A) (A) (A) (A) (A) (A) (A) (A) (A) (A) (A) (A)
                 (A) (A) (A) (A) (A) (A) (A) (A) (A) (A) (A) (A)
                 (A) (A) (A) (A) (A) (A) (A) (A) (A) (A) (A) (A)
                 (A) (A) (A) (A) (A) (A) (A) (A) (A) (A) (A) (A)
                 (A) (A) (A) (A) (A) (A) (A) (A) (A) (A) (A) (A)
                 (A) (A) (A) (A) (A) (A) (A) (A) (A) (A) (A) (A)
                 (A) (A) (A) (A) (A) (A) (A) (A) (A) (A) (A) (A)
                 (A) (A) (A) (A) (A) (A) (A) (A) (A) (A) (A) (A)
                 (A) (A) (A) (A) (A) (A) (A) (A) (A) (A) (A) (A)
                 (A) (A) (A) (A) (A) (A) (A) (A) (A) (A) (A) (A)
                 (A) (A) (A) (A) (A) (A) (A) (A) (A) (A) (A) (A)
                 (A) (A) (A) (A) (A) (A) (A) (A) (A) (A) (A) (A)
                 (A) (A) (A) (A) (A) (A) (A) (A) (A) (A) (A) (A)
                 (A) (A) (A) (A) (A) (A) (A) (A) (A) (A) (A) (A)
                 (A) (A) (A) (A) (A) (A) (A) (A) (A) (A) (A) (A)
                 (A) (A) (A) (A) (A) (A) (A) (A) (A) (A) (A) (A)
                 (A) (A) (A) (A) (A) (A) (A) (A) (A) (A) (A) (A)
                 (A) (A) (A) (A) (A) (A) (A) (A) (A) (A) (A) (A)
                 (A) (A) (A) (A) (A) (A) (A) (A) (A) (A) (A) (A)
                 (A) (A) (A) (A) (A) (A) (A) (A) (A) (A) (A) (A)
                 (A) (A) (A) (A) (A) (A) (A) (A) (A) (A) (A) (A)
                 (A) (A) (A) (A) (A) (A) (A) (A) (A) (A) (A) (A)
                 (A) (A) (A) (A) (A) (A) (A) (A) (A) (A) (A) (A)
                 (A) (A) (A) (A) (A) (A) (A) (A) (A) (A) (A) (A)
                 (A) (A) (A) (A) (A) (A) (A) (A) (A) (A) (A) (A)
                 (A) (A) (A) (A) (A) (A) (A) (A) (A) (A) (A) (A)
                 (A) (A) (A) (A) (A) (A) (A) (A) (A) (A) (A) (A)
                 (A) (A) (A) (A) (A) (A) (A) (A) (A) (A) (A) (A)
                 (A) (A) (A) (A) (A) (A) (A) (A) (A) (A) (A) (A)
                 (A) (A) (A) (A) (A) (A)
 The electronic state of the initial guess is 1-A.
 Requested convergence on RMS density matrix=1.00D-08 within 128 cycles.
 Requested convergence on MAX density matrix=1.00D-06.
 Requested convergence on             energy=1.00D-06.
 No special actions if energy rises.
 Error on total polarization charges =  0.01546
 SCF Done:  E(RmPW1PW91) =  -1140.62541576     A.U. after   13 cycles
             Convg  =    0.4326D-08             -V/T =  2.0080
 Range of M.O.s used for correlation:     1   505
 NBasis=   505 NAE=    79 NBE=    79 NFC=     0 NFV=     0
 NROrb=    505 NOA=    79 NOB=    79 NVA=   426 NVB=   426

 **** Warning!!: The largest alpha MO coefficient is  0.82430981D+02

 NEqPCM:  Using equilibrium solvation (IEInf=0, Eps=   4.7113, EpsInf=   2.0906)
          Differentiating once with respect to magnetic field using GIAOs.
          Electric field/nuclear overlap derivatives assumed to be zero.
 FoFCou: FMM=F IPFlag=           0 FMFlag=    10101102 FMFlg1=           0
         NFxFlg=    40000000 DoJE=F BraDBF=F KetDBF=T FulRan=T
         Omega=  0.000000  0.000000  1.000000  0.000000  0.000000 ICntrl=    6100 IOpCl=  0
         NMat0=    1 NMatS0=    1 NMatT0=    0 NMatD0=    1 NMtDS0=    0 NMtDT0=    0
         I1Cent=           7 NGrid=        3020.
 Symmetry not used in FoFCou.
          There are     3 degrees of freedom in the 1st order CPHF.  IDoFFX=0.
      3 vectors produced by pass  0 Test12= 1.12D-12 3.33D-08 XBig12= 1.49D+02 2.21D+00.
 AX will form     3 AO Fock derivatives at one time.
      3 vectors produced by pass  1 Test12= 1.12D-12 3.33D-08 XBig12= 3.79D-01 8.86D-02.
      3 vectors produced by pass  2 Test12= 1.12D-12 3.33D-08 XBig12= 8.48D-04 4.81D-03.
      3 vectors produced by pass  3 Test12= 1.12D-12 3.33D-08 XBig12= 4.12D-06 3.19D-04.
      3 vectors produced by pass  4 Test12= 1.12D-12 3.33D-08 XBig12= 1.49D-08 1.58D-05.
      3 vectors produced by pass  5 Test12= 1.12D-12 3.33D-08 XBig12= 3.89D-11 9.27D-07.
      2 vectors produced by pass  6 Test12= 1.12D-12 3.33D-08 XBig12= 1.40D-13 4.46D-08.
 Inverted reduced A of dimension    20 with in-core refinement.
 Calculating GIAO nuclear magnetic shielding tensors.
 SCF GIAO Magnetic shielding tensor (ppm):
      1  H    Isotropic =    27.4142   Anisotropy =     3.8810
   XX=    28.4456   YX=    -1.2920   ZX=    -2.0120
   XY=    -1.6938   YY=    24.6008   ZY=    -1.2248
   XZ=    -0.0161   YZ=    -2.2357   ZZ=    29.1961
   Eigenvalues:    23.4173    28.8237    30.0015
      2  C    Isotropic =   122.0463   Anisotropy =    37.8239
   XX=   131.2933   YX=    12.9278   ZX=   -20.9972
   XY=     3.8704   YY=   115.8203   ZY=     5.6581
   XZ=   -19.5544   YZ=    -0.7436   ZZ=   119.0253
   Eigenvalues:   100.6344   118.2423   147.2622
      3  C    Isotropic =   168.1213   Anisotropy =    29.1350
   XX=   169.9049   YX=     4.0077   ZX=    16.4315
   XY=     5.9017   YY=   174.9709   ZY=     8.1078
   XZ=    13.4443   YZ=     9.7516   ZZ=   159.4881
   Eigenvalues:   148.0755   168.7438   187.5446
      4  C    Isotropic =   122.7282   Anisotropy =    39.5284
   XX=   127.0716   YX=     9.2828   ZX=     9.8322
   XY=    18.6094   YY=   132.7846   ZY=     8.8920
   XZ=    16.5191   YZ=     5.7237   ZZ=   108.3285
   Eigenvalues:   101.5311   117.5732   149.0805
      5  C    Isotropic =   133.5561   Anisotropy =    59.8628
   XX=    91.9642   YX=     8.2097   ZX=    18.7861
   XY=    10.5746   YY=   169.9546   ZY=    10.7069
   XZ=    22.1674   YZ=     1.5188   ZZ=   138.7493
   Eigenvalues:    83.7486   143.4550   173.4646
      6  C    Isotropic =   111.0945   Anisotropy =    40.4376
   XX=   106.4941   YX=   -10.0981   ZX=    -0.9175
   XY=   -14.4087   YY=   129.3027   ZY=     9.3145
   XZ=   -11.2350   YZ=    11.0501   ZZ=    97.4866
   Eigenvalues:    93.7919   101.4386   138.0529
      7  C    Isotropic =   163.2059   Anisotropy =    20.2065
   XX=   163.6324   YX=    -6.5675   ZX=    -5.5800
   XY=    -9.8746   YY=   168.3414   ZY=     8.0580
   XZ=    -2.3644   YZ=     1.9316   ZZ=   157.6440
   Eigenvalues:   155.4930   157.4478   176.6769
      8  H    Isotropic =    29.1733   Anisotropy =     6.4614
   XX=    31.5592   YX=     0.6448   ZX=    -1.8768
   XY=     1.6459   YY=    28.7910   ZY=    -3.5784
   XZ=    -1.8522   YZ=    -2.6940   ZZ=    27.1696
   Eigenvalues:    24.6458    29.3931    33.4809
      9  H    Isotropic =    27.1565   Anisotropy =     6.8641
   XX=    31.3624   YX=     1.5886   ZX=     0.0508
   XY=     1.6209   YY=    24.5603   ZY=     0.0492
   XZ=     0.1229   YZ=     1.5034   ZZ=    25.5467
   Eigenvalues:    23.8732    25.8637    31.7326
     10  H    Isotropic =    28.5066   Anisotropy =     3.2699
   XX=    28.2510   YX=    -0.0593   ZX=    -1.2584
   XY=    -2.4753   YY=    29.9901   ZY=     0.3857
   XZ=    -2.1792   YZ=    -1.6042   ZZ=    27.2788
   Eigenvalues:    25.6127    29.2206    30.6865
     11  H    Isotropic =    30.0099   Anisotropy =     9.0780
   XX=    29.3981   YX=    -1.6946   ZX=    -3.1196
   XY=    -1.4469   YY=    26.4146   ZY=     1.7702
   XZ=    -2.9034   YZ=     1.0483   ZZ=    34.2169
   Eigenvalues:    25.7382    28.2295    36.0619
     12  H    Isotropic =    30.4870   Anisotropy =    10.9154
   XX=    29.0328   YX=    -2.3077   ZX=     1.1129
   XY=    -2.3252   YY=    36.5368   ZY=     3.0326
   XZ=     0.9533   YZ=     2.8814   ZZ=    25.8914
   Eigenvalues:    24.5294    29.1677    37.7640
     13  H    Isotropic =    29.7083   Anisotropy =     8.8729
   XX=    31.2105   YX=     1.1294   ZX=     3.1886
   XY=     2.1641   YY=    29.4308   ZY=     3.8859
   XZ=     3.3419   YZ=     3.9442   ZZ=    28.4836
   Eigenvalues:    24.6591    28.8422    35.6236
     14  O    Isotropic =   315.5387   Anisotropy =   110.0433
   XX=   366.0795   YX=    16.5304   ZX=   -13.9535
   XY=    10.3345   YY=   360.8589   ZY=    69.5616
   XZ=   -38.6959   YZ=    67.1819   ZZ=   219.6777
   Eigenvalues:   187.1492   370.5660   388.9009
     15  C    Isotropic =   146.3553   Anisotropy =    33.9598
   XX=   113.1112   YX=     6.6262   ZX=    13.7440
   XY=     3.7482   YY=   163.4337   ZY=    -1.5031
   XZ=    14.2230   YZ=     6.6825   ZZ=   162.5209
   Eigenvalues:   109.0774   160.9933   168.9951
     16  O    Isotropic =   312.1044   Anisotropy =    44.4366
   XX=   329.4168   YX=    15.4079   ZX=    26.0997
   XY=   -18.8997   YY=   294.5556   ZY=   -23.9744
   XZ=     0.7535   YZ=   -24.8280   ZZ=   312.3406
   Eigenvalues:   276.6911   317.8932   341.7288
     17  H    Isotropic =    29.6502   Anisotropy =    17.5022
   XX=    27.0361   YX=    -4.0863   ZX=    10.1775
   XY=    -2.7019   YY=    30.6503   ZY=    -2.5285
   XZ=    11.0577   YZ=    -1.6576   ZZ=    31.2641
   Eigenvalues:    18.1820    29.4503    41.3183
     18  O    Isotropic =   296.0329   Anisotropy =    68.0903
   XX=   314.0417   YX=   -37.2117   ZX=   -12.2422
   XY=   -25.2305   YY=   297.2614   ZY=     5.5648
   XZ=   -14.8641   YZ=     8.0916   ZZ=   276.7956
   Eigenvalues:   270.5806   276.0917   341.4264
     19  C    Isotropic =   136.8906   Anisotropy =    85.7498
   XX=   127.8825   YX=    36.8532   ZX=    -3.3903
   XY=    35.5786   YY=   174.1237   ZY=    -2.5383
   XZ=    -3.8090   YZ=     0.2622   ZZ=   108.6657
   Eigenvalues:   105.6848   110.9299   194.0572
     20  H    Isotropic =    27.2163   Anisotropy =     8.8799
   XX=    27.3948   YX=     2.4442   ZX=     4.1558
   XY=     3.7389   YY=    30.5848   ZY=     1.5318
   XZ=     2.9278   YZ=    -0.2638   ZZ=    23.6692
   Eigenvalues:    21.3928    27.1199    33.1363
     21  H    Isotropic =    27.8751   Anisotropy =    10.6187
   XX=    25.6205   YX=     2.2776   ZX=    -0.1045
   XY=    -0.9073   YY=    34.8943   ZY=     0.6185
   XZ=    -0.4629   YZ=     0.0989   ZZ=    23.1105
   Eigenvalues:    23.0628    25.6083    34.9543
     22  H    Isotropic =    28.3333   Anisotropy =    10.3196
   XX=    27.5420   YX=     3.3499   ZX=    -2.5919
   XY=     4.4609   YY=    30.3175   ZY=    -4.9292
   XZ=    -1.2271   YZ=    -2.5260   ZZ=    27.1405
   Eigenvalues:    24.3566    25.4303    35.2131
     23  O    Isotropic =   287.0312   Anisotropy =    20.0625
   XX=   283.9057   YX=    -2.5486   ZX=    17.2006
   XY=     3.1093   YY=   300.3896   ZY=    -1.9592
   XZ=    10.4911   YZ=     2.2402   ZZ=   276.7982
   Eigenvalues:   266.0572   294.6302   300.4062
     24  Si   Isotropic =   377.7870   Anisotropy =    32.0993
   XX=   396.1076   YX=   -16.6262   ZX=     5.6110
   XY=    -1.0217   YY=   373.6165   ZY=     3.4235
   XZ=    -0.1835   YZ=     6.0192   ZZ=   363.6368
   Eigenvalues:   360.7080   373.4663   399.1865
     25  C    Isotropic =   198.7495   Anisotropy =     8.7606
   XX=   202.1880   YX=    -2.7327   ZX=     0.1063
   XY=    -3.3964   YY=   192.9858   ZY=     5.6356
   XZ=    -1.3401   YZ=     2.9542   ZZ=   201.0745
   Eigenvalues:   190.5510   201.1075   204.5898
     26  H    Isotropic =    31.7335   Anisotropy =    10.9415
   XX=    34.3448   YX=    -4.0643   ZX=    -2.8343
   XY=    -3.6922   YY=    31.5409   ZY=     3.6221
   XZ=    -2.7476   YZ=     3.4880   ZZ=    29.3149
   Eigenvalues:    26.7022    29.4705    39.0279
     27  H    Isotropic =    30.9086   Anisotropy =    10.0837
   XX=    34.1190   YX=     4.9174   ZX=    -2.2909
   XY=     5.0129   YY=    30.4197   ZY=     1.4355
   XZ=    -1.5984   YZ=     1.5290   ZZ=    28.1870
   Eigenvalues:    25.1569    29.9378    37.6311
     28  H    Isotropic =    31.2864   Anisotropy =     8.2553
   XX=    28.2939   YX=    -0.0221   ZX=     1.2304
   XY=     0.3844   YY=    29.9708   ZY=    -2.2316
   XZ=     1.2865   YZ=    -3.0667   ZZ=    35.5946
   Eigenvalues:    27.7992    29.2702    36.7899
     29  C    Isotropic =   172.5859   Anisotropy =     7.2889
   XX=   174.7779   YX=    -4.0266   ZX=    -0.6501
   XY=    -1.7957   YY=   173.0713   ZY=     1.2979
   XZ=    -1.9571   YZ=     1.6031   ZZ=   169.9086
   Eigenvalues:   169.3359   170.9767   177.4452
     30  C    Isotropic =   201.1215   Anisotropy =     4.8163
   XX=   203.1252   YX=    -1.2853   ZX=     1.7387
   XY=     0.3019   YY=   198.0360   ZY=    -0.7028
   XZ=     1.4675   YZ=     2.0727   ZZ=   202.2032
   Eigenvalues:   197.8128   201.2193   204.3323
     31  H    Isotropic =    31.6991   Anisotropy =    10.6960
   XX=    35.5319   YX=    -4.9514   ZX=    -0.0733
   XY=    -4.5552   YY=    31.8938   ZY=    -1.3969
   XZ=    -0.3433   YZ=    -1.1472   ZZ=    27.6715
   Eigenvalues:    26.8705    29.3970    38.8297
     32  H    Isotropic =    31.4458   Anisotropy =     8.7929
   XX=    28.3527   YX=     0.5939   ZX=     1.8191
   XY=     0.5894   YY=    29.4428   ZY=     1.4316
   XZ=     1.8098   YZ=     1.8590   ZZ=    36.5419
   Eigenvalues:    27.9209    29.1087    37.3077
     33  H    Isotropic =    31.0509   Anisotropy =     9.6704
   XX=    33.9616   YX=     3.9774   ZX=     0.4070
   XY=     4.3161   YY=    32.1156   ZY=    -2.6231
   XZ=     0.3581   YZ=    -2.9192   ZZ=    27.0757
   Eigenvalues:    25.2676    30.3874    37.4979
     34  C    Isotropic =   170.3235   Anisotropy =    37.5593
   XX=   156.9361   YX=     3.6305   ZX=     3.0411
   XY=     1.9902   YY=   166.2682   ZY=    16.9450
   XZ=    -0.2336   YZ=    12.3782   ZZ=   187.7663
   Eigenvalues:   155.6689   159.9386   195.3631
     35  H    Isotropic =    30.6403   Anisotropy =     8.3106
   XX=    28.1348   YX=     0.9545   ZX=     2.8927
   XY=     1.2393   YY=    28.8835   ZY=    -0.7319
   XZ=     3.1360   YZ=    -2.1524   ZZ=    34.9026
   Eigenvalues:    26.1057    29.6345    36.1807
     36  H    Isotropic =    31.0505   Anisotropy =     9.8216
   XX=    31.1690   YX=     4.4318   ZX=     1.0923
   XY=     4.8549   YY=    32.8952   ZY=     1.9121
   XZ=     1.8143   YZ=     2.6346   ZZ=    29.0874
   Eigenvalues:    27.2093    28.3440    37.5982
     37  H    Isotropic =    30.4122   Anisotropy =     7.8028
   XX=    32.5839   YX=    -0.8083   ZX=    -1.7973
   XY=    -1.5694   YY=    29.6168   ZY=     4.0274
   XZ=    -2.9451   YZ=     4.3335   ZZ=    29.0357
   Eigenvalues:    25.0113    30.6111    35.6140
     38  C    Isotropic =   170.3576   Anisotropy =    38.9011
   XX=   185.4330   YX=   -17.9187   ZX=    -7.9276
   XY=   -13.5280   YY=   165.8965   ZY=     3.6445
   XZ=    -7.3928   YZ=     4.9973   ZZ=   159.7433
   Eigenvalues:   157.1484   157.6328   196.2916
     39  H    Isotropic =    30.7241   Anisotropy =     9.0379
   XX=    33.3239   YX=    -3.6401   ZX=     1.9363
   XY=    -3.0581   YY=    30.8980   ZY=    -3.6551
   XZ=     0.7482   YZ=    -2.9549   ZZ=    27.9504
   Eigenvalues:    25.7229    29.7000    36.7494
     40  H    Isotropic =    30.6980   Anisotropy =     8.8794
   XX=    31.2915   YX=    -1.3267   ZX=    -3.6126
   XY=    -0.8493   YY=    29.3306   ZY=     4.6524
   XZ=    -2.2368   YZ=     4.1541   ZZ=    31.4718
   Eigenvalues:    25.6753    29.8011    36.6176
     41  H    Isotropic =    30.9266   Anisotropy =    10.2501
   XX=    36.5449   YX=     3.3691   ZX=    -1.7684
   XY=     2.1211   YY=    29.0340   ZY=    -0.3034
   XZ=    -1.8358   YZ=    -0.4768   ZZ=    27.2008
   Eigenvalues:    26.8553    28.1644    37.7600
     42  C    Isotropic =   170.3799   Anisotropy =    37.5225
   XX=   161.5389   YX=    -2.9937   ZX=     7.6986
   XY=    -7.3790   YY=   171.8357   ZY=   -19.0498
   XZ=    11.1701   YZ=   -15.0187   ZZ=   177.7651
   Eigenvalues:   155.8308   159.9140   195.3949
     43  H    Isotropic =    31.0454   Anisotropy =     9.7954
   XX=    30.0745   YX=     3.2730   ZX=    -0.9637
   XY=     3.9988   YY=    33.8723   ZY=    -3.2051
   XZ=    -1.4899   YZ=    -3.5777   ZZ=    29.1893
   Eigenvalues:    27.1227    28.4378    37.5757
     44  H    Isotropic =    30.4889   Anisotropy =     8.3118
   XX=    27.1233   YX=     1.5726   ZX=     1.1280
   XY=     1.2450   YY=    28.4519   ZY=    -1.3324
   XZ=     0.9486   YZ=     0.2818   ZZ=    35.8913
   Eigenvalues:    26.0931    29.3434    36.0301
     45  H    Isotropic =    30.2165   Anisotropy =     8.1440
   XX=    33.6504   YX=    -2.5939   ZX=    -0.8988
   XY=    -3.3158   YY=    30.6056   ZY=    -2.6222
   XZ=     0.2997   YZ=    -3.2126   ZZ=    26.3935
   Eigenvalues:    24.5858    30.4179    35.6459
     46  H    Isotropic =    28.9847   Anisotropy =    10.8596
   XX=    28.1842   YX=    -0.4230   ZX=    -2.4022
   XY=    -4.2825   YY=    29.0746   ZY=     4.7911
   XZ=    -4.7500   YZ=     4.4138   ZZ=    29.6954
   Eigenvalues:    24.4856    26.2440    36.2245
     47  H    Isotropic =    28.4199   Anisotropy =     8.0597
   XX=    30.3122   YX=     1.2019   ZX=    -3.9038
   XY=     4.8710   YY=    30.4930   ZY=    -0.1547
   XZ=    -1.9143   YZ=     0.9880   ZZ=    24.4545
   Eigenvalues:    22.9041    28.5625    33.7930
 End of Minotr Frequency-dependent properties file   721 does not exist.
 End of Minotr Frequency-dependent properties file   722 does not exist.

 **********************************************************************

            Population analysis using the SCF density.

 **********************************************************************

 Orbital symmetries:
       Occupied  (A) (A) (A) (A) (A) (A) (A) (A) (A) (A) (A) (A)
                 (A) (A) (A) (A) (A) (A) (A) (A) (A) (A) (A) (A)
                 (A) (A) (A) (A) (A) (A) (A) (A) (A) (A) (A) (A)
                 (A) (A) (A) (A) (A) (A) (A) (A) (A) (A) (A) (A)
                 (A) (A) (A) (A) (A) (A) (A) (A) (A) (A) (A) (A)
                 (A) (A) (A) (A) (A) (A) (A) (A) (A) (A) (A) (A)
                 (A) (A) (A) (A) (A) (A) (A)
       Virtual   (A) (A) (A) (A) (A) (A) (A) (A) (A) (A) (A) (A)
                 (A) (A) (A) (A) (A) (A) (A) (A) (A) (A) (A) (A)
                 (A) (A) (A) (A) (A) (A) (A) (A) (A) (A) (A) (A)
                 (A) (A) (A) (A) (A) (A) (A) (A) (A) (A) (A) (A)
                 (A) (A) (A) (A) (A) (A) (A) (A) (A) (A) (A) (A)
                 (A) (A) (A) (A) (A) (A) (A) (A) (A) (A) (A) (A)
                 (A) (A) (A) (A) (A) (A) (A) (A) (A) (A) (A) (A)
                 (A) (A) (A) (A) (A) (A) (A) (A) (A) (A) (A) (A)
                 (A) (A) (A) (A) (A) (A) (A) (A) (A) (A) (A) (A)
                 (A) (A) (A) (A) (A) (A) (A) (A) (A) (A) (A) (A)
                 (A) (A) (A) (A) (A) (A) (A) (A) (A) (A) (A) (A)
                 (A) (A) (A) (A) (A) (A) (A) (A) (A) (A) (A) (A)
                 (A) (A) (A) (A) (A) (A) (A) (A) (A) (A) (A) (A)
                 (A) (A) (A) (A) (A) (A) (A) (A) (A) (A) (A) (A)
                 (A) (A) (A) (A) (A) (A) (A) (A) (A) (A) (A) (A)
                 (A) (A) (A) (A) (A) (A) (A) (A) (A) (A) (A) (A)
                 (A) (A) (A) (A) (A) (A) (A) (A) (A) (A) (A) (A)
                 (A) (A) (A) (A) (A) (A) (A) (A) (A) (A) (A) (A)
                 (A) (A) (A) (A) (A) (A) (A) (A) (A) (A) (A) (A)
                 (A) (A) (A) (A) (A) (A) (A) (A) (A) (A) (A) (A)
                 (A) (A) (A) (A) (A) (A) (A) (A) (A) (A) (A) (A)
                 (A) (A) (A) (A) (A) (A) (A) (A) (A) (A) (A) (A)
                 (A) (A) (A) (A) (A) (A) (A) (A) (A) (A) (A) (A)
                 (A) (A) (A) (A) (A) (A) (A) (A) (A) (A) (A) (A)
                 (A) (A) (A) (A) (A) (A) (A) (A) (A) (A) (A) (A)
                 (A) (A) (A) (A) (A) (A) (A) (A) (A) (A) (A) (A)
                 (A) (A) (A) (A) (A) (A) (A) (A) (A) (A) (A) (A)
                 (A) (A) (A) (A) (A) (A) (A) (A) (A) (A) (A) (A)
                 (A) (A) (A) (A) (A) (A) (A) (A) (A) (A) (A) (A)
                 (A) (A) (A) (A) (A) (A) (A) (A) (A) (A) (A) (A)
                 (A) (A) (A) (A) (A) (A) (A) (A) (A) (A) (A) (A)
                 (A) (A) (A) (A) (A) (A) (A) (A) (A) (A) (A) (A)
                 (A) (A) (A) (A) (A) (A) (A) (A) (A) (A) (A) (A)
                 (A) (A) (A) (A) (A) (A) (A) (A) (A) (A) (A) (A)
                 (A) (A) (A) (A) (A) (A) (A) (A) (A) (A) (A) (A)
                 (A) (A) (A) (A) (A) (A)
 The electronic state is 1-A.
 Alpha  occ. eigenvalues --  -66.30041 -19.27074 -19.25532 -19.25345 -19.23116
 Alpha  occ. eigenvalues --  -10.31670 -10.30903 -10.30558 -10.30511 -10.30194
 Alpha  occ. eigenvalues --  -10.28287 -10.25403 -10.25358 -10.24337 -10.23378
 Alpha  occ. eigenvalues --  -10.23185 -10.23067 -10.22029 -10.21563  -5.33396
 Alpha  occ. eigenvalues --   -3.67320  -3.67024  -3.66989  -1.11620  -1.07524
 Alpha  occ. eigenvalues --   -1.05522  -1.02926  -0.84905  -0.81918  -0.77632
 Alpha  occ. eigenvalues --   -0.75079  -0.71759  -0.70182  -0.70061  -0.69822
 Alpha  occ. eigenvalues --   -0.69272  -0.69086  -0.63349  -0.62529  -0.58694
 Alpha  occ. eigenvalues --   -0.56141  -0.55097  -0.52541  -0.52187  -0.51668
 Alpha  occ. eigenvalues --   -0.49004  -0.47955  -0.47201  -0.46296  -0.45377
 Alpha  occ. eigenvalues --   -0.44339  -0.44301  -0.43987  -0.43380  -0.42607
 Alpha  occ. eigenvalues --   -0.41676  -0.41001  -0.40480  -0.40181  -0.39769
 Alpha  occ. eigenvalues --   -0.39384  -0.39079  -0.38791  -0.38481  -0.37625
 Alpha  occ. eigenvalues --   -0.36991  -0.36522  -0.35833  -0.34085  -0.33528
 Alpha  occ. eigenvalues --   -0.33431  -0.32846  -0.31860  -0.31188  -0.30409
 Alpha  occ. eigenvalues --   -0.29368  -0.28366  -0.27201  -0.25952
 Alpha virt. eigenvalues --   -0.00060   0.00552   0.01289   0.01499   0.02316
 Alpha virt. eigenvalues --    0.02962   0.03274   0.03730   0.03991   0.04896
 Alpha virt. eigenvalues --    0.05092   0.05454   0.05729   0.06108   0.06373
 Alpha virt. eigenvalues --    0.06755   0.06908   0.07908   0.08124   0.08184
 Alpha virt. eigenvalues --    0.08241   0.09070   0.09189   0.09379   0.09802
 Alpha virt. eigenvalues --    0.10011   0.10258   0.10772   0.10959   0.11626
 Alpha virt. eigenvalues --    0.12037   0.12213   0.12716   0.12822   0.13275
 Alpha virt. eigenvalues --    0.13637   0.13997   0.14143   0.14461   0.14762
 Alpha virt. eigenvalues --    0.14847   0.15467   0.15671   0.16239   0.16549
 Alpha virt. eigenvalues --    0.16778   0.17076   0.17189   0.17534   0.18114
 Alpha virt. eigenvalues --    0.18606   0.18744   0.19092   0.19351   0.19983
 Alpha virt. eigenvalues --    0.20136   0.20522   0.20717   0.21079   0.21601
 Alpha virt. eigenvalues --    0.21828   0.21963   0.22256   0.22589   0.22863
 Alpha virt. eigenvalues --    0.23025   0.23292   0.23920   0.24099   0.24287
 Alpha virt. eigenvalues --    0.24503   0.24754   0.25238   0.25557   0.25971
 Alpha virt. eigenvalues --    0.26219   0.27029   0.27260   0.27605   0.27788
 Alpha virt. eigenvalues --    0.28153   0.28757   0.29185   0.29376   0.29552
 Alpha virt. eigenvalues --    0.29885   0.30515   0.30726   0.30972   0.31321
 Alpha virt. eigenvalues --    0.31877   0.32380   0.32487   0.33237   0.33400
 Alpha virt. eigenvalues --    0.33725   0.34798   0.35065   0.35452   0.35950
 Alpha virt. eigenvalues --    0.36856   0.37273   0.37645   0.38132   0.38631
 Alpha virt. eigenvalues --    0.39257   0.39863   0.40224   0.40599   0.41108
 Alpha virt. eigenvalues --    0.42132   0.42599   0.43664   0.44611   0.45414
 Alpha virt. eigenvalues --    0.45859   0.46073   0.46911   0.48052   0.48937
 Alpha virt. eigenvalues --    0.49415   0.50464   0.52363   0.53532   0.54863
 Alpha virt. eigenvalues --    0.55179   0.58565   0.62226   0.63330   0.65307
 Alpha virt. eigenvalues --    0.67508   0.69385   0.70053   0.71216   0.71512
 Alpha virt. eigenvalues --    0.72050   0.73048   0.73891   0.74477   0.75513
 Alpha virt. eigenvalues --    0.76093   0.77138   0.77657   0.78720   0.79484
 Alpha virt. eigenvalues --    0.79723   0.80292   0.81031   0.81567   0.81790
 Alpha virt. eigenvalues --    0.82551   0.84360   0.84905   0.85519   0.86059
 Alpha virt. eigenvalues --    0.87727   0.88051   0.88479   0.89179   0.90183
 Alpha virt. eigenvalues --    0.90864   0.91729   0.92866   0.93115   0.93700
 Alpha virt. eigenvalues --    0.93919   0.96590   0.97043   0.97477   0.98887
 Alpha virt. eigenvalues --    0.99288   0.99811   1.00637   1.01647   1.02564
 Alpha virt. eigenvalues --    1.02801   1.04034   1.04655   1.05638   1.06023
 Alpha virt. eigenvalues --    1.06410   1.06810   1.07354   1.07936   1.08468
 Alpha virt. eigenvalues --    1.08703   1.09468   1.09814   1.11312   1.12218
 Alpha virt. eigenvalues --    1.13435   1.14766   1.15266   1.16011   1.16929
 Alpha virt. eigenvalues --    1.17575   1.18414   1.19155   1.20480   1.22407
 Alpha virt. eigenvalues --    1.23189   1.23665   1.24328   1.24706   1.25622
 Alpha virt. eigenvalues --    1.28266   1.29897   1.30545   1.32411   1.34102
 Alpha virt. eigenvalues --    1.35088   1.35642   1.36131   1.36734   1.37601
 Alpha virt. eigenvalues --    1.38675   1.40279   1.40687   1.42328   1.42782
 Alpha virt. eigenvalues --    1.42993   1.45455   1.47097   1.48005   1.48325
 Alpha virt. eigenvalues --    1.50186   1.51638   1.53209   1.53357   1.54850
 Alpha virt. eigenvalues --    1.57150   1.58257   1.58896   1.62647   1.63257
 Alpha virt. eigenvalues --    1.64567   1.66777   1.68707   1.69645   1.70981
 Alpha virt. eigenvalues --    1.71194   1.72766   1.73384   1.75777   1.76747
 Alpha virt. eigenvalues --    1.78139   1.78934   1.80706   1.81201   1.82167
 Alpha virt. eigenvalues --    1.82348   1.83769   1.85636   1.87614   1.88826
 Alpha virt. eigenvalues --    1.89724   1.90315   1.91397   1.91598   1.92929
 Alpha virt. eigenvalues --    1.93515   1.94860   1.95684   1.96365   1.97086
 Alpha virt. eigenvalues --    1.98521   1.99538   1.99979   2.00036   2.02308
 Alpha virt. eigenvalues --    2.03080   2.03883   2.05977   2.06408   2.06868
 Alpha virt. eigenvalues --    2.07478   2.07723   2.08052   2.09299   2.10319
 Alpha virt. eigenvalues --    2.10872   2.11263   2.11810   2.12875   2.14110
 Alpha virt. eigenvalues --    2.14675   2.14975   2.15358   2.16266   2.16591
 Alpha virt. eigenvalues --    2.16674   2.17776   2.17991   2.18105   2.19448
 Alpha virt. eigenvalues --    2.19821   2.19918   2.20987   2.21741   2.22310
 Alpha virt. eigenvalues --    2.22483   2.23825   2.24730   2.25992   2.26669
 Alpha virt. eigenvalues --    2.27933   2.30006   2.30437   2.32760   2.35485
 Alpha virt. eigenvalues --    2.35943   2.36682   2.38679   2.38877   2.39694
 Alpha virt. eigenvalues --    2.40062   2.42134   2.43457   2.44169   2.45229
 Alpha virt. eigenvalues --    2.46216   2.46949   2.49492   2.52370   2.53310
 Alpha virt. eigenvalues --    2.55110   2.56567   2.57155   2.57632   2.57859
 Alpha virt. eigenvalues --    2.59889   2.60395   2.61669   2.64035   2.65568
 Alpha virt. eigenvalues --    2.65671   2.66716   2.68242   2.70113   2.70598
 Alpha virt. eigenvalues --    2.70982   2.72610   2.73270   2.74081   2.75342
 Alpha virt. eigenvalues --    2.76932   2.77392   2.78287   2.79027   2.79097
 Alpha virt. eigenvalues --    2.80913   2.81569   2.83811   2.85048   2.86055
 Alpha virt. eigenvalues --    2.86250   2.87359   2.87397   2.88421   2.88643
 Alpha virt. eigenvalues --    2.89055   2.89281   2.89968   2.90334   2.90623
 Alpha virt. eigenvalues --    2.92041   2.92913   2.94792   2.95384   2.97646
 Alpha virt. eigenvalues --    2.99170   3.00008   3.01465   3.03437   3.09197
 Alpha virt. eigenvalues --    3.11326   3.14492   3.20197   3.23375   3.27935
 Alpha virt. eigenvalues --    3.28835   3.29622   3.30101   3.30770   3.31571
 Alpha virt. eigenvalues --    3.31783   3.37329   3.38560   3.40084   3.43737
 Alpha virt. eigenvalues --    3.47989   3.48141   3.48716   3.49096   3.49786
 Alpha virt. eigenvalues --    3.50255   3.50698   3.51283   3.51504   3.52128
 Alpha virt. eigenvalues --    3.53277   3.53690   3.55471   3.56028   3.56655
 Alpha virt. eigenvalues --    3.57935   3.60159   3.61284   4.35295   4.43005
 Alpha virt. eigenvalues --    4.46440   4.48877   4.54575   4.55933   4.59400
 Alpha virt. eigenvalues --    4.62014   4.64853   4.65690   4.66954   4.68920
 Alpha virt. eigenvalues --    4.71855   4.75428   4.80934   4.83769   4.93655
 Alpha virt. eigenvalues --    4.95192
          Condensed to atoms (all electrons):
              1          2          3          4          5          6
     1  H    0.595939   0.161001   0.014081   0.045937  -0.007287   0.081313
     2  C    0.161001  10.965574  -0.077866  -1.421987   2.090241  -4.174779
     3  C    0.014081  -0.077866   7.483521  -1.280382  -1.321139   0.069891
     4  C    0.045937  -1.421987  -1.280382  11.666211  -3.078816   0.092675
     5  C   -0.007287   2.090241  -1.321139  -3.078816  15.489035  -3.440470
     6  C    0.081313  -4.174779   0.069891   0.092675  -3.440470  12.533250
     7  C    0.004876  -1.274879   0.464222   0.077002  -1.081718   0.409427
     8  H   -0.000055   0.015194   0.408024  -0.050634   0.074192  -0.040901
     9  H   -0.000164   0.119905  -0.052124   0.238660   0.279309  -0.248299
    10  H   -0.005228   0.163979  -0.013590  -0.164954   0.184557   0.146628
    11  H   -0.002450  -0.091047  -0.048788  -0.000511   0.055895  -0.000304
    12  H   -0.000097   0.048475   0.362490   0.051712  -0.129174   0.011729
    13  H   -0.004720  -0.022041  -0.019356  -0.012814   0.044247   0.029317
    14  O    0.000002  -0.078982  -0.074816  -0.168340   0.012873   0.158988
    15  C   -0.001972  -0.446430   0.137445  -0.150013  -2.654242   0.952284
    16  O   -0.000838   0.163839   0.056783   0.077396   0.023597  -0.198134
    17  H    0.000005  -0.021118   0.015603   0.002368  -0.084107   0.065748
    18  O    0.001152  -0.136476  -0.000105  -0.161504   0.072168   0.271214
    19  C   -0.004776   0.055528   0.029017   0.018809  -0.171748  -0.089741
    20  H    0.000016  -0.033015  -0.002596   0.006281  -0.015706   0.068452
    21  H   -0.000016  -0.003179  -0.000133   0.005172   0.002703  -0.000517
    22  H   -0.000067   0.052012   0.001513  -0.005772   0.010555  -0.078792
    23  O   -0.049665   0.173171   0.011680  -0.017438   0.145069  -0.292701
    24  Si   0.033641  -0.405540  -0.011586  -0.298031   0.265389   0.042031
    25  C   -0.003263   0.120058   0.000451   0.029157  -0.015072  -0.088498
    26  H    0.000002   0.004780  -0.000025  -0.000169   0.000028  -0.001986
    27  H    0.000004  -0.013926   0.000646   0.002566  -0.002079   0.004205
    28  H   -0.000003   0.004916  -0.000575  -0.002916   0.002764  -0.005991
    29  C    0.001799  -0.089038  -0.022563  -0.008049   0.006270   0.129668
    30  C   -0.005921   0.119769   0.000880   0.058821  -0.012455  -0.116203
    31  H    0.000064  -0.001595   0.000025   0.000221   0.000019   0.001459
    32  H   -0.000087  -0.012939  -0.000075  -0.000031  -0.000211   0.008555
    33  H   -0.000286  -0.010889   0.000504  -0.000138  -0.001262   0.011823
    34  C   -0.006421  -0.043542   0.039801   0.007627  -0.021187  -0.004630
    35  H    0.000005   0.001002  -0.000612  -0.000029   0.000147   0.001014
    36  H    0.000000  -0.000146  -0.000120   0.000070  -0.000136  -0.000132
    37  H    0.000017  -0.002256   0.004930   0.000640  -0.000890  -0.000771
    38  C    0.000704  -0.021585   0.001833  -0.005676   0.004627   0.027380
    39  H    0.000000   0.000633  -0.000014  -0.000038   0.000027   0.000097
    40  H    0.000000  -0.000200   0.000023  -0.000013  -0.000011  -0.000093
    41  H    0.000000  -0.000491  -0.000039   0.000014  -0.000007   0.000059
    42  C    0.001639   0.037827  -0.022677   0.014856  -0.024640  -0.025404
    43  H    0.000000  -0.000161  -0.000195   0.000078  -0.000169   0.000367
    44  H    0.000000   0.000816   0.000943  -0.000260  -0.000219  -0.000915
    45  H   -0.000005  -0.003105  -0.001467   0.000798   0.000166   0.001365
    46  H    0.000001  -0.012823   0.046964   0.000849  -0.143041   0.012890
    47  H    0.000000  -0.013351  -0.022022   0.098311  -0.190072   0.017615
              7          8          9         10         11         12
     1  H    0.004876  -0.000055  -0.000164  -0.005228  -0.002450  -0.000097
     2  C   -1.274879   0.015194   0.119905   0.163979  -0.091047   0.048475
     3  C    0.464222   0.408024  -0.052124  -0.013590  -0.048788   0.362490
     4  C    0.077002  -0.050634   0.238660  -0.164954  -0.000511   0.051712
     5  C   -1.081718   0.074192   0.279309   0.184557   0.055895  -0.129174
     6  C    0.409427  -0.040901  -0.248299   0.146628  -0.000304   0.011729
     7  C    6.887282  -0.062327  -0.014744  -0.005421   0.398176  -0.036207
     8  H   -0.062327   0.504847   0.002092   0.000037   0.004179  -0.026352
     9  H   -0.014744   0.002092   0.555372   0.005120   0.000016  -0.000158
    10  H   -0.005421   0.000037   0.005120   0.585759   0.000459  -0.000049
    11  H    0.398176   0.004179   0.000016   0.000459   0.533210  -0.004157
    12  H   -0.036207  -0.026352  -0.000158  -0.000049  -0.004157   0.531293
    13  H    0.328432  -0.002956  -0.000014   0.000010  -0.023329  -0.002099
    14  O    0.061296  -0.012030  -0.016816  -0.002217  -0.001318   0.005252
    15  C    0.257632  -0.024367  -0.029486  -0.017924  -0.005290   0.022068
    16  O    0.004441  -0.000348  -0.045816   0.003708  -0.000265  -0.000599
    17  H   -0.001355   0.000000  -0.004213  -0.000141   0.000000  -0.000014
    18  O    0.036479  -0.000528  -0.000294  -0.052344  -0.001088   0.000137
    19  C   -0.010206  -0.000620  -0.007489  -0.006025  -0.000517   0.000274
    20  H    0.001326   0.000000   0.000104  -0.001513   0.000000   0.000000
    21  H   -0.000977   0.000000   0.000015   0.000069   0.000000   0.000000
    22  H    0.001710   0.000000   0.000010   0.010184   0.000000   0.000000
    23  O   -0.070795   0.009294   0.012808   0.014371   0.013148  -0.001780
    24  Si   0.106321   0.011904   0.036709   0.007946  -0.000431  -0.004189
    25  C   -0.032367  -0.001018  -0.009102  -0.001536  -0.000015   0.000109
    26  H    0.000101   0.000000   0.000002   0.000000   0.000000   0.000000
    27  H   -0.000573   0.000000   0.000047   0.000001   0.000000   0.000000
    28  H    0.001649  -0.000001   0.000173   0.000000   0.000000   0.000000
    29  C   -0.015648   0.000691  -0.002192  -0.000224   0.000008   0.000306
    30  C   -0.059162   0.000213  -0.000104  -0.000050   0.000562   0.000129
    31  H    0.000721   0.000000   0.000000   0.000000   0.000000   0.000000
    32  H    0.000143   0.000000   0.000000   0.000001   0.000001   0.000000
    33  H   -0.001381   0.000000  -0.000001  -0.000014   0.000000   0.000000
    34  C    0.015007   0.000208   0.000247   0.000133   0.000338  -0.000294
    35  H   -0.000625   0.000000   0.000000   0.000000   0.000000   0.000000
    36  H    0.000811   0.000000   0.000000   0.000000   0.000000   0.000000
    37  H   -0.004684   0.000017   0.000000   0.000000   0.000001  -0.000001
    38  C   -0.010394   0.000300   0.000332   0.000010   0.000048  -0.000003
    39  H    0.000026   0.000000   0.000000   0.000000   0.000000   0.000000
    40  H   -0.000084   0.000000   0.000000   0.000000   0.000000   0.000000
    41  H    0.000012   0.000000   0.000000   0.000000   0.000000   0.000000
    42  C    0.031554  -0.003035  -0.001413  -0.000107  -0.000208   0.000369
    43  H    0.000003  -0.000001   0.000000   0.000000   0.000000   0.000000
    44  H   -0.000645  -0.000007  -0.000001   0.000000   0.000000   0.000000
    45  H    0.002490   0.000560   0.000006   0.000000   0.000001  -0.000003
    46  H    0.007425   0.000027  -0.000079  -0.000095  -0.000026   0.000731
    47  H    0.003264  -0.000123  -0.000111  -0.000285  -0.000102   0.000164
             13         14         15         16         17         18
     1  H   -0.004720   0.000002  -0.001972  -0.000838   0.000005   0.001152
     2  C   -0.022041  -0.078982  -0.446430   0.163839  -0.021118  -0.136476
     3  C   -0.019356  -0.074816   0.137445   0.056783   0.015603  -0.000105
     4  C   -0.012814  -0.168340  -0.150013   0.077396   0.002368  -0.161504
     5  C    0.044247   0.012873  -2.654242   0.023597  -0.084107   0.072168
     6  C    0.029317   0.158988   0.952284  -0.198134   0.065748   0.271214
     7  C    0.328432   0.061296   0.257632   0.004441  -0.001355   0.036479
     8  H   -0.002956  -0.012030  -0.024367  -0.000348   0.000000  -0.000528
     9  H   -0.000014  -0.016816  -0.029486  -0.045816  -0.004213  -0.000294
    10  H    0.000010  -0.002217  -0.017924   0.003708  -0.000141  -0.052344
    11  H   -0.023329  -0.001318  -0.005290  -0.000265   0.000000  -0.001088
    12  H   -0.002099   0.005252   0.022068  -0.000599  -0.000014   0.000137
    13  H    0.525870  -0.000402  -0.002756   0.000124   0.000000  -0.000666
    14  O   -0.000402   8.360554   0.160064   0.014011   0.030176  -0.001104
    15  C   -0.002756   0.160064   7.051459  -0.035536  -0.000852  -0.007184
    16  O    0.000124   0.014011  -0.035536   8.304122   0.236376   0.017315
    17  H    0.000000   0.030176  -0.000852   0.236376   0.358814   0.000318
    18  O   -0.000666  -0.001104  -0.007184   0.017315   0.000318   8.348149
    19  C    0.000427   0.001456   0.021059  -0.027635   0.002018  -0.030563
    20  H    0.000000   0.000002   0.000294  -0.017838   0.000221  -0.062800
    21  H    0.000000  -0.000005  -0.000222   0.001261  -0.000005  -0.068964
    22  H    0.000000  -0.000005  -0.000910   0.002888  -0.000002  -0.056417
    23  O   -0.009079  -0.002700  -0.015410  -0.006774   0.000347   0.043360
    24  Si  -0.001606  -0.003559  -0.022541  -0.016871   0.001831   0.088402
    25  C   -0.000057   0.000141   0.000982   0.006010  -0.000198  -0.036544
    26  H    0.000000   0.000000   0.000000   0.000002   0.000000   0.000746
    27  H    0.000000   0.000002   0.000109   0.000112   0.000000   0.000428
    28  H    0.000000   0.000002   0.000110  -0.000011   0.000000   0.000016
    29  C   -0.000112   0.000083   0.004664  -0.000414   0.000038   0.009216
    30  C   -0.000119  -0.000252  -0.002464   0.000451  -0.000070  -0.033630
    31  H    0.000000   0.000000  -0.000004   0.000000   0.000000   0.000549
    32  H    0.000006   0.000000  -0.000012  -0.000002   0.000000  -0.000543
    33  H   -0.000002   0.000000   0.000059  -0.000011   0.000000   0.000859
    34  C    0.002398   0.000024  -0.001109   0.000014  -0.000007  -0.003915
    35  H   -0.000008   0.000000   0.000004   0.000000   0.000000  -0.000011
    36  H   -0.000004   0.000000   0.000001   0.000000   0.000000   0.000002
    37  H    0.000723   0.000000  -0.000083   0.000000   0.000000  -0.000048
    38  C    0.000064  -0.000026  -0.000046  -0.000055   0.000003  -0.001306
    39  H    0.000000   0.000000   0.000000   0.000000   0.000000  -0.000002
    40  H    0.000000   0.000000   0.000000   0.000000   0.000000  -0.000004
    41  H    0.000000   0.000000   0.000000   0.000000   0.000000   0.000002
    42  C   -0.002862   0.000384   0.002415   0.000359  -0.000001   0.003173
    43  H   -0.000001   0.000000   0.000002   0.000000   0.000000   0.000004
    44  H    0.000001   0.000000  -0.000007   0.000000   0.000000  -0.000025
    45  H    0.000011  -0.000001  -0.000100  -0.000001   0.000000  -0.000064
    46  H   -0.000018  -0.028382   0.450637   0.000169   0.000187   0.000026
    47  H   -0.000001  -0.029587   0.472397   0.002008  -0.001684  -0.000180
             19         20         21         22         23         24
     1  H   -0.004776   0.000016  -0.000016  -0.000067  -0.049665   0.033641
     2  C    0.055528  -0.033015  -0.003179   0.052012   0.173171  -0.405540
     3  C    0.029017  -0.002596  -0.000133   0.001513   0.011680  -0.011586
     4  C    0.018809   0.006281   0.005172  -0.005772  -0.017438  -0.298031
     5  C   -0.171748  -0.015706   0.002703   0.010555   0.145069   0.265389
     6  C   -0.089741   0.068452  -0.000517  -0.078792  -0.292701   0.042031
     7  C   -0.010206   0.001326  -0.000977   0.001710  -0.070795   0.106321
     8  H   -0.000620   0.000000   0.000000   0.000000   0.009294   0.011904
     9  H   -0.007489   0.000104   0.000015   0.000010   0.012808   0.036709
    10  H   -0.006025  -0.001513   0.000069   0.010184   0.014371   0.007946
    11  H   -0.000517   0.000000   0.000000   0.000000   0.013148  -0.000431
    12  H    0.000274   0.000000   0.000000   0.000000  -0.001780  -0.004189
    13  H    0.000427   0.000000   0.000000   0.000000  -0.009079  -0.001606
    14  O    0.001456   0.000002  -0.000005  -0.000005  -0.002700  -0.003559
    15  C    0.021059   0.000294  -0.000222  -0.000910  -0.015410  -0.022541
    16  O   -0.027635  -0.017838   0.001261   0.002888  -0.006774  -0.016871
    17  H    0.002018   0.000221  -0.000005  -0.000002   0.000347   0.001831
    18  O   -0.030563  -0.062800  -0.068964  -0.056417   0.043360   0.088402
    19  C    5.163289   0.409481   0.426087   0.418543  -0.009465  -0.074706
    20  H    0.409481   0.537332  -0.028886  -0.041530   0.000152   0.004801
    21  H    0.426087  -0.028886   0.533129  -0.027331  -0.000240  -0.001708
    22  H    0.418543  -0.041530  -0.027331   0.573921  -0.000047  -0.003448
    23  O   -0.009465   0.000152  -0.000240  -0.000047   8.381233   0.082061
    24  Si  -0.074706   0.004801  -0.001708  -0.003448   0.082061  13.402833
    25  C    0.016882  -0.001667   0.000833   0.000287  -0.045116   0.119299
    26  H    0.000011   0.000000  -0.000001   0.000000   0.009834  -0.031151
    27  H    0.005322  -0.000029   0.000214  -0.000006  -0.002030  -0.048720
    28  H    0.000160   0.000000  -0.000002   0.000000  -0.010208  -0.019926
    29  C    0.001901   0.000041  -0.000172  -0.000084  -0.031082   0.253759
    30  C    0.018538  -0.000569   0.001384  -0.000285  -0.066387   0.170328
    31  H   -0.000581   0.000000  -0.000003   0.000000   0.009771  -0.029340
    32  H   -0.000320   0.000000  -0.000001   0.000000  -0.004517  -0.017624
    33  H    0.004873  -0.000002   0.000161  -0.000004  -0.004909  -0.058183
    34  C    0.000544  -0.000035   0.000016   0.000053   0.028951  -0.095954
    35  H   -0.000014   0.000000   0.000000   0.000000  -0.002374  -0.003010
    36  H    0.000004   0.000000   0.000000   0.000000  -0.000930   0.017074
    37  H   -0.000014   0.000000   0.000000   0.000000   0.008520  -0.007478
    38  C   -0.000291   0.000005   0.000002  -0.000004   0.016687  -0.055774
    39  H    0.000004   0.000000   0.000000   0.000000   0.000728  -0.014843
    40  H    0.000000   0.000000   0.000000   0.000000   0.000454  -0.010781
    41  H    0.000003   0.000000   0.000000   0.000000  -0.000631   0.019781
    42  C    0.001469   0.000039   0.000023  -0.000031  -0.012872  -0.136679
    43  H    0.000003   0.000000   0.000000   0.000000  -0.000614   0.019201
    44  H    0.000002   0.000000   0.000000   0.000000  -0.003813   0.006759
    45  H   -0.000043   0.000000   0.000000   0.000000   0.007098  -0.023763
    46  H    0.000096   0.000000   0.000000   0.000000  -0.000046   0.000143
    47  H    0.001653   0.000002   0.000000  -0.000001  -0.000125  -0.001130
             25         26         27         28         29         30
     1  H   -0.003263   0.000002   0.000004  -0.000003   0.001799  -0.005921
     2  C    0.120058   0.004780  -0.013926   0.004916  -0.089038   0.119769
     3  C    0.000451  -0.000025   0.000646  -0.000575  -0.022563   0.000880
     4  C    0.029157  -0.000169   0.002566  -0.002916  -0.008049   0.058821
     5  C   -0.015072   0.000028  -0.002079   0.002764   0.006270  -0.012455
     6  C   -0.088498  -0.001986   0.004205  -0.005991   0.129668  -0.116203
     7  C   -0.032367   0.000101  -0.000573   0.001649  -0.015648  -0.059162
     8  H   -0.001018   0.000000   0.000000  -0.000001   0.000691   0.000213
     9  H   -0.009102   0.000002   0.000047   0.000173  -0.002192  -0.000104
    10  H   -0.001536   0.000000   0.000001   0.000000  -0.000224  -0.000050
    11  H   -0.000015   0.000000   0.000000   0.000000   0.000008   0.000562
    12  H    0.000109   0.000000   0.000000   0.000000   0.000306   0.000129
    13  H   -0.000057   0.000000   0.000000   0.000000  -0.000112  -0.000119
    14  O    0.000141   0.000000   0.000002   0.000002   0.000083  -0.000252
    15  C    0.000982   0.000000   0.000109   0.000110   0.004664  -0.002464
    16  O    0.006010   0.000002   0.000112  -0.000011  -0.000414   0.000451
    17  H   -0.000198   0.000000   0.000000   0.000000   0.000038  -0.000070
    18  O   -0.036544   0.000746   0.000428   0.000016   0.009216  -0.033630
    19  C    0.016882   0.000011   0.005322   0.000160   0.001901   0.018538
    20  H   -0.001667   0.000000  -0.000029   0.000000   0.000041  -0.000569
    21  H    0.000833  -0.000001   0.000214  -0.000002  -0.000172   0.001384
    22  H    0.000287   0.000000  -0.000006   0.000000  -0.000084  -0.000285
    23  O   -0.045116   0.009834  -0.002030  -0.010208  -0.031082  -0.066387
    24  Si   0.119299  -0.031151  -0.048720  -0.019926   0.253759   0.170328
    25  C    5.578191   0.396072   0.409388   0.397044  -0.118724   0.031332
    26  H    0.396072   0.499812  -0.021711  -0.022795  -0.017981  -0.010978
    27  H    0.409388  -0.021711   0.473499  -0.021473   0.012419  -0.003803
    28  H    0.397044  -0.022795  -0.021473   0.495884  -0.014189   0.007103
    29  C   -0.118724  -0.017981   0.012419  -0.014189   7.987856  -0.131848
    30  C    0.031332  -0.010978  -0.003803   0.007103  -0.131848   5.555361
    31  H   -0.009034   0.000147   0.000086   0.000023  -0.018868   0.395368
    32  H    0.005077   0.000021   0.000003  -0.000017  -0.016739   0.395125
    33  H   -0.007653   0.000113   0.000406   0.000005   0.014557   0.415431
    34  C   -0.017929   0.000206  -0.001294  -0.002687  -0.289422   0.023475
    35  H   -0.000305   0.000001  -0.000001   0.000000  -0.063117   0.001691
    36  H   -0.001515   0.000000   0.000000   0.000000  -0.157704   0.000641
    37  H   -0.001052   0.000000   0.000000   0.000002  -0.109222  -0.001154
    38  C    0.019984   0.005984  -0.001286  -0.001242  -0.377719   0.009277
    39  H   -0.000258  -0.000004  -0.000006   0.000020  -0.082750   0.004095
    40  H    0.004214  -0.000015   0.000012   0.000026  -0.085729  -0.000805
    41  H   -0.000122   0.000026   0.000000  -0.000007  -0.153599   0.001121
    42  C   -0.019638   0.008790   0.002228   0.011217  -0.287206  -0.029351
    43  H    0.000042  -0.000001   0.000000  -0.000006  -0.162872  -0.001201
    44  H    0.000914   0.000057   0.000003   0.000193  -0.064076  -0.000428
    45  H    0.000290   0.000005  -0.000006   0.000034  -0.093325  -0.000718
    46  H    0.000000   0.000000   0.000000   0.000000  -0.000006  -0.000010
    47  H    0.000053   0.000000   0.000000   0.000000   0.000005   0.000018
             31         32         33         34         35         36
     1  H    0.000064  -0.000087  -0.000286  -0.006421   0.000005   0.000000
     2  C   -0.001595  -0.012939  -0.010889  -0.043542   0.001002  -0.000146
     3  C    0.000025  -0.000075   0.000504   0.039801  -0.000612  -0.000120
     4  C    0.000221  -0.000031  -0.000138   0.007627  -0.000029   0.000070
     5  C    0.000019  -0.000211  -0.001262  -0.021187   0.000147  -0.000136
     6  C    0.001459   0.008555   0.011823  -0.004630   0.001014  -0.000132
     7  C    0.000721   0.000143  -0.001381   0.015007  -0.000625   0.000811
     8  H    0.000000   0.000000   0.000000   0.000208   0.000000   0.000000
     9  H    0.000000   0.000000  -0.000001   0.000247   0.000000   0.000000
    10  H    0.000000   0.000001  -0.000014   0.000133   0.000000   0.000000
    11  H    0.000000   0.000001   0.000000   0.000338   0.000000   0.000000
    12  H    0.000000   0.000000   0.000000  -0.000294   0.000000   0.000000
    13  H    0.000000   0.000006  -0.000002   0.002398  -0.000008  -0.000004
    14  O    0.000000   0.000000   0.000000   0.000024   0.000000   0.000000
    15  C   -0.000004  -0.000012   0.000059  -0.001109   0.000004   0.000001
    16  O    0.000000  -0.000002  -0.000011   0.000014   0.000000   0.000000
    17  H    0.000000   0.000000   0.000000  -0.000007   0.000000   0.000000
    18  O    0.000549  -0.000543   0.000859  -0.003915  -0.000011   0.000002
    19  C   -0.000581  -0.000320   0.004873   0.000544  -0.000014   0.000004
    20  H    0.000000   0.000000  -0.000002  -0.000035   0.000000   0.000000
    21  H   -0.000003  -0.000001   0.000161   0.000016   0.000000   0.000000
    22  H    0.000000   0.000000  -0.000004   0.000053   0.000000   0.000000
    23  O    0.009771  -0.004517  -0.004909   0.028951  -0.002374  -0.000930
    24  Si  -0.029340  -0.017624  -0.058183  -0.095954  -0.003010   0.017074
    25  C   -0.009034   0.005077  -0.007653  -0.017929  -0.000305  -0.001515
    26  H    0.000147   0.000021   0.000113   0.000206   0.000001   0.000000
    27  H    0.000086   0.000003   0.000406  -0.001294  -0.000001   0.000000
    28  H    0.000023  -0.000017   0.000005  -0.002687   0.000000   0.000000
    29  C   -0.018868  -0.016739   0.014557  -0.289422  -0.063117  -0.157704
    30  C    0.395368   0.395125   0.415431   0.023475   0.001691   0.000641
    31  H    0.490920  -0.021608  -0.020447   0.005795   0.000088  -0.000002
    32  H   -0.021608   0.495748  -0.023028   0.009714   0.000048  -0.000002
    33  H   -0.020447  -0.023028   0.473581   0.001008   0.000015   0.000000
    34  C    0.005795   0.009714   0.001008   5.857009   0.423279   0.455991
    35  H    0.000088   0.000048   0.000015   0.423279   0.536768  -0.028008
    36  H   -0.000002  -0.000002   0.000000   0.455991  -0.028008   0.544811
    37  H    0.000011   0.000045  -0.000005   0.475177  -0.026970  -0.027387
    38  C    0.008359   0.004725  -0.000555   0.003525  -0.005282   0.008604
    39  H    0.000280   0.000005  -0.000004  -0.011630   0.002773  -0.000316
    40  H    0.000001   0.000008  -0.000005   0.004370   0.000031  -0.000002
    41  H    0.000011  -0.000005   0.000000   0.006282  -0.000332   0.005360
    42  C    0.001405  -0.004305  -0.000429  -0.275779   0.000357   0.016174
    43  H    0.000000   0.000000   0.000000   0.002400   0.000039   0.005616
    44  H    0.000000   0.000000  -0.000001   0.001023  -0.000153   0.000026
    45  H    0.000000   0.000002   0.000000  -0.002961   0.000020  -0.000310
    46  H    0.000000   0.000000   0.000000   0.000002   0.000000   0.000000
    47  H    0.000000   0.000000   0.000000  -0.000001   0.000000   0.000000
             37         38         39         40         41         42
     1  H    0.000017   0.000704   0.000000   0.000000   0.000000   0.001639
     2  C   -0.002256  -0.021585   0.000633  -0.000200  -0.000491   0.037827
     3  C    0.004930   0.001833  -0.000014   0.000023  -0.000039  -0.022677
     4  C    0.000640  -0.005676  -0.000038  -0.000013   0.000014   0.014856
     5  C   -0.000890   0.004627   0.000027  -0.000011  -0.000007  -0.024640
     6  C   -0.000771   0.027380   0.000097  -0.000093   0.000059  -0.025404
     7  C   -0.004684  -0.010394   0.000026  -0.000084   0.000012   0.031554
     8  H    0.000017   0.000300   0.000000   0.000000   0.000000  -0.003035
     9  H    0.000000   0.000332   0.000000   0.000000   0.000000  -0.001413
    10  H    0.000000   0.000010   0.000000   0.000000   0.000000  -0.000107
    11  H    0.000001   0.000048   0.000000   0.000000   0.000000  -0.000208
    12  H   -0.000001  -0.000003   0.000000   0.000000   0.000000   0.000369
    13  H    0.000723   0.000064   0.000000   0.000000   0.000000  -0.002862
    14  O    0.000000  -0.000026   0.000000   0.000000   0.000000   0.000384
    15  C   -0.000083  -0.000046   0.000000   0.000000   0.000000   0.002415
    16  O    0.000000  -0.000055   0.000000   0.000000   0.000000   0.000359
    17  H    0.000000   0.000003   0.000000   0.000000   0.000000  -0.000001
    18  O   -0.000048  -0.001306  -0.000002  -0.000004   0.000002   0.003173
    19  C   -0.000014  -0.000291   0.000004   0.000000   0.000003   0.001469
    20  H    0.000000   0.000005   0.000000   0.000000   0.000000   0.000039
    21  H    0.000000   0.000002   0.000000   0.000000   0.000000   0.000023
    22  H    0.000000  -0.000004   0.000000   0.000000   0.000000  -0.000031
    23  O    0.008520   0.016687   0.000728   0.000454  -0.000631  -0.012872
    24  Si  -0.007478  -0.055774  -0.014843  -0.010781   0.019781  -0.136679
    25  C   -0.001052   0.019984  -0.000258   0.004214  -0.000122  -0.019638
    26  H    0.000000   0.005984  -0.000004  -0.000015   0.000026   0.008790
    27  H    0.000000  -0.001286  -0.000006   0.000012   0.000000   0.002228
    28  H    0.000002  -0.001242   0.000020   0.000026  -0.000007   0.011217
    29  C   -0.109222  -0.377719  -0.082750  -0.085729  -0.153599  -0.287206
    30  C   -0.001154   0.009277   0.004095  -0.000805   0.001121  -0.029351
    31  H    0.000011   0.008359   0.000280   0.000001   0.000011   0.001405
    32  H    0.000045   0.004725   0.000005   0.000008  -0.000005  -0.004305
    33  H   -0.000005  -0.000555  -0.000004  -0.000005   0.000000  -0.000429
    34  C    0.475177   0.003525  -0.011630   0.004370   0.006282  -0.275779
    35  H   -0.026970  -0.005282   0.002773   0.000031  -0.000332   0.000357
    36  H   -0.027387   0.008604  -0.000316  -0.000002   0.005360   0.016174
    37  H    0.527047  -0.001150   0.000036  -0.000146   0.000018  -0.007894
    38  C   -0.001150   5.665895   0.449308   0.460167   0.449512  -0.122619
    39  H    0.000036   0.449308   0.535613  -0.027302  -0.028127   0.006294
    40  H   -0.000146   0.460167  -0.027302   0.531630  -0.027709  -0.018989
    41  H    0.000018   0.449512  -0.028127  -0.027709   0.542400   0.017653
    42  C   -0.007894  -0.122619   0.006294  -0.018989   0.017653   6.041429
    43  H   -0.000325   0.010790  -0.000008  -0.000312   0.005369   0.471627
    44  H    0.000032  -0.003839   0.000033   0.002775  -0.000357   0.415184
    45  H    0.003063   0.001539  -0.000146   0.000038   0.000011   0.464200
    46  H    0.000000   0.000000   0.000000   0.000000   0.000000   0.000007
    47  H    0.000000   0.000000   0.000000   0.000000   0.000000   0.000004
             43         44         45         46         47
     1  H    0.000000   0.000000  -0.000005   0.000001   0.000000
     2  C   -0.000161   0.000816  -0.003105  -0.012823  -0.013351
     3  C   -0.000195   0.000943  -0.001467   0.046964  -0.022022
     4  C    0.000078  -0.000260   0.000798   0.000849   0.098311
     5  C   -0.000169  -0.000219   0.000166  -0.143041  -0.190072
     6  C    0.000367  -0.000915   0.001365   0.012890   0.017615
     7  C    0.000003  -0.000645   0.002490   0.007425   0.003264
     8  H   -0.000001  -0.000007   0.000560   0.000027  -0.000123
     9  H    0.000000  -0.000001   0.000006  -0.000079  -0.000111
    10  H    0.000000   0.000000   0.000000  -0.000095  -0.000285
    11  H    0.000000   0.000000   0.000001  -0.000026  -0.000102
    12  H    0.000000   0.000000  -0.000003   0.000731   0.000164
    13  H   -0.000001   0.000001   0.000011  -0.000018  -0.000001
    14  O    0.000000   0.000000  -0.000001  -0.028382  -0.029587
    15  C    0.000002  -0.000007  -0.000100   0.450637   0.472397
    16  O    0.000000   0.000000  -0.000001   0.000169   0.002008
    17  H    0.000000   0.000000   0.000000   0.000187  -0.001684
    18  O    0.000004  -0.000025  -0.000064   0.000026  -0.000180
    19  C    0.000003   0.000002  -0.000043   0.000096   0.001653
    20  H    0.000000   0.000000   0.000000   0.000000   0.000002
    21  H    0.000000   0.000000   0.000000   0.000000   0.000000
    22  H    0.000000   0.000000   0.000000   0.000000  -0.000001
    23  O   -0.000614  -0.003813   0.007098  -0.000046  -0.000125
    24  Si   0.019201   0.006759  -0.023763   0.000143  -0.001130
    25  C    0.000042   0.000914   0.000290   0.000000   0.000053
    26  H   -0.000001   0.000057   0.000005   0.000000   0.000000
    27  H    0.000000   0.000003  -0.000006   0.000000   0.000000
    28  H   -0.000006   0.000193   0.000034   0.000000   0.000000
    29  C   -0.162872  -0.064076  -0.093325  -0.000006   0.000005
    30  C   -0.001201  -0.000428  -0.000718  -0.000010   0.000018
    31  H    0.000000   0.000000   0.000000   0.000000   0.000000
    32  H    0.000000   0.000000   0.000002   0.000000   0.000000
    33  H    0.000000  -0.000001   0.000000   0.000000   0.000000
    34  C    0.002400   0.001023  -0.002961   0.000002  -0.000001
    35  H    0.000039  -0.000153   0.000020   0.000000   0.000000
    36  H    0.005616   0.000026  -0.000310   0.000000   0.000000
    37  H   -0.000325   0.000032   0.003063   0.000000   0.000000
    38  C    0.010790  -0.003839   0.001539   0.000000   0.000000
    39  H   -0.000008   0.000033  -0.000146   0.000000   0.000000
    40  H   -0.000312   0.002775   0.000038   0.000000   0.000000
    41  H    0.005369  -0.000357   0.000011   0.000000   0.000000
    42  C    0.471627   0.415184   0.464200   0.000007   0.000004
    43  H    0.545756  -0.028297  -0.027656   0.000000   0.000000
    44  H   -0.028297   0.535860  -0.025976   0.000000   0.000000
    45  H   -0.027656  -0.025976   0.520943   0.000000   0.000000
    46  H    0.000000   0.000000   0.000000   0.522389  -0.031483
    47  H    0.000000   0.000000   0.000000  -0.031483   0.510588
 Mulliken atomic charges:
              1
     1  H    0.151124
     2  C    0.114667
     3  C   -0.178404
     4  C    0.332288
     5  C   -0.368022
     6  C   -0.340184
     7  C   -0.417640
     8  H    0.193524
     9  H    0.181695
    10  H    0.148741
    11  H    0.173804
    12  H    0.169941
    13  H    0.173390
    14  O   -0.384769
    15  C   -0.114725
    16  O   -0.563840
    17  H    0.399714
    18  O   -0.237405
    19  C   -0.162698
    20  H    0.177638
    21  H    0.161297
    22  H    0.143059
    23  O   -0.306986
    24  Si   0.708356
    25  C   -0.726124
    26  H    0.180080
    27  H    0.205242
    28  H    0.180709
    29  C   -0.008606
    30  C   -0.733147
    31  H    0.186159
    32  H    0.182835
    33  H    0.205817
    34  C   -0.585818
    35  H    0.163567
    36  H    0.161530
    37  H    0.171249
    38  C   -0.540811
    39  H    0.165478
    40  H    0.168454
    41  H    0.163791
    42  C   -0.554542
    43  H    0.160521
    44  H    0.164397
    45  H    0.177011
    46  H    0.173468
    47  H    0.184175
 Sum of Mulliken atomic charges =   0.00000
 Mulliken charges with hydrogens summed into heavy atoms:
              1
     2  C    0.265791
     3  C    0.185061
     4  C    0.513982
     5  C   -0.368022
     6  C   -0.191443
     7  C   -0.070446
    14  O   -0.384769
    15  C    0.242918
    16  O   -0.164126
    18  O   -0.237405
    19  C    0.319296
    23  O   -0.306986
    24  Si   0.708356
    25  C   -0.160093
    29  C   -0.008606
    30  C   -0.158336
    34  C   -0.089473
    38  C   -0.043088
    42  C   -0.052613
 Sum of Mulliken charges with hydrogens summed into heavy atoms =   0.00000
 Electronic spatial extent (au):  <R**2>=           6310.0714
 Charge=              0.0000 electrons
 Dipole moment (field-independent basis, Debye):
    X=              0.5098    Y=              0.2566    Z=             -2.9421  Tot=              2.9969
 Quadrupole moment (field-independent basis, Debye-Ang):
   XX=           -124.4895   YY=           -126.1787   ZZ=           -124.4836
   XY=             -0.0071   XZ=             -8.2230   YZ=              2.9642
 Traceless Quadrupole moment (field-independent basis, Debye-Ang):
   XX=              0.5611   YY=             -1.1281   ZZ=              0.5670
   XY=             -0.0071   XZ=             -8.2230   YZ=              2.9642
 Octapole moment (field-independent basis, Debye-Ang**2):
  XXX=             51.2258  YYY=             22.7877  ZZZ=              2.1112  XYY=              9.3108
  XXY=             11.6297  XXZ=            -25.6327  XZZ=             16.9984  YZZ=              3.4504
  YYZ=            -13.5144  XYZ=             12.8428
 Hexadecapole moment (field-independent basis, Debye-Ang**3):
 XXXX=          -5612.9458 YYYY=          -1870.8567 ZZZZ=           -910.3309 XXXY=             -4.8014
 XXXZ=            -66.8965 YYYX=             25.3428 YYYZ=             16.4443 ZZZX=             32.1312
 ZZZY=              2.7247 XXYY=          -1300.8817 XXZZ=          -1099.1633 YYZZ=           -502.9962
 XXYZ=             60.9534 YYXZ=            -47.1063 ZZXY=             15.1913
 N-N= 1.829397917061D+03 E-N=-6.329684143403D+03  KE= 1.131545008444D+03
 1\1\GINC-COMPUTE-8-17\SP\RmPW1PW91\6-31+G(d,p)\C14H28O4Si1\ELUCIANO.IQ
 UIR\06-Dec-2022\0\\# mPW1PW91/6-31+g** scrf=(PCM,solvent=chloroform) n
 mr\\comment\\0,1\H,0,0.070639,0.381985,-2.060034\C,0,0.487611,-0.09774
 4,-1.164098\C,0,1.813253,-2.11324,-0.354253\C,0,2.277552,0.207228,0.59
 9176\C,0,2.847855,-1.150536,0.1869\C,0,1.565253,0.854066,-0.597813\C,0
 ,1.099263,-1.454823,-1.54837\H,0,1.08011,-2.341628,0.427876\H,0,1.5265
 61,0.036156,1.38483\H,0,2.312738,1.034007,-1.38898\H,0,1.810495,-1.306
 156,-2.372495\H,0,2.288931,-3.055424,-0.646615\H,0,0.30056,-2.104212,-
 1.92195\O,0,3.834721,-1.654752,1.106952\C,0,4.25954,-1.252915,-0.21445
 3\O,0,3.302214,1.065299,1.080975\H,0,3.789231,0.53648,1.738092\O,0,0.9
 21726,2.075393,-0.271621\C,0,1.743018,3.236313,-0.314481\H,0,2.515812,
 3.215217,0.458874\H,0,1.077925,4.088942,-0.152524\H,0,2.223722,3.34356
 2,-1.299347\O,0,-0.540825,-0.334437,-0.214585\Si,0,-1.961074,0.530867,
 0.077983\C,0,-1.779566,1.507862,1.681419\H,0,-2.683183,2.085731,1.9110
 15\H,0,-0.939693,2.20335,1.589698\H,0,-1.578263,0.850749,2.535356\C,0,
 -3.323267,-0.811101,0.250734\C,0,-2.329029,1.702224,-1.359573\H,0,-3.2
 6254,2.25034,-1.183949\H,0,-2.431009,1.178201,-2.317114\H,0,-1.522405,
 2.4357,-1.458344\C,0,-3.475929,-1.581573,-1.077508\H,0,-3.795961,-0.92
 668,-1.897269\H,0,-4.232412,-2.374071,-0.979389\H,0,-2.535322,-2.05904
 5,-1.376708\C,0,-4.672547,-0.152249,0.609184\H,0,-5.001319,0.558468,-0
 .159635\H,0,-4.625894,0.385758,1.56372\H,0,-5.459875,-0.914477,0.70327
 1\C,0,-2.936364,-1.809595,1.362448\H,0,-3.699579,-2.596487,1.456318\H,
 0,-2.851484,-1.321825,2.341171\H,0,-1.979214,-2.298452,1.148496\H,0,4.
 572475,-2.072783,-0.860933\H,0,4.881456,-0.361066,-0.244836\\Version=E
 M64L-G09RevC.01\State=1-A\HF=-1140.6254158\RMSD=4.326e-09\Dipole=0.200
 5595,0.1009669,-1.1575104\Quadrupole=0.4171415,-0.8387037,0.4215621,-0
 .0052898,-6.1136105,2.2038331\PG=C01 [X(C14H28O4Si1)]\\@


 ... I FELL INTO A REVERIE ... THE ATOMS WERE GAMBOLING BEFORE MY EYES
 ... I SAW HOW TWO SMALL ONES UNITED TO FORM A PAIR;
 HOW THE LARGER ONES SEIZED TWO OF THE SMALLER ONES;
 HOW STILL LARGER ONES KEPT HOLD OF THREE OR FOUR
 SMALLER ONES ... I SAW HOW THE LARGER ONES FORMED A CHAIN ...
 THIS WAS THE ORIGIN OF THE STRUCTURE THEORY.

                                   -- C.F.KEKULE VON STRADONITZ
 Job cpu time:  0 days  4 hours  7 minutes 53.2 seconds.
 File lengths (MBytes):  RWF=    297 Int=      0 D2E=      0 Chk=     16 Scr=      1
 Normal termination of Gaussian 09 at Tue Dec  6 23:22:12 2022.
