 Entering Gaussian System, Link 0=g09
 Input=/home/eluciano.iquir/todos_optB3L_MPW_B_PCM/02_epoxido28_021_optB3L_nmr_MPW_B_PCM.gjc
 Output=/home/eluciano.iquir/todos_optB3L_MPW_B_PCM/02_epoxido28_021_optB3L_nmr_MPW_B_PCM.log
 Initial command:
 /share/apps/Gaussian09/EM64T.SSE4.2-enabled/g09/l1.exe /tmp/Gau-12640.inp -scrdir=/tmp/
 Entering Link 1 = /share/apps/Gaussian09/EM64T.SSE4.2-enabled/g09/l1.exe PID=     12641.
  
 Copyright (c) 1988,1990,1992,1993,1995,1998,2003,2009,2011,
            Gaussian, Inc.  All Rights Reserved.
  
 This is part of the Gaussian(R) 09 program.  It is based on
 the Gaussian(R) 03 system (copyright 2003, Gaussian, Inc.),
 the Gaussian(R) 98 system (copyright 1998, Gaussian, Inc.),
 the Gaussian(R) 94 system (copyright 1995, Gaussian, Inc.),
 the Gaussian 92(TM) system (copyright 1992, Gaussian, Inc.),
 the Gaussian 90(TM) system (copyright 1990, Gaussian, Inc.),
 the Gaussian 88(TM) system (copyright 1988, Gaussian, Inc.),
 the Gaussian 86(TM) system (copyright 1986, Carnegie Mellon
 University), and the Gaussian 82(TM) system (copyright 1983,
 Carnegie Mellon University). Gaussian is a federally registered
 trademark of Gaussian, Inc.
  
 This software contains proprietary and confidential information,
 including trade secrets, belonging to Gaussian, Inc.
  
 This software is provided under written license and may be
 used, copied, transmitted, or stored only in accord with that
 written license.
  
 The following legend is applicable only to US Government
 contracts under FAR:
  
                    RESTRICTED RIGHTS LEGEND
  
 Use, reproduction and disclosure by the US Government is
 subject to restrictions as set forth in subparagraphs (a)
 and (c) of the Commercial Computer Software - Restricted
 Rights clause in FAR 52.227-19.
  
 Gaussian, Inc.
 340 Quinnipiac St., Bldg. 40, Wallingford CT 06492
  
  
 ---------------------------------------------------------------
 Warning -- This program may not be used in any manner that
 competes with the business of Gaussian, Inc. or will provide
 assistance to any competitor of Gaussian, Inc.  The licensee
 of this program is prohibited from giving any competitor of
 Gaussian, Inc. access to this program.  By using this program,
 the user acknowledges that Gaussian, Inc. is engaged in the
 business of creating and licensing software in the field of
 computational chemistry and represents and warrants to the
 licensee that it is not a competitor of Gaussian, Inc. and that
 it will not use this program in any manner prohibited above.
 ---------------------------------------------------------------
  

 Cite this work as:
 Gaussian 09, Revision C.01,
 M. J. Frisch, G. W. Trucks, H. B. Schlegel, G. E. Scuseria, 
 M. A. Robb, J. R. Cheeseman, G. Scalmani, V. Barone, B. Mennucci, 
 G. A. Petersson, H. Nakatsuji, M. Caricato, X. Li, H. P. Hratchian, 
 A. F. Izmaylov, J. Bloino, G. Zheng, J. L. Sonnenberg, M. Hada, 
 M. Ehara, K. Toyota, R. Fukuda, J. Hasegawa, M. Ishida, T. Nakajima, 
 Y. Honda, O. Kitao, H. Nakai, T. Vreven, J. A. Montgomery, Jr., 
 J. E. Peralta, F. Ogliaro, M. Bearpark, J. J. Heyd, E. Brothers, 
 K. N. Kudin, V. N. Staroverov, T. Keith, R. Kobayashi, J. Normand, 
 K. Raghavachari, A. Rendell, J. C. Burant, S. S. Iyengar, J. Tomasi, 
 M. Cossi, N. Rega, J. M. Millam, M. Klene, J. E. Knox, J. B. Cross, 
 V. Bakken, C. Adamo, J. Jaramillo, R. Gomperts, R. E. Stratmann, 
 O. Yazyev, A. J. Austin, R. Cammi, C. Pomelli, J. W. Ochterski, 
 R. L. Martin, K. Morokuma, V. G. Zakrzewski, G. A. Voth, 
 P. Salvador, J. J. Dannenberg, S. Dapprich, A. D. Daniels, 
 O. Farkas, J. B. Foresman, J. V. Ortiz, J. Cioslowski, 
 and D. J. Fox, Gaussian, Inc., Wallingford CT, 2010.
 
 ******************************************
 Gaussian 09:  EM64L-G09RevC.01 23-Sep-2011
                 6-Dec-2022 
 ******************************************
 %nprocshared=4
 Will use up to    4 processors via shared memory.
 %mem=80MW
 -----------------------------------------------------
 # mPW1PW91/6-31+g** scrf=(PCM,solvent=chloroform) nmr
 -----------------------------------------------------
 1/38=1/1;
 2/12=2,17=6,18=5,40=1/2;
 3/5=1,6=6,7=111,11=2,16=1,25=1,30=1,70=2201,72=7,74=-7/1,2,8,3;
 4//1;
 5/5=2,38=5,53=7/2;
 8/6=1,10=90,11=11/1;
 10/13=100,45=16/2;
 6/7=2,8=2,9=2,10=2,28=1/1;
 99/9=1/99;
 -------
 comment
 -------
 Charge =  0 Multiplicity = 1
 Symbolic Z-Matrix:
 1                     0.07064   0.38198  -2.06004 
 6                     0.48761  -0.09774  -1.1641 
 6                     1.81325  -2.11324  -0.35426 
 6                     2.27755   0.20723   0.59917 
 6                     2.84785  -1.15054   0.1869 
 6                     1.56525   0.85407  -0.59782 
 6                     1.09926  -1.45482  -1.54837 
 1                     1.08011  -2.34163   0.42787 
 1                     1.52656   0.03616   1.38483 
 1                     2.31274   1.03401  -1.38898 
 1                     1.8105   -1.30616  -2.3725 
 1                     2.28893  -3.05542  -0.64662 
 1                     0.30056  -2.10421  -1.92195 
 8                     3.83472  -1.65475   1.10696 
 6                     4.25954  -1.25292  -0.21445 
 8                     3.30221   1.0653    1.08097 
 1                     3.78923   0.53649   1.7381 
 8                     0.92173   2.07539  -0.27163 
 6                     1.74302   3.23631  -0.31448 
 1                     2.5158    3.21522   0.45888 
 1                     1.07792   4.08894  -0.15253 
 1                     2.22373   3.34356  -1.29934 
 8                    -0.54083  -0.33444  -0.21459 
 14                   -1.96107   0.53087   0.07799 
 6                    -1.77956   1.50785   1.68143 
 1                    -2.68318   2.08569   1.91105 
 1                    -0.9397    2.20335   1.58971 
 1                    -1.57823   0.85072   2.53535 
 6                    -3.32327  -0.8111    0.25073 
 6                    -2.32903   1.70223  -1.35956 
 1                    -3.26253   2.25037  -1.18392 
 1                    -2.43105   1.17821  -2.3171 
 1                    -1.5224    2.43569  -1.45836 
 6                    -3.47592  -1.58158  -1.07751 
 1                    -2.53531  -2.05905  -1.3767 
 1                    -3.79595  -0.92669  -1.89728 
 1                    -4.2324   -2.37407  -0.97939 
 6                    -4.67255  -0.15225   0.60917 
 1                    -5.00132   0.55847  -0.15966 
 1                    -4.6259    0.38577   1.5637 
 1                    -5.45988  -0.91447   0.70326 
 6                    -2.93637  -1.80959   1.36245 
 1                    -3.69959  -2.59648   1.45632 
 1                    -2.8515   -1.32182   2.34117 
 1                    -1.97922  -2.29845   1.14851 
 1                     4.57247  -2.07279  -0.86093 
 1                     4.88146  -0.36107  -0.24483 
 
                          Input orientation:                          
 ---------------------------------------------------------------------
 Center     Atomic      Atomic             Coordinates (Angstroms)
 Number     Number       Type             X           Y           Z
 ---------------------------------------------------------------------
      1          1           0        0.070641    0.381984   -2.060039
      2          6           0        0.487612   -0.097744   -1.164102
      3          6           0        1.813252   -2.113240   -0.354255
      4          6           0        2.277551    0.207229    0.599173
      5          6           0        2.847854   -1.150536    0.186900
      6          6           0        1.565253    0.854066   -0.597817
      7          6           0        1.099264   -1.454823   -1.548372
      8          1           0        1.080107   -2.341626    0.427874
      9          1           0        1.526561    0.036159    1.384828
     10          1           0        2.312739    1.034008   -1.388983
     11          1           0        1.810498   -1.306156   -2.372497
     12          1           0        2.288929   -3.055424   -0.646615
     13          1           0        0.300562   -2.104212   -1.921954
     14          8           0        3.834715   -1.654753    1.106956
     15          6           0        4.259540   -1.252919   -0.214449
     16          8           0        3.302214    1.065301    1.080970
     17          1           0        3.789225    0.536487    1.738095
     18          8           0        0.921726    2.075393   -0.271625
     19          6           0        1.743017    3.236314   -0.314480
     20          1           0        2.515802    3.215221    0.458883
     21          1           0        1.077921    4.088943   -0.152534
     22          1           0        2.223732    3.343560   -1.299341
     23          8           0       -0.540825   -0.334436   -0.214590
     24         14           0       -1.961071    0.530867    0.077986
     25          6           0       -1.779556    1.507846    1.681431
     26          1           0       -2.683180    2.085695    1.911052
     27          1           0       -0.939698    2.203353    1.589708
     28          1           0       -1.578226    0.850724    2.535354
     29          6           0       -3.323267   -0.811099    0.250732
     30          6           0       -2.329032    1.702231   -1.359562
     31          1           0       -3.262527    2.250368   -1.183919
     32          1           0       -2.431045    1.178207   -2.317099
     33          1           0       -1.522395    2.435690   -1.458355
     34          6           0       -3.475920   -1.581577   -1.077508
     35          1           0       -2.535312   -2.059050   -1.376700
     36          1           0       -3.795947   -0.926686   -1.897275
     37          1           0       -4.232405   -2.374073   -0.979391
     38          6           0       -4.672550   -0.152245    0.609170
     39          1           0       -5.001317    0.558468   -0.159656
     40          1           0       -4.625903    0.385767    1.563703
     41          1           0       -5.459878   -0.914473    0.703256
     42          6           0       -2.936373   -1.809589    1.362451
     43          1           0       -3.699588   -2.596482    1.456318
     44          1           0       -2.851502   -1.321816    2.341174
     45          1           0       -1.979221   -2.298447    1.148509
     46          1           0        4.572475   -2.072789   -0.860926
     47          1           0        4.881458   -0.361071   -0.244830
 ---------------------------------------------------------------------
                    Distance matrix (angstroms):
                    1          2          3          4          5
     1  H    0.000000
     2  C    1.098502   0.000000
     3  C    3.488916   2.544680   0.000000
     4  C    3.460116   2.531013   2.551308   0.000000
     5  C    3.887192   2.916217   1.513291   1.529294   0.000000
     6  C    2.143553   1.545293   2.987596   1.535758   2.505848
     7  C    2.166501   1.537350   1.539223   2.960190   2.482202
     8  H    3.824498   2.814328   1.096078   2.821325   2.145156
     9  H    3.755850   2.755792   2.779661   1.100229   2.142217
    10  H    2.429497   2.159288   3.350421   2.153501   2.746268
    11  H    2.444289   2.161135   2.173636   3.367387   2.766015
    12  H    4.328319   3.501486   1.095196   3.492423   2.153077
    13  H    2.500620   2.152961   2.178530   3.950611   3.441723
    14  O    5.324134   4.334176   2.536072   2.479835   1.440358
    15  C    4.860657   4.057550   2.596926   2.592739   1.471197
    16  O    4.558061   3.783518   3.792097   1.420687   2.432229
    17  H    5.317665   4.441356   3.911963   1.921123   2.477586
    18  O    2.605840   2.389036   4.283257   2.467101   3.785080
    19  C    3.740457   3.662491   5.350163   3.208714   4.551538
    20  H    4.511210   4.209914   5.435740   3.020672   4.386806
    21  H    4.288908   4.347423   6.248878   4.131813   5.540760
    22  H    3.739705   3.856809   5.553229   3.666582   4.774447
    23  O    2.071915   1.419605   2.953867   2.983095   3.508612
    24  Si   2.953163   2.816733   4.628569   4.282790   5.095561
    25  C    4.323123   3.976811   5.492226   4.395794   5.541980
    26  H    5.124034   4.927261   6.555957   5.464294   6.636131
    27  H    4.202240   3.862089   5.476377   3.913612   5.249952
    28  H    4.904703   4.342033   5.351359   4.362327   5.395411
    29  C    4.275713   4.127158   5.333424   5.703294   6.180779
    30  C    2.827039   3.348372   5.720750   5.224201   6.109826
    31  H    3.920262   4.424654   6.744846   6.168168   7.126152
    32  H    2.637894   3.387626   5.718430   5.623017   6.289661
    33  H    2.667864   3.247307   5.747899   4.862001   5.887865
    34  C    4.171215   4.233066   5.364802   6.254080   6.463331
    35  H    3.635463   3.609708   4.467476   5.674834   5.678796
    36  H    4.085292   4.424202   5.937334   6.663737   6.966634
    37  H    5.223012   5.243506   6.083486   7.178754   7.279241
    38  C    5.468815   5.456623   6.843926   6.959398   7.598116
    39  H    5.419166   5.618529   7.322175   7.326739   8.040540
    40  H    5.932036   5.815732   7.168425   6.972795   7.753248
    41  H    6.316901   6.287027   7.446730   7.819006   8.327110
    42  C    5.055548   4.586672   5.059468   5.642265   5.939154
    43  H    5.954045   5.535606   5.822637   6.657453   6.824308
    44  H    5.550904   4.993495   5.445330   5.628475   6.095317
    45  H    4.656332   4.034418   4.083559   4.969939   5.054013
    46  H    5.265956   4.547398   2.805648   3.549232   2.218740
    47  H    5.195294   4.496697   3.534962   2.795646   2.223779
                    6          7          8          9         10
     6  C    0.000000
     7  C    2.540014   0.000000
     8  H    3.391144   2.166180   0.000000
     9  H    2.145076   3.318022   2.601719   0.000000
    10  H    1.103204   2.773483   4.026817   3.050870   0.000000
    11  H    2.806456   1.098698   3.073719   3.999990   2.587646
    12  H    3.976204   2.188696   1.767848   3.777016   4.156336
    13  H    3.479108   1.095077   2.487116   4.125417   3.765812
    14  O    3.788256   3.817516   2.919043   2.874712   3.971846
    15  C    3.441735   3.436199   3.421499   3.418857   3.224841
    16  O    2.424867   4.256460   4.119641   2.074706   2.660960
    17  H    3.240894   4.690637   4.164077   2.344093   3.493731
    18  O    1.418509   3.758195   4.474868   2.695948   2.065887
    19  C    2.405615   4.893227   5.666035   3.629806   2.515808
    20  H    2.755941   5.276833   5.739402   3.455779   2.865926
    21  H    3.301545   5.716831   6.456709   4.357731   3.519405
    22  H    2.668953   4.934666   6.050826   4.316215   2.313004
    23  O    2.448462   2.392516   2.658758   2.639993   3.375599
    24  Si   3.605014   3.994203   4.197904   3.757146   4.546493
    25  C    4.100018   5.243724   4.956563   3.631012   5.137980
    26  H    5.085324   6.229748   5.996942   4.711627   6.079102
    27  H    3.588958   5.233275   5.107475   3.289550   4.562709
    28  H    4.438269   5.400122   4.658251   3.409828   5.529342
    29  C    5.233587   4.817669   4.665147   5.052213   6.152857
    30  C    4.057720   4.664317   5.583004   5.017277   4.689715
    31  H    5.059707   5.734674   6.522481   5.868266   5.710094
    32  H    4.362499   4.470668   5.679110   5.538157   4.835874
    33  H    3.574301   4.692259   5.757918   4.810153   4.083843
    34  C    5.619242   4.601096   4.858110   5.805599   6.359786
    35  H    5.089945   3.688456   4.050628   5.339920   5.750718
    36  H    5.796735   4.935965   5.584288   6.326797   6.435738
    37  H    6.646752   5.440170   5.495838   6.675660   7.390649
    38  C    6.432703   6.298058   6.157867   6.250289   7.361662
    39  H    6.587807   6.572592   6.763095   6.728405   7.431877
    40  H    6.574335   6.771286   6.425522   6.164985   7.568575
    41  H    7.360230   6.955872   6.699553   7.083683   8.281764
    42  C    5.585906   4.988498   4.157957   4.829603   6.573402
    43  H    6.621503   5.775857   4.895726   5.852225   7.577880
    44  H    5.734096   5.545702   4.489797   4.682535   6.792155
    45  H    5.054828   4.178748   3.143353   4.218618   5.997086
    46  H    4.204651   3.594114   3.732280   4.332282   3.877814
    47  H    3.549419   4.147349   4.338825   3.750855   3.139052
                   11         12         13         14         15
    11  H    0.000000
    12  H    2.503498   0.000000
    13  H    1.766292   2.546546   0.000000
    14  O    4.040491   2.725132   4.676168   0.000000
    15  C    3.264630   2.705383   4.394745   1.445011   0.000000
    16  O    4.446961   4.581667   5.298422   2.771809   2.822893
    17  H    4.920128   4.565036   5.704386   2.280776   2.689907
    18  O    4.079026   5.323077   4.536356   4.929501   4.714014
    19  C    4.987386   6.324105   5.760718   5.506198   5.147437
    20  H    5.381172   6.371388   6.234745   5.086863   4.843374
    21  H    5.879796   7.263101   6.487704   6.494326   6.217879
    22  H    4.789811   6.432519   5.810719   5.776562   5.142871
    23  O    3.336094   3.949421   2.599063   4.757633   4.887445
    24  Si   4.858421   5.607943   4.007292   6.279080   6.477917
    25  C    6.102575   6.541850   5.509831   6.469319   6.905568
    26  H    7.074361   7.595698   6.414824   7.557809   7.991587
    27  H    5.964839   6.563529   5.694307   6.157357   6.498683
    28  H    6.342128   6.351205   5.668252   6.133324   6.787212
    29  C    5.786359   6.110562   4.418692   7.258208   7.609899
    30  C    5.216525   6.668518   4.660478   7.439411   7.311188
    31  H    6.308499   7.697973   5.674739   8.418368   8.354303
    32  H    4.915874   6.556852   4.288600   7.681768   7.422630
    33  H    5.093647   6.733309   4.914144   7.211877   6.970216
    34  C    5.449685   5.965851   3.904876   7.630375   7.790393
    35  H    4.521562   4.979868   2.888169   6.849033   6.940511
    36  H    5.639331   6.566688   4.262460   8.233012   8.235849
    37  H    6.292684   6.565270   4.637784   8.363533   8.599724
    38  C    7.228538   7.646413   5.911735   8.653258   9.037260
    39  H    7.400967   8.151382   6.189142   9.196636   9.436503
    40  H    7.731981   8.033816   6.528389   8.715182   9.208595
    41  H    7.903926   8.151677   6.441263   9.332762   9.768511
    42  C    6.061028   5.735175   4.620808   6.777675   7.387669
    43  H    6.832702   6.363591   5.258921   7.600962   8.242836
    44  H    6.629720   6.193247   5.359283   6.807322   7.556644
    45  H    5.267266   4.691758   3.829214   5.849609   6.470929
    46  H    3.240539   2.495212   4.401819   2.142803   1.089976
    47  H    3.853693   3.760608   5.180337   2.143970   1.087703
                   16         17         18         19         20
    16  O    0.000000
    17  H    0.973980   0.000000
    18  O    2.918308   3.824886   0.000000
    19  C    3.015240   3.960946   1.422706   0.000000
    20  H    2.372255   3.230109   2.091394   1.093495   0.000000
    21  H    3.951129   4.852380   2.023107   1.093415   1.790174
    22  H    3.466910   4.422267   2.087982   1.101154   1.786932
    23  O    4.290302   4.829163   2.819501   4.239831   4.732505
    24  Si   5.384586   5.985140   3.289119   4.603666   5.233854
    25  C    5.136223   5.653147   3.381340   4.402247   4.781198
    26  H    6.128228   6.657476   4.214206   5.086073   5.514892
    27  H    4.421289   5.016291   2.635495   3.448173   3.774006
    28  H    5.097055   5.435430   3.953316   4.984300   5.163685
    29  C    6.935933   7.390249   5.159909   6.509090   7.095725
    30  C    6.170317   6.956113   3.448229   4.475175   5.391502
    31  H    7.044851   7.823219   4.286125   5.175276   6.084310
    32  H    6.665574   7.453064   4.028645   5.066466   6.027172
    33  H    5.621654   6.483639   2.740779   3.551389   4.537676
    34  C    7.589999   8.074413   5.775999   7.143640   7.827548
    35  H    7.062466   7.512558   5.501447   6.890086   7.530010
    36  H    7.951217   8.537659   5.823371   7.107456   7.908543
    37  H    8.534920   8.955593   6.845710   8.223394   8.879591
    38  C    8.080958   8.564488   6.085564   7.314025   7.939447
    39  H    8.410984   8.993085   6.115230   7.258159   7.996750
    40  H    7.971815   8.418284   6.082718   7.226087   7.760824
    41  H    8.990908   9.419240   7.114391   8.375352   8.984741
    42  C    6.874896   7.132941   5.713862   7.083073   7.469362
    43  H    7.910422   8.122636   6.794759   8.171853   8.567487
    44  H    6.719722   6.922156   5.710079   6.995617   7.275691
    45  H    6.262022   6.454412   5.437164   6.828541   7.147122
    46  H    3.902836   3.765197   5.557217   6.040779   5.825363
    47  H    2.507248   2.435277   4.649360   4.774499   4.345274
                   21         22         23         24         25
    21  H    0.000000
    22  H    1.784277   0.000000
    23  O    4.710676   4.727273   0.000000
    24  Si   4.684924   5.226935   1.688623   0.000000
    25  C    4.265051   5.318004   2.919478   1.886391   0.000000
    26  H    4.734688   5.997219   3.868472   2.509793   1.096892
    27  H    3.265217   4.433279   3.139262   2.475018   1.094306
    28  H    4.976537   5.947605   3.169069   2.507496   1.096142
    29  C    6.598749   7.101628   2.861069   1.919972   3.131685
    30  C    4.331355   4.839964   2.942220   1.890511   3.096344
    31  H    4.825308   5.595304   3.876657   2.498575   3.310706
    32  H    5.046837   5.233692   3.206488   2.525145   4.064645
    33  H    3.346649   3.857847   3.191243   2.486188   3.284095
    34  C    7.331292   7.536061   3.303751   2.844706   4.475928
    35  H    7.235458   7.200186   2.881453   3.025481   4.758790
    36  H    7.207999   7.404665   3.711874   3.064782   4.774926
    37  H    8.405583   8.629913   4.286351   3.836102   5.307140
    38  C    7.185804   7.963779   4.216981   2.846211   3.503578
    39  H    7.030038   7.826682   4.549317   3.049644   3.830230
    40  H    7.013743   7.991437   4.513190   3.054462   3.061799
    41  H    8.277038   9.009945   5.037456   3.836876   4.513228
    42  C    7.293999   7.763167   3.225180   2.842323   3.527797
    43  H    8.373046   8.829693   4.229252   3.834391   4.536817
    44  H    7.136894   7.795966   3.584142   3.057339   3.096985
    45  H    7.199832   7.449096   2.790047   3.025123   3.848602
    46  H    7.119036   5.919936   5.439252   7.095619   7.722229
    47  H    5.854745   4.679721   5.422433   6.907964   7.181395
                   26         27         28         29         30
    26  H    0.000000
    27  H    1.776748   0.000000
    28  H    1.770827   1.769624   0.000000
    29  C    3.399675   4.069543   3.320591   0.000000
    30  C    3.312006   3.298419   4.056987   3.146169   0.000000
    31  H    3.153031   3.618114   4.316117   3.381493   1.096685
    32  H    4.331786   4.305599   4.937696   3.368554   1.096305
    33  H    3.580897   3.111945   4.297086   4.087268   1.094708
    34  C    4.796750   5.279409   4.750800   1.543101   3.489742
    35  H    5.292456   5.432646   4.968598   2.196996   3.766972
    36  H    4.981570   5.487655   5.265517   2.202435   3.058133
    37  H    5.535728   6.196371   5.458701   2.186921   4.514821
    38  C    3.265098   4.521557   3.780340   1.543739   3.578696
    39  H    3.463237   4.718333   4.366468   2.204537   3.144690
    40  H    2.604722   4.110037   3.232433   2.203007   3.943878
    41  H    4.262608   5.562253   4.641091   2.186452   4.572150
    42  C    3.941866   4.487991   3.208976   1.543564   4.484540
    43  H    4.812759   5.538339   4.189000   2.186927   5.318509
    44  H    3.438672   4.080014   2.525642   2.203030   4.807627
    45  H    4.505300   4.641279   3.464306   2.196513   4.734787
    46  H    8.810300   7.394258   7.610044   8.072818   7.882272
    47  H    8.237611   6.620246   7.136203   8.231988   7.582283
                   31         32         33         34         35
    31  H    0.000000
    32  H    1.767764   0.000000
    33  H    1.771361   1.773231   0.000000
    34  C    3.839357   3.200743   4.483273   0.000000
    35  H    4.374596   3.372693   4.608184   1.096467   0.000000
    36  H    3.299558   2.543577   4.082556   1.096958   1.772695
    37  H    4.729477   4.201554   5.541424   1.099976   1.771220
    38  C    3.312987   3.918864   4.571164   2.513920   3.485308
    39  H    2.633445   3.412468   4.160947   2.783717   3.796548
    40  H    3.589562   4.528354   4.792367   3.488395   4.358173
    41  H    4.290221   4.761899   5.603564   2.748133   3.766877
    42  C    4.803502   4.766694   5.289487   2.509283   2.779574
    43  H    5.536590   5.485996   6.209528   2.738674   3.109721
    44  H    5.035446   5.303433   5.506523   3.484933   3.803430
    45  H    5.270561   4.929676   5.423696   2.776538   2.596773
    46  H    8.954399   7.857398   7.604653   8.066279   7.126489
    47  H    8.603836   7.754765   7.092521   8.486976   7.692382
                   36         37         38         39         40
    36  H    0.000000
    37  H    1.768597   0.000000
    38  C    2.765946   2.766545   0.000000
    39  H    2.584167   3.140539   1.097403   0.000000
    40  H    3.793380   3.773445   1.096707   1.772210   0.000000
    41  H    3.087325   2.543309   1.099877   1.767612   1.768193
    42  C    3.484853   2.735428   2.515657   3.491203   2.777517
    43  H    3.747544   2.503206   2.763803   3.776186   3.124644
    44  H    4.360339   3.747037   2.771994   3.796225   2.582402
    45  H    3.802502   3.100083   3.485841   4.359624   3.792402
    46  H    8.509880   8.810830   9.556158   9.953531   9.825145
    47  H    8.851432   9.362385   9.594373   9.925827   9.706620
                   41         42         43         44         45
    41  H    0.000000
    42  C    2.757508   0.000000
    43  H    2.548505   1.100231   0.000000
    44  H    3.106820   1.096825   1.768331   0.000000
    45  H    3.772083   1.095853   1.772917   1.771195   0.000000
    46  H   10.219416   7.835527   8.606445   8.119904   6.856637
    47  H   10.399440   8.111722   9.029137   8.210306   7.263865
                   46         47
    46  H    0.000000
    47  H    1.845271   0.000000
 Stoichiometry    C14H28O4Si
 Framework group  C1[X(C14H28O4Si)]
 Deg. of freedom   135
 Full point group                 C1      NOp   1
 Largest Abelian subgroup         C1      NOp   1
 Largest concise Abelian subgroup C1      NOp   1
                         Standard orientation:                         
 ---------------------------------------------------------------------
 Center     Atomic      Atomic             Coordinates (Angstroms)
 Number     Number       Type             X           Y           Z
 ---------------------------------------------------------------------
      1          1           0        0.070641    0.381984   -2.060039
      2          6           0        0.487612   -0.097744   -1.164102
      3          6           0        1.813252   -2.113240   -0.354255
      4          6           0        2.277551    0.207229    0.599173
      5          6           0        2.847854   -1.150536    0.186900
      6          6           0        1.565253    0.854066   -0.597817
      7          6           0        1.099264   -1.454823   -1.548372
      8          1           0        1.080107   -2.341626    0.427874
      9          1           0        1.526561    0.036159    1.384828
     10          1           0        2.312739    1.034008   -1.388983
     11          1           0        1.810498   -1.306156   -2.372497
     12          1           0        2.288929   -3.055424   -0.646615
     13          1           0        0.300562   -2.104212   -1.921954
     14          8           0        3.834715   -1.654753    1.106956
     15          6           0        4.259540   -1.252919   -0.214449
     16          8           0        3.302214    1.065301    1.080970
     17          1           0        3.789225    0.536487    1.738095
     18          8           0        0.921726    2.075393   -0.271625
     19          6           0        1.743017    3.236314   -0.314480
     20          1           0        2.515802    3.215221    0.458883
     21          1           0        1.077921    4.088943   -0.152534
     22          1           0        2.223732    3.343560   -1.299341
     23          8           0       -0.540825   -0.334436   -0.214590
     24         14           0       -1.961071    0.530867    0.077986
     25          6           0       -1.779556    1.507846    1.681431
     26          1           0       -2.683180    2.085695    1.911052
     27          1           0       -0.939698    2.203353    1.589708
     28          1           0       -1.578226    0.850724    2.535354
     29          6           0       -3.323267   -0.811099    0.250732
     30          6           0       -2.329032    1.702231   -1.359562
     31          1           0       -3.262527    2.250368   -1.183919
     32          1           0       -2.431045    1.178207   -2.317099
     33          1           0       -1.522395    2.435690   -1.458355
     34          6           0       -3.475920   -1.581577   -1.077508
     35          1           0       -2.535312   -2.059050   -1.376700
     36          1           0       -3.795947   -0.926686   -1.897275
     37          1           0       -4.232405   -2.374073   -0.979391
     38          6           0       -4.672550   -0.152245    0.609170
     39          1           0       -5.001317    0.558468   -0.159656
     40          1           0       -4.625903    0.385767    1.563703
     41          1           0       -5.459878   -0.914473    0.703256
     42          6           0       -2.936373   -1.809589    1.362451
     43          1           0       -3.699588   -2.596482    1.456318
     44          1           0       -2.851502   -1.321816    2.341174
     45          1           0       -1.979221   -2.298447    1.148509
     46          1           0        4.572475   -2.072789   -0.860926
     47          1           0        4.881458   -0.361071   -0.244830
 ---------------------------------------------------------------------
 Rotational constants (GHZ):      0.5603381      0.2196395      0.1882457
 Standard basis: 6-31+G(d,p) (6D, 7F)
 There are   505 symmetry adapted basis functions of A   symmetry.
 Integral buffers will be    131072 words long.
 Raffenetti 2 integral format.
 Two-electron integral symmetry is turned on.
   505 basis functions,   828 primitive gaussians,   505 cartesian basis functions
    79 alpha electrons       79 beta electrons
       nuclear repulsion energy      1829.3980619616 Hartrees.
 NAtoms=   47 NActive=   47 NUniq=   47 SFac= 1.00D+00 NAtFMM=   60 NAOKFM=F Big=F
 ------------------------------------------------------------------------------
 Polarizable Continuum Model (PCM)
 =================================
 Model                : PCM.
 Atomic radii         : UFF (Universal Force Field).
 Polarization charges : Total charges.
 Charge compensation  : None.
 Solution method      : Matrix inversion.
 Cavity type          : Scaled VdW (van der Waals Surface) (Alpha=1.100).
 Cavity algorithm     : GePol (No added spheres)
                        Default sphere list used, NSphG=   47.
                        Lebedev-Laikov grids with approx.  5.0 points / Ang**2.
                        Smoothing algorithm: Karplus/York (Gamma=1.0000).
                        Polarization charges: spherical gaussians, with
                                              point-specific exponents (IZeta= 3).
                        Self-potential: point-specific (ISelfS= 7).
                        Self-field    : sphere-specific E.n sum rule (ISelfD= 2).
 Solvent              : Chloroform, Eps=   4.711300 Eps(inf)=   2.090627
 ------------------------------------------------------------------------------
 One-electron integrals computed using PRISM.
 NBasis=   505 RedAO= T  NBF=   505
 NBsUse=   505 1.00D-06 NBFU=   505
 Harris functional with IExCor=  908 diagonalized for initial guess.
 ExpMin= 3.31D-02 ExpMax= 1.61D+04 ExpMxC= 2.43D+03 IAcc=3 IRadAn=         5 AccDes= 0.00D+00
 HarFok:  IExCor=  908 AccDes= 0.00D+00 IRadAn=         5 IDoV= 1
 ScaDFX=  1.000000  1.000000  1.000000  1.000000
 FoFCou: FMM=F IPFlag=           0 FMFlag=      100000 FMFlg1=           0
         NFxFlg=           0 DoJE=T BraDBF=F KetDBF=T FulRan=T
         Omega=  0.000000  0.000000  1.000000  0.000000  0.000000 ICntrl=     500 IOpCl=  0
         NMat0=    1 NMatS0=    1 NMatT0=    0 NMatD0=    1 NMtDS0=    0 NMtDT0=    0
         I1Cent=           4 NGrid=           0.
 Petite list used in FoFCou.
 Initial guess orbital symmetries:
       Occupied  (A) (A) (A) (A) (A) (A) (A) (A) (A) (A) (A) (A)
                 (A) (A) (A) (A) (A) (A) (A) (A) (A) (A) (A) (A)
                 (A) (A) (A) (A) (A) (A) (A) (A) (A) (A) (A) (A)
                 (A) (A) (A) (A) (A) (A) (A) (A) (A) (A) (A) (A)
                 (A) (A) (A) (A) (A) (A) (A) (A) (A) (A) (A) (A)
                 (A) (A) (A) (A) (A) (A) (A) (A) (A) (A) (A) (A)
                 (A) (A) (A) (A) (A) (A) (A)
       Virtual   (A) (A) (A) (A) (A) (A) (A) (A) (A) (A) (A) (A)
                 (A) (A) (A) (A) (A) (A) (A) (A) (A) (A) (A) (A)
                 (A) (A) (A) (A) (A) (A) (A) (A) (A) (A) (A) (A)
                 (A) (A) (A) (A) (A) (A) (A) (A) (A) (A) (A) (A)
                 (A) (A) (A) (A) (A) (A) (A) (A) (A) (A) (A) (A)
                 (A) (A) (A) (A) (A) (A) (A) (A) (A) (A) (A) (A)
                 (A) (A) (A) (A) (A) (A) (A) (A) (A) (A) (A) (A)
                 (A) (A) (A) (A) (A) (A) (A) (A) (A) (A) (A) (A)
                 (A) (A) (A) (A) (A) (A) (A) (A) (A) (A) (A) (A)
                 (A) (A) (A) (A) (A) (A) (A) (A) (A) (A) (A) (A)
                 (A) (A) (A) (A) (A) (A) (A) (A) (A) (A) (A) (A)
                 (A) (A) (A) (A) (A) (A) (A) (A) (A) (A) (A) (A)
                 (A) (A) (A) (A) (A) (A) (A) (A) (A) (A) (A) (A)
                 (A) (A) (A) (A) (A) (A) (A) (A) (A) (A) (A) (A)
                 (A) (A) (A) (A) (A) (A) (A) (A) (A) (A) (A) (A)
                 (A) (A) (A) (A) (A) (A) (A) (A) (A) (A) (A) (A)
                 (A) (A) (A) (A) (A) (A) (A) (A) (A) (A) (A) (A)
                 (A) (A) (A) (A) (A) (A) (A) (A) (A) (A) (A) (A)
                 (A) (A) (A) (A) (A) (A) (A) (A) (A) (A) (A) (A)
                 (A) (A) (A) (A) (A) (A) (A) (A) (A) (A) (A) (A)
                 (A) (A) (A) (A) (A) (A) (A) (A) (A) (A) (A) (A)
                 (A) (A) (A) (A) (A) (A) (A) (A) (A) (A) (A) (A)
                 (A) (A) (A) (A) (A) (A) (A) (A) (A) (A) (A) (A)
                 (A) (A) (A) (A) (A) (A) (A) (A) (A) (A) (A) (A)
                 (A) (A) (A) (A) (A) (A) (A) (A) (A) (A) (A) (A)
                 (A) (A) (A) (A) (A) (A) (A) (A) (A) (A) (A) (A)
                 (A) (A) (A) (A) (A) (A) (A) (A) (A) (A) (A) (A)
                 (A) (A) (A) (A) (A) (A) (A) (A) (A) (A) (A) (A)
                 (A) (A) (A) (A) (A) (A) (A) (A) (A) (A) (A) (A)
                 (A) (A) (A) (A) (A) (A) (A) (A) (A) (A) (A) (A)
                 (A) (A) (A) (A) (A) (A) (A) (A) (A) (A) (A) (A)
                 (A) (A) (A) (A) (A) (A) (A) (A) (A) (A) (A) (A)
                 (A) (A) (A) (A) (A) (A) (A) (A) (A) (A) (A) (A)
                 (A) (A) (A) (A) (A) (A) (A) (A) (A) (A) (A) (A)
                 (A) (A) (A) (A) (A) (A) (A) (A) (A) (A) (A) (A)
                 (A) (A) (A) (A) (A) (A)
 The electronic state of the initial guess is 1-A.
 Requested convergence on RMS density matrix=1.00D-08 within 128 cycles.
 Requested convergence on MAX density matrix=1.00D-06.
 Requested convergence on             energy=1.00D-06.
 No special actions if energy rises.
 Error on total polarization charges =  0.01546
 SCF Done:  E(RmPW1PW91) =  -1140.62541575     A.U. after   13 cycles
             Convg  =    0.4327D-08             -V/T =  2.0080
 Range of M.O.s used for correlation:     1   505
 NBasis=   505 NAE=    79 NBE=    79 NFC=     0 NFV=     0
 NROrb=    505 NOA=    79 NOB=    79 NVA=   426 NVB=   426

 **** Warning!!: The largest alpha MO coefficient is  0.82430357D+02

 NEqPCM:  Using equilibrium solvation (IEInf=0, Eps=   4.7113, EpsInf=   2.0906)
          Differentiating once with respect to magnetic field using GIAOs.
          Electric field/nuclear overlap derivatives assumed to be zero.
 FoFCou: FMM=F IPFlag=           0 FMFlag=    10101102 FMFlg1=           0
         NFxFlg=    40000000 DoJE=F BraDBF=F KetDBF=T FulRan=T
         Omega=  0.000000  0.000000  1.000000  0.000000  0.000000 ICntrl=    6100 IOpCl=  0
         NMat0=    1 NMatS0=    1 NMatT0=    0 NMatD0=    1 NMtDS0=    0 NMtDT0=    0
         I1Cent=           7 NGrid=        3020.
 Symmetry not used in FoFCou.
          There are     3 degrees of freedom in the 1st order CPHF.  IDoFFX=0.
      3 vectors produced by pass  0 Test12= 1.12D-12 3.33D-08 XBig12= 1.49D+02 2.21D+00.
 AX will form     3 AO Fock derivatives at one time.
      3 vectors produced by pass  1 Test12= 1.12D-12 3.33D-08 XBig12= 3.79D-01 8.86D-02.
      3 vectors produced by pass  2 Test12= 1.12D-12 3.33D-08 XBig12= 8.48D-04 4.81D-03.
      3 vectors produced by pass  3 Test12= 1.12D-12 3.33D-08 XBig12= 4.12D-06 3.19D-04.
      3 vectors produced by pass  4 Test12= 1.12D-12 3.33D-08 XBig12= 1.49D-08 1.58D-05.
      3 vectors produced by pass  5 Test12= 1.12D-12 3.33D-08 XBig12= 3.89D-11 9.27D-07.
      2 vectors produced by pass  6 Test12= 1.12D-12 3.33D-08 XBig12= 1.40D-13 4.46D-08.
 Inverted reduced A of dimension    20 with in-core refinement.
 Calculating GIAO nuclear magnetic shielding tensors.
 SCF GIAO Magnetic shielding tensor (ppm):
      1  H    Isotropic =    27.4142   Anisotropy =     3.8811
   XX=    28.4456   YX=    -1.2920   ZX=    -2.0120
   XY=    -1.6938   YY=    24.6008   ZY=    -1.2248
   XZ=    -0.0161   YZ=    -2.2357   ZZ=    29.1962
   Eigenvalues:    23.4174    28.8236    30.0016
      2  C    Isotropic =   122.0464   Anisotropy =    37.8239
   XX=   131.2934   YX=    12.9278   ZX=   -20.9973
   XY=     3.8703   YY=   115.8204   ZY=     5.6581
   XZ=   -19.5545   YZ=    -0.7435   ZZ=   119.0254
   Eigenvalues:   100.6344   118.2424   147.2624
      3  C    Isotropic =   168.1213   Anisotropy =    29.1350
   XX=   169.9049   YX=     4.0077   ZX=    16.4315
   XY=     5.9018   YY=   174.9709   ZY=     8.1077
   XZ=    13.4443   YZ=     9.7516   ZZ=   159.4882
   Eigenvalues:   148.0756   168.7437   187.5447
      4  C    Isotropic =   122.7282   Anisotropy =    39.5283
   XX=   127.0716   YX=     9.2827   ZX=     9.8322
   XY=    18.6092   YY=   132.7846   ZY=     8.8920
   XZ=    16.5190   YZ=     5.7236   ZZ=   108.3282
   Eigenvalues:   101.5308   117.5733   149.0804
      5  C    Isotropic =   133.5560   Anisotropy =    59.8626
   XX=    91.9642   YX=     8.2099   ZX=    18.7859
   XY=    10.5747   YY=   169.9544   ZY=    10.7069
   XZ=    22.1672   YZ=     1.5186   ZZ=   138.7493
   Eigenvalues:    83.7487   143.4548   173.4644
      6  C    Isotropic =   111.0945   Anisotropy =    40.4377
   XX=   106.4942   YX=   -10.0982   ZX=    -0.9176
   XY=   -14.4087   YY=   129.3027   ZY=     9.3145
   XZ=   -11.2350   YZ=    11.0501   ZZ=    97.4866
   Eigenvalues:    93.7919   101.4387   138.0530
      7  C    Isotropic =   163.2059   Anisotropy =    20.2065
   XX=   163.6324   YX=    -6.5675   ZX=    -5.5800
   XY=    -9.8746   YY=   168.3414   ZY=     8.0579
   XZ=    -2.3645   YZ=     1.9316   ZZ=   157.6440
   Eigenvalues:   155.4930   157.4479   176.6769
      8  H    Isotropic =    29.1732   Anisotropy =     6.4614
   XX=    31.5592   YX=     0.6448   ZX=    -1.8768
   XY=     1.6459   YY=    28.7909   ZY=    -3.5784
   XZ=    -1.8522   YZ=    -2.6940   ZZ=    27.1696
   Eigenvalues:    24.6458    29.3931    33.4808
      9  H    Isotropic =    27.1565   Anisotropy =     6.8642
   XX=    31.3624   YX=     1.5886   ZX=     0.0508
   XY=     1.6209   YY=    24.5604   ZY=     0.0492
   XZ=     0.1229   YZ=     1.5034   ZZ=    25.5467
   Eigenvalues:    23.8732    25.8637    31.7326
     10  H    Isotropic =    28.5066   Anisotropy =     3.2698
   XX=    28.2510   YX=    -0.0593   ZX=    -1.2584
   XY=    -2.4753   YY=    29.9900   ZY=     0.3857
   XZ=    -2.1792   YZ=    -1.6042   ZZ=    27.2788
   Eigenvalues:    25.6127    29.2206    30.6865
     11  H    Isotropic =    30.0098   Anisotropy =     9.0780
   XX=    29.3980   YX=    -1.6946   ZX=    -3.1196
   XY=    -1.4469   YY=    26.4146   ZY=     1.7702
   XZ=    -2.9034   YZ=     1.0483   ZZ=    34.2169
   Eigenvalues:    25.7382    28.2295    36.0619
     12  H    Isotropic =    30.4870   Anisotropy =    10.9154
   XX=    29.0328   YX=    -2.3077   ZX=     1.1129
   XY=    -2.3252   YY=    36.5369   ZY=     3.0326
   XZ=     0.9533   YZ=     2.8814   ZZ=    25.8914
   Eigenvalues:    24.5294    29.1677    37.7640
     13  H    Isotropic =    29.7083   Anisotropy =     8.8730
   XX=    31.2105   YX=     1.1294   ZX=     3.1886
   XY=     2.1641   YY=    29.4308   ZY=     3.8859
   XZ=     3.3419   YZ=     3.9442   ZZ=    28.4836
   Eigenvalues:    24.6591    28.8422    35.6236
     14  O    Isotropic =   315.5386   Anisotropy =   110.0434
   XX=   366.0795   YX=    16.5302   ZX=   -13.9529
   XY=    10.3346   YY=   360.8588   ZY=    69.5615
   XZ=   -38.6957   YZ=    67.1819   ZZ=   219.6774
   Eigenvalues:   187.1491   370.5657   388.9008
     15  C    Isotropic =   146.3552   Anisotropy =    33.9598
   XX=   113.1111   YX=     6.6264   ZX=    13.7437
   XY=     3.7484   YY=   163.4337   ZY=    -1.5031
   XZ=    14.2229   YZ=     6.6825   ZZ=   162.5210
   Eigenvalues:   109.0774   160.9932   168.9951
     16  O    Isotropic =   312.1042   Anisotropy =    44.4365
   XX=   329.4165   YX=    15.4082   ZX=    26.0996
   XY=   -18.8994   YY=   294.5551   ZY=   -23.9744
   XZ=     0.7536   YZ=   -24.8280   ZZ=   312.3410
   Eigenvalues:   276.6908   317.8933   341.7285
     17  H    Isotropic =    29.6502   Anisotropy =    17.5023
   XX=    27.0360   YX=    -4.0862   ZX=    10.1775
   XY=    -2.7018   YY=    30.6502   ZY=    -2.5286
   XZ=    11.0577   YZ=    -1.6577   ZZ=    31.2644
   Eigenvalues:    18.1820    29.4502    41.3184
     18  O    Isotropic =   296.0328   Anisotropy =    68.0906
   XX=   314.0419   YX=   -37.2120   ZX=   -12.2424
   XY=   -25.2305   YY=   297.2610   ZY=     5.5646
   XZ=   -14.8644   YZ=     8.0913   ZZ=   276.7955
   Eigenvalues:   270.5801   276.0917   341.4265
     19  C    Isotropic =   136.8906   Anisotropy =    85.7498
   XX=   127.8825   YX=    36.8532   ZX=    -3.3903
   XY=    35.5786   YY=   174.1236   ZY=    -2.5381
   XZ=    -3.8089   YZ=     0.2624   ZZ=   108.6657
   Eigenvalues:   105.6848   110.9299   194.0571
     20  H    Isotropic =    27.2163   Anisotropy =     8.8799
   XX=    27.3948   YX=     2.4442   ZX=     4.1558
   XY=     3.7389   YY=    30.5848   ZY=     1.5319
   XZ=     2.9278   YZ=    -0.2638   ZZ=    23.6693
   Eigenvalues:    21.3928    27.1198    33.1363
     21  H    Isotropic =    27.8751   Anisotropy =    10.6187
   XX=    25.6205   YX=     2.2776   ZX=    -0.1045
   XY=    -0.9073   YY=    34.8943   ZY=     0.6184
   XZ=    -0.4629   YZ=     0.0989   ZZ=    23.1105
   Eigenvalues:    23.0628    25.6083    34.9543
     22  H    Isotropic =    28.3333   Anisotropy =    10.3196
   XX=    27.5421   YX=     3.3498   ZX=    -2.5919
   XY=     4.4609   YY=    30.3175   ZY=    -4.9292
   XZ=    -1.2271   YZ=    -2.5260   ZZ=    27.1405
   Eigenvalues:    24.3566    25.4303    35.2131
     23  O    Isotropic =   287.0314   Anisotropy =    20.0627
   XX=   283.9058   YX=    -2.5485   ZX=    17.2006
   XY=     3.1090   YY=   300.3900   ZY=    -1.9593
   XZ=    10.4915   YZ=     2.2401   ZZ=   276.7984
   Eigenvalues:   266.0572   294.6305   300.4065
     24  Si   Isotropic =   377.7873   Anisotropy =    32.0991
   XX=   396.1075   YX=   -16.6262   ZX=     5.6104
   XY=    -1.0222   YY=   373.6170   ZY=     3.4236
   XZ=    -0.1839   YZ=     6.0196   ZZ=   363.6373
   Eigenvalues:   360.7085   373.4667   399.1866
     25  C    Isotropic =   198.7494   Anisotropy =     8.7606
   XX=   202.1880   YX=    -2.7328   ZX=     0.1062
   XY=    -3.3964   YY=   192.9857   ZY=     5.6355
   XZ=    -1.3402   YZ=     2.9541   ZZ=   201.0745
   Eigenvalues:   190.5509   201.1075   204.5898
     26  H    Isotropic =    31.7335   Anisotropy =    10.9416
   XX=    34.3449   YX=    -4.0642   ZX=    -2.8344
   XY=    -3.6921   YY=    31.5406   ZY=     3.6222
   XZ=    -2.7478   YZ=     3.4881   ZZ=    29.3150
   Eigenvalues:    26.7021    29.4705    39.0279
     27  H    Isotropic =    30.9086   Anisotropy =    10.0836
   XX=    34.1188   YX=     4.9174   ZX=    -2.2909
   XY=     5.0129   YY=    30.4199   ZY=     1.4355
   XZ=    -1.5984   YZ=     1.5290   ZZ=    28.1870
   Eigenvalues:    25.1569    29.9378    37.6310
     28  H    Isotropic =    31.2865   Anisotropy =     8.2552
   XX=    28.2941   YX=    -0.0222   ZX=     1.2306
   XY=     0.3843   YY=    29.9709   ZY=    -2.2316
   XZ=     1.2867   YZ=    -3.0667   ZZ=    35.5944
   Eigenvalues:    27.7993    29.2702    36.7899
     29  C    Isotropic =   172.5859   Anisotropy =     7.2889
   XX=   174.7779   YX=    -4.0265   ZX=    -0.6503
   XY=    -1.7957   YY=   173.0712   ZY=     1.2979
   XZ=    -1.9571   YZ=     1.6032   ZZ=   169.9086
   Eigenvalues:   169.3359   170.9767   177.4452
     30  C    Isotropic =   201.1216   Anisotropy =     4.8164
   XX=   203.1254   YX=    -1.2852   ZX=     1.7388
   XY=     0.3017   YY=   198.0361   ZY=    -0.7028
   XZ=     1.4674   YZ=     2.0725   ZZ=   202.2033
   Eigenvalues:   197.8128   201.2194   204.3325
     31  H    Isotropic =    31.6991   Anisotropy =    10.6960
   XX=    35.5317   YX=    -4.9515   ZX=    -0.0735
   XY=    -4.5553   YY=    31.8940   ZY=    -1.3968
   XZ=    -0.3434   YZ=    -1.1471   ZZ=    27.6715
   Eigenvalues:    26.8705    29.3969    38.8297
     32  H    Isotropic =    31.4458   Anisotropy =     8.7929
   XX=    28.3527   YX=     0.5941   ZX=     1.8194
   XY=     0.5896   YY=    29.4429   ZY=     1.4315
   XZ=     1.8101   YZ=     1.8590   ZZ=    36.5418
   Eigenvalues:    27.9208    29.1088    37.3078
     33  H    Isotropic =    31.0509   Anisotropy =     9.6704
   XX=    33.9618   YX=     3.9774   ZX=     0.4068
   XY=     4.3161   YY=    32.1153   ZY=    -2.6232
   XZ=     0.3579   YZ=    -2.9194   ZZ=    27.0757
   Eigenvalues:    25.2675    30.3874    37.4979
     34  C    Isotropic =   170.3234   Anisotropy =    37.5594
   XX=   156.9359   YX=     3.6304   ZX=     3.0409
   XY=     1.9901   YY=   166.2682   ZY=    16.9452
   XZ=    -0.2338   YZ=    12.3783   ZZ=   187.7662
   Eigenvalues:   155.6688   159.9385   195.3630
     35  H    Isotropic =    30.4122   Anisotropy =     7.8029
   XX=    32.5840   YX=    -0.8083   ZX=    -1.7973
   XY=    -1.5694   YY=    29.6169   ZY=     4.0274
   XZ=    -2.9451   YZ=     4.3335   ZZ=    29.0356
   Eigenvalues:    25.0113    30.6111    35.6141
     36  H    Isotropic =    30.6403   Anisotropy =     8.3106
   XX=    28.1347   YX=     0.9545   ZX=     2.8927
   XY=     1.2393   YY=    28.8834   ZY=    -0.7319
   XZ=     3.1359   YZ=    -2.1524   ZZ=    34.9026
   Eigenvalues:    26.1057    29.6344    36.1807
     37  H    Isotropic =    31.0505   Anisotropy =     9.8216
   XX=    31.1690   YX=     4.4317   ZX=     1.0923
   XY=     4.8549   YY=    32.8952   ZY=     1.9122
   XZ=     1.8143   YZ=     2.6346   ZZ=    29.0874
   Eigenvalues:    27.2093    28.3440    37.5982
     38  C    Isotropic =   170.3575   Anisotropy =    38.9011
   XX=   185.4330   YX=   -17.9189   ZX=    -7.9274
   XY=   -13.5281   YY=   165.8964   ZY=     3.6443
   XZ=    -7.3926   YZ=     4.9970   ZZ=   159.7431
   Eigenvalues:   157.1482   157.6327   196.2916
     39  H    Isotropic =    30.7241   Anisotropy =     9.0379
   XX=    33.3238   YX=    -3.6400   ZX=     1.9364
   XY=    -3.0581   YY=    30.8979   ZY=    -3.6552
   XZ=     0.7483   YZ=    -2.9549   ZZ=    27.9505
   Eigenvalues:    25.7229    29.7000    36.7493
     40  H    Isotropic =    30.6980   Anisotropy =     8.8794
   XX=    31.2915   YX=    -1.3268   ZX=    -3.6126
   XY=    -0.8493   YY=    29.3307   ZY=     4.6524
   XZ=    -2.2368   YZ=     4.1541   ZZ=    31.4717
   Eigenvalues:    25.6753    29.8010    36.6176
     41  H    Isotropic =    30.9266   Anisotropy =    10.2501
   XX=    36.5449   YX=     3.3691   ZX=    -1.7683
   XY=     2.1211   YY=    29.0340   ZY=    -0.3034
   XZ=    -1.8358   YZ=    -0.4768   ZZ=    27.2008
   Eigenvalues:    26.8553    28.1644    37.7600
     42  C    Isotropic =   170.3799   Anisotropy =    37.5224
   XX=   161.5387   YX=    -2.9935   ZX=     7.6986
   XY=    -7.3787   YY=   171.8356   ZY=   -19.0497
   XZ=    11.1701   YZ=   -15.0185   ZZ=   177.7653
   Eigenvalues:   155.8307   159.9141   195.3948
     43  H    Isotropic =    31.0454   Anisotropy =     9.7954
   XX=    30.0745   YX=     3.2730   ZX=    -0.9637
   XY=     3.9988   YY=    33.8723   ZY=    -3.2051
   XZ=    -1.4899   YZ=    -3.5777   ZZ=    29.1893
   Eigenvalues:    27.1227    28.4378    37.5757
     44  H    Isotropic =    30.4888   Anisotropy =     8.3118
   XX=    27.1233   YX=     1.5726   ZX=     1.1279
   XY=     1.2450   YY=    28.4519   ZY=    -1.3324
   XZ=     0.9486   YZ=     0.2818   ZZ=    35.8913
   Eigenvalues:    26.0931    29.3434    36.0301
     45  H    Isotropic =    30.2165   Anisotropy =     8.1440
   XX=    33.6504   YX=    -2.5939   ZX=    -0.8987
   XY=    -3.3158   YY=    30.6056   ZY=    -2.6223
   XZ=     0.2997   YZ=    -3.2126   ZZ=    26.3935
   Eigenvalues:    24.5858    30.4178    35.6458
     46  H    Isotropic =    28.9847   Anisotropy =    10.8596
   XX=    28.1842   YX=    -0.4230   ZX=    -2.4022
   XY=    -4.2826   YY=    29.0746   ZY=     4.7911
   XZ=    -4.7500   YZ=     4.4138   ZZ=    29.6953
   Eigenvalues:    24.4856    26.2440    36.2245
     47  H    Isotropic =    28.4199   Anisotropy =     8.0597
   XX=    30.3122   YX=     1.2019   ZX=    -3.9038
   XY=     4.8710   YY=    30.4929   ZY=    -0.1547
   XZ=    -1.9143   YZ=     0.9880   ZZ=    24.4545
   Eigenvalues:    22.9041    28.5625    33.7930
 End of Minotr Frequency-dependent properties file   721 does not exist.
 End of Minotr Frequency-dependent properties file   722 does not exist.

 **********************************************************************

            Population analysis using the SCF density.

 **********************************************************************

 Orbital symmetries:
       Occupied  (A) (A) (A) (A) (A) (A) (A) (A) (A) (A) (A) (A)
                 (A) (A) (A) (A) (A) (A) (A) (A) (A) (A) (A) (A)
                 (A) (A) (A) (A) (A) (A) (A) (A) (A) (A) (A) (A)
                 (A) (A) (A) (A) (A) (A) (A) (A) (A) (A) (A) (A)
                 (A) (A) (A) (A) (A) (A) (A) (A) (A) (A) (A) (A)
                 (A) (A) (A) (A) (A) (A) (A) (A) (A) (A) (A) (A)
                 (A) (A) (A) (A) (A) (A) (A)
       Virtual   (A) (A) (A) (A) (A) (A) (A) (A) (A) (A) (A) (A)
                 (A) (A) (A) (A) (A) (A) (A) (A) (A) (A) (A) (A)
                 (A) (A) (A) (A) (A) (A) (A) (A) (A) (A) (A) (A)
                 (A) (A) (A) (A) (A) (A) (A) (A) (A) (A) (A) (A)
                 (A) (A) (A) (A) (A) (A) (A) (A) (A) (A) (A) (A)
                 (A) (A) (A) (A) (A) (A) (A) (A) (A) (A) (A) (A)
                 (A) (A) (A) (A) (A) (A) (A) (A) (A) (A) (A) (A)
                 (A) (A) (A) (A) (A) (A) (A) (A) (A) (A) (A) (A)
                 (A) (A) (A) (A) (A) (A) (A) (A) (A) (A) (A) (A)
                 (A) (A) (A) (A) (A) (A) (A) (A) (A) (A) (A) (A)
                 (A) (A) (A) (A) (A) (A) (A) (A) (A) (A) (A) (A)
                 (A) (A) (A) (A) (A) (A) (A) (A) (A) (A) (A) (A)
                 (A) (A) (A) (A) (A) (A) (A) (A) (A) (A) (A) (A)
                 (A) (A) (A) (A) (A) (A) (A) (A) (A) (A) (A) (A)
                 (A) (A) (A) (A) (A) (A) (A) (A) (A) (A) (A) (A)
                 (A) (A) (A) (A) (A) (A) (A) (A) (A) (A) (A) (A)
                 (A) (A) (A) (A) (A) (A) (A) (A) (A) (A) (A) (A)
                 (A) (A) (A) (A) (A) (A) (A) (A) (A) (A) (A) (A)
                 (A) (A) (A) (A) (A) (A) (A) (A) (A) (A) (A) (A)
                 (A) (A) (A) (A) (A) (A) (A) (A) (A) (A) (A) (A)
                 (A) (A) (A) (A) (A) (A) (A) (A) (A) (A) (A) (A)
                 (A) (A) (A) (A) (A) (A) (A) (A) (A) (A) (A) (A)
                 (A) (A) (A) (A) (A) (A) (A) (A) (A) (A) (A) (A)
                 (A) (A) (A) (A) (A) (A) (A) (A) (A) (A) (A) (A)
                 (A) (A) (A) (A) (A) (A) (A) (A) (A) (A) (A) (A)
                 (A) (A) (A) (A) (A) (A) (A) (A) (A) (A) (A) (A)
                 (A) (A) (A) (A) (A) (A) (A) (A) (A) (A) (A) (A)
                 (A) (A) (A) (A) (A) (A) (A) (A) (A) (A) (A) (A)
                 (A) (A) (A) (A) (A) (A) (A) (A) (A) (A) (A) (A)
                 (A) (A) (A) (A) (A) (A) (A) (A) (A) (A) (A) (A)
                 (A) (A) (A) (A) (A) (A) (A) (A) (A) (A) (A) (A)
                 (A) (A) (A) (A) (A) (A) (A) (A) (A) (A) (A) (A)
                 (A) (A) (A) (A) (A) (A) (A) (A) (A) (A) (A) (A)
                 (A) (A) (A) (A) (A) (A) (A) (A) (A) (A) (A) (A)
                 (A) (A) (A) (A) (A) (A) (A) (A) (A) (A) (A) (A)
                 (A) (A) (A) (A) (A) (A)
 The electronic state is 1-A.
 Alpha  occ. eigenvalues --  -66.30041 -19.27073 -19.25532 -19.25345 -19.23116
 Alpha  occ. eigenvalues --  -10.31670 -10.30903 -10.30558 -10.30511 -10.30194
 Alpha  occ. eigenvalues --  -10.28287 -10.25403 -10.25358 -10.24337 -10.23378
 Alpha  occ. eigenvalues --  -10.23185 -10.23067 -10.22029 -10.21563  -5.33396
 Alpha  occ. eigenvalues --   -3.67320  -3.67024  -3.66989  -1.11620  -1.07524
 Alpha  occ. eigenvalues --   -1.05522  -1.02926  -0.84905  -0.81918  -0.77632
 Alpha  occ. eigenvalues --   -0.75079  -0.71759  -0.70182  -0.70061  -0.69822
 Alpha  occ. eigenvalues --   -0.69272  -0.69086  -0.63349  -0.62529  -0.58694
 Alpha  occ. eigenvalues --   -0.56141  -0.55097  -0.52541  -0.52187  -0.51668
 Alpha  occ. eigenvalues --   -0.49004  -0.47955  -0.47201  -0.46296  -0.45377
 Alpha  occ. eigenvalues --   -0.44339  -0.44301  -0.43987  -0.43380  -0.42607
 Alpha  occ. eigenvalues --   -0.41676  -0.41001  -0.40480  -0.40181  -0.39769
 Alpha  occ. eigenvalues --   -0.39384  -0.39079  -0.38791  -0.38481  -0.37625
 Alpha  occ. eigenvalues --   -0.36991  -0.36522  -0.35833  -0.34085  -0.33528
 Alpha  occ. eigenvalues --   -0.33431  -0.32846  -0.31860  -0.31188  -0.30409
 Alpha  occ. eigenvalues --   -0.29368  -0.28366  -0.27201  -0.25952
 Alpha virt. eigenvalues --   -0.00060   0.00552   0.01289   0.01499   0.02316
 Alpha virt. eigenvalues --    0.02962   0.03274   0.03730   0.03991   0.04896
 Alpha virt. eigenvalues --    0.05092   0.05454   0.05729   0.06108   0.06373
 Alpha virt. eigenvalues --    0.06755   0.06908   0.07908   0.08124   0.08184
 Alpha virt. eigenvalues --    0.08241   0.09070   0.09189   0.09379   0.09802
 Alpha virt. eigenvalues --    0.10011   0.10258   0.10772   0.10959   0.11626
 Alpha virt. eigenvalues --    0.12037   0.12213   0.12716   0.12822   0.13275
 Alpha virt. eigenvalues --    0.13637   0.13997   0.14143   0.14461   0.14762
 Alpha virt. eigenvalues --    0.14847   0.15467   0.15671   0.16239   0.16549
 Alpha virt. eigenvalues --    0.16778   0.17076   0.17189   0.17534   0.18114
 Alpha virt. eigenvalues --    0.18606   0.18744   0.19092   0.19351   0.19983
 Alpha virt. eigenvalues --    0.20136   0.20522   0.20717   0.21079   0.21601
 Alpha virt. eigenvalues --    0.21828   0.21963   0.22256   0.22589   0.22863
 Alpha virt. eigenvalues --    0.23025   0.23292   0.23920   0.24099   0.24287
 Alpha virt. eigenvalues --    0.24503   0.24754   0.25238   0.25557   0.25971
 Alpha virt. eigenvalues --    0.26219   0.27029   0.27259   0.27605   0.27788
 Alpha virt. eigenvalues --    0.28153   0.28757   0.29185   0.29376   0.29552
 Alpha virt. eigenvalues --    0.29885   0.30515   0.30726   0.30972   0.31321
 Alpha virt. eigenvalues --    0.31877   0.32380   0.32487   0.33237   0.33400
 Alpha virt. eigenvalues --    0.33725   0.34798   0.35065   0.35452   0.35950
 Alpha virt. eigenvalues --    0.36856   0.37273   0.37645   0.38132   0.38631
 Alpha virt. eigenvalues --    0.39257   0.39863   0.40224   0.40599   0.41108
 Alpha virt. eigenvalues --    0.42132   0.42599   0.43664   0.44611   0.45414
 Alpha virt. eigenvalues --    0.45859   0.46073   0.46911   0.48052   0.48937
 Alpha virt. eigenvalues --    0.49415   0.50464   0.52363   0.53532   0.54863
 Alpha virt. eigenvalues --    0.55179   0.58565   0.62226   0.63330   0.65307
 Alpha virt. eigenvalues --    0.67508   0.69385   0.70053   0.71216   0.71512
 Alpha virt. eigenvalues --    0.72050   0.73048   0.73891   0.74477   0.75513
 Alpha virt. eigenvalues --    0.76093   0.77138   0.77657   0.78720   0.79484
 Alpha virt. eigenvalues --    0.79723   0.80292   0.81031   0.81567   0.81790
 Alpha virt. eigenvalues --    0.82551   0.84360   0.84905   0.85519   0.86059
 Alpha virt. eigenvalues --    0.87727   0.88051   0.88479   0.89179   0.90183
 Alpha virt. eigenvalues --    0.90864   0.91729   0.92866   0.93115   0.93700
 Alpha virt. eigenvalues --    0.93919   0.96590   0.97043   0.97477   0.98887
 Alpha virt. eigenvalues --    0.99289   0.99811   1.00637   1.01647   1.02564
 Alpha virt. eigenvalues --    1.02801   1.04034   1.04654   1.05638   1.06023
 Alpha virt. eigenvalues --    1.06410   1.06810   1.07354   1.07936   1.08469
 Alpha virt. eigenvalues --    1.08703   1.09468   1.09814   1.11312   1.12218
 Alpha virt. eigenvalues --    1.13435   1.14766   1.15265   1.16011   1.16929
 Alpha virt. eigenvalues --    1.17575   1.18414   1.19155   1.20480   1.22407
 Alpha virt. eigenvalues --    1.23189   1.23665   1.24328   1.24706   1.25622
 Alpha virt. eigenvalues --    1.28266   1.29897   1.30545   1.32411   1.34102
 Alpha virt. eigenvalues --    1.35088   1.35642   1.36131   1.36733   1.37601
 Alpha virt. eigenvalues --    1.38675   1.40279   1.40687   1.42328   1.42782
 Alpha virt. eigenvalues --    1.42993   1.45455   1.47097   1.48005   1.48325
 Alpha virt. eigenvalues --    1.50186   1.51639   1.53209   1.53357   1.54850
 Alpha virt. eigenvalues --    1.57150   1.58258   1.58896   1.62647   1.63257
 Alpha virt. eigenvalues --    1.64567   1.66777   1.68707   1.69645   1.70981
 Alpha virt. eigenvalues --    1.71194   1.72767   1.73384   1.75777   1.76747
 Alpha virt. eigenvalues --    1.78139   1.78934   1.80706   1.81201   1.82167
 Alpha virt. eigenvalues --    1.82348   1.83769   1.85636   1.87614   1.88826
 Alpha virt. eigenvalues --    1.89724   1.90315   1.91397   1.91598   1.92929
 Alpha virt. eigenvalues --    1.93515   1.94860   1.95684   1.96365   1.97086
 Alpha virt. eigenvalues --    1.98521   1.99538   1.99979   2.00036   2.02308
 Alpha virt. eigenvalues --    2.03080   2.03883   2.05977   2.06408   2.06868
 Alpha virt. eigenvalues --    2.07478   2.07723   2.08052   2.09299   2.10319
 Alpha virt. eigenvalues --    2.10872   2.11263   2.11810   2.12875   2.14110
 Alpha virt. eigenvalues --    2.14675   2.14975   2.15358   2.16266   2.16591
 Alpha virt. eigenvalues --    2.16674   2.17776   2.17991   2.18105   2.19448
 Alpha virt. eigenvalues --    2.19821   2.19918   2.20987   2.21741   2.22310
 Alpha virt. eigenvalues --    2.22483   2.23825   2.24730   2.25992   2.26669
 Alpha virt. eigenvalues --    2.27933   2.30006   2.30437   2.32760   2.35485
 Alpha virt. eigenvalues --    2.35943   2.36682   2.38679   2.38877   2.39694
 Alpha virt. eigenvalues --    2.40062   2.42134   2.43457   2.44169   2.45229
 Alpha virt. eigenvalues --    2.46216   2.46949   2.49492   2.52370   2.53310
 Alpha virt. eigenvalues --    2.55110   2.56567   2.57155   2.57632   2.57859
 Alpha virt. eigenvalues --    2.59889   2.60395   2.61669   2.64035   2.65568
 Alpha virt. eigenvalues --    2.65671   2.66716   2.68242   2.70113   2.70598
 Alpha virt. eigenvalues --    2.70982   2.72610   2.73270   2.74081   2.75343
 Alpha virt. eigenvalues --    2.76932   2.77392   2.78287   2.79027   2.79097
 Alpha virt. eigenvalues --    2.80913   2.81569   2.83811   2.85048   2.86055
 Alpha virt. eigenvalues --    2.86250   2.87359   2.87397   2.88421   2.88643
 Alpha virt. eigenvalues --    2.89055   2.89281   2.89968   2.90334   2.90623
 Alpha virt. eigenvalues --    2.92041   2.92913   2.94792   2.95384   2.97646
 Alpha virt. eigenvalues --    2.99170   3.00008   3.01465   3.03437   3.09197
 Alpha virt. eigenvalues --    3.11326   3.14492   3.20197   3.23375   3.27935
 Alpha virt. eigenvalues --    3.28835   3.29622   3.30101   3.30770   3.31571
 Alpha virt. eigenvalues --    3.31783   3.37329   3.38560   3.40084   3.43737
 Alpha virt. eigenvalues --    3.47989   3.48141   3.48716   3.49096   3.49786
 Alpha virt. eigenvalues --    3.50255   3.50698   3.51283   3.51504   3.52128
 Alpha virt. eigenvalues --    3.53277   3.53690   3.55471   3.56028   3.56655
 Alpha virt. eigenvalues --    3.57935   3.60159   3.61284   4.35295   4.43005
 Alpha virt. eigenvalues --    4.46440   4.48877   4.54575   4.55933   4.59400
 Alpha virt. eigenvalues --    4.62014   4.64853   4.65690   4.66954   4.68920
 Alpha virt. eigenvalues --    4.71855   4.75428   4.80934   4.83769   4.93655
 Alpha virt. eigenvalues --    4.95192
          Condensed to atoms (all electrons):
              1          2          3          4          5          6
     1  H    0.595938   0.160999   0.014081   0.045937  -0.007287   0.081315
     2  C    0.160999  10.965612  -0.077860  -1.421992   2.090242  -4.174800
     3  C    0.014081  -0.077860   7.483523  -1.280395  -1.321124   0.069887
     4  C    0.045937  -1.421992  -1.280395  11.666244  -3.078845   0.092668
     5  C   -0.007287   2.090242  -1.321124  -3.078845  15.489033  -3.440447
     6  C    0.081315  -4.174800   0.069887   0.092668  -3.440447  12.533242
     7  C    0.004877  -1.274886   0.464219   0.077014  -1.081727   0.409433
     8  H   -0.000055   0.015194   0.408024  -0.050634   0.074193  -0.040900
     9  H   -0.000164   0.119903  -0.052124   0.238661   0.279306  -0.248296
    10  H   -0.005228   0.163976  -0.013590  -0.164952   0.184555   0.146632
    11  H   -0.002450  -0.091047  -0.048788  -0.000511   0.055895  -0.000303
    12  H   -0.000097   0.048475   0.362490   0.051712  -0.129174   0.011729
    13  H   -0.004720  -0.022040  -0.019355  -0.012814   0.044247   0.029317
    14  O    0.000002  -0.078981  -0.074816  -0.168342   0.012874   0.158987
    15  C   -0.001972  -0.446431   0.137442  -0.150003  -2.654242   0.952282
    16  O   -0.000838   0.163841   0.056784   0.077395   0.023599  -0.198134
    17  H    0.000005  -0.021119   0.015602   0.002369  -0.084108   0.065748
    18  O    0.001152  -0.136478  -0.000104  -0.161505   0.072169   0.271213
    19  C   -0.004776   0.055529   0.029017   0.018812  -0.171747  -0.089744
    20  H    0.000016  -0.033015  -0.002596   0.006280  -0.015706   0.068452
    21  H   -0.000016  -0.003179  -0.000133   0.005172   0.002703  -0.000517
    22  H   -0.000067   0.052011   0.001513  -0.005772   0.010555  -0.078792
    23  O   -0.049666   0.173165   0.011680  -0.017436   0.145068  -0.292698
    24  Si   0.033640  -0.405541  -0.011585  -0.298035   0.265387   0.042039
    25  C   -0.003263   0.120060   0.000450   0.029156  -0.015071  -0.088499
    26  H    0.000002   0.004780  -0.000025  -0.000169   0.000028  -0.001985
    27  H    0.000004  -0.013927   0.000646   0.002566  -0.002079   0.004206
    28  H   -0.000003   0.004917  -0.000575  -0.002916   0.002764  -0.005992
    29  C    0.001799  -0.089039  -0.022564  -0.008048   0.006270   0.129666
    30  C   -0.005921   0.119776   0.000879   0.058822  -0.012454  -0.116212
    31  H    0.000064  -0.001595   0.000025   0.000221   0.000019   0.001459
    32  H   -0.000087  -0.012940  -0.000075  -0.000031  -0.000210   0.008556
    33  H   -0.000286  -0.010889   0.000504  -0.000138  -0.001262   0.011822
    34  C   -0.006421  -0.043542   0.039802   0.007627  -0.021188  -0.004629
    35  H    0.000017  -0.002255   0.004931   0.000640  -0.000890  -0.000771
    36  H    0.000005   0.001002  -0.000612  -0.000029   0.000147   0.001014
    37  H    0.000000  -0.000146  -0.000120   0.000070  -0.000136  -0.000132
    38  C    0.000704  -0.021585   0.001833  -0.005676   0.004627   0.027380
    39  H    0.000000   0.000633  -0.000014  -0.000038   0.000027   0.000097
    40  H    0.000000  -0.000199   0.000023  -0.000013  -0.000011  -0.000093
    41  H    0.000000  -0.000491  -0.000039   0.000014  -0.000007   0.000059
    42  C    0.001639   0.037825  -0.022676   0.014856  -0.024640  -0.025402
    43  H    0.000000  -0.000161  -0.000195   0.000078  -0.000169   0.000367
    44  H    0.000000   0.000816   0.000943  -0.000260  -0.000219  -0.000915
    45  H   -0.000005  -0.003105  -0.001467   0.000798   0.000166   0.001365
    46  H    0.000001  -0.012823   0.046964   0.000848  -0.143040   0.012890
    47  H    0.000000  -0.013351  -0.022022   0.098312  -0.190073   0.017615
              7          8          9         10         11         12
     1  H    0.004877  -0.000055  -0.000164  -0.005228  -0.002450  -0.000097
     2  C   -1.274886   0.015194   0.119903   0.163976  -0.091047   0.048475
     3  C    0.464219   0.408024  -0.052124  -0.013590  -0.048788   0.362490
     4  C    0.077014  -0.050634   0.238661  -0.164952  -0.000511   0.051712
     5  C   -1.081727   0.074193   0.279306   0.184555   0.055895  -0.129174
     6  C    0.409433  -0.040900  -0.248296   0.146632  -0.000303   0.011729
     7  C    6.887282  -0.062327  -0.014743  -0.005421   0.398176  -0.036207
     8  H   -0.062327   0.504848   0.002092   0.000037   0.004179  -0.026352
     9  H   -0.014743   0.002092   0.555371   0.005120   0.000016  -0.000158
    10  H   -0.005421   0.000037   0.005120   0.585759   0.000459  -0.000049
    11  H    0.398176   0.004179   0.000016   0.000459   0.533210  -0.004157
    12  H   -0.036207  -0.026352  -0.000158  -0.000049  -0.004157   0.531293
    13  H    0.328432  -0.002956  -0.000014   0.000010  -0.023329  -0.002099
    14  O    0.061296  -0.012030  -0.016816  -0.002217  -0.001318   0.005252
    15  C    0.257632  -0.024367  -0.029486  -0.017923  -0.005290   0.022068
    16  O    0.004441  -0.000348  -0.045816   0.003708  -0.000265  -0.000599
    17  H   -0.001355   0.000000  -0.004213  -0.000141   0.000000  -0.000014
    18  O    0.036480  -0.000528  -0.000294  -0.052344  -0.001088   0.000137
    19  C   -0.010206  -0.000620  -0.007489  -0.006024  -0.000517   0.000274
    20  H    0.001326   0.000000   0.000104  -0.001513   0.000000   0.000000
    21  H   -0.000977   0.000000   0.000015   0.000069   0.000000   0.000000
    22  H    0.001710   0.000000   0.000010   0.010184   0.000000   0.000000
    23  O   -0.070794   0.009294   0.012808   0.014371   0.013148  -0.001780
    24  Si   0.106323   0.011904   0.036709   0.007946  -0.000431  -0.004189
    25  C   -0.032367  -0.001018  -0.009102  -0.001536  -0.000015   0.000109
    26  H    0.000101   0.000000   0.000002   0.000000   0.000000   0.000000
    27  H   -0.000573   0.000000   0.000047   0.000001   0.000000   0.000000
    28  H    0.001649  -0.000001   0.000173   0.000000   0.000000   0.000000
    29  C   -0.015647   0.000691  -0.002192  -0.000224   0.000008   0.000306
    30  C   -0.059161   0.000213  -0.000104  -0.000050   0.000562   0.000129
    31  H    0.000721   0.000000   0.000000   0.000000   0.000000   0.000000
    32  H    0.000143   0.000000   0.000000   0.000001   0.000001   0.000000
    33  H   -0.001381   0.000000  -0.000001  -0.000014   0.000000   0.000000
    34  C    0.015005   0.000208   0.000247   0.000133   0.000338  -0.000294
    35  H   -0.004684   0.000017   0.000000   0.000000   0.000001  -0.000001
    36  H   -0.000625   0.000000   0.000000   0.000000   0.000000   0.000000
    37  H    0.000811   0.000000   0.000000   0.000000   0.000000   0.000000
    38  C   -0.010394   0.000300   0.000332   0.000010   0.000048  -0.000003
    39  H    0.000026   0.000000   0.000000   0.000000   0.000000   0.000000
    40  H   -0.000084   0.000000   0.000000   0.000000   0.000000   0.000000
    41  H    0.000012   0.000000   0.000000   0.000000   0.000000   0.000000
    42  C    0.031554  -0.003035  -0.001413  -0.000107  -0.000208   0.000369
    43  H    0.000003  -0.000001   0.000000   0.000000   0.000000   0.000000
    44  H   -0.000645  -0.000007  -0.000001   0.000000   0.000000   0.000000
    45  H    0.002490   0.000560   0.000006   0.000000   0.000001  -0.000003
    46  H    0.007425   0.000027  -0.000079  -0.000095  -0.000026   0.000731
    47  H    0.003264  -0.000123  -0.000111  -0.000285  -0.000102   0.000164
             13         14         15         16         17         18
     1  H   -0.004720   0.000002  -0.001972  -0.000838   0.000005   0.001152
     2  C   -0.022040  -0.078981  -0.446431   0.163841  -0.021119  -0.136478
     3  C   -0.019355  -0.074816   0.137442   0.056784   0.015602  -0.000104
     4  C   -0.012814  -0.168342  -0.150003   0.077395   0.002369  -0.161505
     5  C    0.044247   0.012874  -2.654242   0.023599  -0.084108   0.072169
     6  C    0.029317   0.158987   0.952282  -0.198134   0.065748   0.271213
     7  C    0.328432   0.061296   0.257632   0.004441  -0.001355   0.036480
     8  H   -0.002956  -0.012030  -0.024367  -0.000348   0.000000  -0.000528
     9  H   -0.000014  -0.016816  -0.029486  -0.045816  -0.004213  -0.000294
    10  H    0.000010  -0.002217  -0.017923   0.003708  -0.000141  -0.052344
    11  H   -0.023329  -0.001318  -0.005290  -0.000265   0.000000  -0.001088
    12  H   -0.002099   0.005252   0.022068  -0.000599  -0.000014   0.000137
    13  H    0.525870  -0.000402  -0.002756   0.000124   0.000000  -0.000666
    14  O   -0.000402   8.360554   0.160065   0.014012   0.030175  -0.001104
    15  C   -0.002756   0.160065   7.051455  -0.035539  -0.000851  -0.007184
    16  O    0.000124   0.014012  -0.035539   8.304121   0.236376   0.017315
    17  H    0.000000   0.030175  -0.000851   0.236376   0.358814   0.000318
    18  O   -0.000666  -0.001104  -0.007184   0.017315   0.000318   8.348150
    19  C    0.000427   0.001456   0.021059  -0.027635   0.002018  -0.030563
    20  H    0.000000   0.000002   0.000294  -0.017838   0.000221  -0.062799
    21  H    0.000000  -0.000005  -0.000222   0.001261  -0.000005  -0.068964
    22  H    0.000000  -0.000005  -0.000910   0.002888  -0.000002  -0.056417
    23  O   -0.009079  -0.002700  -0.015410  -0.006774   0.000347   0.043361
    24  Si  -0.001606  -0.003559  -0.022541  -0.016871   0.001832   0.088401
    25  C   -0.000057   0.000141   0.000982   0.006010  -0.000198  -0.036544
    26  H    0.000000   0.000000   0.000000   0.000002   0.000000   0.000746
    27  H    0.000000   0.000002   0.000109   0.000112   0.000000   0.000427
    28  H    0.000000   0.000002   0.000110  -0.000011   0.000000   0.000016
    29  C   -0.000112   0.000083   0.004664  -0.000414   0.000038   0.009216
    30  C   -0.000119  -0.000252  -0.002464   0.000452  -0.000070  -0.033630
    31  H    0.000000   0.000000  -0.000004   0.000000   0.000000   0.000549
    32  H    0.000006   0.000000  -0.000012  -0.000002   0.000000  -0.000543
    33  H   -0.000002   0.000000   0.000059  -0.000011   0.000000   0.000859
    34  C    0.002398   0.000024  -0.001110   0.000014  -0.000007  -0.003915
    35  H    0.000723   0.000000  -0.000083   0.000000   0.000000  -0.000048
    36  H   -0.000008   0.000000   0.000004   0.000000   0.000000  -0.000011
    37  H   -0.000004   0.000000   0.000001   0.000000   0.000000   0.000002
    38  C    0.000064  -0.000026  -0.000046  -0.000055   0.000003  -0.001306
    39  H    0.000000   0.000000   0.000000   0.000000   0.000000  -0.000002
    40  H    0.000000   0.000000   0.000000   0.000000   0.000000  -0.000004
    41  H    0.000000   0.000000   0.000000   0.000000   0.000000   0.000002
    42  C   -0.002862   0.000384   0.002415   0.000359  -0.000001   0.003173
    43  H   -0.000001   0.000000   0.000002   0.000000   0.000000   0.000004
    44  H    0.000001   0.000000  -0.000007   0.000000   0.000000  -0.000025
    45  H    0.000011  -0.000001  -0.000100  -0.000001   0.000000  -0.000064
    46  H   -0.000018  -0.028382   0.450636   0.000169   0.000187   0.000026
    47  H   -0.000001  -0.029587   0.472398   0.002008  -0.001684  -0.000180
             19         20         21         22         23         24
     1  H   -0.004776   0.000016  -0.000016  -0.000067  -0.049666   0.033640
     2  C    0.055529  -0.033015  -0.003179   0.052011   0.173165  -0.405541
     3  C    0.029017  -0.002596  -0.000133   0.001513   0.011680  -0.011585
     4  C    0.018812   0.006280   0.005172  -0.005772  -0.017436  -0.298035
     5  C   -0.171747  -0.015706   0.002703   0.010555   0.145068   0.265387
     6  C   -0.089744   0.068452  -0.000517  -0.078792  -0.292698   0.042039
     7  C   -0.010206   0.001326  -0.000977   0.001710  -0.070794   0.106323
     8  H   -0.000620   0.000000   0.000000   0.000000   0.009294   0.011904
     9  H   -0.007489   0.000104   0.000015   0.000010   0.012808   0.036709
    10  H   -0.006024  -0.001513   0.000069   0.010184   0.014371   0.007946
    11  H   -0.000517   0.000000   0.000000   0.000000   0.013148  -0.000431
    12  H    0.000274   0.000000   0.000000   0.000000  -0.001780  -0.004189
    13  H    0.000427   0.000000   0.000000   0.000000  -0.009079  -0.001606
    14  O    0.001456   0.000002  -0.000005  -0.000005  -0.002700  -0.003559
    15  C    0.021059   0.000294  -0.000222  -0.000910  -0.015410  -0.022541
    16  O   -0.027635  -0.017838   0.001261   0.002888  -0.006774  -0.016871
    17  H    0.002018   0.000221  -0.000005  -0.000002   0.000347   0.001832
    18  O   -0.030563  -0.062799  -0.068964  -0.056417   0.043361   0.088401
    19  C    5.163287   0.409481   0.426087   0.418544  -0.009465  -0.074705
    20  H    0.409481   0.537331  -0.028886  -0.041530   0.000152   0.004801
    21  H    0.426087  -0.028886   0.533129  -0.027331  -0.000240  -0.001708
    22  H    0.418544  -0.041530  -0.027331   0.573921  -0.000047  -0.003448
    23  O   -0.009465   0.000152  -0.000240  -0.000047   8.381234   0.082060
    24  Si  -0.074705   0.004801  -0.001708  -0.003448   0.082060  13.402833
    25  C    0.016882  -0.001667   0.000832   0.000287  -0.045119   0.119300
    26  H    0.000011   0.000000  -0.000001   0.000000   0.009834  -0.031151
    27  H    0.005322  -0.000029   0.000214  -0.000006  -0.002031  -0.048719
    28  H    0.000160   0.000000  -0.000002   0.000000  -0.010208  -0.019928
    29  C    0.001901   0.000041  -0.000172  -0.000084  -0.031082   0.253761
    30  C    0.018538  -0.000569   0.001384  -0.000285  -0.066385   0.170324
    31  H   -0.000581   0.000000  -0.000003   0.000000   0.009772  -0.029341
    32  H   -0.000320   0.000000  -0.000001   0.000000  -0.004518  -0.017622
    33  H    0.004873  -0.000002   0.000161  -0.000004  -0.004909  -0.058183
    34  C    0.000544  -0.000035   0.000016   0.000053   0.028952  -0.095954
    35  H   -0.000014   0.000000   0.000000   0.000000   0.008520  -0.007479
    36  H   -0.000014   0.000000   0.000000   0.000000  -0.002374  -0.003008
    37  H    0.000004   0.000000   0.000000   0.000000  -0.000930   0.017073
    38  C   -0.000291   0.000005   0.000002  -0.000004   0.016686  -0.055773
    39  H    0.000004   0.000000   0.000000   0.000000   0.000728  -0.014843
    40  H    0.000000   0.000000   0.000000   0.000000   0.000454  -0.010780
    41  H    0.000003   0.000000   0.000000   0.000000  -0.000631   0.019781
    42  C    0.001469   0.000039   0.000023  -0.000031  -0.012871  -0.136681
    43  H    0.000003   0.000000   0.000000   0.000000  -0.000614   0.019202
    44  H    0.000002   0.000000   0.000000   0.000000  -0.003813   0.006759
    45  H   -0.000043   0.000000   0.000000   0.000000   0.007098  -0.023764
    46  H    0.000096   0.000000   0.000000   0.000000  -0.000046   0.000143
    47  H    0.001653   0.000002   0.000000  -0.000001  -0.000125  -0.001130
             25         26         27         28         29         30
     1  H   -0.003263   0.000002   0.000004  -0.000003   0.001799  -0.005921
     2  C    0.120060   0.004780  -0.013927   0.004917  -0.089039   0.119776
     3  C    0.000450  -0.000025   0.000646  -0.000575  -0.022564   0.000879
     4  C    0.029156  -0.000169   0.002566  -0.002916  -0.008048   0.058822
     5  C   -0.015071   0.000028  -0.002079   0.002764   0.006270  -0.012454
     6  C   -0.088499  -0.001985   0.004206  -0.005992   0.129666  -0.116212
     7  C   -0.032367   0.000101  -0.000573   0.001649  -0.015647  -0.059161
     8  H   -0.001018   0.000000   0.000000  -0.000001   0.000691   0.000213
     9  H   -0.009102   0.000002   0.000047   0.000173  -0.002192  -0.000104
    10  H   -0.001536   0.000000   0.000001   0.000000  -0.000224  -0.000050
    11  H   -0.000015   0.000000   0.000000   0.000000   0.000008   0.000562
    12  H    0.000109   0.000000   0.000000   0.000000   0.000306   0.000129
    13  H   -0.000057   0.000000   0.000000   0.000000  -0.000112  -0.000119
    14  O    0.000141   0.000000   0.000002   0.000002   0.000083  -0.000252
    15  C    0.000982   0.000000   0.000109   0.000110   0.004664  -0.002464
    16  O    0.006010   0.000002   0.000112  -0.000011  -0.000414   0.000452
    17  H   -0.000198   0.000000   0.000000   0.000000   0.000038  -0.000070
    18  O   -0.036544   0.000746   0.000427   0.000016   0.009216  -0.033630
    19  C    0.016882   0.000011   0.005322   0.000160   0.001901   0.018538
    20  H   -0.001667   0.000000  -0.000029   0.000000   0.000041  -0.000569
    21  H    0.000832  -0.000001   0.000214  -0.000002  -0.000172   0.001384
    22  H    0.000287   0.000000  -0.000006   0.000000  -0.000084  -0.000285
    23  O   -0.045119   0.009834  -0.002031  -0.010208  -0.031082  -0.066385
    24  Si   0.119300  -0.031151  -0.048719  -0.019928   0.253761   0.170324
    25  C    5.578192   0.396071   0.409387   0.397045  -0.118727   0.031333
    26  H    0.396071   0.499813  -0.021711  -0.022795  -0.017981  -0.010978
    27  H    0.409387  -0.021711   0.473500  -0.021473   0.012419  -0.003803
    28  H    0.397045  -0.022795  -0.021473   0.495883  -0.014191   0.007103
    29  C   -0.118727  -0.017981   0.012419  -0.014191   7.987852  -0.131851
    30  C    0.031333  -0.010978  -0.003803   0.007103  -0.131851   5.555364
    31  H   -0.009033   0.000147   0.000086   0.000023  -0.018868   0.395369
    32  H    0.005077   0.000021   0.000003  -0.000017  -0.016738   0.395124
    33  H   -0.007654   0.000113   0.000406   0.000005   0.014556   0.415431
    34  C   -0.017931   0.000206  -0.001294  -0.002687  -0.289422   0.023474
    35  H   -0.001052   0.000000   0.000000   0.000002  -0.109221  -0.001153
    36  H   -0.000305   0.000001  -0.000001   0.000000  -0.063118   0.001691
    37  H   -0.001515   0.000000   0.000000   0.000000  -0.157704   0.000641
    38  C    0.019983   0.005983  -0.001286  -0.001242  -0.377718   0.009278
    39  H   -0.000258  -0.000004  -0.000006   0.000020  -0.082750   0.004095
    40  H    0.004214  -0.000015   0.000012   0.000026  -0.085730  -0.000806
    41  H   -0.000122   0.000026   0.000000  -0.000007  -0.153599   0.001121
    42  C   -0.019634   0.008790   0.002228   0.011218  -0.287200  -0.029351
    43  H    0.000041  -0.000001   0.000000  -0.000006  -0.162872  -0.001201
    44  H    0.000914   0.000057   0.000003   0.000193  -0.064077  -0.000428
    45  H    0.000290   0.000005  -0.000006   0.000034  -0.093326  -0.000718
    46  H    0.000000   0.000000   0.000000   0.000000  -0.000006  -0.000010
    47  H    0.000053   0.000000   0.000000   0.000000   0.000005   0.000018
             31         32         33         34         35         36
     1  H    0.000064  -0.000087  -0.000286  -0.006421   0.000017   0.000005
     2  C   -0.001595  -0.012940  -0.010889  -0.043542  -0.002255   0.001002
     3  C    0.000025  -0.000075   0.000504   0.039802   0.004931  -0.000612
     4  C    0.000221  -0.000031  -0.000138   0.007627   0.000640  -0.000029
     5  C    0.000019  -0.000210  -0.001262  -0.021188  -0.000890   0.000147
     6  C    0.001459   0.008556   0.011822  -0.004629  -0.000771   0.001014
     7  C    0.000721   0.000143  -0.001381   0.015005  -0.004684  -0.000625
     8  H    0.000000   0.000000   0.000000   0.000208   0.000017   0.000000
     9  H    0.000000   0.000000  -0.000001   0.000247   0.000000   0.000000
    10  H    0.000000   0.000001  -0.000014   0.000133   0.000000   0.000000
    11  H    0.000000   0.000001   0.000000   0.000338   0.000001   0.000000
    12  H    0.000000   0.000000   0.000000  -0.000294  -0.000001   0.000000
    13  H    0.000000   0.000006  -0.000002   0.002398   0.000723  -0.000008
    14  O    0.000000   0.000000   0.000000   0.000024   0.000000   0.000000
    15  C   -0.000004  -0.000012   0.000059  -0.001110  -0.000083   0.000004
    16  O    0.000000  -0.000002  -0.000011   0.000014   0.000000   0.000000
    17  H    0.000000   0.000000   0.000000  -0.000007   0.000000   0.000000
    18  O    0.000549  -0.000543   0.000859  -0.003915  -0.000048  -0.000011
    19  C   -0.000581  -0.000320   0.004873   0.000544  -0.000014  -0.000014
    20  H    0.000000   0.000000  -0.000002  -0.000035   0.000000   0.000000
    21  H   -0.000003  -0.000001   0.000161   0.000016   0.000000   0.000000
    22  H    0.000000   0.000000  -0.000004   0.000053   0.000000   0.000000
    23  O    0.009772  -0.004518  -0.004909   0.028952   0.008520  -0.002374
    24  Si  -0.029341  -0.017622  -0.058183  -0.095954  -0.007479  -0.003008
    25  C   -0.009033   0.005077  -0.007654  -0.017931  -0.001052  -0.000305
    26  H    0.000147   0.000021   0.000113   0.000206   0.000000   0.000001
    27  H    0.000086   0.000003   0.000406  -0.001294   0.000000  -0.000001
    28  H    0.000023  -0.000017   0.000005  -0.002687   0.000002   0.000000
    29  C   -0.018868  -0.016738   0.014556  -0.289422  -0.109221  -0.063118
    30  C    0.395369   0.395124   0.415431   0.023474  -0.001153   0.001691
    31  H    0.490920  -0.021608  -0.020447   0.005795   0.000011   0.000088
    32  H   -0.021608   0.495748  -0.023028   0.009714   0.000045   0.000048
    33  H   -0.020447  -0.023028   0.473581   0.001008  -0.000005   0.000015
    34  C    0.005795   0.009714   0.001008   5.857014   0.475177   0.423278
    35  H    0.000011   0.000045  -0.000005   0.475177   0.527046  -0.026970
    36  H    0.000088   0.000048   0.000015   0.423278  -0.026970   0.536770
    37  H   -0.000002  -0.000002   0.000000   0.455992  -0.027387  -0.028008
    38  C    0.008359   0.004725  -0.000555   0.003523  -0.001150  -0.005282
    39  H    0.000279   0.000005  -0.000004  -0.011630   0.000036   0.002773
    40  H    0.000001   0.000008  -0.000005   0.004370  -0.000146   0.000031
    41  H    0.000011  -0.000005   0.000000   0.006282   0.000018  -0.000332
    42  C    0.001405  -0.004305  -0.000429  -0.275780  -0.007894   0.000357
    43  H    0.000000   0.000000   0.000000   0.002400  -0.000325   0.000039
    44  H    0.000000   0.000000  -0.000001   0.001022   0.000032  -0.000153
    45  H    0.000000   0.000002   0.000000  -0.002961   0.003063   0.000020
    46  H    0.000000   0.000000   0.000000   0.000002   0.000000   0.000000
    47  H    0.000000   0.000000   0.000000  -0.000001   0.000000   0.000000
             37         38         39         40         41         42
     1  H    0.000000   0.000704   0.000000   0.000000   0.000000   0.001639
     2  C   -0.000146  -0.021585   0.000633  -0.000199  -0.000491   0.037825
     3  C   -0.000120   0.001833  -0.000014   0.000023  -0.000039  -0.022676
     4  C    0.000070  -0.005676  -0.000038  -0.000013   0.000014   0.014856
     5  C   -0.000136   0.004627   0.000027  -0.000011  -0.000007  -0.024640
     6  C   -0.000132   0.027380   0.000097  -0.000093   0.000059  -0.025402
     7  C    0.000811  -0.010394   0.000026  -0.000084   0.000012   0.031554
     8  H    0.000000   0.000300   0.000000   0.000000   0.000000  -0.003035
     9  H    0.000000   0.000332   0.000000   0.000000   0.000000  -0.001413
    10  H    0.000000   0.000010   0.000000   0.000000   0.000000  -0.000107
    11  H    0.000000   0.000048   0.000000   0.000000   0.000000  -0.000208
    12  H    0.000000  -0.000003   0.000000   0.000000   0.000000   0.000369
    13  H   -0.000004   0.000064   0.000000   0.000000   0.000000  -0.002862
    14  O    0.000000  -0.000026   0.000000   0.000000   0.000000   0.000384
    15  C    0.000001  -0.000046   0.000000   0.000000   0.000000   0.002415
    16  O    0.000000  -0.000055   0.000000   0.000000   0.000000   0.000359
    17  H    0.000000   0.000003   0.000000   0.000000   0.000000  -0.000001
    18  O    0.000002  -0.001306  -0.000002  -0.000004   0.000002   0.003173
    19  C    0.000004  -0.000291   0.000004   0.000000   0.000003   0.001469
    20  H    0.000000   0.000005   0.000000   0.000000   0.000000   0.000039
    21  H    0.000000   0.000002   0.000000   0.000000   0.000000   0.000023
    22  H    0.000000  -0.000004   0.000000   0.000000   0.000000  -0.000031
    23  O   -0.000930   0.016686   0.000728   0.000454  -0.000631  -0.012871
    24  Si   0.017073  -0.055773  -0.014843  -0.010780   0.019781  -0.136681
    25  C   -0.001515   0.019983  -0.000258   0.004214  -0.000122  -0.019634
    26  H    0.000000   0.005983  -0.000004  -0.000015   0.000026   0.008790
    27  H    0.000000  -0.001286  -0.000006   0.000012   0.000000   0.002228
    28  H    0.000000  -0.001242   0.000020   0.000026  -0.000007   0.011218
    29  C   -0.157704  -0.377718  -0.082750  -0.085730  -0.153599  -0.287200
    30  C    0.000641   0.009278   0.004095  -0.000806   0.001121  -0.029351
    31  H   -0.000002   0.008359   0.000279   0.000001   0.000011   0.001405
    32  H   -0.000002   0.004725   0.000005   0.000008  -0.000005  -0.004305
    33  H    0.000000  -0.000555  -0.000004  -0.000005   0.000000  -0.000429
    34  C    0.455992   0.003523  -0.011630   0.004370   0.006282  -0.275780
    35  H   -0.027387  -0.001150   0.000036  -0.000146   0.000018  -0.007894
    36  H   -0.028008  -0.005282   0.002773   0.000031  -0.000332   0.000357
    37  H    0.544811   0.008604  -0.000316  -0.000002   0.005360   0.016174
    38  C    0.008604   5.665890   0.449309   0.460166   0.449512  -0.122611
    39  H   -0.000316   0.449309   0.535613  -0.027302  -0.028127   0.006294
    40  H   -0.000002   0.460166  -0.027302   0.531630  -0.027710  -0.018989
    41  H    0.005360   0.449512  -0.028127  -0.027710   0.542400   0.017653
    42  C    0.016174  -0.122611   0.006294  -0.018989   0.017653   6.041417
    43  H    0.005616   0.010790  -0.000008  -0.000312   0.005369   0.471626
    44  H    0.000026  -0.003839   0.000033   0.002775  -0.000357   0.415185
    45  H   -0.000310   0.001538  -0.000146   0.000038   0.000011   0.464201
    46  H    0.000000   0.000000   0.000000   0.000000   0.000000   0.000007
    47  H    0.000000   0.000000   0.000000   0.000000   0.000000   0.000004
             43         44         45         46         47
     1  H    0.000000   0.000000  -0.000005   0.000001   0.000000
     2  C   -0.000161   0.000816  -0.003105  -0.012823  -0.013351
     3  C   -0.000195   0.000943  -0.001467   0.046964  -0.022022
     4  C    0.000078  -0.000260   0.000798   0.000848   0.098312
     5  C   -0.000169  -0.000219   0.000166  -0.143040  -0.190073
     6  C    0.000367  -0.000915   0.001365   0.012890   0.017615
     7  C    0.000003  -0.000645   0.002490   0.007425   0.003264
     8  H   -0.000001  -0.000007   0.000560   0.000027  -0.000123
     9  H    0.000000  -0.000001   0.000006  -0.000079  -0.000111
    10  H    0.000000   0.000000   0.000000  -0.000095  -0.000285
    11  H    0.000000   0.000000   0.000001  -0.000026  -0.000102
    12  H    0.000000   0.000000  -0.000003   0.000731   0.000164
    13  H   -0.000001   0.000001   0.000011  -0.000018  -0.000001
    14  O    0.000000   0.000000  -0.000001  -0.028382  -0.029587
    15  C    0.000002  -0.000007  -0.000100   0.450636   0.472398
    16  O    0.000000   0.000000  -0.000001   0.000169   0.002008
    17  H    0.000000   0.000000   0.000000   0.000187  -0.001684
    18  O    0.000004  -0.000025  -0.000064   0.000026  -0.000180
    19  C    0.000003   0.000002  -0.000043   0.000096   0.001653
    20  H    0.000000   0.000000   0.000000   0.000000   0.000002
    21  H    0.000000   0.000000   0.000000   0.000000   0.000000
    22  H    0.000000   0.000000   0.000000   0.000000  -0.000001
    23  O   -0.000614  -0.003813   0.007098  -0.000046  -0.000125
    24  Si   0.019202   0.006759  -0.023764   0.000143  -0.001130
    25  C    0.000041   0.000914   0.000290   0.000000   0.000053
    26  H   -0.000001   0.000057   0.000005   0.000000   0.000000
    27  H    0.000000   0.000003  -0.000006   0.000000   0.000000
    28  H   -0.000006   0.000193   0.000034   0.000000   0.000000
    29  C   -0.162872  -0.064077  -0.093326  -0.000006   0.000005
    30  C   -0.001201  -0.000428  -0.000718  -0.000010   0.000018
    31  H    0.000000   0.000000   0.000000   0.000000   0.000000
    32  H    0.000000   0.000000   0.000002   0.000000   0.000000
    33  H    0.000000  -0.000001   0.000000   0.000000   0.000000
    34  C    0.002400   0.001022  -0.002961   0.000002  -0.000001
    35  H   -0.000325   0.000032   0.003063   0.000000   0.000000
    36  H    0.000039  -0.000153   0.000020   0.000000   0.000000
    37  H    0.005616   0.000026  -0.000310   0.000000   0.000000
    38  C    0.010790  -0.003839   0.001538   0.000000   0.000000
    39  H   -0.000008   0.000033  -0.000146   0.000000   0.000000
    40  H   -0.000312   0.002775   0.000038   0.000000   0.000000
    41  H    0.005369  -0.000357   0.000011   0.000000   0.000000
    42  C    0.471626   0.415185   0.464201   0.000007   0.000004
    43  H    0.545757  -0.028297  -0.027656   0.000000   0.000000
    44  H   -0.028297   0.535860  -0.025976   0.000000   0.000000
    45  H   -0.027656  -0.025976   0.520943   0.000000   0.000000
    46  H    0.000000   0.000000   0.000000   0.522389  -0.031483
    47  H    0.000000   0.000000   0.000000  -0.031483   0.510588
 Mulliken atomic charges:
              1
     1  H    0.151124
     2  C    0.114663
     3  C   -0.178406
     4  C    0.332284
     5  C   -0.368018
     6  C   -0.340180
     7  C   -0.417641
     8  H    0.193524
     9  H    0.181695
    10  H    0.148741
    11  H    0.173804
    12  H    0.169941
    13  H    0.173390
    14  O   -0.384769
    15  C   -0.114725
    16  O   -0.563839
    17  H    0.399713
    18  O   -0.237406
    19  C   -0.162697
    20  H    0.177638
    21  H    0.161296
    22  H    0.143059
    23  O   -0.306985
    24  Si   0.708360
    25  C   -0.726124
    26  H    0.180079
    27  H    0.205242
    28  H    0.180709
    29  C   -0.008601
    30  C   -0.733148
    31  H    0.186159
    32  H    0.182835
    33  H    0.205817
    34  C   -0.585818
    35  H    0.171249
    36  H    0.163567
    37  H    0.161530
    38  C   -0.540812
    39  H    0.165478
    40  H    0.168454
    41  H    0.163791
    42  C   -0.554545
    43  H    0.160521
    44  H    0.164397
    45  H    0.177011
    46  H    0.173468
    47  H    0.184175
 Sum of Mulliken atomic charges =   0.00000
 Mulliken charges with hydrogens summed into heavy atoms:
              1
     2  C    0.265787
     3  C    0.185059
     4  C    0.513979
     5  C   -0.368018
     6  C   -0.191438
     7  C   -0.070447
    14  O   -0.384769
    15  C    0.242918
    16  O   -0.164126
    18  O   -0.237406
    19  C    0.319296
    23  O   -0.306985
    24  Si   0.708360
    25  C   -0.160094
    29  C   -0.008601
    30  C   -0.158337
    34  C   -0.089472
    38  C   -0.043089
    42  C   -0.052617
 Sum of Mulliken charges with hydrogens summed into heavy atoms =   0.00000
 Electronic spatial extent (au):  <R**2>=           6310.0692
 Charge=              0.0000 electrons
 Dipole moment (field-independent basis, Debye):
    X=              0.5098    Y=              0.2566    Z=             -2.9421  Tot=              2.9969
 Quadrupole moment (field-independent basis, Debye-Ang):
   XX=           -124.4896   YY=           -126.1787   ZZ=           -124.4835
   XY=             -0.0071   XZ=             -8.2230   YZ=              2.9643
 Traceless Quadrupole moment (field-independent basis, Debye-Ang):
   XX=              0.5610   YY=             -1.1281   ZZ=              0.5670
   XY=             -0.0071   XZ=             -8.2230   YZ=              2.9643
 Octapole moment (field-independent basis, Debye-Ang**2):
  XXX=             51.2261  YYY=             22.7877  ZZZ=              2.1111  XYY=              9.3109
  XXY=             11.6296  XXZ=            -25.6325  XZZ=             16.9985  YZZ=              3.4506
  YYZ=            -13.5144  XYZ=             12.8429
 Hexadecapole moment (field-independent basis, Debye-Ang**3):
 XXXX=          -5612.9448 YYYY=          -1870.8556 ZZZZ=           -910.3322 XXXY=             -4.8021
 XXXZ=            -66.8965 YYYX=             25.3424 YYYZ=             16.4443 ZZZX=             32.1318
 ZZZY=              2.7248 XXYY=          -1300.8807 XXZZ=          -1099.1626 YYZZ=           -502.9961
 XXYZ=             60.9541 YYXZ=            -47.1064 ZZXY=             15.1915
 N-N= 1.829398061962D+03 E-N=-6.329684434357D+03  KE= 1.131545006379D+03
 1\1\GINC-COMPUTE-8-10\SP\RmPW1PW91\6-31+G(d,p)\C14H28O4Si1\ELUCIANO.IQ
 UIR\06-Dec-2022\0\\# mPW1PW91/6-31+g** scrf=(PCM,solvent=chloroform) n
 mr\\comment\\0,1\H,0,0.070641,0.381984,-2.060039\C,0,0.487612,-0.09774
 4,-1.164102\C,0,1.813252,-2.11324,-0.354255\C,0,2.277551,0.207229,0.59
 9173\C,0,2.847854,-1.150536,0.1869\C,0,1.565253,0.854066,-0.597817\C,0
 ,1.099264,-1.454823,-1.548372\H,0,1.080107,-2.341626,0.427874\H,0,1.52
 6561,0.036159,1.384828\H,0,2.312739,1.034008,-1.388983\H,0,1.810498,-1
 .306156,-2.372497\H,0,2.288929,-3.055424,-0.646615\H,0,0.300562,-2.104
 212,-1.921954\O,0,3.834715,-1.654753,1.106956\C,0,4.25954,-1.252919,-0
 .214449\O,0,3.302214,1.065301,1.08097\H,0,3.789225,0.536487,1.738095\O
 ,0,0.921726,2.075393,-0.271625\C,0,1.743017,3.236314,-0.31448\H,0,2.51
 5802,3.215221,0.458883\H,0,1.077921,4.088943,-0.152534\H,0,2.223732,3.
 34356,-1.299341\O,0,-0.540825,-0.334436,-0.21459\Si,0,-1.961071,0.5308
 67,0.077986\C,0,-1.779556,1.507846,1.681431\H,0,-2.68318,2.085695,1.91
 1052\H,0,-0.939698,2.203353,1.589708\H,0,-1.578226,0.850724,2.535354\C
 ,0,-3.323267,-0.811099,0.250732\C,0,-2.329032,1.702231,-1.359562\H,0,-
 3.262527,2.250368,-1.183919\H,0,-2.431045,1.178207,-2.317099\H,0,-1.52
 2395,2.43569,-1.458355\C,0,-3.47592,-1.581577,-1.077508\H,0,-2.535312,
 -2.05905,-1.3767\H,0,-3.795947,-0.926686,-1.897275\H,0,-4.232405,-2.37
 4073,-0.979391\C,0,-4.67255,-0.152245,0.60917\H,0,-5.001317,0.558468,-
 0.159656\H,0,-4.625903,0.385767,1.563703\H,0,-5.459878,-0.914473,0.703
 256\C,0,-2.936373,-1.809589,1.362451\H,0,-3.699588,-2.596482,1.456318\
 H,0,-2.851502,-1.321816,2.341174\H,0,-1.979221,-2.298447,1.148509\H,0,
 4.572475,-2.072789,-0.860926\H,0,4.881458,-0.361071,-0.24483\\Version=
 EM64L-G09RevC.01\State=1-A\HF=-1140.6254158\RMSD=4.327e-09\Dipole=0.20
 05666,0.1009703,-1.1575014\Quadrupole=0.4170976,-0.8386853,0.4215877,-
 0.005292,-6.1135868,2.203879\PG=C01 [X(C14H28O4Si1)]\\@


 CHEMISTRY BEGAN BY SAYING IT WOULD CHANGE THE BASER
 METALS INTO GOLD.  BY NOT DOING THAT IT HAS DONE MUCH
 GREATER THINGS.  --  RALPH WALDO EMERSON
 Job cpu time:  0 days  3 hours 33 minutes 23.1 seconds.
 File lengths (MBytes):  RWF=    297 Int=      0 D2E=      0 Chk=     16 Scr=      1
 Normal termination of Gaussian 09 at Tue Dec  6 23:37:44 2022.
