 Entering Gaussian System, Link 0=g09
 Input=/home/eluciano.iquir/todos_optB3L_MPW_B_PCM/02_epoxido28_004_optB3L_nmr_MPW_B_PCM.gjc
 Output=/home/eluciano.iquir/todos_optB3L_MPW_B_PCM/02_epoxido28_004_optB3L_nmr_MPW_B_PCM.log
 Initial command:
 /share/apps/Gaussian09/EM64T.SSE4.2-enabled/g09/l1.exe /tmp/Gau-24284.inp -scrdir=/tmp/
 Entering Link 1 = /share/apps/Gaussian09/EM64T.SSE4.2-enabled/g09/l1.exe PID=     24285.
  
 Copyright (c) 1988,1990,1992,1993,1995,1998,2003,2009,2011,
            Gaussian, Inc.  All Rights Reserved.
  
 This is part of the Gaussian(R) 09 program.  It is based on
 the Gaussian(R) 03 system (copyright 2003, Gaussian, Inc.),
 the Gaussian(R) 98 system (copyright 1998, Gaussian, Inc.),
 the Gaussian(R) 94 system (copyright 1995, Gaussian, Inc.),
 the Gaussian 92(TM) system (copyright 1992, Gaussian, Inc.),
 the Gaussian 90(TM) system (copyright 1990, Gaussian, Inc.),
 the Gaussian 88(TM) system (copyright 1988, Gaussian, Inc.),
 the Gaussian 86(TM) system (copyright 1986, Carnegie Mellon
 University), and the Gaussian 82(TM) system (copyright 1983,
 Carnegie Mellon University). Gaussian is a federally registered
 trademark of Gaussian, Inc.
  
 This software contains proprietary and confidential information,
 including trade secrets, belonging to Gaussian, Inc.
  
 This software is provided under written license and may be
 used, copied, transmitted, or stored only in accord with that
 written license.
  
 The following legend is applicable only to US Government
 contracts under FAR:
  
                    RESTRICTED RIGHTS LEGEND
  
 Use, reproduction and disclosure by the US Government is
 subject to restrictions as set forth in subparagraphs (a)
 and (c) of the Commercial Computer Software - Restricted
 Rights clause in FAR 52.227-19.
  
 Gaussian, Inc.
 340 Quinnipiac St., Bldg. 40, Wallingford CT 06492
  
  
 ---------------------------------------------------------------
 Warning -- This program may not be used in any manner that
 competes with the business of Gaussian, Inc. or will provide
 assistance to any competitor of Gaussian, Inc.  The licensee
 of this program is prohibited from giving any competitor of
 Gaussian, Inc. access to this program.  By using this program,
 the user acknowledges that Gaussian, Inc. is engaged in the
 business of creating and licensing software in the field of
 computational chemistry and represents and warrants to the
 licensee that it is not a competitor of Gaussian, Inc. and that
 it will not use this program in any manner prohibited above.
 ---------------------------------------------------------------
  

 Cite this work as:
 Gaussian 09, Revision C.01,
 M. J. Frisch, G. W. Trucks, H. B. Schlegel, G. E. Scuseria, 
 M. A. Robb, J. R. Cheeseman, G. Scalmani, V. Barone, B. Mennucci, 
 G. A. Petersson, H. Nakatsuji, M. Caricato, X. Li, H. P. Hratchian, 
 A. F. Izmaylov, J. Bloino, G. Zheng, J. L. Sonnenberg, M. Hada, 
 M. Ehara, K. Toyota, R. Fukuda, J. Hasegawa, M. Ishida, T. Nakajima, 
 Y. Honda, O. Kitao, H. Nakai, T. Vreven, J. A. Montgomery, Jr., 
 J. E. Peralta, F. Ogliaro, M. Bearpark, J. J. Heyd, E. Brothers, 
 K. N. Kudin, V. N. Staroverov, T. Keith, R. Kobayashi, J. Normand, 
 K. Raghavachari, A. Rendell, J. C. Burant, S. S. Iyengar, J. Tomasi, 
 M. Cossi, N. Rega, J. M. Millam, M. Klene, J. E. Knox, J. B. Cross, 
 V. Bakken, C. Adamo, J. Jaramillo, R. Gomperts, R. E. Stratmann, 
 O. Yazyev, A. J. Austin, R. Cammi, C. Pomelli, J. W. Ochterski, 
 R. L. Martin, K. Morokuma, V. G. Zakrzewski, G. A. Voth, 
 P. Salvador, J. J. Dannenberg, S. Dapprich, A. D. Daniels, 
 O. Farkas, J. B. Foresman, J. V. Ortiz, J. Cioslowski, 
 and D. J. Fox, Gaussian, Inc., Wallingford CT, 2010.
 
 ******************************************
 Gaussian 09:  EM64L-G09RevC.01 23-Sep-2011
                 6-Dec-2022 
 ******************************************
 %nprocshared=4
 Will use up to    4 processors via shared memory.
 %mem=80MW
 -----------------------------------------------------
 # mPW1PW91/6-31+g** scrf=(PCM,solvent=chloroform) nmr
 -----------------------------------------------------
 1/38=1/1;
 2/12=2,17=6,18=5,40=1/2;
 3/5=1,6=6,7=111,11=2,16=1,25=1,30=1,70=2201,72=7,74=-7/1,2,8,3;
 4//1;
 5/5=2,38=5,53=7/2;
 8/6=1,10=90,11=11/1;
 10/13=100,45=16/2;
 6/7=2,8=2,9=2,10=2,28=1/1;
 99/9=1/99;
 -------
 comment
 -------
 Charge =  0 Multiplicity = 1
 Symbolic Z-Matrix:
 1                    -0.21036   1.18372   1.84791 
 6                    -0.5878    0.42211   1.14841 
 6                    -1.95805  -1.71333   1.00133 
 6                    -2.20613   0.0722   -0.79375 
 6                    -2.87592  -1.05394  -0.01651 
 6                    -1.59508   1.08337   0.19072 
 6                    -1.30879  -0.68216   1.94025 
 1                    -1.1712   -2.25283   0.4606 
 1                    -1.39071  -0.36119  -1.39236 
 1                    -2.4197    1.50117   0.79125 
 1                    -2.0743   -0.21782   2.57756 
 1                    -2.52371  -2.45791   1.57144 
 1                    -0.5905   -1.17387   2.6054 
 8                    -3.68643  -1.95146  -0.78053 
 6                    -4.33904  -1.07122   0.1507 
 8                    -3.14304   0.7245   -1.63231 
 1                    -2.67232   1.50746  -1.96457 
 8                    -1.02457   2.1235   -0.60253 
 6                    -1.04913   3.40466   0.00331 
 1                    -2.07825   3.72017   0.23266 
 1                    -0.61175   4.10328  -0.71455 
 1                    -0.45762   3.4386    0.92894 
 8                     0.48057  -0.14383   0.40078 
 14                    2.12213   0.20348   0.52836 
 6                     2.43108   2.05686   0.3168 
 1                     3.50512   2.27914   0.31175 
 1                     1.98864   2.6303    1.14059 
 1                     1.99944   2.43013  -0.61749 
 6                     2.93646  -0.8189   -0.86544 
 6                     2.74589  -0.31578   2.23939 
 1                     3.80983  -0.08135   2.36678 
 1                     2.61722  -1.39029   2.41227 
 1                     2.20259   0.21258   3.03319 
 6                     2.58751  -2.31346  -0.69685 
 1                     2.95795  -2.71795   0.25329 
 1                     3.04537  -2.9048   -1.50309 
 1                     1.50568  -2.48119  -0.73408 
 6                     4.47084  -0.64979  -0.81099 
 1                     4.89134  -0.99801   0.14061 
 1                     4.77728   0.39448  -0.9506 
 1                     4.94659  -1.23607  -1.61023 
 6                     2.42339  -0.33673  -2.23947 
 1                     1.33558  -0.43589  -2.32276 
 1                     2.87579  -0.93226  -3.04574 
 1                     2.67901   0.71322  -2.42705 
 1                    -4.77136  -1.55878   1.02615 
 1                    -4.93919  -0.28772  -0.30576 
 
                          Input orientation:                          
 ---------------------------------------------------------------------
 Center     Atomic      Atomic             Coordinates (Angstroms)
 Number     Number       Type             X           Y           Z
 ---------------------------------------------------------------------
      1          1           0       -0.210357    1.183716    1.847912
      2          6           0       -0.587796    0.422113    1.148410
      3          6           0       -1.958049   -1.713326    1.001330
      4          6           0       -2.206125    0.072196   -0.793748
      5          6           0       -2.875917   -1.053935   -0.016510
      6          6           0       -1.595077    1.083369    0.190724
      7          6           0       -1.308788   -0.682164    1.940254
      8          1           0       -1.171202   -2.252834    0.460599
      9          1           0       -1.390709   -0.361185   -1.392358
     10          1           0       -2.419702    1.501167    0.791252
     11          1           0       -2.074295   -0.217820    2.577563
     12          1           0       -2.523706   -2.457913    1.571439
     13          1           0       -0.590495   -1.173870    2.605396
     14          8           0       -3.686430   -1.951460   -0.780525
     15          6           0       -4.339042   -1.071216    0.150701
     16          8           0       -3.143042    0.724501   -1.632309
     17          1           0       -2.672316    1.507459   -1.964568
     18          8           0       -1.024570    2.123504   -0.602532
     19          6           0       -1.049131    3.404657    0.003314
     20          1           0       -2.078250    3.720166    0.232655
     21          1           0       -0.611753    4.103275   -0.714554
     22          1           0       -0.457615    3.438596    0.928941
     23          8           0        0.480570   -0.143831    0.400780
     24         14           0        2.122130    0.203475    0.528358
     25          6           0        2.431081    2.056859    0.316804
     26          1           0        3.505119    2.279139    0.311753
     27          1           0        1.988639    2.630296    1.140594
     28          1           0        1.999436    2.430131   -0.617490
     29          6           0        2.936461   -0.818902   -0.865439
     30          6           0        2.745891   -0.315783    2.239387
     31          1           0        3.809832   -0.081346    2.366781
     32          1           0        2.617223   -1.390289    2.412273
     33          1           0        2.202593    0.212580    3.033185
     34          6           0        2.587514   -2.313459   -0.696845
     35          1           0        2.957948   -2.717951    0.253292
     36          1           0        3.045375   -2.904804   -1.503089
     37          1           0        1.505677   -2.481190   -0.734079
     38          6           0        4.470835   -0.649791   -0.810985
     39          1           0        4.891335   -0.998011    0.140606
     40          1           0        4.777277    0.394480   -0.950596
     41          1           0        4.946593   -1.236071   -1.610226
     42          6           0        2.423387   -0.336727   -2.239470
     43          1           0        1.335584   -0.435892   -2.322756
     44          1           0        2.875794   -0.932259   -3.045741
     45          1           0        2.679014    0.713219   -2.427049
     46          1           0       -4.771362   -1.558784    1.026147
     47          1           0       -4.939190   -0.287723   -0.305762
 ---------------------------------------------------------------------
                    Distance matrix (angstroms):
                    1          2          3          4          5
     1  H    0.000000
     2  C    1.100819   0.000000
     3  C    3.487690   2.541520   0.000000
     4  C    3.492411   2.552138   2.544000   0.000000
     5  C    3.948210   2.961630   1.520946   1.523447   0.000000
     6  C    2.161895   1.539168   2.934337   1.537867   2.500313
     7  C    2.167161   1.538270   1.538315   2.974734   2.534370
     8  H    3.828542   2.822904   1.096625   2.837290   2.138000
     9  H    3.778796   2.777360   2.807116   1.100480   2.139790
    10  H    2.469516   2.155875   3.254262   2.144714   2.718301
    11  H    2.443555   2.159091   2.175905   3.386329   2.840933
    12  H    4.323133   3.495891   1.095172   3.477991   2.148671
    13  H    2.505294   2.161013   2.175832   3.964482   3.480220
    14  O    5.368528   4.353869   2.493795   2.507322   1.430455
    15  C    5.001128   4.159002   2.608640   2.597828   1.472750
    16  O    4.574217   3.788551   3.779320   1.416510   2.417643
    17  H    4.549841   3.900491   4.436235   1.910009   3.224457
    18  O    2.747876   2.480182   4.262044   2.374974   3.723846
    19  C    3.006437   3.227947   5.293007   3.616523   4.818359
    20  H    3.540008   3.733258   5.488911   3.791773   4.846689
    21  H    3.905275   4.125792   6.212054   4.335654   5.675431
    22  H    2.447474   3.027257   5.366455   4.166245   5.188921
    23  O    2.081815   1.421495   2.961560   2.948202   3.502631
    24  Si   2.853523   2.788542   4.532735   4.527581   5.182512
    25  C    3.175510   3.532362   5.826434   5.164871   6.160549
    26  H    4.167073   4.571706   6.801581   6.221820   7.206578
    27  H    2.725523   3.393251   5.870502   5.280303   6.210986
    28  H    3.537646   3.720794   5.954032   4.824694   6.022372
    29  C    4.612506   4.244537   5.314231   5.219711   5.878746
    30  C    3.337836   3.584437   5.060925   5.820043   6.102349
    31  H    4.246354   4.590973   6.147867   6.797371   7.164164
    32  H    3.865128   3.892852   4.798773   5.973451   6.015539
    33  H    2.858375   3.373804   5.014827   5.839685   6.057719
    34  C    5.151126   4.579401   4.889387   5.355345   5.647861
    35  H    5.272947   4.820118   5.073052   5.962287   6.072538
    36  H    6.208462   5.594529   5.720663   6.078153   6.379446
    37  H    4.800311   4.044201   3.949514   4.505643   4.663725
    38  C    5.687270   5.529734   6.763589   6.715903   7.400628
    39  H    5.805350   5.749200   6.940215   7.238252   7.769042
    40  H    5.773304   5.761128   7.322396   6.992594   7.844858
    41  H    6.663949   6.402274   7.397437   7.317074   7.985284
    42  C    5.094610   4.595736   5.620924   4.867208   5.791249
    43  H    4.733660   4.060118   4.850712   3.890980   4.841228
    44  H    6.160318   5.605505   6.352550   5.648566   6.501786
    45  H    5.181228   4.851876   6.256537   5.190681   6.307994
    46  H    5.385106   4.630456   2.817664   3.542958   2.221422
    47  H    5.400491   4.642533   3.553595   2.799521   2.219875
                    6          7          8          9         10
     6  C    0.000000
     7  C    2.501984   0.000000
     8  H    3.373834   2.162247   0.000000
     9  H    2.152824   3.349036   2.657060   0.000000
    10  H    1.102359   2.705785   3.969963   3.048825   0.000000
    11  H    2.760388   1.098990   3.072197   4.030895   2.503024
    12  H    3.912723   2.182965   1.762183   3.803162   4.036561
    13  H    3.454700   1.095506   2.470129   4.157263   3.713885
    14  O    3.811465   3.829743   2.820920   2.858959   3.999464
    15  C    3.489009   3.540664   3.395213   3.402623   3.272816
    16  O    2.418353   4.255162   4.139196   2.075322   2.645766
    17  H    2.446544   4.679882   4.719595   2.337043   2.767381
    18  O    1.427100   3.797145   4.506005   2.632786   2.067929
    19  C    2.391978   4.530040   5.677254   4.030650   2.474386
    20  H    2.681028   4.784190   6.045777   4.446437   2.313564
    21  H    3.302467   5.516728   6.487996   4.582313   3.508147
    22  H    2.717697   4.327576   5.755078   4.549443   2.760865
    23  O    2.420424   2.421071   2.679519   2.600821   3.357092
    24  Si   3.834819   3.814316   4.109024   4.043270   4.730894
    25  C    4.144095   4.911665   5.618770   4.834692   4.905506
    26  H    5.239896   5.881754   6.513748   5.817597   5.994886
    27  H    4.017245   4.741822   5.855933   5.175403   4.564038
    28  H    3.922691   5.212752   5.757203   4.459254   4.730360
    29  C    5.026823   5.090457   4.548344   4.383098   6.067605
    30  C    4.999865   4.082173   4.718037   5.504824   5.664076
    31  H    5.941786   5.171381   5.758436   6.423010   6.617683
    32  H    5.366352   4.017189   4.348009   5.621191   6.029829
    33  H    4.822878   3.784820   4.907031   5.729438   5.296445
    34  C    5.460795   4.979617   3.933357   4.485685   6.468231
    35  H    5.931609   5.019493   4.160431   5.212804   6.856346
    36  H    6.348883   5.979588   4.696877   5.114792   7.385367
    37  H    4.814148   4.278991   2.940252   3.649220   5.796068
    38  C    6.387688   6.401125   6.001604   5.897371   7.394138
    39  H    6.812356   6.463746   6.199301   6.497661   7.753741
    40  H    6.510305   6.823222   6.662143   6.229786   7.487009
    41  H    7.170542   7.214050   6.538313   6.401116   8.217169
    42  C    4.906177   5.614138   4.887014   3.907112   6.001553
    43  H    4.149037   5.022610   4.163210   2.881648   5.248944
    44  H    5.875896   6.514094   5.515117   4.611166   6.977561
    45  H    5.025694   6.076429   5.653330   4.334464   6.080726
    46  H    4.215174   3.686933   3.709812   4.325763   3.866365
    47  H    3.648216   4.287189   4.318183   3.711847   3.278931
                   11         12         13         14         15
    11  H    0.000000
    12  H    2.496452   0.000000
    13  H    1.765352   2.540696   0.000000
    14  O    4.108679   2.672107   4.653377   0.000000
    15  C    3.427393   2.690143   4.481927   1.438024   0.000000
    16  O    4.444458   4.557997   5.298816   2.860345   2.798953
    17  H    4.895423   5.315036   5.692809   3.794009   3.728526
    18  O    4.086163   5.288000   4.620811   4.870576   4.664689
    19  C    4.560708   6.245247   5.286217   6.021440   5.556859
    20  H    4.583268   6.337147   5.638697   5.981648   5.298607
    21  H    5.625738   7.206283   6.234643   6.791009   6.435581
    22  H    4.324464   6.280952   4.909481   6.511545   6.000795
    23  O    3.357260   3.968765   2.658664   4.693282   4.914391
    24  Si   4.688999   5.454796   3.683680   6.332163   6.596530
    25  C    5.530245   6.819618   4.980480   7.395586   7.459692
    26  H    6.519092   7.770019   5.827360   8.414833   8.531218
    27  H    5.165663   6.814452   4.823822   7.542519   7.397339
    28  H    5.815092   7.010221   5.484848   7.180111   7.281885
    29  C    6.109275   6.199851   4.961060   6.719567   7.350452
    30  C    4.833027   5.727436   3.464354   7.291780   7.424929
    31  H    5.889483   6.811339   4.540201   8.342470   8.502647
    32  H    4.838631   5.317516   3.220806   7.088365   7.321621
    33  H    4.322569   5.621934   3.147473   7.342210   7.262908
    34  C    6.070084   5.593796   4.722626   6.284936   7.087925
    35  H    6.080819   5.643905   4.528579   6.767869   7.481198
    36  H    7.076908   6.377076   5.752854   6.837263   7.786314
    37  H    5.376432   4.642401   4.153928   5.219267   6.077138
    38  C    7.382925   7.607158   6.128897   8.260523   8.872225
    39  H    7.420745   7.691647   6.013034   8.679608   9.230673
    40  H    7.730903   8.234146   6.627049   8.784458   9.298838
    41  H    8.238160   8.211045   6.959503   8.702257   9.452569
    42  C    6.591441   6.595164   5.766890   6.485811   7.209912
    43  H    5.973940   5.843581   5.342385   5.467728   6.222781
    44  H    7.525646   7.266400   6.633919   7.016606   7.892427
    45  H    6.964691   7.287817   6.290969   7.094394   7.686489
    46  H    3.388104   2.481478   4.485737   2.143673   1.091343
    47  H    4.065227   3.750756   5.307659   2.136078   1.087381
                   16         17         18         19         20
    16  O    0.000000
    17  H    0.972112   0.000000
    18  O    2.739630   2.224797   0.000000
    19  C    3.773985   3.179096   1.417394   0.000000
    20  H    3.685903   3.174394   2.087369   1.100559   0.000000
    21  H    4.320395   3.542134   2.025453   1.093024   1.787342
    22  H    4.597590   4.123904   2.096739   1.099012   1.786212
    23  O    4.244763   4.273444   2.900498   3.884550   4.637488
    24  Si   5.715067   5.558936   3.855794   4.536533   5.486141
    25  C    6.053517   5.617042   3.576471   3.745225   4.807051
    26  H    7.098896   6.628562   4.623659   4.701395   5.766873
    27  H    6.136383   5.712031   3.517777   3.334829   4.307175
    28  H    5.512178   4.948859   3.039549   3.260193   4.360557
    29  C    6.319062   6.170771   4.941320   5.871808   6.852465
    30  C    7.124026   7.096085   5.314414   5.765751   6.602136
    31  H    8.061301   7.956326   6.086840   6.430219   7.326356
    32  H    7.349261   7.452040   5.890539   6.498980   7.274266
    33  H    7.113699   7.100633   5.223471   5.472036   6.202560
    34  C    6.553134   6.623620   5.722123   6.812654   7.683616
    35  H    7.254519   7.380574   6.327130   7.321578   8.173926
    36  H    7.175309   7.236920   6.531412   7.670953   8.553044
    37  H    5.717855   5.905849   5.255727   6.458637   7.227442
    38  C    7.780384   7.550436   6.159066   6.897221   7.942054
    39  H    8.406039   8.241235   6.730085   7.395368   8.416934
    40  H    7.956450   7.600217   6.064000   6.627076   7.710935
    41  H    8.323853   8.105572   6.925098   7.751682   8.792549
    42  C    5.699121   5.426120   4.541003   5.575519   6.544809
    43  H    4.677747   4.468576   3.883298   5.084022   5.954595
    44  H    6.400705   6.156516   5.524473   6.596258   7.545561
    45  H    5.876059   5.429681   4.362832   5.200920   6.224734
    46  H    3.864221   4.769928   5.500026   6.287840   5.979113
    47  H    2.451626   3.333622   4.607205   5.372314   4.953589
                   21         22         23         24         25
    21  H    0.000000
    22  H    1.779503   0.000000
    23  O    4.524936   3.740712   0.000000
    24  Si   4.922132   4.157109   1.682741   0.000000
    25  C    3.809246   3.260134   2.941867   1.890830   0.000000
    26  H    4.618378   4.174748   3.876417   2.503589   1.096810
    27  H    3.517567   2.585015   3.243051   2.506414   1.096912
    28  H    3.102763   3.073361   3.157389   2.507193   1.094785
    29  C    6.069631   5.732874   2.844368   1.910775   3.150097
    30  C    6.287099   5.106377   2.922623   1.893760   3.069994
    31  H    6.823202   5.715635   3.866917   2.511824   3.267305
    32  H    7.098069   5.913800   3.188267   2.516811   4.038374
    33  H    6.091272   4.680997   3.165746   2.506136   3.291246
    34  C    7.170084   6.708363   3.217340   2.837721   4.489057
    35  H    7.759421   7.072881   3.575647   3.051063   4.804210
    36  H    7.944152   7.643588   4.222075   3.826298   5.320476
    37  H    6.916579   6.454767   2.793205   3.030047   4.749170
    38  C    6.959428   6.635651   4.200784   2.835193   3.571898
    39  H    7.552377   6.994013   4.500240   3.043422   3.926338
    40  H    6.546184   6.340615   4.536264   3.045258   3.142363
    41  H    7.759256   7.583228   5.018216   3.824059   4.569971
    42  C    5.590265   5.708946   3.283697   2.836097   3.501978
    43  H    5.194466   5.366633   2.869494   3.025937   3.792255
    44  H    6.553932   6.783368   4.270506   3.825191   4.520985
    45  H    5.025362   5.341235   3.682975   3.050310   3.065219
    46  H    7.238183   6.602399   5.475031   7.132572   8.090193
    47  H    6.178567   5.957723   5.467514   7.127361   7.759223
                   26         27         28         29         30
    26  H    0.000000
    27  H    1.763519   0.000000
    28  H    1.775774   1.769475   0.000000
    29  C    3.362590   4.101159   3.390532   0.000000
    30  C    3.320515   3.234217   4.032243   3.151093   0.000000
    31  H    3.144500   3.489023   4.300107   3.428412   1.096887
    32  H    4.320329   4.263495   4.914950   3.342423   1.095905
    33  H    3.656970   3.077828   4.276241   4.098998   1.097477
    34  C    4.790744   5.308064   4.780563   1.543985   3.554891
    35  H    5.027298   5.507323   5.308461   2.204180   3.124092
    36  H    5.511650   6.224394   5.508158   2.183906   4.560575
    37  H    5.268042   5.465797   4.937455   2.197180   3.881832
    38  C    3.282039   4.552903   3.953628   1.544625   3.520194
    39  H    3.562387   4.752918   4.548620   2.205842   3.077864
    40  H    2.600740   4.141069   3.459947   2.206389   3.847986
    41  H    4.257764   5.591538   4.807525   2.183888   4.528746
    42  C    3.810727   4.518525   3.235129   1.543923   4.490502
    43  H    4.361068   4.671486   3.400400   2.198471   4.776666
    44  H    4.688485   5.568145   4.239112   2.184090   5.322546
    45  H    3.261225   4.108513   2.585366   2.202794   4.779011
    46  H    9.150964   7.953559   8.028492   7.970951   7.715316
    47  H    8.847398   7.655168   7.458447   7.913360   8.095619
                   31         32         33         34         35
    31  H    0.000000
    32  H    1.771360   0.000000
    33  H    1.764569   1.768230   0.000000
    34  C    3.982737   3.243415   4.521301   0.000000
    35  H    3.484857   2.557338   4.109304   1.097085   0.000000
    36  H    4.851000   4.219849   5.568316   1.099707   1.768455
    37  H    4.547935   3.510717   4.683414   1.095396   1.772018
    38  C    3.295186   3.791254   4.546015   2.515495   2.774671
    39  H    2.639276   3.238200   4.130603   2.781963   2.590150
    40  H    3.488173   4.377228   4.746851   3.491760   3.800859
    41  H    4.294438   4.650833   5.584746   2.749597   3.102157
    42  C    4.817157   4.773497   5.305787   2.512787   3.488531
    43  H    5.314072   4.997397   5.464277   2.781398   3.804718
    44  H    5.558046   5.483299   6.222314   2.740097   3.752208
    45  H    4.989077   5.277083   5.503796   3.487515   4.362907
    46  H    8.810052   7.519370   7.470072   7.595478   7.853866
    47  H    9.150435   8.105723   7.899616   7.804347   8.281506
                   36         37         38         39         40
    36  H    0.000000
    37  H    1.772426   0.000000
    38  C    2.756089   3.485986   0.000000
    39  H    3.121724   3.798365   1.097088   0.000000
    40  H    3.766963   4.361161   1.097224   1.772784   0.000000
    41  H    2.531951   3.762693   1.099480   1.767806   1.767053
    42  C    2.743018   2.776169   2.516073   3.491823   2.781485
    43  H    3.112999   2.595394   3.487263   4.362052   3.797050
    44  H    2.509874   3.101643   2.760087   3.770880   3.124981
    45  H    3.752068   3.800936   2.771296   3.796778   2.585385
    46  H    8.325274   6.584106   9.466759   9.719381   9.944811
    47  H    8.487401   6.821368   9.430531   9.866254   9.761708
                   41         42         43         44         45
    41  H    0.000000
    42  C    2.751606   0.000000
    43  H    3.766613   1.095484   0.000000
    44  H    2.537955   1.099729   1.772381   0.000000
    45  H    3.099814   1.096776   1.770914   1.768926   0.000000
    46  H   10.074386   7.995129   7.054844   8.686300   8.520250
    47  H   10.016471   7.612435   6.592648   8.306436   7.971121
                   46         47
    46  H    0.000000
    47  H    1.848714   0.000000
 Stoichiometry    C14H28O4Si
 Framework group  C1[X(C14H28O4Si)]
 Deg. of freedom   135
 Full point group                 C1      NOp   1
 Largest Abelian subgroup         C1      NOp   1
 Largest concise Abelian subgroup C1      NOp   1
                         Standard orientation:                         
 ---------------------------------------------------------------------
 Center     Atomic      Atomic             Coordinates (Angstroms)
 Number     Number       Type             X           Y           Z
 ---------------------------------------------------------------------
      1          1           0       -0.210357    1.183716    1.847912
      2          6           0       -0.587796    0.422113    1.148410
      3          6           0       -1.958049   -1.713326    1.001330
      4          6           0       -2.206125    0.072196   -0.793748
      5          6           0       -2.875917   -1.053935   -0.016510
      6          6           0       -1.595077    1.083369    0.190724
      7          6           0       -1.308788   -0.682164    1.940254
      8          1           0       -1.171202   -2.252834    0.460599
      9          1           0       -1.390709   -0.361185   -1.392358
     10          1           0       -2.419702    1.501167    0.791252
     11          1           0       -2.074295   -0.217820    2.577563
     12          1           0       -2.523706   -2.457913    1.571439
     13          1           0       -0.590495   -1.173870    2.605396
     14          8           0       -3.686430   -1.951460   -0.780525
     15          6           0       -4.339042   -1.071216    0.150701
     16          8           0       -3.143042    0.724501   -1.632309
     17          1           0       -2.672316    1.507459   -1.964568
     18          8           0       -1.024570    2.123504   -0.602532
     19          6           0       -1.049131    3.404657    0.003314
     20          1           0       -2.078250    3.720166    0.232655
     21          1           0       -0.611753    4.103275   -0.714554
     22          1           0       -0.457615    3.438596    0.928941
     23          8           0        0.480570   -0.143831    0.400780
     24         14           0        2.122130    0.203475    0.528358
     25          6           0        2.431081    2.056859    0.316804
     26          1           0        3.505119    2.279139    0.311753
     27          1           0        1.988639    2.630296    1.140594
     28          1           0        1.999436    2.430131   -0.617490
     29          6           0        2.936461   -0.818902   -0.865439
     30          6           0        2.745891   -0.315783    2.239387
     31          1           0        3.809832   -0.081346    2.366781
     32          1           0        2.617223   -1.390289    2.412273
     33          1           0        2.202593    0.212580    3.033185
     34          6           0        2.587514   -2.313459   -0.696845
     35          1           0        2.957948   -2.717951    0.253292
     36          1           0        3.045375   -2.904804   -1.503089
     37          1           0        1.505677   -2.481190   -0.734079
     38          6           0        4.470835   -0.649791   -0.810985
     39          1           0        4.891335   -0.998011    0.140606
     40          1           0        4.777277    0.394480   -0.950596
     41          1           0        4.946593   -1.236071   -1.610226
     42          6           0        2.423387   -0.336727   -2.239470
     43          1           0        1.335584   -0.435892   -2.322756
     44          1           0        2.875794   -0.932259   -3.045741
     45          1           0        2.679014    0.713219   -2.427049
     46          1           0       -4.771362   -1.558784    1.026147
     47          1           0       -4.939190   -0.287723   -0.305762
 ---------------------------------------------------------------------
 Rotational constants (GHZ):      0.5158952      0.2213290      0.2006686
 Standard basis: 6-31+G(d,p) (6D, 7F)
 There are   505 symmetry adapted basis functions of A   symmetry.
 Integral buffers will be    131072 words long.
 Raffenetti 2 integral format.
 Two-electron integral symmetry is turned on.
   505 basis functions,   828 primitive gaussians,   505 cartesian basis functions
    79 alpha electrons       79 beta electrons
       nuclear repulsion energy      1826.8880346857 Hartrees.
 NAtoms=   47 NActive=   47 NUniq=   47 SFac= 1.00D+00 NAtFMM=   60 NAOKFM=F Big=F
 ------------------------------------------------------------------------------
 Polarizable Continuum Model (PCM)
 =================================
 Model                : PCM.
 Atomic radii         : UFF (Universal Force Field).
 Polarization charges : Total charges.
 Charge compensation  : None.
 Solution method      : Matrix inversion.
 Cavity type          : Scaled VdW (van der Waals Surface) (Alpha=1.100).
 Cavity algorithm     : GePol (No added spheres)
                        Default sphere list used, NSphG=   47.
                        Lebedev-Laikov grids with approx.  5.0 points / Ang**2.
                        Smoothing algorithm: Karplus/York (Gamma=1.0000).
                        Polarization charges: spherical gaussians, with
                                              point-specific exponents (IZeta= 3).
                        Self-potential: point-specific (ISelfS= 7).
                        Self-field    : sphere-specific E.n sum rule (ISelfD= 2).
 Solvent              : Chloroform, Eps=   4.711300 Eps(inf)=   2.090627
 ------------------------------------------------------------------------------
 One-electron integrals computed using PRISM.
 NBasis=   505 RedAO= T  NBF=   505
 NBsUse=   505 1.00D-06 NBFU=   505
 Harris functional with IExCor=  908 diagonalized for initial guess.
 ExpMin= 3.31D-02 ExpMax= 1.61D+04 ExpMxC= 2.43D+03 IAcc=3 IRadAn=         5 AccDes= 0.00D+00
 HarFok:  IExCor=  908 AccDes= 0.00D+00 IRadAn=         5 IDoV= 1
 ScaDFX=  1.000000  1.000000  1.000000  1.000000
 FoFCou: FMM=F IPFlag=           0 FMFlag=      100000 FMFlg1=           0
         NFxFlg=           0 DoJE=T BraDBF=F KetDBF=T FulRan=T
         Omega=  0.000000  0.000000  1.000000  0.000000  0.000000 ICntrl=     500 IOpCl=  0
         NMat0=    1 NMatS0=    1 NMatT0=    0 NMatD0=    1 NMtDS0=    0 NMtDT0=    0
         I1Cent=           4 NGrid=           0.
 Petite list used in FoFCou.
 Initial guess orbital symmetries:
       Occupied  (A) (A) (A) (A) (A) (A) (A) (A) (A) (A) (A) (A)
                 (A) (A) (A) (A) (A) (A) (A) (A) (A) (A) (A) (A)
                 (A) (A) (A) (A) (A) (A) (A) (A) (A) (A) (A) (A)
                 (A) (A) (A) (A) (A) (A) (A) (A) (A) (A) (A) (A)
                 (A) (A) (A) (A) (A) (A) (A) (A) (A) (A) (A) (A)
                 (A) (A) (A) (A) (A) (A) (A) (A) (A) (A) (A) (A)
                 (A) (A) (A) (A) (A) (A) (A)
       Virtual   (A) (A) (A) (A) (A) (A) (A) (A) (A) (A) (A) (A)
                 (A) (A) (A) (A) (A) (A) (A) (A) (A) (A) (A) (A)
                 (A) (A) (A) (A) (A) (A) (A) (A) (A) (A) (A) (A)
                 (A) (A) (A) (A) (A) (A) (A) (A) (A) (A) (A) (A)
                 (A) (A) (A) (A) (A) (A) (A) (A) (A) (A) (A) (A)
                 (A) (A) (A) (A) (A) (A) (A) (A) (A) (A) (A) (A)
                 (A) (A) (A) (A) (A) (A) (A) (A) (A) (A) (A) (A)
                 (A) (A) (A) (A) (A) (A) (A) (A) (A) (A) (A) (A)
                 (A) (A) (A) (A) (A) (A) (A) (A) (A) (A) (A) (A)
                 (A) (A) (A) (A) (A) (A) (A) (A) (A) (A) (A) (A)
                 (A) (A) (A) (A) (A) (A) (A) (A) (A) (A) (A) (A)
                 (A) (A) (A) (A) (A) (A) (A) (A) (A) (A) (A) (A)
                 (A) (A) (A) (A) (A) (A) (A) (A) (A) (A) (A) (A)
                 (A) (A) (A) (A) (A) (A) (A) (A) (A) (A) (A) (A)
                 (A) (A) (A) (A) (A) (A) (A) (A) (A) (A) (A) (A)
                 (A) (A) (A) (A) (A) (A) (A) (A) (A) (A) (A) (A)
                 (A) (A) (A) (A) (A) (A) (A) (A) (A) (A) (A) (A)
                 (A) (A) (A) (A) (A) (A) (A) (A) (A) (A) (A) (A)
                 (A) (A) (A) (A) (A) (A) (A) (A) (A) (A) (A) (A)
                 (A) (A) (A) (A) (A) (A) (A) (A) (A) (A) (A) (A)
                 (A) (A) (A) (A) (A) (A) (A) (A) (A) (A) (A) (A)
                 (A) (A) (A) (A) (A) (A) (A) (A) (A) (A) (A) (A)
                 (A) (A) (A) (A) (A) (A) (A) (A) (A) (A) (A) (A)
                 (A) (A) (A) (A) (A) (A) (A) (A) (A) (A) (A) (A)
                 (A) (A) (A) (A) (A) (A) (A) (A) (A) (A) (A) (A)
                 (A) (A) (A) (A) (A) (A) (A) (A) (A) (A) (A) (A)
                 (A) (A) (A) (A) (A) (A) (A) (A) (A) (A) (A) (A)
                 (A) (A) (A) (A) (A) (A) (A) (A) (A) (A) (A) (A)
                 (A) (A) (A) (A) (A) (A) (A) (A) (A) (A) (A) (A)
                 (A) (A) (A) (A) (A) (A) (A) (A) (A) (A) (A) (A)
                 (A) (A) (A) (A) (A) (A) (A) (A) (A) (A) (A) (A)
                 (A) (A) (A) (A) (A) (A) (A) (A) (A) (A) (A) (A)
                 (A) (A) (A) (A) (A) (A) (A) (A) (A) (A) (A) (A)
                 (A) (A) (A) (A) (A) (A) (A) (A) (A) (A) (A) (A)
                 (A) (A) (A) (A) (A) (A) (A) (A) (A) (A) (A) (A)
                 (A) (A) (A) (A) (A) (A)
 The electronic state of the initial guess is 1-A.
 Requested convergence on RMS density matrix=1.00D-08 within 128 cycles.
 Requested convergence on MAX density matrix=1.00D-06.
 Requested convergence on             energy=1.00D-06.
 No special actions if energy rises.
 Error on total polarization charges =  0.01534
 SCF Done:  E(RmPW1PW91) =  -1140.62603810     A.U. after   13 cycles
             Convg  =    0.4924D-08             -V/T =  2.0080
 Range of M.O.s used for correlation:     1   505
 NBasis=   505 NAE=    79 NBE=    79 NFC=     0 NFV=     0
 NROrb=    505 NOA=    79 NOB=    79 NVA=   426 NVB=   426

 **** Warning!!: The largest alpha MO coefficient is  0.74907727D+02

 NEqPCM:  Using equilibrium solvation (IEInf=0, Eps=   4.7113, EpsInf=   2.0906)
          Differentiating once with respect to magnetic field using GIAOs.
          Electric field/nuclear overlap derivatives assumed to be zero.
 FoFCou: FMM=F IPFlag=           0 FMFlag=    10101102 FMFlg1=           0
         NFxFlg=    40000000 DoJE=F BraDBF=F KetDBF=T FulRan=T
         Omega=  0.000000  0.000000  1.000000  0.000000  0.000000 ICntrl=    6100 IOpCl=  0
         NMat0=    1 NMatS0=    1 NMatT0=    0 NMatD0=    1 NMtDS0=    0 NMtDT0=    0
         I1Cent=           7 NGrid=        3025.
 Symmetry not used in FoFCou.
          There are     3 degrees of freedom in the 1st order CPHF.  IDoFFX=0.
      3 vectors produced by pass  0 Test12= 1.12D-12 3.33D-08 XBig12= 1.36D+02 1.72D+00.
 AX will form     3 AO Fock derivatives at one time.
      3 vectors produced by pass  1 Test12= 1.12D-12 3.33D-08 XBig12= 3.67D-01 8.00D-02.
      3 vectors produced by pass  2 Test12= 1.12D-12 3.33D-08 XBig12= 7.38D-04 3.39D-03.
      3 vectors produced by pass  3 Test12= 1.12D-12 3.33D-08 XBig12= 2.82D-06 2.52D-04.
      3 vectors produced by pass  4 Test12= 1.12D-12 3.33D-08 XBig12= 1.12D-08 1.39D-05.
      3 vectors produced by pass  5 Test12= 1.12D-12 3.33D-08 XBig12= 3.59D-11 7.60D-07.
 Inverted reduced A of dimension    18 with in-core refinement.
 Calculating GIAO nuclear magnetic shielding tensors.
 SCF GIAO Magnetic shielding tensor (ppm):
      1  H    Isotropic =    27.2426   Anisotropy =     4.2206
   XX=    27.8934   YX=    -0.8409   ZX=    -1.5860
   XY=     0.2907   YY=    27.1728   ZY=     2.4674
   XZ=     0.0233   YZ=     3.2891   ZZ=    26.6615
   Eigenvalues:    23.9876    27.6838    30.0563
      2  C    Isotropic =   129.2571   Anisotropy =    50.9145
   XX=   144.7060   YX=   -18.6895   ZX=   -24.9452
   XY=   -13.9901   YY=   120.7427   ZY=    -3.7565
   XZ=   -21.0931   YZ=     0.0992   ZZ=   122.3227
   Eigenvalues:   101.5272   123.0441   163.2001
      3  C    Isotropic =   166.6820   Anisotropy =    32.2596
   XX=   163.9152   YX=     5.6079   ZX=    20.2842
   XY=     0.2950   YY=   165.7378   ZY=   -12.1320
   XZ=    16.0713   YZ=   -11.5133   ZZ=   170.3930
   Eigenvalues:   143.9630   167.8947   188.1884
      4  C    Isotropic =   127.2376   Anisotropy =    39.9822
   XX=   125.7321   YX=    -3.6110   ZX=    11.5548
   XY=   -13.6273   YY=   129.3471   ZY=   -16.5829
   XZ=    21.8101   YZ=   -12.2259   ZZ=   126.6337
   Eigenvalues:   108.3639   119.4565   153.8924
      5  C    Isotropic =   135.0176   Anisotropy =    60.5907
   XX=    89.4719   YX=    -2.2387   ZX=     9.2303
   XY=     1.8244   YY=   159.0233   ZY=   -19.1134
   XZ=    14.6675   YZ=   -14.3994   ZZ=   156.5575
   Eigenvalues:    87.3038   142.3375   175.4114
      6  C    Isotropic =   108.0293   Anisotropy =    39.6723
   XX=   107.5200   YX=     9.9297   ZX=     0.3621
   XY=    17.9609   YY=   117.1108   ZY=   -10.5256
   XZ=   -12.6826   YZ=   -20.0474   ZZ=    99.4571
   Eigenvalues:    90.3810    99.2294   134.4775
      7  C    Isotropic =   165.0687   Anisotropy =    20.2808
   XX=   166.1382   YX=     4.9650   ZX=    -8.7350
   XY=     9.8020   YY=   165.9266   ZY=    -9.4343
   XZ=    -5.4530   YZ=    -1.5935   ZZ=   163.1413
   Eigenvalues:   157.3403   159.2765   178.5892
      8  H    Isotropic =    29.0996   Anisotropy =     6.3551
   XX=    31.6720   YX=    -1.3525   ZX=    -0.5616
   XY=    -2.4432   YY=    30.6496   ZY=     2.0287
   XZ=    -0.2826   YZ=     1.1627   ZZ=    24.9773
   Eigenvalues:    24.5584    29.4040    33.3364
      9  H    Isotropic =    27.2661   Anisotropy =     6.7381
   XX=    30.9439   YX=    -2.4919   ZX=     0.9030
   XY=    -2.0372   YY=    24.6618   ZY=     0.9623
   XZ=     0.7208   YZ=    -0.3441   ZZ=    26.1926
   Eigenvalues:    23.8038    26.2363    31.7582
     10  H    Isotropic =    28.7349   Anisotropy =     3.7457
   XX=    29.2560   YX=    -0.0021   ZX=    -1.4315
   XY=     1.5554   YY=    30.2171   ZY=    -1.7779
   XZ=    -2.0863   YZ=     0.2741   ZZ=    26.7317
   Eigenvalues:    25.8052    29.1675    31.2321
     11  H    Isotropic =    30.0060   Anisotropy =     9.3802
   XX=    30.1091   YX=     0.1676   ZX=    -4.0710
   XY=     0.1181   YY=    26.5526   ZY=     1.3935
   XZ=    -3.9785   YZ=     2.0276   ZZ=    33.3562
   Eigenvalues:    25.6978    28.0606    36.2594
     12  H    Isotropic =    30.5724   Anisotropy =    10.6078
   XX=    29.2277   YX=     3.3036   ZX=     0.0268
   XY=     3.5159   YY=    32.6176   ZY=    -5.5104
   XZ=     0.0868   YZ=    -5.1811   ZZ=    29.8719
   Eigenvalues:    24.5995    29.4734    37.6443
     13  H    Isotropic =    29.7446   Anisotropy =     8.5151
   XX=    30.6047   YX=     0.8363   ZX=     3.1612
   XY=    -0.1087   YY=    26.7239   ZY=    -3.2830
   XZ=     3.7741   YZ=    -3.1875   ZZ=    31.9051
   Eigenvalues:    24.5143    29.2980    35.4213
     14  O    Isotropic =   308.8874   Anisotropy =   109.4439
   XX=   372.1408   YX=    13.5674   ZX=    20.6715
   XY=     1.6228   YY=   274.4694   ZY=  -101.6178
   XZ=    -1.4316   YZ=  -106.9212   ZZ=   280.0519
   Eigenvalues:   172.2150   372.5971   381.8499
     15  C    Isotropic =   146.9020   Anisotropy =    35.2303
   XX=   110.2578   YX=    -2.7605   ZX=     6.2573
   XY=    -1.3042   YY=   162.7143   ZY=    -0.2582
   XZ=     5.2237   YZ=    -7.3602   ZZ=   167.7338
   Eigenvalues:   109.6387   160.6784   170.3889
     16  O    Isotropic =   312.0274   Anisotropy =    33.4138
   XX=   317.4854   YX=    -2.3222   ZX=     7.7913
   XY=    -8.1023   YY=   327.4729   ZY=   -19.2522
   XZ=   -22.9106   YZ=   -14.2405   ZZ=   291.1238
   Eigenvalues:   282.3085   319.4704   334.3033
     17  H    Isotropic =    29.2435   Anisotropy =    17.9742
   XX=    27.0996   YX=     6.1943   ZX=     1.6332
   XY=     8.1902   YY=    33.6873   ZY=    -7.8346
   XZ=     2.5947   YZ=    -9.0355   ZZ=    26.9435
   Eigenvalues:    17.3807    29.1234    41.2263
     18  O    Isotropic =   312.3611   Anisotropy =    62.4809
   XX=   307.5239   YX=    23.0349   ZX=   -37.1374
   XY=    10.3023   YY=   307.0976   ZY=    -9.0460
   XZ=   -26.0622   YZ=    -8.9141   ZZ=   322.4619
   Eigenvalues:   280.0316   303.0367   354.0151
     19  C    Isotropic =   138.5964   Anisotropy =    81.8183
   XX=   117.2871   YX=     0.1288   ZX=    -5.6206
   XY=     0.3453   YY=   183.0671   ZY=    26.9699
   XZ=    -4.6240   YZ=    28.8956   ZZ=   115.4352
   Eigenvalues:   103.6290   119.0184   193.1420
     20  H    Isotropic =    28.4729   Anisotropy =    10.5262
   XX=    28.4455   YX=    -2.8963   ZX=     0.0954
   XY=    -5.1974   YY=    32.3198   ZY=     2.9216
   XZ=    -1.3850   YZ=     2.3765   ZZ=    24.6534
   Eigenvalues:    23.7109    26.2174    35.4904
     21  H    Isotropic =    27.9398   Anisotropy =    10.1930
   XX=    25.3496   YX=     0.8353   ZX=    -0.9864
   XY=     1.7717   YY=    34.1954   ZY=    -3.1993
   XZ=    -0.1658   YZ=    -0.5085   ZZ=    24.2746
   Eigenvalues:    23.8541    25.2302    34.7352
     22  H    Isotropic =    28.0469   Anisotropy =     8.1912
   XX=    26.8225   YX=    -0.5938   ZX=     1.8503
   XY=     1.0776   YY=    30.8541   ZY=     5.1359
   XZ=     2.7023   YZ=     2.8430   ZZ=    26.4642
   Eigenvalues:    23.1411    27.4919    33.5078
     23  O    Isotropic =   288.3311   Anisotropy =    25.8887
   XX=   288.7226   YX=     8.7052   ZX=    15.2598
   XY=    -4.7377   YY=   290.9924   ZY=    -3.7505
   XZ=    21.3689   YZ=    -5.5092   ZZ=   285.2783
   Eigenvalues:   267.6327   291.7704   305.5902
     24  Si   Isotropic =   379.8400   Anisotropy =    38.6301
   XX=   401.4115   YX=     2.4191   ZX=    -7.4382
   XY=    -9.4218   YY=   368.8930   ZY=     6.5175
   XZ=   -14.6946   YZ=     5.9047   ZZ=   369.2154
   Eigenvalues:   361.9734   371.9531   405.5934
     25  C    Isotropic =   199.5810   Anisotropy =    10.7838
   XX=   203.3739   YX=    -0.2228   ZX=     1.9070
   XY=    -2.4981   YY=   200.2479   ZY=    -9.0636
   XZ=     3.2498   YZ=    -4.0930   ZZ=   195.1211
   Eigenvalues:   190.4755   201.4973   206.7702
     26  H    Isotropic =    31.6441   Anisotropy =    10.8695
   XX=    37.4540   YX=     3.6299   ZX=    -0.4826
   XY=     3.1561   YY=    30.8699   ZY=     0.5577
   XZ=    -0.2515   YZ=     0.6493   ZZ=    26.6084
   Eigenvalues:    26.4443    29.5977    38.8904
     27  H    Isotropic =    31.3498   Anisotropy =     8.1124
   XX=    30.3450   YX=    -1.3466   ZX=    -2.0212
   XY=    -1.5514   YY=    32.6288   ZY=     4.0852
   XZ=    -1.7836   YZ=     3.8775   ZZ=    31.0757
   Eigenvalues:    27.6492    29.6422    36.7581
     28  H    Isotropic =    31.2741   Anisotropy =     8.1194
   XX=    30.0200   YX=    -1.3872   ZX=     2.2894
   XY=    -2.0814   YY=    31.0941   ZY=    -4.0662
   XZ=     1.9473   YZ=    -3.0775   ZZ=    32.7081
   Eigenvalues:    28.2379    28.8973    36.6870
     29  C    Isotropic =   173.0997   Anisotropy =     7.8960
   XX=   177.4154   YX=     2.4642   ZX=     1.8172
   XY=     1.7083   YY=   171.0212   ZY=     1.0268
   XZ=     0.9393   YZ=     0.6882   ZZ=   170.8625
   Eigenvalues:   170.0423   170.8931   178.3637
     30  C    Isotropic =   199.9700   Anisotropy =     8.2027
   XX=   202.9626   YX=     0.6120   ZX=     0.8989
   XY=     2.8288   YY=   198.4401   ZY=    -4.7516
   XZ=     1.8599   YZ=    -9.1256   ZZ=   198.5073
   Eigenvalues:   191.1287   203.3428   205.4385
     31  H    Isotropic =    31.6807   Anisotropy =    10.8609
   XX=    37.5866   YX=     1.2990   ZX=     3.2467
   XY=     1.4923   YY=    26.9621   ZY=     0.3840
   XZ=     2.9609   YZ=     0.2545   ZZ=    30.4933
   Eigenvalues:    26.7795    29.3412    38.9213
     32  H    Isotropic =    31.4476   Anisotropy =     8.9009
   XX=    27.6962   YX=    -0.1686   ZX=     0.6411
   XY=    -0.0866   YY=    35.9942   ZY=    -2.4991
   XZ=     0.3900   YZ=    -3.5819   ZZ=    30.6523
   Eigenvalues:    27.5825    29.3787    37.3815
     33  H    Isotropic =    31.4410   Anisotropy =     8.6384
   XX=    30.4791   YX=    -2.2305   ZX=    -1.7984
   XY=    -1.8049   YY=    28.4325   ZY=     2.4465
   XZ=    -1.8781   YZ=     2.9283   ZZ=    35.4115
   Eigenvalues:    26.9277    30.1954    37.1999
     34  C    Isotropic =   170.3271   Anisotropy =    37.2379
   XX=   159.6355   YX=     7.3739   ZX=    -3.3461
   XY=    10.4704   YY=   191.8855   ZY=    -7.9740
   XZ=    -2.1669   YZ=    -2.7049   ZZ=   159.4602
   Eigenvalues:   156.4743   159.3546   195.1523
     35  H    Isotropic =    30.5146   Anisotropy =     8.4416
   XX=    26.7503   YX=    -1.4204   ZX=     0.5497
   XY=    -2.0147   YY=    33.1409   ZY=    -3.9197
   XZ=     0.9633   YZ=    -2.7034   ZZ=    31.6526
   Eigenvalues:    26.3164    29.0850    36.1423
     36  H    Isotropic =    30.9338   Anisotropy =     9.7403
   XX=    28.3391   YX=    -1.5887   ZX=    -1.7374
   XY=    -2.2148   YY=    34.5289   ZY=     4.2793
   XZ=    -1.8126   YZ=     3.4328   ZZ=    29.9333
   Eigenvalues:    27.1031    28.2709    37.4273
     37  H    Isotropic =    30.1637   Anisotropy =     8.4604
   XX=    34.3472   YX=     1.8535   ZX=    -1.4587
   XY=     3.3056   YY=    31.0631   ZY=     1.3804
   XZ=    -1.4499   YZ=     1.2354   ZZ=    25.0808
   Eigenvalues:    24.3951    30.2921    35.8040
     38  C    Isotropic =   170.2643   Anisotropy =    39.4509
   XX=   195.5011   YX=     7.1043   ZX=     4.8654
   XY=     4.0753   YY=   157.9787   ZY=     0.0944
   XZ=     1.4089   YZ=     0.1927   ZZ=   157.3132
   Eigenvalues:   156.8005   157.4276   196.5649
     39  H    Isotropic =    30.6731   Anisotropy =     9.2326
   XX=    34.1900   YX=    -2.4405   ZX=     3.8033
   XY=    -1.5735   YY=    26.1182   ZY=    -0.7218
   XZ=     2.6533   YZ=    -0.9123   ZZ=    31.7110
   Eigenvalues:    25.6461    29.5450    36.8281
     40  H    Isotropic =    30.6909   Anisotropy =     9.1164
   XX=    33.2941   YX=     4.4377   ZX=    -1.9871
   XY=     2.9787   YY=    32.5040   ZY=     0.0740
   XZ=    -1.4640   YZ=     0.1714   ZZ=    26.2745
   Eigenvalues:    25.6963    29.6078    36.7684
     41  H    Isotropic =    30.8933   Anisotropy =    10.1761
   XX=    34.1618   YX=    -2.8974   ZX=    -4.4054
   XY=    -2.0760   YY=    28.4283   ZY=     2.1749
   XZ=    -3.3334   YZ=     2.3376   ZZ=    30.0896
   Eigenvalues:    26.8444    28.1581    37.6773
     42  C    Isotropic =   170.0997   Anisotropy =    36.9900
   XX=   162.0913   YX=    -6.5701   ZX=     9.1954
   XY=    -5.9598   YY=   163.0013   ZY=    -8.3160
   XZ=    13.1269   YZ=   -13.8908   ZZ=   185.2064
   Eigenvalues:   156.2249   159.3145   194.7597
     43  H    Isotropic =    30.1474   Anisotropy =     8.4868
   XX=    35.0030   YX=    -1.1393   ZX=     1.1693
   XY=    -1.6027   YY=    24.9289   ZY=     0.2629
   XZ=     2.5771   YZ=     0.5315   ZZ=    30.5105
   Eigenvalues:    24.6711    29.9659    35.8053
     44  H    Isotropic =    30.9558   Anisotropy =     9.6343
   XX=    28.2558   YX=    -1.1866   ZX=    -1.4936
   XY=    -1.2265   YY=    28.3589   ZY=     1.9364
   XZ=    -2.1326   YZ=     2.7928   ZZ=    36.2527
   Eigenvalues:    27.0805    28.4083    37.3786
     45  H    Isotropic =    30.5191   Anisotropy =     7.9712
   XX=    26.5533   YX=    -0.4562   ZX=    -0.7481
   XY=     0.1273   YY=    33.5313   ZY=    -2.5135
   XZ=    -1.0958   YZ=    -3.7847   ZZ=    31.4726
   Eigenvalues:    26.2907    29.4333    35.8332
     46  H    Isotropic =    29.0739   Anisotropy =    10.8085
   XX=    29.7070   YX=    -0.1973   ZX=    -2.7089
   XY=     2.5507   YY=    25.9681   ZY=    -2.9564
   XZ=    -6.5863   YZ=    -3.0245   ZZ=    31.5466
   Eigenvalues:    24.4382    26.5039    36.2796
     47  H    Isotropic =    28.2803   Anisotropy =     8.6284
   XX=    31.0865   YX=    -1.9778   ZX=    -1.7030
   XY=    -4.6314   YY=    28.8726   ZY=    -3.2125
   XZ=     1.8646   YZ=    -3.8987   ZZ=    24.8819
   Eigenvalues:    22.4648    28.3436    34.0326
 End of Minotr Frequency-dependent properties file   721 does not exist.
 End of Minotr Frequency-dependent properties file   722 does not exist.

 **********************************************************************

            Population analysis using the SCF density.

 **********************************************************************

 Orbital symmetries:
       Occupied  (A) (A) (A) (A) (A) (A) (A) (A) (A) (A) (A) (A)
                 (A) (A) (A) (A) (A) (A) (A) (A) (A) (A) (A) (A)
                 (A) (A) (A) (A) (A) (A) (A) (A) (A) (A) (A) (A)
                 (A) (A) (A) (A) (A) (A) (A) (A) (A) (A) (A) (A)
                 (A) (A) (A) (A) (A) (A) (A) (A) (A) (A) (A) (A)
                 (A) (A) (A) (A) (A) (A) (A) (A) (A) (A) (A) (A)
                 (A) (A) (A) (A) (A) (A) (A)
       Virtual   (A) (A) (A) (A) (A) (A) (A) (A) (A) (A) (A) (A)
                 (A) (A) (A) (A) (A) (A) (A) (A) (A) (A) (A) (A)
                 (A) (A) (A) (A) (A) (A) (A) (A) (A) (A) (A) (A)
                 (A) (A) (A) (A) (A) (A) (A) (A) (A) (A) (A) (A)
                 (A) (A) (A) (A) (A) (A) (A) (A) (A) (A) (A) (A)
                 (A) (A) (A) (A) (A) (A) (A) (A) (A) (A) (A) (A)
                 (A) (A) (A) (A) (A) (A) (A) (A) (A) (A) (A) (A)
                 (A) (A) (A) (A) (A) (A) (A) (A) (A) (A) (A) (A)
                 (A) (A) (A) (A) (A) (A) (A) (A) (A) (A) (A) (A)
                 (A) (A) (A) (A) (A) (A) (A) (A) (A) (A) (A) (A)
                 (A) (A) (A) (A) (A) (A) (A) (A) (A) (A) (A) (A)
                 (A) (A) (A) (A) (A) (A) (A) (A) (A) (A) (A) (A)
                 (A) (A) (A) (A) (A) (A) (A) (A) (A) (A) (A) (A)
                 (A) (A) (A) (A) (A) (A) (A) (A) (A) (A) (A) (A)
                 (A) (A) (A) (A) (A) (A) (A) (A) (A) (A) (A) (A)
                 (A) (A) (A) (A) (A) (A) (A) (A) (A) (A) (A) (A)
                 (A) (A) (A) (A) (A) (A) (A) (A) (A) (A) (A) (A)
                 (A) (A) (A) (A) (A) (A) (A) (A) (A) (A) (A) (A)
                 (A) (A) (A) (A) (A) (A) (A) (A) (A) (A) (A) (A)
                 (A) (A) (A) (A) (A) (A) (A) (A) (A) (A) (A) (A)
                 (A) (A) (A) (A) (A) (A) (A) (A) (A) (A) (A) (A)
                 (A) (A) (A) (A) (A) (A) (A) (A) (A) (A) (A) (A)
                 (A) (A) (A) (A) (A) (A) (A) (A) (A) (A) (A) (A)
                 (A) (A) (A) (A) (A) (A) (A) (A) (A) (A) (A) (A)
                 (A) (A) (A) (A) (A) (A) (A) (A) (A) (A) (A) (A)
                 (A) (A) (A) (A) (A) (A) (A) (A) (A) (A) (A) (A)
                 (A) (A) (A) (A) (A) (A) (A) (A) (A) (A) (A) (A)
                 (A) (A) (A) (A) (A) (A) (A) (A) (A) (A) (A) (A)
                 (A) (A) (A) (A) (A) (A) (A) (A) (A) (A) (A) (A)
                 (A) (A) (A) (A) (A) (A) (A) (A) (A) (A) (A) (A)
                 (A) (A) (A) (A) (A) (A) (A) (A) (A) (A) (A) (A)
                 (A) (A) (A) (A) (A) (A) (A) (A) (A) (A) (A) (A)
                 (A) (A) (A) (A) (A) (A) (A) (A) (A) (A) (A) (A)
                 (A) (A) (A) (A) (A) (A) (A) (A) (A) (A) (A) (A)
                 (A) (A) (A) (A) (A) (A) (A) (A) (A) (A) (A) (A)
                 (A) (A) (A) (A) (A) (A)
 The electronic state is 1-A.
 Alpha  occ. eigenvalues --  -66.30374 -19.26430 -19.25994 -19.25077 -19.23441
 Alpha  occ. eigenvalues --  -10.31353 -10.31193 -10.30718 -10.30436 -10.29535
 Alpha  occ. eigenvalues --  -10.29443 -10.25450 -10.25229 -10.24747 -10.23614
 Alpha  occ. eigenvalues --  -10.23235 -10.23171 -10.22426 -10.22349  -5.33774
 Alpha  occ. eigenvalues --   -3.67687  -3.67398  -3.67376  -1.10962  -1.08457
 Alpha  occ. eigenvalues --   -1.05320  -1.03392  -0.84845  -0.82150  -0.77611
 Alpha  occ. eigenvalues --   -0.75132  -0.72217  -0.70865  -0.70377  -0.70123
 Alpha  occ. eigenvalues --   -0.69461  -0.68462  -0.64185  -0.62039  -0.58530
 Alpha  occ. eigenvalues --   -0.56296  -0.54673  -0.52918  -0.52451  -0.50583
 Alpha  occ. eigenvalues --   -0.49474  -0.48301  -0.47551  -0.46747  -0.45522
 Alpha  occ. eigenvalues --   -0.45012  -0.44523  -0.44041  -0.43846  -0.42790
 Alpha  occ. eigenvalues --   -0.41888  -0.41077  -0.40940  -0.40204  -0.40084
 Alpha  occ. eigenvalues --   -0.39542  -0.38943  -0.38811  -0.38696  -0.37944
 Alpha  occ. eigenvalues --   -0.37142  -0.36612  -0.35384  -0.34743  -0.34011
 Alpha  occ. eigenvalues --   -0.33675  -0.32836  -0.32103  -0.31601  -0.29972
 Alpha  occ. eigenvalues --   -0.28749  -0.28260  -0.27482  -0.26892
 Alpha virt. eigenvalues --   -0.00445   0.00860   0.01063   0.01536   0.02625
 Alpha virt. eigenvalues --    0.02819   0.03275   0.03500   0.03914   0.04795
 Alpha virt. eigenvalues --    0.05211   0.05306   0.05463   0.06121   0.06285
 Alpha virt. eigenvalues --    0.06823   0.07029   0.07466   0.07697   0.08107
 Alpha virt. eigenvalues --    0.08634   0.09039   0.09167   0.09561   0.09773
 Alpha virt. eigenvalues --    0.09888   0.10456   0.10715   0.11212   0.11416
 Alpha virt. eigenvalues --    0.11801   0.11920   0.12293   0.12537   0.13309
 Alpha virt. eigenvalues --    0.13360   0.13544   0.13935   0.14414   0.14741
 Alpha virt. eigenvalues --    0.15123   0.15475   0.15855   0.16083   0.16169
 Alpha virt. eigenvalues --    0.16475   0.16788   0.17356   0.17525   0.18083
 Alpha virt. eigenvalues --    0.18204   0.18665   0.18933   0.19211   0.19584
 Alpha virt. eigenvalues --    0.19920   0.20185   0.20354   0.20830   0.21160
 Alpha virt. eigenvalues --    0.21291   0.21766   0.22289   0.22571   0.22778
 Alpha virt. eigenvalues --    0.23137   0.23370   0.23630   0.23973   0.24049
 Alpha virt. eigenvalues --    0.24349   0.25033   0.25086   0.25921   0.26021
 Alpha virt. eigenvalues --    0.26784   0.27037   0.27575   0.27799   0.28232
 Alpha virt. eigenvalues --    0.28500   0.28877   0.29161   0.29427   0.29756
 Alpha virt. eigenvalues --    0.30371   0.30803   0.30965   0.31497   0.31674
 Alpha virt. eigenvalues --    0.32149   0.32251   0.32600   0.32943   0.33497
 Alpha virt. eigenvalues --    0.33772   0.34152   0.34951   0.35625   0.36273
 Alpha virt. eigenvalues --    0.36665   0.37145   0.37485   0.37871   0.38089
 Alpha virt. eigenvalues --    0.38223   0.39792   0.40129   0.40505   0.40719
 Alpha virt. eigenvalues --    0.41735   0.41839   0.43279   0.43788   0.44567
 Alpha virt. eigenvalues --    0.45502   0.46220   0.46372   0.47276   0.47930
 Alpha virt. eigenvalues --    0.48947   0.50428   0.52028   0.52860   0.55690
 Alpha virt. eigenvalues --    0.56150   0.58807   0.62824   0.65294   0.66581
 Alpha virt. eigenvalues --    0.68427   0.68798   0.70171   0.71399   0.71596
 Alpha virt. eigenvalues --    0.71733   0.73313   0.73910   0.74144   0.75080
 Alpha virt. eigenvalues --    0.76060   0.76900   0.77603   0.78201   0.78318
 Alpha virt. eigenvalues --    0.79066   0.79304   0.81221   0.81302   0.82079
 Alpha virt. eigenvalues --    0.83650   0.84068   0.84443   0.85608   0.85992
 Alpha virt. eigenvalues --    0.86732   0.87764   0.88505   0.89587   0.90014
 Alpha virt. eigenvalues --    0.90802   0.90970   0.91775   0.92320   0.93703
 Alpha virt. eigenvalues --    0.94324   0.95619   0.95869   0.96947   0.98018
 Alpha virt. eigenvalues --    0.98499   0.99528   1.00437   1.00831   1.02032
 Alpha virt. eigenvalues --    1.02167   1.03773   1.04496   1.04855   1.05155
 Alpha virt. eigenvalues --    1.05450   1.05882   1.06381   1.06766   1.07677
 Alpha virt. eigenvalues --    1.08901   1.09443   1.09855   1.11313   1.12173
 Alpha virt. eigenvalues --    1.14069   1.14345   1.15780   1.16106   1.16960
 Alpha virt. eigenvalues --    1.17392   1.18111   1.20077   1.20406   1.21933
 Alpha virt. eigenvalues --    1.22042   1.23254   1.23956   1.25177   1.25710
 Alpha virt. eigenvalues --    1.27958   1.28929   1.30238   1.31618   1.32903
 Alpha virt. eigenvalues --    1.33067   1.34988   1.35485   1.36600   1.38080
 Alpha virt. eigenvalues --    1.38565   1.39837   1.41697   1.43965   1.44252
 Alpha virt. eigenvalues --    1.45136   1.45604   1.46283   1.48194   1.49816
 Alpha virt. eigenvalues --    1.50414   1.50799   1.51896   1.53110   1.54508
 Alpha virt. eigenvalues --    1.57300   1.57787   1.60083   1.62940   1.63987
 Alpha virt. eigenvalues --    1.65110   1.65677   1.65776   1.67349   1.68447
 Alpha virt. eigenvalues --    1.71476   1.71602   1.72738   1.74770   1.75643
 Alpha virt. eigenvalues --    1.77124   1.79526   1.80407   1.81363   1.81579
 Alpha virt. eigenvalues --    1.82432   1.82992   1.85323   1.87077   1.88252
 Alpha virt. eigenvalues --    1.89453   1.89679   1.91173   1.91674   1.92060
 Alpha virt. eigenvalues --    1.94506   1.94639   1.95148   1.96355   1.96880
 Alpha virt. eigenvalues --    1.98116   1.98507   1.99454   2.00621   2.00997
 Alpha virt. eigenvalues --    2.02766   2.03689   2.04498   2.05729   2.06127
 Alpha virt. eigenvalues --    2.06489   2.06695   2.08121   2.09444   2.09797
 Alpha virt. eigenvalues --    2.10456   2.11141   2.11969   2.12098   2.12866
 Alpha virt. eigenvalues --    2.13756   2.14001   2.14798   2.15124   2.15639
 Alpha virt. eigenvalues --    2.16448   2.16841   2.17620   2.18296   2.18580
 Alpha virt. eigenvalues --    2.19327   2.19832   2.20618   2.21592   2.21799
 Alpha virt. eigenvalues --    2.22516   2.24183   2.25096   2.26567   2.27070
 Alpha virt. eigenvalues --    2.28261   2.28841   2.30166   2.32679   2.35085
 Alpha virt. eigenvalues --    2.36264   2.37057   2.38005   2.38542   2.39139
 Alpha virt. eigenvalues --    2.39376   2.40425   2.42736   2.43162   2.43990
 Alpha virt. eigenvalues --    2.44804   2.46342   2.48710   2.49162   2.51685
 Alpha virt. eigenvalues --    2.53143   2.55745   2.57111   2.57795   2.58469
 Alpha virt. eigenvalues --    2.59713   2.60612   2.62477   2.64447   2.65573
 Alpha virt. eigenvalues --    2.66710   2.67187   2.67716   2.69283   2.70126
 Alpha virt. eigenvalues --    2.71534   2.73083   2.73610   2.74061   2.76522
 Alpha virt. eigenvalues --    2.77106   2.78275   2.78610   2.79407   2.79770
 Alpha virt. eigenvalues --    2.80949   2.82326   2.83654   2.84269   2.85047
 Alpha virt. eigenvalues --    2.85628   2.86741   2.86816   2.87798   2.88347
 Alpha virt. eigenvalues --    2.88530   2.88895   2.89203   2.89739   2.90583
 Alpha virt. eigenvalues --    2.91393   2.92606   2.94641   2.95524   2.98116
 Alpha virt. eigenvalues --    2.98790   2.99768   3.00072   3.04103   3.08938
 Alpha virt. eigenvalues --    3.09749   3.16231   3.19563   3.23401   3.26099
 Alpha virt. eigenvalues --    3.27620   3.28154   3.29887   3.30810   3.31746
 Alpha virt. eigenvalues --    3.32191   3.37371   3.39311   3.41062   3.42582
 Alpha virt. eigenvalues --    3.47191   3.47864   3.48227   3.48802   3.49253
 Alpha virt. eigenvalues --    3.50017   3.50385   3.50754   3.51552   3.51800
 Alpha virt. eigenvalues --    3.52370   3.52694   3.55828   3.56375   3.56873
 Alpha virt. eigenvalues --    3.58473   3.60651   3.62624   4.37751   4.43206
 Alpha virt. eigenvalues --    4.43866   4.51026   4.53725   4.54062   4.57121
 Alpha virt. eigenvalues --    4.59203   4.61014   4.63617   4.64530   4.68235
 Alpha virt. eigenvalues --    4.71911   4.75872   4.78286   4.83895   4.91755
 Alpha virt. eigenvalues --    4.95979
          Condensed to atoms (all electrons):
              1          2          3          4          5          6
     1  H    0.618163   0.107934   0.028330   0.037612  -0.025860   0.119018
     2  C    0.107934  14.182925  -0.650914  -2.601265   2.695538  -5.639249
     3  C    0.028330  -0.650914   7.536413  -0.757774  -1.756570   0.517731
     4  C    0.037612  -2.601265  -0.757774  11.781451  -3.188848   0.360782
     5  C   -0.025860   2.695538  -1.756570  -3.188848  16.352411  -4.203364
     6  C    0.119018  -5.639249   0.517731   0.360782  -4.203364  13.683223
     7  C    0.016383  -2.369862   0.624661   0.227541  -0.965364   0.853067
     8  H   -0.000058   0.001741   0.374037  -0.019561   0.101483  -0.055045
     9  H   -0.000262   0.124911  -0.083679   0.335257   0.164529  -0.188581
    10  H   -0.004435   0.023578  -0.020671  -0.067433   0.149617   0.226669
    11  H   -0.002369  -0.121311  -0.073404   0.021012   0.061402   0.003649
    12  H   -0.000113   0.072496   0.371737   0.020851  -0.114283   0.007960
    13  H   -0.004312  -0.020583  -0.022732  -0.007637   0.044210   0.018627
    14  O    0.000068  -0.089360  -0.129763  -0.093928  -0.007249   0.157955
    15  C   -0.000136  -0.307828   0.160499  -0.243468  -2.735745   1.013131
    16  O   -0.000935   0.097696   0.093270   0.296768  -0.149267  -0.173839
    17  H   -0.000009   0.040899  -0.016270   0.007378   0.072987  -0.118402
    18  O   -0.003269   0.120940  -0.022717  -0.109056   0.135965   0.066250
    19  C    0.002002   0.101161   0.006618   0.050786  -0.139074  -0.174859
    20  H   -0.000066  -0.018087   0.002283   0.022226  -0.000671  -0.021799
    21  H   -0.000050   0.014437  -0.000717  -0.010987   0.002990   0.012269
    22  H    0.001464   0.009768  -0.000931  -0.003516  -0.000215  -0.013156
    23  O   -0.069126   0.087682  -0.024060   0.034519   0.114834  -0.221307
    24  Si   0.062397   0.069705  -0.048016  -0.111861   0.037398  -0.137522
    25  C   -0.014718   0.059143   0.002703   0.001778   0.005122  -0.053851
    26  H   -0.000026   0.001424   0.000049   0.000506   0.000045   0.002133
    27  H    0.000820  -0.003701   0.000177   0.000117  -0.000741  -0.000732
    28  H    0.000018  -0.013245  -0.000044   0.001007  -0.000573   0.005326
    29  C    0.004200  -0.142858   0.006861  -0.050901  -0.022141   0.147572
    30  C   -0.011090   0.059714   0.000428  -0.006681   0.008246  -0.029611
    31  H   -0.000025   0.000334   0.000393   0.000162   0.000011   0.000481
    32  H   -0.000003  -0.016052   0.000402  -0.000490   0.000235  -0.000732
    33  H    0.000593  -0.000845   0.000645  -0.000228  -0.000507   0.002400
    34  C    0.000897  -0.164517  -0.002932   0.036121  -0.009975   0.117019
    35  H    0.000000   0.001974   0.001045  -0.000090  -0.000749  -0.001175
    36  H    0.000000  -0.000329   0.001004   0.000822  -0.000957   0.000471
    37  H    0.000000  -0.003401  -0.009659  -0.001641   0.007196   0.000397
    38  C    0.000397   0.008478   0.000619  -0.003466   0.003279  -0.007147
    39  H    0.000000   0.000531   0.000077   0.000040  -0.000037  -0.000083
    40  H    0.000000   0.000345  -0.000002  -0.000041   0.000021  -0.000013
    41  H    0.000000  -0.000570   0.000022   0.000038  -0.000031   0.000124
    42  C   -0.000624   0.149062   0.003550   0.022042   0.018409  -0.173334
    43  H    0.000003   0.009150  -0.003711  -0.005389   0.008284  -0.013967
    44  H    0.000000   0.000711   0.000477   0.001301  -0.000712  -0.001092
    45  H    0.000001  -0.002934  -0.000117  -0.000644  -0.000132   0.003709
    46  H    0.000000  -0.004839   0.047552  -0.023424  -0.112743   0.012843
    47  H    0.000000  -0.011224  -0.009525   0.105110  -0.231671   0.020404
              7          8          9         10         11         12
     1  H    0.016383  -0.000058  -0.000262  -0.004435  -0.002369  -0.000113
     2  C   -2.369862   0.001741   0.124911   0.023578  -0.121311   0.072496
     3  C    0.624661   0.374037  -0.083679  -0.020671  -0.073404   0.371737
     4  C    0.227541  -0.019561   0.335257  -0.067433   0.021012   0.020851
     5  C   -0.965364   0.101483   0.164529   0.149617   0.061402  -0.114283
     6  C    0.853067  -0.055045  -0.188581   0.226669   0.003649   0.007960
     7  C    7.396016  -0.045966  -0.021201   0.002594   0.426185  -0.056206
     8  H   -0.045966   0.508077   0.001928   0.000079   0.004304  -0.027451
     9  H   -0.021201   0.001928   0.560319   0.005060   0.000018  -0.000120
    10  H    0.002594   0.000079   0.005060   0.591272   0.000921  -0.000066
    11  H    0.426185   0.004304   0.000018   0.000921   0.535162  -0.004518
    12  H   -0.056206  -0.027451  -0.000120  -0.000066  -0.004518   0.533710
    13  H    0.331872  -0.003518  -0.000013  -0.000068  -0.023610  -0.002058
    14  O    0.063372  -0.014316  -0.017038  -0.002005  -0.001187   0.006872
    15  C    0.205350  -0.033917  -0.033623  -0.013905  -0.009882   0.024013
    16  O    0.005248  -0.000397  -0.042990   0.003347  -0.000366  -0.000464
    17  H   -0.002237  -0.000002  -0.003942  -0.000626   0.000000   0.000003
    18  O   -0.001372  -0.000401   0.002439  -0.063106  -0.001114   0.000140
    19  C   -0.077510  -0.000963  -0.004019  -0.007466  -0.002145   0.000434
    20  H    0.006028   0.000000   0.000010   0.010158   0.000007   0.000000
    21  H    0.000126   0.000000   0.000021   0.000123   0.000000   0.000000
    22  H   -0.011147   0.000000  -0.000012  -0.002036   0.000004   0.000000
    23  O   -0.080339   0.012810   0.013614   0.017575   0.015858  -0.002562
    24  Si  -0.040474   0.002869   0.009152  -0.002159  -0.003362  -0.000199
    25  C   -0.013472   0.000275   0.000523   0.001744   0.000341   0.000066
    26  H   -0.000150   0.000000   0.000000   0.000000   0.000000   0.000000
    27  H    0.002016   0.000000  -0.000001  -0.000008   0.000001   0.000000
    28  H   -0.004323   0.000000   0.000000   0.000001   0.000000   0.000000
    29  C    0.019707  -0.002073  -0.004808  -0.000792   0.000367  -0.000156
    30  C   -0.016953   0.000302   0.000424   0.000186   0.000645   0.000124
    31  H    0.001887   0.000000   0.000000   0.000000   0.000000   0.000000
    32  H    0.013448   0.000001   0.000000   0.000000   0.000001   0.000000
    33  H   -0.003862   0.000000   0.000000   0.000001   0.000001   0.000000
    34  C    0.026618   0.002379  -0.001011  -0.000217   0.000138  -0.000107
    35  H   -0.001140  -0.000015   0.000001   0.000000   0.000000   0.000000
    36  H   -0.000849  -0.000001  -0.000001   0.000000   0.000000   0.000000
    37  H    0.004577   0.000839   0.000180   0.000000   0.000000   0.000000
    38  C   -0.014656   0.000381   0.000799   0.000047   0.000009  -0.000004
    39  H   -0.000261   0.000000   0.000000   0.000000   0.000000   0.000000
    40  H    0.000028   0.000000   0.000000   0.000000   0.000000   0.000000
    41  H    0.000014   0.000000   0.000000   0.000000   0.000000   0.000000
    42  C   -0.032740  -0.000862   0.002396   0.000555  -0.000307   0.000076
    43  H    0.000155   0.000016   0.001425   0.000002   0.000000   0.000000
    44  H    0.000022   0.000000  -0.000004   0.000000   0.000000   0.000000
    45  H    0.000215   0.000000  -0.000006   0.000000   0.000000   0.000000
    46  H    0.008156   0.000032  -0.000092  -0.000132  -0.000068   0.001157
    47  H    0.001439  -0.000131  -0.000096  -0.000131  -0.000068   0.000192
             13         14         15         16         17         18
     1  H   -0.004312   0.000068  -0.000136  -0.000935  -0.000009  -0.003269
     2  C   -0.020583  -0.089360  -0.307828   0.097696   0.040899   0.120940
     3  C   -0.022732  -0.129763   0.160499   0.093270  -0.016270  -0.022717
     4  C   -0.007637  -0.093928  -0.243468   0.296768   0.007378  -0.109056
     5  C    0.044210  -0.007249  -2.735745  -0.149267   0.072987   0.135965
     6  C    0.018627   0.157955   1.013131  -0.173839  -0.118402   0.066250
     7  C    0.331872   0.063372   0.205350   0.005248  -0.002237  -0.001372
     8  H   -0.003518  -0.014316  -0.033917  -0.000397  -0.000002  -0.000401
     9  H   -0.000013  -0.017038  -0.033623  -0.042990  -0.003942   0.002439
    10  H   -0.000068  -0.002005  -0.013905   0.003347  -0.000626  -0.063106
    11  H   -0.023610  -0.001187  -0.009882  -0.000366   0.000000  -0.001114
    12  H   -0.002058   0.006872   0.024013  -0.000464   0.000003   0.000140
    13  H    0.526625  -0.000512  -0.002851   0.000066   0.000000  -0.000480
    14  O   -0.000512   8.298355   0.194095   0.027285  -0.000429  -0.002378
    15  C   -0.002851   0.194095   7.011611  -0.057966   0.008768  -0.017560
    16  O    0.000066   0.027285  -0.057966   8.232697   0.219550  -0.008089
    17  H    0.000000  -0.000429   0.008768   0.219550   0.371546   0.033374
    18  O   -0.000480  -0.002378  -0.017560  -0.008089   0.033374   8.306290
    19  C    0.000127   0.001357   0.021153  -0.006301  -0.004571  -0.011113
    20  H   -0.000001   0.000004  -0.000191   0.002303  -0.000181  -0.064724
    21  H    0.000000  -0.000003  -0.000202   0.000223  -0.000045  -0.064895
    22  H    0.000006  -0.000002   0.000198  -0.000739   0.000065  -0.040618
    23  O   -0.006016  -0.002612  -0.016422  -0.004766  -0.000291   0.022306
    24  Si  -0.001390  -0.000276   0.004765  -0.006677   0.001168   0.006820
    25  C   -0.000308  -0.000121  -0.002004   0.000904  -0.000175   0.001261
    26  H    0.000000   0.000000  -0.000002   0.000000   0.000000   0.000157
    27  H    0.000002   0.000000   0.000008  -0.000002   0.000000  -0.001466
    28  H    0.000000   0.000000  -0.000016   0.000001   0.000000  -0.001944
    29  C   -0.003502   0.000629   0.003476  -0.000829  -0.000091  -0.017682
    30  C    0.001882  -0.000180  -0.000042   0.000219   0.000002   0.002844
    31  H    0.000009   0.000000  -0.000001   0.000000   0.000000  -0.000014
    32  H   -0.000007   0.000000   0.000033   0.000000   0.000000   0.000016
    33  H    0.000041   0.000000   0.000014   0.000000   0.000000   0.000065
    34  C    0.002819  -0.000257   0.000269  -0.000594   0.000018  -0.002908
    35  H   -0.000003   0.000001  -0.000016   0.000000   0.000000   0.000005
    36  H    0.000000   0.000001  -0.000023   0.000000   0.000000  -0.000002
    37  H   -0.000010  -0.000053   0.000082  -0.000008   0.000000  -0.000004
    38  C   -0.000133  -0.000056  -0.000561  -0.000026   0.000008   0.000266
    39  H    0.000000   0.000000  -0.000001   0.000000   0.000000  -0.000001
    40  H    0.000000   0.000000   0.000000   0.000000   0.000000   0.000004
    41  H    0.000000   0.000000   0.000000   0.000000   0.000000   0.000000
    42  C   -0.000433  -0.000328  -0.002490   0.001542   0.000047   0.009771
    43  H    0.000000  -0.000041   0.000120   0.000126  -0.000006   0.000995
    44  H    0.000000   0.000000  -0.000018   0.000000   0.000000  -0.000013
    45  H    0.000000   0.000000  -0.000003  -0.000015   0.000000  -0.000062
    46  H   -0.000013  -0.035933   0.435725   0.001368   0.000000   0.000010
    47  H    0.000000  -0.024270   0.492925  -0.005299  -0.000104  -0.000308
             19         20         21         22         23         24
     1  H    0.002002  -0.000066  -0.000050   0.001464  -0.069126   0.062397
     2  C    0.101161  -0.018087   0.014437   0.009768   0.087682   0.069705
     3  C    0.006618   0.002283  -0.000717  -0.000931  -0.024060  -0.048016
     4  C    0.050786   0.022226  -0.010987  -0.003516   0.034519  -0.111861
     5  C   -0.139074  -0.000671   0.002990  -0.000215   0.114834   0.037398
     6  C   -0.174859  -0.021799   0.012269  -0.013156  -0.221307  -0.137522
     7  C   -0.077510   0.006028   0.000126  -0.011147  -0.080339  -0.040474
     8  H   -0.000963   0.000000   0.000000   0.000000   0.012810   0.002869
     9  H   -0.004019   0.000010   0.000021  -0.000012   0.013614   0.009152
    10  H   -0.007466   0.010158   0.000123  -0.002036   0.017575  -0.002159
    11  H   -0.002145   0.000007   0.000000   0.000004   0.015858  -0.003362
    12  H    0.000434   0.000000   0.000000   0.000000  -0.002562  -0.000199
    13  H    0.000127  -0.000001   0.000000   0.000006  -0.006016  -0.001390
    14  O    0.001357   0.000004  -0.000003  -0.000002  -0.002612  -0.000276
    15  C    0.021153  -0.000191  -0.000202   0.000198  -0.016422   0.004765
    16  O   -0.006301   0.002303   0.000223  -0.000739  -0.004766  -0.006677
    17  H   -0.004571  -0.000181  -0.000045   0.000065  -0.000291   0.001168
    18  O   -0.011113  -0.064724  -0.064895  -0.040618   0.022306   0.006820
    19  C    5.128167   0.415224   0.412601   0.408886  -0.009887   0.017596
    20  H    0.415224   0.561581  -0.025611  -0.043520   0.000194  -0.004116
    21  H    0.412601  -0.025611   0.518022  -0.029352  -0.000203  -0.002933
    22  H    0.408886  -0.043520  -0.029352   0.560956   0.002007   0.016461
    23  O   -0.009887   0.000194  -0.000203   0.002007   8.407925   0.004199
    24  Si   0.017596  -0.004116  -0.002933   0.016461   0.004199  13.205659
    25  C   -0.003082   0.001361   0.002462  -0.009234  -0.057314   0.193523
    26  H   -0.000963   0.000000   0.000001  -0.000008   0.009363  -0.023988
    27  H    0.001872   0.000000  -0.000072   0.001075  -0.008100  -0.016870
    28  H    0.004050   0.000020  -0.000018   0.000053  -0.000526  -0.035081
    29  C    0.001620  -0.000314  -0.000188   0.000959  -0.111627   0.468460
    30  C   -0.000438   0.000106   0.000060  -0.000801  -0.037113   0.193275
    31  H   -0.000083   0.000000   0.000000   0.000000   0.009895  -0.038282
    32  H   -0.000089   0.000000   0.000000   0.000000  -0.006772  -0.024472
    33  H    0.000438   0.000000   0.000000   0.000000  -0.005925  -0.015471
    34  C   -0.001923  -0.000002  -0.000025   0.000049   0.053298  -0.154235
    35  H    0.000022   0.000000   0.000000   0.000000  -0.004441   0.008283
    36  H    0.000007   0.000000   0.000000   0.000000  -0.000667   0.016399
    37  H   -0.000062   0.000000   0.000000   0.000000   0.008694  -0.015365
    38  C    0.000442  -0.000004   0.000036   0.000043   0.018801  -0.117693
    39  H    0.000004   0.000000   0.000000   0.000000   0.000515  -0.015239
    40  H   -0.000016   0.000000   0.000000   0.000000   0.000635  -0.013647
    41  H    0.000001   0.000000   0.000000   0.000000  -0.000611   0.015930
    42  C    0.001894   0.000228   0.000157  -0.000445   0.039789  -0.098055
    43  H   -0.000294   0.000000   0.000001   0.000000   0.009239  -0.009626
    44  H   -0.000001   0.000000   0.000000   0.000000  -0.000823   0.020045
    45  H   -0.000237   0.000000   0.000000   0.000000  -0.002645  -0.007002
    46  H   -0.000073   0.000000   0.000000   0.000000  -0.000082   0.000264
    47  H    0.001252   0.000000   0.000000   0.000000  -0.000133   0.000097
             25         26         27         28         29         30
     1  H   -0.014718  -0.000026   0.000820   0.000018   0.004200  -0.011090
     2  C    0.059143   0.001424  -0.003701  -0.013245  -0.142858   0.059714
     3  C    0.002703   0.000049   0.000177  -0.000044   0.006861   0.000428
     4  C    0.001778   0.000506   0.000117   0.001007  -0.050901  -0.006681
     5  C    0.005122   0.000045  -0.000741  -0.000573  -0.022141   0.008246
     6  C   -0.053851   0.002133  -0.000732   0.005326   0.147572  -0.029611
     7  C   -0.013472  -0.000150   0.002016  -0.004323   0.019707  -0.016953
     8  H    0.000275   0.000000   0.000000   0.000000  -0.002073   0.000302
     9  H    0.000523   0.000000  -0.000001   0.000000  -0.004808   0.000424
    10  H    0.001744   0.000000  -0.000008   0.000001  -0.000792   0.000186
    11  H    0.000341   0.000000   0.000001   0.000000   0.000367   0.000645
    12  H    0.000066   0.000000   0.000000   0.000000  -0.000156   0.000124
    13  H   -0.000308   0.000000   0.000002   0.000000  -0.003502   0.001882
    14  O   -0.000121   0.000000   0.000000   0.000000   0.000629  -0.000180
    15  C   -0.002004  -0.000002   0.000008  -0.000016   0.003476  -0.000042
    16  O    0.000904   0.000000  -0.000002   0.000001  -0.000829   0.000219
    17  H   -0.000175   0.000000   0.000000   0.000000  -0.000091   0.000002
    18  O    0.001261   0.000157  -0.001466  -0.001944  -0.017682   0.002844
    19  C   -0.003082  -0.000963   0.001872   0.004050   0.001620  -0.000438
    20  H    0.001361   0.000000   0.000000   0.000020  -0.000314   0.000106
    21  H    0.002462   0.000001  -0.000072  -0.000018  -0.000188   0.000060
    22  H   -0.009234  -0.000008   0.001075   0.000053   0.000959  -0.000801
    23  O   -0.057314   0.009363  -0.008100  -0.000526  -0.111627  -0.037113
    24  Si   0.193523  -0.023988  -0.016870  -0.035081   0.468460   0.193275
    25  C    5.468763   0.394795   0.383093   0.416049  -0.140218   0.010335
    26  H    0.394795   0.492176  -0.022653  -0.022004  -0.027482  -0.005871
    27  H    0.383093  -0.022653   0.503451  -0.022536   0.017955  -0.011403
    28  H    0.416049  -0.022004  -0.022536   0.481849  -0.026167   0.006338
    29  C   -0.140218  -0.027482   0.017955  -0.026167   8.330096  -0.153702
    30  C    0.010335  -0.005871  -0.011403   0.006338  -0.153702   5.448551
    31  H   -0.007280   0.000051   0.000145   0.000023  -0.027636   0.408629
    32  H    0.007672   0.000021   0.000000  -0.000017  -0.022189   0.404899
    33  H   -0.011812   0.000128   0.000416   0.000003   0.018282   0.383458
    34  C   -0.016277  -0.000259  -0.000841  -0.004140  -0.379765  -0.004505
    35  H    0.000671   0.000001  -0.000001   0.000000  -0.064089  -0.001083
    36  H   -0.001891   0.000000   0.000000   0.000000  -0.161419   0.000726
    37  H   -0.000512   0.000000   0.000000   0.000002  -0.095096   0.000819
    38  C    0.027292   0.008015  -0.001724   0.005502  -0.450982   0.031563
    39  H    0.000059   0.000002  -0.000006   0.000009  -0.080357   0.004408
    40  H    0.003601   0.000387  -0.000009   0.000003  -0.081786  -0.000517
    41  H    0.000693   0.000013   0.000000  -0.000004  -0.156570   0.000198
    42  C    0.023286   0.007742   0.000772   0.015043  -0.475589   0.005249
    43  H    0.000512   0.000012  -0.000006   0.000046  -0.106229  -0.000492
    44  H   -0.000251   0.000000   0.000000  -0.000004  -0.165589  -0.001563
    45  H    0.003154   0.000048   0.000012   0.000018  -0.054638   0.000307
    46  H   -0.000003   0.000000   0.000000   0.000000   0.000014  -0.000009
    47  H   -0.000007   0.000000   0.000000   0.000000  -0.000018  -0.000002
             31         32         33         34         35         36
     1  H   -0.000025  -0.000003   0.000593   0.000897   0.000000   0.000000
     2  C    0.000334  -0.016052  -0.000845  -0.164517   0.001974  -0.000329
     3  C    0.000393   0.000402   0.000645  -0.002932   0.001045   0.001004
     4  C    0.000162  -0.000490  -0.000228   0.036121  -0.000090   0.000822
     5  C    0.000011   0.000235  -0.000507  -0.009975  -0.000749  -0.000957
     6  C    0.000481  -0.000732   0.002400   0.117019  -0.001175   0.000471
     7  C    0.001887   0.013448  -0.003862   0.026618  -0.001140  -0.000849
     8  H    0.000000   0.000001   0.000000   0.002379  -0.000015  -0.000001
     9  H    0.000000   0.000000   0.000000  -0.001011   0.000001  -0.000001
    10  H    0.000000   0.000000   0.000001  -0.000217   0.000000   0.000000
    11  H    0.000000   0.000001   0.000001   0.000138   0.000000   0.000000
    12  H    0.000000   0.000000   0.000000  -0.000107   0.000000   0.000000
    13  H    0.000009  -0.000007   0.000041   0.002819  -0.000003   0.000000
    14  O    0.000000   0.000000   0.000000  -0.000257   0.000001   0.000001
    15  C   -0.000001   0.000033   0.000014   0.000269  -0.000016  -0.000023
    16  O    0.000000   0.000000   0.000000  -0.000594   0.000000   0.000000
    17  H    0.000000   0.000000   0.000000   0.000018   0.000000   0.000000
    18  O   -0.000014   0.000016   0.000065  -0.002908   0.000005  -0.000002
    19  C   -0.000083  -0.000089   0.000438  -0.001923   0.000022   0.000007
    20  H    0.000000   0.000000   0.000000  -0.000002   0.000000   0.000000
    21  H    0.000000   0.000000   0.000000  -0.000025   0.000000   0.000000
    22  H    0.000000   0.000000   0.000000   0.000049   0.000000   0.000000
    23  O    0.009895  -0.006772  -0.005925   0.053298  -0.004441  -0.000667
    24  Si  -0.038282  -0.024472  -0.015471  -0.154235   0.008283   0.016399
    25  C   -0.007280   0.007672  -0.011812  -0.016277   0.000671  -0.001891
    26  H    0.000051   0.000021   0.000128  -0.000259   0.000001   0.000000
    27  H    0.000145   0.000000   0.000416  -0.000841  -0.000001   0.000000
    28  H    0.000023  -0.000017   0.000003  -0.004140   0.000000   0.000000
    29  C   -0.027636  -0.022189   0.018282  -0.379765  -0.064089  -0.161419
    30  C    0.408629   0.404899   0.383458  -0.004505  -0.001083   0.000726
    31  H    0.487830  -0.021777  -0.021948   0.010715   0.000057  -0.000001
    32  H   -0.021777   0.490623  -0.023126   0.013148   0.000333  -0.000011
    33  H   -0.021948  -0.023126   0.499480   0.000672  -0.000004   0.000000
    34  C    0.010715   0.013148   0.000672   6.112242   0.409037   0.471638
    35  H    0.000057   0.000333  -0.000004   0.409037   0.536783  -0.028081
    36  H   -0.000001  -0.000011   0.000000   0.471638  -0.028081   0.542388
    37  H    0.000003   0.000034  -0.000006   0.462903  -0.025982  -0.027036
    38  C    0.009283   0.002282  -0.002793  -0.018646  -0.003886   0.010646
    39  H    0.000042   0.000031   0.000005  -0.015816   0.002725  -0.000318
    40  H    0.000019   0.000018  -0.000005   0.007480   0.000027  -0.000002
    41  H    0.000016  -0.000007   0.000000   0.012464  -0.000331   0.005412
    42  C   -0.001478  -0.003142  -0.000976  -0.388948   0.006731   0.003948
    43  H    0.000000   0.000002   0.000000  -0.007491   0.000027  -0.000332
    44  H    0.000000   0.000000   0.000000   0.011767   0.000035   0.005479
    45  H    0.000001   0.000000  -0.000001   0.003907  -0.000154   0.000032
    46  H    0.000000   0.000000   0.000000  -0.000015   0.000000   0.000000
    47  H    0.000000   0.000000   0.000000   0.000004   0.000000   0.000000
             37         38         39         40         41         42
     1  H    0.000000   0.000397   0.000000   0.000000   0.000000  -0.000624
     2  C   -0.003401   0.008478   0.000531   0.000345  -0.000570   0.149062
     3  C   -0.009659   0.000619   0.000077  -0.000002   0.000022   0.003550
     4  C   -0.001641  -0.003466   0.000040  -0.000041   0.000038   0.022042
     5  C    0.007196   0.003279  -0.000037   0.000021  -0.000031   0.018409
     6  C    0.000397  -0.007147  -0.000083  -0.000013   0.000124  -0.173334
     7  C    0.004577  -0.014656  -0.000261   0.000028   0.000014  -0.032740
     8  H    0.000839   0.000381   0.000000   0.000000   0.000000  -0.000862
     9  H    0.000180   0.000799   0.000000   0.000000   0.000000   0.002396
    10  H    0.000000   0.000047   0.000000   0.000000   0.000000   0.000555
    11  H    0.000000   0.000009   0.000000   0.000000   0.000000  -0.000307
    12  H    0.000000  -0.000004   0.000000   0.000000   0.000000   0.000076
    13  H   -0.000010  -0.000133   0.000000   0.000000   0.000000  -0.000433
    14  O   -0.000053  -0.000056   0.000000   0.000000   0.000000  -0.000328
    15  C    0.000082  -0.000561  -0.000001   0.000000   0.000000  -0.002490
    16  O   -0.000008  -0.000026   0.000000   0.000000   0.000000   0.001542
    17  H    0.000000   0.000008   0.000000   0.000000   0.000000   0.000047
    18  O   -0.000004   0.000266  -0.000001   0.000004   0.000000   0.009771
    19  C   -0.000062   0.000442   0.000004  -0.000016   0.000001   0.001894
    20  H    0.000000  -0.000004   0.000000   0.000000   0.000000   0.000228
    21  H    0.000000   0.000036   0.000000   0.000000   0.000000   0.000157
    22  H    0.000000   0.000043   0.000000   0.000000   0.000000  -0.000445
    23  O    0.008694   0.018801   0.000515   0.000635  -0.000611   0.039789
    24  Si  -0.015365  -0.117693  -0.015239  -0.013647   0.015930  -0.098055
    25  C   -0.000512   0.027292   0.000059   0.003601   0.000693   0.023286
    26  H    0.000000   0.008015   0.000002   0.000387   0.000013   0.007742
    27  H    0.000000  -0.001724  -0.000006  -0.000009   0.000000   0.000772
    28  H    0.000002   0.005502   0.000009   0.000003  -0.000004   0.015043
    29  C   -0.095096  -0.450982  -0.080357  -0.081786  -0.156570  -0.475589
    30  C    0.000819   0.031563   0.004408  -0.000517   0.000198   0.005249
    31  H    0.000003   0.009283   0.000042   0.000019   0.000016  -0.001478
    32  H    0.000034   0.002282   0.000031   0.000018  -0.000007  -0.003142
    33  H   -0.000006  -0.002793   0.000005  -0.000005   0.000000  -0.000976
    34  C    0.462903  -0.018646  -0.015816   0.007480   0.012464  -0.388948
    35  H   -0.025982  -0.003886   0.002725   0.000027  -0.000331   0.006731
    36  H   -0.027036   0.010646  -0.000318  -0.000002   0.005412   0.003948
    37  H    0.518699  -0.000671   0.000037  -0.000146   0.000026  -0.006400
    38  C   -0.000671   5.644930   0.450954   0.450131   0.457437   0.038357
    39  H    0.000037   0.450954   0.531241  -0.027408  -0.027475   0.007500
    40  H   -0.000146   0.450131  -0.027408   0.533971  -0.027474  -0.014887
    41  H    0.000026   0.457437  -0.027475  -0.027474   0.537300   0.011412
    42  C   -0.006400   0.038357   0.007500  -0.014887   0.011412   6.057943
    43  H    0.003127   0.001410  -0.000146   0.000044   0.000022   0.468433
    44  H   -0.000300   0.006472  -0.000001  -0.000319   0.005349   0.468362
    45  H    0.000028  -0.001621   0.000026   0.002752  -0.000310   0.410393
    46  H    0.000000   0.000000   0.000000   0.000000   0.000000  -0.000003
    47  H    0.000000  -0.000001   0.000000   0.000000   0.000000   0.000007
             43         44         45         46         47
     1  H    0.000003   0.000000   0.000001   0.000000   0.000000
     2  C    0.009150   0.000711  -0.002934  -0.004839  -0.011224
     3  C   -0.003711   0.000477  -0.000117   0.047552  -0.009525
     4  C   -0.005389   0.001301  -0.000644  -0.023424   0.105110
     5  C    0.008284  -0.000712  -0.000132  -0.112743  -0.231671
     6  C   -0.013967  -0.001092   0.003709   0.012843   0.020404
     7  C    0.000155   0.000022   0.000215   0.008156   0.001439
     8  H    0.000016   0.000000   0.000000   0.000032  -0.000131
     9  H    0.001425  -0.000004  -0.000006  -0.000092  -0.000096
    10  H    0.000002   0.000000   0.000000  -0.000132  -0.000131
    11  H    0.000000   0.000000   0.000000  -0.000068  -0.000068
    12  H    0.000000   0.000000   0.000000   0.001157   0.000192
    13  H    0.000000   0.000000   0.000000  -0.000013   0.000000
    14  O   -0.000041   0.000000   0.000000  -0.035933  -0.024270
    15  C    0.000120  -0.000018  -0.000003   0.435725   0.492925
    16  O    0.000126   0.000000  -0.000015   0.001368  -0.005299
    17  H   -0.000006   0.000000   0.000000   0.000000  -0.000104
    18  O    0.000995  -0.000013  -0.000062   0.000010  -0.000308
    19  C   -0.000294  -0.000001  -0.000237  -0.000073   0.001252
    20  H    0.000000   0.000000   0.000000   0.000000   0.000000
    21  H    0.000001   0.000000   0.000000   0.000000   0.000000
    22  H    0.000000   0.000000   0.000000   0.000000   0.000000
    23  O    0.009239  -0.000823  -0.002645  -0.000082  -0.000133
    24  Si  -0.009626   0.020045  -0.007002   0.000264   0.000097
    25  C    0.000512  -0.000251   0.003154  -0.000003  -0.000007
    26  H    0.000012   0.000000   0.000048   0.000000   0.000000
    27  H   -0.000006   0.000000   0.000012   0.000000   0.000000
    28  H    0.000046  -0.000004   0.000018   0.000000   0.000000
    29  C   -0.106229  -0.165589  -0.054638   0.000014  -0.000018
    30  C   -0.000492  -0.001563   0.000307  -0.000009  -0.000002
    31  H    0.000000   0.000000   0.000001   0.000000   0.000000
    32  H    0.000002   0.000000   0.000000   0.000000   0.000000
    33  H    0.000000   0.000000  -0.000001   0.000000   0.000000
    34  C   -0.007491   0.011767   0.003907  -0.000015   0.000004
    35  H    0.000027   0.000035  -0.000154   0.000000   0.000000
    36  H   -0.000332   0.005479   0.000032   0.000000   0.000000
    37  H    0.003127  -0.000300   0.000028   0.000000   0.000000
    38  C    0.001410   0.006472  -0.001621   0.000000  -0.000001
    39  H   -0.000146  -0.000001   0.000026   0.000000   0.000000
    40  H    0.000044  -0.000319   0.002752   0.000000   0.000000
    41  H    0.000022   0.005349  -0.000310   0.000000   0.000000
    42  C    0.468433   0.468362   0.410393  -0.000003   0.000007
    43  H    0.520242  -0.027176  -0.025549   0.000000   0.000000
    44  H   -0.027176   0.542863  -0.027997   0.000000   0.000000
    45  H   -0.025549  -0.027997   0.534817   0.000000   0.000000
    46  H    0.000000   0.000000   0.000000   0.539597  -0.034526
    47  H    0.000000   0.000000   0.000000  -0.034526   0.513407
 Mulliken atomic charges:
              1
     1  H    0.137187
     2  C    0.140696
     3  C   -0.147375
     4  C   -0.056897
     5  C   -0.316733
     6  C   -0.124351
     7  C   -0.476640
     8  H    0.193127
     9  H    0.178495
    10  H    0.151727
    11  H    0.173686
    12  H    0.168477
    13  H    0.173904
    14  O   -0.327697
    15  C   -0.097360
    16  O   -0.523044
    17  H    0.391569
    18  O   -0.274621
    19  C   -0.132543
    20  H    0.157557
    21  H    0.171770
    22  H    0.153737
    23  O   -0.209383
    24  Si   0.589547
    25  C   -0.678650
    26  H    0.186336
    27  H    0.178943
    28  H    0.195282
    29  C    0.007285
    30  C   -0.691880
    31  H    0.188543
    32  H    0.185688
    33  H    0.180868
    34  C   -0.580194
    35  H    0.163483
    36  H    0.162947
    37  H    0.178705
    38  C   -0.553808
    39  H    0.168942
    40  H    0.166809
    41  H    0.166911
    42  C   -0.573653
    43  H    0.177066
    44  H    0.162979
    45  H    0.164646
    46  H    0.165239
    47  H    0.182678
 Sum of Mulliken atomic charges =   0.00000
 Mulliken charges with hydrogens summed into heavy atoms:
              1
     2  C    0.277883
     3  C    0.214229
     4  C    0.121599
     5  C   -0.316733
     6  C    0.027376
     7  C   -0.129051
    14  O   -0.327697
    15  C    0.250557
    16  O   -0.131475
    18  O   -0.274621
    19  C    0.350521
    23  O   -0.209383
    24  Si   0.589547
    25  C   -0.118089
    29  C    0.007285
    30  C   -0.136781
    34  C   -0.075059
    38  C   -0.051146
    42  C   -0.068961
 Sum of Mulliken charges with hydrogens summed into heavy atoms =   0.00000
 Electronic spatial extent (au):  <R**2>=           6195.7238
 Charge=              0.0000 electrons
 Dipole moment (field-independent basis, Debye):
    X=              2.2980    Y=              3.7064    Z=              4.5884  Tot=              6.3302
 Quadrupole moment (field-independent basis, Debye-Ang):
   XX=           -131.9920   YY=           -122.5751   ZZ=           -126.1902
   XY=             -8.1613   XZ=            -12.4213   YZ=             -3.3271
 Traceless Quadrupole moment (field-independent basis, Debye-Ang):
   XX=             -5.0729   YY=              4.3440   ZZ=              0.7289
   XY=             -8.1613   XZ=            -12.4213   YZ=             -3.3271
 Octapole moment (field-independent basis, Debye-Ang**2):
  XXX=             -1.4560  YYY=             51.5760  ZZZ=             -0.1873  XYY=             -4.6613
  XXY=             27.9594  XXZ=             46.8300  XZZ=             -3.3878  YZZ=              8.6853
  YYZ=              6.2390  XYZ=             17.6151
 Hexadecapole moment (field-independent basis, Debye-Ang**3):
 XXXX=          -5331.8282 YYYY=          -1773.4333 ZZZZ=          -1244.4043 XXXY=            -44.6090
 XXXZ=           -143.0684 YYYX=            -84.9667 YYYZ=            -44.8840 ZZZX=             -2.3338
 ZZZY=            -17.7855 XXYY=          -1243.6904 XXZZ=          -1136.4208 YYZZ=           -493.1549
 XXYZ=            -63.5108 YYXZ=            -19.2337 ZZXY=            -15.4491
 N-N= 1.826888034686D+03 E-N=-6.324295940809D+03  KE= 1.131537931329D+03
 1\1\GINC-COMPUTE-8-17\SP\RmPW1PW91\6-31+G(d,p)\C14H28O4Si1\ELUCIANO.IQ
 UIR\06-Dec-2022\0\\# mPW1PW91/6-31+g** scrf=(PCM,solvent=chloroform) n
 mr\\comment\\0,1\H,0,-0.210357,1.183716,1.847912\C,0,-0.587796,0.42211
 3,1.14841\C,0,-1.958049,-1.713326,1.00133\C,0,-2.206125,0.072196,-0.79
 3748\C,0,-2.875917,-1.053935,-0.01651\C,0,-1.595077,1.083369,0.190724\
 C,0,-1.308788,-0.682164,1.940254\H,0,-1.171202,-2.252834,0.460599\H,0,
 -1.390709,-0.361185,-1.392358\H,0,-2.419702,1.501167,0.791252\H,0,-2.0
 74295,-0.21782,2.577563\H,0,-2.523706,-2.457913,1.571439\H,0,-0.590495
 ,-1.17387,2.605396\O,0,-3.68643,-1.95146,-0.780525\C,0,-4.339042,-1.07
 1216,0.150701\O,0,-3.143042,0.724501,-1.632309\H,0,-2.672316,1.507459,
 -1.964568\O,0,-1.02457,2.123504,-0.602532\C,0,-1.049131,3.404657,0.003
 314\H,0,-2.07825,3.720166,0.232655\H,0,-0.611753,4.103275,-0.714554\H,
 0,-0.457615,3.438596,0.928941\O,0,0.48057,-0.143831,0.40078\Si,0,2.122
 13,0.203475,0.528358\C,0,2.431081,2.056859,0.316804\H,0,3.505119,2.279
 139,0.311753\H,0,1.988639,2.630296,1.140594\H,0,1.999436,2.430131,-0.6
 1749\C,0,2.936461,-0.818902,-0.865439\C,0,2.745891,-0.315783,2.239387\
 H,0,3.809832,-0.081346,2.366781\H,0,2.617223,-1.390289,2.412273\H,0,2.
 202593,0.21258,3.033185\C,0,2.587514,-2.313459,-0.696845\H,0,2.957948,
 -2.717951,0.253292\H,0,3.045375,-2.904804,-1.503089\H,0,1.505677,-2.48
 119,-0.734079\C,0,4.470835,-0.649791,-0.810985\H,0,4.891335,-0.998011,
 0.140606\H,0,4.777277,0.39448,-0.950596\H,0,4.946593,-1.236071,-1.6102
 26\C,0,2.423387,-0.336727,-2.23947\H,0,1.335584,-0.435892,-2.322756\H,
 0,2.875794,-0.932259,-3.045741\H,0,2.679014,0.713219,-2.427049\H,0,-4.
 771362,-1.558784,1.026147\H,0,-4.93919,-0.287723,-0.305762\\Version=EM
 64L-G09RevC.01\State=1-A\HF=-1140.6260381\RMSD=4.924e-09\Dipole=0.9040
 833,1.4582146,1.8052007\Quadrupole=-3.7715596,3.229635,0.5419246,-6.06
 77485,-9.2349397,-2.4736042\PG=C01 [X(C14H28O4Si1)]\\@


 ONLY A FOOL KNOWS EVERYTHING.

               -- THE CHEMIST ANALYST, SEPTEMBER 1946
 Job cpu time:  0 days  3 hours 32 minutes 44.9 seconds.
 File lengths (MBytes):  RWF=    298 Int=      0 D2E=      0 Chk=     16 Scr=      1
 Normal termination of Gaussian 09 at Tue Dec  6 21:03:30 2022.
