 Entering Gaussian System, Link 0=g09
 Input=/home/eluciano.iquir/todos_optB3L_MPW_B_PCM/02_epoxido28_009_optB3L_nmr_MPW_B_PCM.gjc
 Output=/home/eluciano.iquir/todos_optB3L_MPW_B_PCM/02_epoxido28_009_optB3L_nmr_MPW_B_PCM.log
 Initial command:
 /share/apps/Gaussian09/EM64T.SSE4.2-enabled/g09/l1.exe /tmp/Gau-84596.inp -scrdir=/tmp/
 Entering Link 1 = /share/apps/Gaussian09/EM64T.SSE4.2-enabled/g09/l1.exe PID=     84597.
  
 Copyright (c) 1988,1990,1992,1993,1995,1998,2003,2009,2011,
            Gaussian, Inc.  All Rights Reserved.
  
 This is part of the Gaussian(R) 09 program.  It is based on
 the Gaussian(R) 03 system (copyright 2003, Gaussian, Inc.),
 the Gaussian(R) 98 system (copyright 1998, Gaussian, Inc.),
 the Gaussian(R) 94 system (copyright 1995, Gaussian, Inc.),
 the Gaussian 92(TM) system (copyright 1992, Gaussian, Inc.),
 the Gaussian 90(TM) system (copyright 1990, Gaussian, Inc.),
 the Gaussian 88(TM) system (copyright 1988, Gaussian, Inc.),
 the Gaussian 86(TM) system (copyright 1986, Carnegie Mellon
 University), and the Gaussian 82(TM) system (copyright 1983,
 Carnegie Mellon University). Gaussian is a federally registered
 trademark of Gaussian, Inc.
  
 This software contains proprietary and confidential information,
 including trade secrets, belonging to Gaussian, Inc.
  
 This software is provided under written license and may be
 used, copied, transmitted, or stored only in accord with that
 written license.
  
 The following legend is applicable only to US Government
 contracts under FAR:
  
                    RESTRICTED RIGHTS LEGEND
  
 Use, reproduction and disclosure by the US Government is
 subject to restrictions as set forth in subparagraphs (a)
 and (c) of the Commercial Computer Software - Restricted
 Rights clause in FAR 52.227-19.
  
 Gaussian, Inc.
 340 Quinnipiac St., Bldg. 40, Wallingford CT 06492
  
  
 ---------------------------------------------------------------
 Warning -- This program may not be used in any manner that
 competes with the business of Gaussian, Inc. or will provide
 assistance to any competitor of Gaussian, Inc.  The licensee
 of this program is prohibited from giving any competitor of
 Gaussian, Inc. access to this program.  By using this program,
 the user acknowledges that Gaussian, Inc. is engaged in the
 business of creating and licensing software in the field of
 computational chemistry and represents and warrants to the
 licensee that it is not a competitor of Gaussian, Inc. and that
 it will not use this program in any manner prohibited above.
 ---------------------------------------------------------------
  

 Cite this work as:
 Gaussian 09, Revision C.01,
 M. J. Frisch, G. W. Trucks, H. B. Schlegel, G. E. Scuseria, 
 M. A. Robb, J. R. Cheeseman, G. Scalmani, V. Barone, B. Mennucci, 
 G. A. Petersson, H. Nakatsuji, M. Caricato, X. Li, H. P. Hratchian, 
 A. F. Izmaylov, J. Bloino, G. Zheng, J. L. Sonnenberg, M. Hada, 
 M. Ehara, K. Toyota, R. Fukuda, J. Hasegawa, M. Ishida, T. Nakajima, 
 Y. Honda, O. Kitao, H. Nakai, T. Vreven, J. A. Montgomery, Jr., 
 J. E. Peralta, F. Ogliaro, M. Bearpark, J. J. Heyd, E. Brothers, 
 K. N. Kudin, V. N. Staroverov, T. Keith, R. Kobayashi, J. Normand, 
 K. Raghavachari, A. Rendell, J. C. Burant, S. S. Iyengar, J. Tomasi, 
 M. Cossi, N. Rega, J. M. Millam, M. Klene, J. E. Knox, J. B. Cross, 
 V. Bakken, C. Adamo, J. Jaramillo, R. Gomperts, R. E. Stratmann, 
 O. Yazyev, A. J. Austin, R. Cammi, C. Pomelli, J. W. Ochterski, 
 R. L. Martin, K. Morokuma, V. G. Zakrzewski, G. A. Voth, 
 P. Salvador, J. J. Dannenberg, S. Dapprich, A. D. Daniels, 
 O. Farkas, J. B. Foresman, J. V. Ortiz, J. Cioslowski, 
 and D. J. Fox, Gaussian, Inc., Wallingford CT, 2010.
 
 ******************************************
 Gaussian 09:  EM64L-G09RevC.01 23-Sep-2011
                 6-Dec-2022 
 ******************************************
 %nprocshared=4
 Will use up to    4 processors via shared memory.
 %mem=80MW
 -----------------------------------------------------
 # mPW1PW91/6-31+g** scrf=(PCM,solvent=chloroform) nmr
 -----------------------------------------------------
 1/38=1/1;
 2/12=2,17=6,18=5,40=1/2;
 3/5=1,6=6,7=111,11=2,16=1,25=1,30=1,70=2201,72=7,74=-7/1,2,8,3;
 4//1;
 5/5=2,38=5,53=7/2;
 8/6=1,10=90,11=11/1;
 10/13=100,45=16/2;
 6/7=2,8=2,9=2,10=2,28=1/1;
 99/9=1/99;
 -------
 comment
 -------
 Charge =  0 Multiplicity = 1
 Symbolic Z-Matrix:
 1                     0.07064   0.38198  -2.06004 
 6                     0.48761  -0.09775  -1.1641 
 6                     1.81326  -2.11324  -0.35425 
 6                     2.27755   0.20723   0.59918 
 6                     2.84786  -1.15054   0.1869 
 6                     1.56525   0.85407  -0.59782 
 6                     1.09927  -1.45483  -1.54837 
 1                     1.08011  -2.34163   0.42788 
 1                     1.52656   0.03616   1.38483 
 1                     2.31274   1.03401  -1.38898 
 1                     1.8105   -1.30616  -2.3725 
 1                     2.28893  -3.05542  -0.64661 
 1                     0.30057  -2.10421  -1.92195 
 8                     3.83472  -1.65475   1.10695 
 6                     4.25954  -1.25291  -0.21445 
 8                     3.30221   1.0653    1.08098 
 1                     3.78923   0.53648   1.73809 
 8                     0.92172   2.07539  -0.27163 
 6                     1.74301   3.23631  -0.31448 
 1                     2.5158    3.21522   0.45888 
 1                     1.07792   4.08894  -0.15253 
 1                     2.22372   3.34356  -1.29935 
 8                    -0.54083  -0.33444  -0.21459 
 14                   -1.96107   0.53087   0.07799 
 6                    -1.77955   1.50785   1.68143 
 1                    -2.68318   2.0857    1.91105 
 1                    -0.9397    2.20336   1.5897 
 1                    -1.57822   0.85073   2.53535 
 6                    -3.32327  -0.8111    0.25073 
 6                    -2.32903   1.70223  -1.35957 
 1                    -3.26253   2.25036  -1.18393 
 1                    -2.43103   1.1782   -2.3171 
 1                    -1.5224    2.43569  -1.45835 
 6                    -3.47592  -1.58158  -1.07751 
 1                    -3.79595  -0.92668  -1.89727 
 1                    -4.23241  -2.37407  -0.97939 
 1                    -2.53532  -2.05905  -1.3767 
 6                    -4.67255  -0.15224   0.60918 
 1                    -5.00132   0.55847  -0.15965 
 1                    -4.6259    0.38577   1.56371 
 1                    -5.45988  -0.91447   0.70326 
 6                    -2.93637  -1.80959   1.36245 
 1                    -3.69959  -2.59648   1.45632 
 1                    -2.8515   -1.32182   2.34117 
 1                    -1.97922  -2.29845   1.14851 
 1                     4.57248  -2.07278  -0.86093 
 1                     4.88146  -0.36106  -0.24483 
 
                          Input orientation:                          
 ---------------------------------------------------------------------
 Center     Atomic      Atomic             Coordinates (Angstroms)
 Number     Number       Type             X           Y           Z
 ---------------------------------------------------------------------
      1          1           0        0.070641    0.381981   -2.060039
      2          6           0        0.487612   -0.097746   -1.164102
      3          6           0        1.813255   -2.113241   -0.354254
      4          6           0        2.277549    0.207228    0.599176
      5          6           0        2.847855   -1.150535    0.186901
      6          6           0        1.565252    0.854065   -0.597815
      7          6           0        1.099266   -1.454825   -1.548372
      8          1           0        1.080111   -2.341628    0.427875
      9          1           0        1.526557    0.036155    1.384828
     10          1           0        2.312738    1.034006   -1.388981
     11          1           0        1.810500   -1.306157   -2.372496
     12          1           0        2.288934   -3.055424   -0.646614
     13          1           0        0.300565   -2.104215   -1.921953
     14          8           0        3.834720   -1.654748    1.106954
     15          6           0        4.259541   -1.252911   -0.214451
     16          8           0        3.302208    1.065301    1.080976
     17          1           0        3.789225    0.536484    1.738094
     18          8           0        0.921724    2.075391   -0.271625
     19          6           0        1.743014    3.236313   -0.314484
     20          1           0        2.515804    3.215219    0.458875
     21          1           0        1.077919    4.088942   -0.152532
     22          1           0        2.223723    3.343559   -1.299348
     23          8           0       -0.540827   -0.334441   -0.214591
     24         14           0       -1.961071    0.530867    0.077985
     25          6           0       -1.779554    1.507850    1.681427
     26          1           0       -2.683179    2.085696    1.911049
     27          1           0       -0.939698    2.203358    1.589700
     28          1           0       -1.578219    0.850730    2.535351
     29          6           0       -3.323268   -0.811098    0.250733
     30          6           0       -2.329030    1.702228   -1.359566
     31          1           0       -3.262532    2.250356   -1.183927
     32          1           0       -2.431033    1.178204   -2.317104
     33          1           0       -1.522399    2.435695   -1.458352
     34          6           0       -3.475924   -1.581575   -1.077507
     35          1           0       -3.795953   -0.926684   -1.897272
     36          1           0       -4.232409   -2.374071   -0.979389
     37          1           0       -2.535316   -2.059048   -1.376702
     38          6           0       -4.672549   -0.152244    0.609175
     39          1           0       -5.001318    0.558470   -0.159649
     40          1           0       -4.625899    0.385767    1.563709
     41          1           0       -5.459877   -0.914472    0.703262
     42          6           0       -2.936371   -1.809590    1.362451
     43          1           0       -3.699587   -2.596481    1.456320
     44          1           0       -2.851497   -1.321817    2.341174
     45          1           0       -1.979221   -2.298448    1.148506
     46          1           0        4.572478   -2.072779   -0.860930
     47          1           0        4.881455   -0.361061   -0.244833
 ---------------------------------------------------------------------
                    Distance matrix (angstroms):
                    1          2          3          4          5
     1  H    0.000000
     2  C    1.098502   0.000000
     3  C    3.488917   2.544681   0.000000
     4  C    3.460116   2.531014   2.551308   0.000000
     5  C    3.887192   2.916217   1.513291   1.529294   0.000000
     6  C    2.143554   1.545294   2.987596   1.535758   2.505847
     7  C    2.166502   1.537351   1.539224   2.960191   2.482202
     8  H    3.824499   2.814330   1.096078   2.821324   2.145155
     9  H    3.755848   2.755790   2.779659   1.100229   2.142216
    10  H    2.429497   2.159286   3.350419   2.153501   2.746265
    11  H    2.444289   2.161135   2.173636   3.367388   2.766015
    12  H    4.328319   3.501487   1.095196   3.492423   2.153077
    13  H    2.500621   2.152961   2.178530   3.950611   3.441723
    14  O    5.324134   4.334176   2.536073   2.479834   1.440358
    15  C    4.860653   4.057547   2.596927   2.592737   1.471197
    16  O    4.558062   3.783517   3.792096   1.420685   2.432229
    17  H    5.317664   4.441355   3.911959   1.921122   2.477582
    18  O    2.605840   2.389036   4.283257   2.467101   3.785079
    19  C    3.740455   3.662490   5.350163   3.208716   4.551538
    20  H    4.511207   4.209911   5.435737   3.020672   4.386802
    21  H    4.288910   4.347424   6.248879   4.131813   5.540759
    22  H    3.739700   3.856806   5.553229   3.666587   4.774448
    23  O    2.071915   1.419606   2.953868   2.983097   3.508614
    24  Si   2.953162   2.816733   4.628572   4.282789   5.095561
    25  C    4.323120   3.976810   5.492228   4.395790   5.541979
    26  H    5.124033   4.927260   6.555958   5.464291   6.636129
    27  H    4.202237   3.862087   5.476380   3.913611   5.249952
    28  H    4.904699   4.342029   5.351358   4.362318   5.395406
    29  C    4.275713   4.127158   5.333428   5.703293   6.180781
    30  C    2.827037   3.348370   5.720750   5.224200   6.109824
    31  H    3.920260   4.424653   6.744846   6.168170   7.126153
    32  H    2.637883   3.387617   5.718424   5.623009   6.289652
    33  H    2.667873   3.247314   5.747907   4.862005   5.887871
    34  C    4.171216   4.233068   5.364809   6.254081   6.463335
    35  H    4.085296   4.424207   5.937343   6.663740   6.966640
    36  H    5.223013   5.243508   6.083492   7.178755   7.279245
    37  H    3.635462   3.609709   4.467483   5.674837   5.678801
    38  C    5.468816   5.456624   6.843929   6.959395   7.598117
    39  H    5.419170   5.618532   7.322180   7.326738   8.040542
    40  H    5.932036   5.815731   7.168426   6.972790   7.753246
    41  H    6.316902   6.287028   7.446733   7.819003   8.327110
    42  C    5.055546   4.586670   5.059469   5.642261   5.939153
    43  H    5.954044   5.535605   5.822639   6.657450   6.824308
    44  H    5.550900   4.993492   5.445328   5.628468   6.095313
    45  H    4.656328   4.034416   4.083560   4.969936   5.054013
    46  H    5.265952   4.547395   2.805650   3.549231   2.218740
    47  H    5.195288   4.496693   3.534962   2.795645   2.223779
                    6          7          8          9         10
     6  C    0.000000
     7  C    2.540015   0.000000
     8  H    3.391144   2.166181   0.000000
     9  H    2.145075   3.318021   2.601716   0.000000
    10  H    1.103203   2.773481   4.026815   3.050869   0.000000
    11  H    2.806457   1.098698   3.073719   3.999989   2.587645
    12  H    3.976204   2.188697   1.767847   3.777014   4.156334
    13  H    3.479108   1.095077   2.487117   4.125414   3.765811
    14  O    3.788254   3.817517   2.919045   2.874714   3.971841
    15  C    3.441731   3.436197   3.421500   3.418857   3.224834
    16  O    2.424866   4.256461   4.119638   2.074706   2.660962
    17  H    3.240893   4.690634   4.164073   2.344097   3.493729
    18  O    1.418508   3.758195   4.474868   2.695949   2.065887
    19  C    2.405615   4.893227   5.666036   3.629811   2.515807
    20  H    2.755937   5.276830   5.739401   3.455784   2.865920
    21  H    3.301545   5.716833   6.456710   4.357733   3.519406
    22  H    2.668954   4.934664   6.050826   4.316221   2.313005
    23  O    2.448464   2.392517   2.658760   2.639992   3.375600
    24  Si   3.605013   3.994205   4.197909   3.757144   4.546491
    25  C    4.100013   5.243725   4.956567   3.631009   5.137975
    26  H    5.085320   6.229749   5.996945   4.711624   6.079098
    27  H    3.588954   5.233276   5.107481   3.289552   4.562704
    28  H    4.438260   5.400121   4.658253   3.409820   5.529333
    29  C    5.233587   4.817673   4.665153   5.052209   6.152856
    30  C    4.057718   4.664316   5.583006   5.017275   4.689712
    31  H    5.059709   5.734672   6.522482   5.868267   5.710095
    32  H    4.362489   4.470660   5.679107   5.538149   4.835863
    33  H    3.574306   4.692268   5.757927   4.810156   4.083849
    34  C    5.619244   4.601102   4.858118   5.805597   6.359787
    35  H    5.796738   4.935973   5.584297   6.326796   6.435742
    36  H    6.646754   5.440176   5.495845   6.675657   7.390650
    37  H    5.089946   3.688461   4.050637   5.339919   5.750718
    38  C    6.432701   6.298061   6.157870   6.250284   7.361661
    39  H    6.587807   6.572597   6.763101   6.728401   7.431878
    40  H    6.574332   6.771288   6.425524   6.164977   7.568572
    41  H    7.360228   6.955875   6.699556   7.083677   8.281763
    42  C    5.585903   4.988498   4.157959   4.829596   6.573398
    43  H    6.621500   5.775859   4.895729   5.852219   7.577877
    44  H    5.734090   5.545700   4.489796   4.682525   6.792149
    45  H    5.054826   4.178748   3.143356   4.218613   5.997083
    46  H    4.204647   3.594113   3.732282   4.332282   3.877806
    47  H    3.549413   4.147347   4.338824   3.750855   3.139043
                   11         12         13         14         15
    11  H    0.000000
    12  H    2.503498   0.000000
    13  H    1.766293   2.546547   0.000000
    14  O    4.040489   2.725133   4.676168   0.000000
    15  C    3.264628   2.705385   4.394744   1.445011   0.000000
    16  O    4.446962   4.581666   5.298422   2.771806   2.822893
    17  H    4.920125   4.565031   5.704383   2.280769   2.689900
    18  O    4.079025   5.323076   4.536356   4.929499   4.714009
    19  C    4.987384   6.324104   5.760717   5.506196   5.147431
    20  H    5.381167   6.371384   6.234742   5.086858   4.843364
    21  H    5.879797   7.263101   6.487706   6.494323   6.217873
    22  H    4.789808   6.432519   5.810716   5.776562   5.142868
    23  O    3.336094   3.949423   2.599062   4.757636   4.887445
    24  Si   4.858422   5.607947   4.007294   6.279083   6.477916
    25  C    6.102574   6.541853   5.509833   6.469321   6.905565
    26  H    7.074360   7.595700   6.414826   7.557810   7.991584
    27  H    5.964837   6.563532   5.694308   6.157361   6.498680
    28  H    6.342124   6.351206   5.668253   6.133323   6.787205
    29  C    5.786362   6.110568   4.418697   7.258213   7.609901
    30  C    5.216523   6.668519   4.660478   7.439410   7.311183
    31  H    6.308497   7.697973   5.674736   8.418370   8.354301
    32  H    4.915864   6.556846   4.288595   7.681761   7.422617
    33  H    5.093656   6.733318   4.914154   7.211882   6.970218
    34  C    5.449691   5.965860   3.904883   7.630383   7.790398
    35  H    5.639340   6.566699   4.262470   8.233020   8.235854
    36  H    6.292689   6.565280   4.637791   8.363541   8.599729
    37  H    4.521567   4.979878   2.888176   6.849041   6.940516
    38  C    7.228541   7.646418   5.911739   8.653261   9.037260
    39  H    7.400972   8.151389   6.189149   9.196640   9.436504
    40  H    7.731982   8.033818   6.528392   8.715182   9.208592
    41  H    7.903929   8.151682   6.441268   9.332765   9.768512
    42  C    6.061028   5.735177   4.620808   6.777679   7.387670
    43  H    6.832703   6.363595   5.258923   7.600967   8.242838
    44  H    6.629717   6.193246   5.359281   6.807323   7.556641
    45  H    5.267265   4.691760   3.829213   5.849614   6.470931
    46  H    3.240534   2.495215   4.401818   2.142803   1.089976
    47  H    3.853689   3.760610   5.180335   2.143970   1.087702
                   16         17         18         19         20
    16  O    0.000000
    17  H    0.973980   0.000000
    18  O    2.918307   3.824888   0.000000
    19  C    3.015243   3.960951   1.422707   0.000000
    20  H    2.372254   3.230112   2.091394   1.093496   0.000000
    21  H    3.951127   4.852381   2.023108   1.093415   1.790174
    22  H    3.466920   4.422275   2.087981   1.101154   1.786933
    23  O    4.290302   4.829165   2.819503   4.239834   4.732508
    24  Si   5.384581   5.985140   3.289117   4.603663   5.233854
    25  C    5.136214   5.653146   3.381334   4.402242   4.781197
    26  H    6.128220   6.657476   4.214202   5.086069   5.514894
    27  H    4.421283   5.016294   2.635488   3.448167   3.774006
    28  H    5.097040   5.435423   3.953305   4.984291   5.163679
    29  C    6.935929   7.390249   5.159906   6.509087   7.095725
    30  C    6.170313   6.956112   3.448227   4.475171   5.391501
    31  H    7.044853   7.823224   4.286129   5.175281   6.084318
    32  H    6.665564   7.453056   4.028636   5.066455   6.027162
    33  H    5.621654   6.483642   2.740780   3.551386   4.537676
    34  C    7.589998   8.074415   5.775998   7.143638   7.827548
    35  H    7.951217   8.537662   5.823372   7.107455   7.908544
    36  H    8.534919   8.955594   6.845709   8.223393   8.879591
    37  H    7.062466   7.512560   5.501446   6.890084   7.530010
    38  C    8.080951   8.564486   6.085561   7.314022   7.939447
    39  H    8.410979   8.993084   6.115228   7.258156   7.996750
    40  H    7.971805   8.418280   6.082713   7.226083   7.760823
    41  H    8.990901   9.419238   7.114388   8.375348   8.984740
    42  C    6.874889   7.132939   5.713858   7.083071   7.469362
    43  H    7.910415   8.122633   6.794755   8.171850   8.567487
    44  H    6.719711   6.922151   5.710073   6.995613   7.275690
    45  H    6.262017   6.454411   5.437161   6.828540   7.147123
    46  H    3.902836   3.765191   5.557211   6.040772   5.825351
    47  H    2.507249   2.435273   4.649353   4.774491   4.345260
                   21         22         23         24         25
    21  H    0.000000
    22  H    1.784278   0.000000
    23  O    4.710680   4.727274   0.000000
    24  Si   4.684922   5.226929   1.688624   0.000000
    25  C    4.265043   5.317995   2.919480   1.886391   0.000000
    26  H    4.734683   5.997212   3.868473   2.509792   1.096891
    27  H    3.265207   4.433271   3.139265   2.475017   1.094305
    28  H    4.976525   5.947594   3.169068   2.507496   1.096143
    29  C    6.598747   7.101622   2.861067   1.919972   3.131686
    30  C    4.331355   4.839954   2.942220   1.890511   3.096344
    31  H    4.825318   5.595302   3.876657   2.498573   3.310709
    32  H    5.046832   5.233674   3.206483   2.525146   4.064645
    33  H    3.346647   3.857840   3.191250   2.486189   3.284088
    34  C    7.331291   7.536056   3.303750   2.844706   4.475928
    35  H    7.207999   7.404660   3.711875   3.064782   4.774925
    36  H    8.405582   8.629908   4.286349   3.836102   5.307141
    37  H    7.235457   7.200180   2.881451   3.025480   4.758791
    38  C    7.185801   7.963772   4.216979   2.846211   3.503578
    39  H    7.030036   7.826676   4.549317   3.049645   3.830228
    40  H    7.013739   7.991430   4.513188   3.054462   3.061798
    41  H    8.277035   9.009938   5.037454   3.836876   4.513228
    42  C    7.293996   7.763162   3.225176   2.842323   3.527801
    43  H    8.373043   8.829688   4.229247   3.834391   4.536820
    44  H    7.136890   7.795960   3.584138   3.057339   3.096989
    45  H    7.199830   7.449092   2.790042   3.025123   3.848607
    46  H    7.119029   5.919931   5.439252   7.095618   7.722227
    47  H    5.854736   4.679717   5.422432   6.907960   7.181389
                   26         27         28         29         30
    26  H    0.000000
    27  H    1.776749   0.000000
    28  H    1.770828   1.769624   0.000000
    29  C    3.399673   4.069543   3.320594   0.000000
    30  C    3.312007   3.298415   4.056987   3.146169   0.000000
    31  H    3.153037   3.618117   4.316120   3.381485   1.096686
    32  H    4.331789   4.305594   4.937697   3.368559   1.096305
    33  H    3.580890   3.111935   4.297080   4.087269   1.094708
    34  C    4.796748   5.279408   4.750804   1.543101   3.489740
    35  H    4.981567   5.487652   5.265519   2.202434   3.058132
    36  H    5.535726   6.196372   5.458705   2.186921   4.514820
    37  H    5.292454   5.432646   4.968602   2.196996   3.766968
    38  C    3.265095   4.521556   3.780342   1.543738   3.578699
    39  H    3.463232   4.718330   4.366469   2.204537   3.144695
    40  H    2.604720   4.110035   3.232434   2.203007   3.943883
    41  H    4.262606   5.562253   4.641094   2.186451   4.572153
    42  C    3.941867   4.487995   3.208983   1.543565   4.484541
    43  H    4.812759   5.538342   4.189006   2.186927   5.318509
    44  H    3.438675   4.080018   2.525649   2.203031   4.807629
    45  H    4.505302   4.641284   3.464313   2.196513   4.734786
    46  H    8.810297   7.394256   7.610040   8.072821   7.882267
    47  H    8.237605   6.620240   7.136193   8.231986   7.582274
                   31         32         33         34         35
    31  H    0.000000
    32  H    1.767764   0.000000
    33  H    1.771362   1.773233   0.000000
    34  C    3.839343   3.200746   4.483276   0.000000
    35  H    3.299543   2.543584   4.082559   1.096957   0.000000
    36  H    4.729463   4.201559   5.541427   1.099976   1.768596
    37  H    4.374582   3.372689   4.608186   1.096468   1.772695
    38  C    3.312982   3.918877   4.571164   2.513920   2.765945
    39  H    2.633439   3.412484   4.160947   2.783717   2.584167
    40  H    3.589563   4.528366   4.792366   3.488395   3.793379
    41  H    4.290215   4.761911   5.603564   2.748133   3.087324
    42  C    4.803497   4.766697   5.289489   2.509283   3.484853
    43  H    5.536583   5.486001   6.209529   2.738675   3.747544
    44  H    5.035445   5.303437   5.506523   3.484934   4.360338
    45  H    5.270555   4.929675   5.423698   2.776538   3.802501
    46  H    8.954396   7.857385   7.604655   8.066285   8.509887
    47  H    8.603832   7.754749   7.092518   8.486977   8.851435
                   36         37         38         39         40
    36  H    0.000000
    37  H    1.771220   0.000000
    38  C    2.766546   3.485308   0.000000
    39  H    3.140540   3.796549   1.097403   0.000000
    40  H    3.773445   4.358173   1.096707   1.772210   0.000000
    41  H    2.543309   3.766877   1.099877   1.767611   1.768194
    42  C    2.735428   2.779574   2.515658   3.491204   2.777517
    43  H    2.503207   3.109723   2.763802   3.776185   3.124642
    44  H    3.747038   3.803430   2.771994   3.796225   2.582401
    45  H    3.100083   2.596773   3.485841   4.359624   3.792401
    46  H    8.810837   7.126496   9.556160   9.953534   9.825144
    47  H    9.362387   7.692385   9.594370   9.925825   9.706614
                   41         42         43         44         45
    41  H    0.000000
    42  C    2.757508   0.000000
    43  H    2.548504   1.100231   0.000000
    44  H    3.106820   1.096825   1.768330   0.000000
    45  H    3.772081   1.095852   1.772916   1.771195   0.000000
    46  H   10.219419   7.835528   8.606449   8.119903   6.856641
    47  H   10.399437   8.111720   9.029136   8.210300   7.263865
                   46         47
    46  H    0.000000
    47  H    1.845270   0.000000
 Stoichiometry    C14H28O4Si
 Framework group  C1[X(C14H28O4Si)]
 Deg. of freedom   135
 Full point group                 C1      NOp   1
 Largest Abelian subgroup         C1      NOp   1
 Largest concise Abelian subgroup C1      NOp   1
                         Standard orientation:                         
 ---------------------------------------------------------------------
 Center     Atomic      Atomic             Coordinates (Angstroms)
 Number     Number       Type             X           Y           Z
 ---------------------------------------------------------------------
      1          1           0        0.070641    0.381981   -2.060039
      2          6           0        0.487612   -0.097746   -1.164102
      3          6           0        1.813255   -2.113241   -0.354254
      4          6           0        2.277549    0.207228    0.599176
      5          6           0        2.847855   -1.150535    0.186901
      6          6           0        1.565252    0.854065   -0.597815
      7          6           0        1.099266   -1.454825   -1.548372
      8          1           0        1.080111   -2.341628    0.427875
      9          1           0        1.526557    0.036155    1.384828
     10          1           0        2.312738    1.034006   -1.388981
     11          1           0        1.810500   -1.306157   -2.372496
     12          1           0        2.288934   -3.055424   -0.646614
     13          1           0        0.300565   -2.104215   -1.921953
     14          8           0        3.834720   -1.654748    1.106954
     15          6           0        4.259541   -1.252911   -0.214451
     16          8           0        3.302208    1.065301    1.080976
     17          1           0        3.789225    0.536484    1.738094
     18          8           0        0.921724    2.075391   -0.271625
     19          6           0        1.743014    3.236313   -0.314484
     20          1           0        2.515804    3.215219    0.458875
     21          1           0        1.077919    4.088942   -0.152532
     22          1           0        2.223723    3.343559   -1.299348
     23          8           0       -0.540827   -0.334441   -0.214591
     24         14           0       -1.961071    0.530867    0.077985
     25          6           0       -1.779554    1.507850    1.681427
     26          1           0       -2.683179    2.085696    1.911049
     27          1           0       -0.939698    2.203358    1.589700
     28          1           0       -1.578219    0.850730    2.535351
     29          6           0       -3.323268   -0.811098    0.250733
     30          6           0       -2.329030    1.702228   -1.359566
     31          1           0       -3.262532    2.250356   -1.183927
     32          1           0       -2.431033    1.178204   -2.317104
     33          1           0       -1.522399    2.435695   -1.458352
     34          6           0       -3.475924   -1.581575   -1.077507
     35          1           0       -3.795953   -0.926684   -1.897272
     36          1           0       -4.232409   -2.374071   -0.979389
     37          1           0       -2.535316   -2.059048   -1.376702
     38          6           0       -4.672549   -0.152244    0.609175
     39          1           0       -5.001318    0.558470   -0.159649
     40          1           0       -4.625899    0.385767    1.563709
     41          1           0       -5.459877   -0.914472    0.703262
     42          6           0       -2.936371   -1.809590    1.362451
     43          1           0       -3.699587   -2.596481    1.456320
     44          1           0       -2.851497   -1.321817    2.341174
     45          1           0       -1.979221   -2.298448    1.148506
     46          1           0        4.572478   -2.072779   -0.860930
     47          1           0        4.881455   -0.361061   -0.244833
 ---------------------------------------------------------------------
 Rotational constants (GHZ):      0.5603384      0.2196395      0.1882457
 Standard basis: 6-31+G(d,p) (6D, 7F)
 There are   505 symmetry adapted basis functions of A   symmetry.
 Integral buffers will be    131072 words long.
 Raffenetti 2 integral format.
 Two-electron integral symmetry is turned on.
   505 basis functions,   828 primitive gaussians,   505 cartesian basis functions
    79 alpha electrons       79 beta electrons
       nuclear repulsion energy      1829.3981739082 Hartrees.
 NAtoms=   47 NActive=   47 NUniq=   47 SFac= 1.00D+00 NAtFMM=   60 NAOKFM=F Big=F
 ------------------------------------------------------------------------------
 Polarizable Continuum Model (PCM)
 =================================
 Model                : PCM.
 Atomic radii         : UFF (Universal Force Field).
 Polarization charges : Total charges.
 Charge compensation  : None.
 Solution method      : Matrix inversion.
 Cavity type          : Scaled VdW (van der Waals Surface) (Alpha=1.100).
 Cavity algorithm     : GePol (No added spheres)
                        Default sphere list used, NSphG=   47.
                        Lebedev-Laikov grids with approx.  5.0 points / Ang**2.
                        Smoothing algorithm: Karplus/York (Gamma=1.0000).
                        Polarization charges: spherical gaussians, with
                                              point-specific exponents (IZeta= 3).
                        Self-potential: point-specific (ISelfS= 7).
                        Self-field    : sphere-specific E.n sum rule (ISelfD= 2).
 Solvent              : Chloroform, Eps=   4.711300 Eps(inf)=   2.090627
 ------------------------------------------------------------------------------
 One-electron integrals computed using PRISM.
 NBasis=   505 RedAO= T  NBF=   505
 NBsUse=   505 1.00D-06 NBFU=   505
 Harris functional with IExCor=  908 diagonalized for initial guess.
 ExpMin= 3.31D-02 ExpMax= 1.61D+04 ExpMxC= 2.43D+03 IAcc=3 IRadAn=         5 AccDes= 0.00D+00
 HarFok:  IExCor=  908 AccDes= 0.00D+00 IRadAn=         5 IDoV= 1
 ScaDFX=  1.000000  1.000000  1.000000  1.000000
 FoFCou: FMM=F IPFlag=           0 FMFlag=      100000 FMFlg1=           0
         NFxFlg=           0 DoJE=T BraDBF=F KetDBF=T FulRan=T
         Omega=  0.000000  0.000000  1.000000  0.000000  0.000000 ICntrl=     500 IOpCl=  0
         NMat0=    1 NMatS0=    1 NMatT0=    0 NMatD0=    1 NMtDS0=    0 NMtDT0=    0
         I1Cent=           4 NGrid=           0.
 Petite list used in FoFCou.
 Initial guess orbital symmetries:
       Occupied  (A) (A) (A) (A) (A) (A) (A) (A) (A) (A) (A) (A)
                 (A) (A) (A) (A) (A) (A) (A) (A) (A) (A) (A) (A)
                 (A) (A) (A) (A) (A) (A) (A) (A) (A) (A) (A) (A)
                 (A) (A) (A) (A) (A) (A) (A) (A) (A) (A) (A) (A)
                 (A) (A) (A) (A) (A) (A) (A) (A) (A) (A) (A) (A)
                 (A) (A) (A) (A) (A) (A) (A) (A) (A) (A) (A) (A)
                 (A) (A) (A) (A) (A) (A) (A)
       Virtual   (A) (A) (A) (A) (A) (A) (A) (A) (A) (A) (A) (A)
                 (A) (A) (A) (A) (A) (A) (A) (A) (A) (A) (A) (A)
                 (A) (A) (A) (A) (A) (A) (A) (A) (A) (A) (A) (A)
                 (A) (A) (A) (A) (A) (A) (A) (A) (A) (A) (A) (A)
                 (A) (A) (A) (A) (A) (A) (A) (A) (A) (A) (A) (A)
                 (A) (A) (A) (A) (A) (A) (A) (A) (A) (A) (A) (A)
                 (A) (A) (A) (A) (A) (A) (A) (A) (A) (A) (A) (A)
                 (A) (A) (A) (A) (A) (A) (A) (A) (A) (A) (A) (A)
                 (A) (A) (A) (A) (A) (A) (A) (A) (A) (A) (A) (A)
                 (A) (A) (A) (A) (A) (A) (A) (A) (A) (A) (A) (A)
                 (A) (A) (A) (A) (A) (A) (A) (A) (A) (A) (A) (A)
                 (A) (A) (A) (A) (A) (A) (A) (A) (A) (A) (A) (A)
                 (A) (A) (A) (A) (A) (A) (A) (A) (A) (A) (A) (A)
                 (A) (A) (A) (A) (A) (A) (A) (A) (A) (A) (A) (A)
                 (A) (A) (A) (A) (A) (A) (A) (A) (A) (A) (A) (A)
                 (A) (A) (A) (A) (A) (A) (A) (A) (A) (A) (A) (A)
                 (A) (A) (A) (A) (A) (A) (A) (A) (A) (A) (A) (A)
                 (A) (A) (A) (A) (A) (A) (A) (A) (A) (A) (A) (A)
                 (A) (A) (A) (A) (A) (A) (A) (A) (A) (A) (A) (A)
                 (A) (A) (A) (A) (A) (A) (A) (A) (A) (A) (A) (A)
                 (A) (A) (A) (A) (A) (A) (A) (A) (A) (A) (A) (A)
                 (A) (A) (A) (A) (A) (A) (A) (A) (A) (A) (A) (A)
                 (A) (A) (A) (A) (A) (A) (A) (A) (A) (A) (A) (A)
                 (A) (A) (A) (A) (A) (A) (A) (A) (A) (A) (A) (A)
                 (A) (A) (A) (A) (A) (A) (A) (A) (A) (A) (A) (A)
                 (A) (A) (A) (A) (A) (A) (A) (A) (A) (A) (A) (A)
                 (A) (A) (A) (A) (A) (A) (A) (A) (A) (A) (A) (A)
                 (A) (A) (A) (A) (A) (A) (A) (A) (A) (A) (A) (A)
                 (A) (A) (A) (A) (A) (A) (A) (A) (A) (A) (A) (A)
                 (A) (A) (A) (A) (A) (A) (A) (A) (A) (A) (A) (A)
                 (A) (A) (A) (A) (A) (A) (A) (A) (A) (A) (A) (A)
                 (A) (A) (A) (A) (A) (A) (A) (A) (A) (A) (A) (A)
                 (A) (A) (A) (A) (A) (A) (A) (A) (A) (A) (A) (A)
                 (A) (A) (A) (A) (A) (A) (A) (A) (A) (A) (A) (A)
                 (A) (A) (A) (A) (A) (A) (A) (A) (A) (A) (A) (A)
                 (A) (A) (A) (A) (A) (A)
 The electronic state of the initial guess is 1-A.
 Requested convergence on RMS density matrix=1.00D-08 within 128 cycles.
 Requested convergence on MAX density matrix=1.00D-06.
 Requested convergence on             energy=1.00D-06.
 No special actions if energy rises.
 Error on total polarization charges =  0.01546
 SCF Done:  E(RmPW1PW91) =  -1140.62541575     A.U. after   13 cycles
             Convg  =    0.4325D-08             -V/T =  2.0080
 Range of M.O.s used for correlation:     1   505
 NBasis=   505 NAE=    79 NBE=    79 NFC=     0 NFV=     0
 NROrb=    505 NOA=    79 NOB=    79 NVA=   426 NVB=   426

 **** Warning!!: The largest alpha MO coefficient is  0.82430191D+02

 NEqPCM:  Using equilibrium solvation (IEInf=0, Eps=   4.7113, EpsInf=   2.0906)
          Differentiating once with respect to magnetic field using GIAOs.
          Electric field/nuclear overlap derivatives assumed to be zero.
 FoFCou: FMM=F IPFlag=           0 FMFlag=    10101102 FMFlg1=           0
         NFxFlg=    40000000 DoJE=F BraDBF=F KetDBF=T FulRan=T
         Omega=  0.000000  0.000000  1.000000  0.000000  0.000000 ICntrl=    6100 IOpCl=  0
         NMat0=    1 NMatS0=    1 NMatT0=    0 NMatD0=    1 NMtDS0=    0 NMtDT0=    0
         I1Cent=           7 NGrid=        3020.
 Symmetry not used in FoFCou.
          There are     3 degrees of freedom in the 1st order CPHF.  IDoFFX=0.
      3 vectors produced by pass  0 Test12= 1.12D-12 3.33D-08 XBig12= 1.49D+02 2.21D+00.
 AX will form     3 AO Fock derivatives at one time.
      3 vectors produced by pass  1 Test12= 1.12D-12 3.33D-08 XBig12= 3.79D-01 8.86D-02.
      3 vectors produced by pass  2 Test12= 1.12D-12 3.33D-08 XBig12= 8.48D-04 4.81D-03.
      3 vectors produced by pass  3 Test12= 1.12D-12 3.33D-08 XBig12= 4.12D-06 3.19D-04.
      3 vectors produced by pass  4 Test12= 1.12D-12 3.33D-08 XBig12= 1.49D-08 1.58D-05.
      3 vectors produced by pass  5 Test12= 1.12D-12 3.33D-08 XBig12= 3.89D-11 9.27D-07.
      2 vectors produced by pass  6 Test12= 1.12D-12 3.33D-08 XBig12= 1.40D-13 4.46D-08.
 Inverted reduced A of dimension    20 with in-core refinement.
 Calculating GIAO nuclear magnetic shielding tensors.
 SCF GIAO Magnetic shielding tensor (ppm):
      1  H    Isotropic =    27.4142   Anisotropy =     3.8811
   XX=    28.4456   YX=    -1.2920   ZX=    -2.0120
   XY=    -1.6938   YY=    24.6008   ZY=    -1.2248
   XZ=    -0.0161   YZ=    -2.2356   ZZ=    29.1962
   Eigenvalues:    23.4174    28.8236    30.0016
      2  C    Isotropic =   122.0462   Anisotropy =    37.8240
   XX=   131.2933   YX=    12.9279   ZX=   -20.9973
   XY=     3.8704   YY=   115.8202   ZY=     5.6581
   XZ=   -19.5545   YZ=    -0.7435   ZZ=   119.0252
   Eigenvalues:   100.6342   118.2422   147.2622
      3  C    Isotropic =   168.1214   Anisotropy =    29.1349
   XX=   169.9049   YX=     4.0077   ZX=    16.4315
   XY=     5.9017   YY=   174.9710   ZY=     8.1077
   XZ=    13.4442   YZ=     9.7516   ZZ=   159.4882
   Eigenvalues:   148.0756   168.7438   187.5446
      4  C    Isotropic =   122.7283   Anisotropy =    39.5283
   XX=   127.0717   YX=     9.2827   ZX=     9.8322
   XY=    18.6093   YY=   132.7847   ZY=     8.8921
   XZ=    16.5191   YZ=     5.7238   ZZ=   108.3286
   Eigenvalues:   101.5311   117.5733   149.0805
      5  C    Isotropic =   133.5560   Anisotropy =    59.8627
   XX=    91.9642   YX=     8.2096   ZX=    18.7859
   XY=    10.5745   YY=   169.9546   ZY=    10.7070
   XZ=    22.1673   YZ=     1.5188   ZZ=   138.7493
   Eigenvalues:    83.7487   143.4549   173.4645
      6  C    Isotropic =   111.0945   Anisotropy =    40.4375
   XX=   106.4943   YX=   -10.0982   ZX=    -0.9175
   XY=   -14.4088   YY=   129.3027   ZY=     9.3144
   XZ=   -11.2349   YZ=    11.0500   ZZ=    97.4867
   Eigenvalues:    93.7921   101.4387   138.0529
      7  C    Isotropic =   163.2059   Anisotropy =    20.2065
   XX=   163.6324   YX=    -6.5675   ZX=    -5.5800
   XY=    -9.8746   YY=   168.3413   ZY=     8.0579
   XZ=    -2.3645   YZ=     1.9316   ZZ=   157.6440
   Eigenvalues:   155.4930   157.4478   176.6769
      8  H    Isotropic =    29.1733   Anisotropy =     6.4614
   XX=    31.5592   YX=     0.6448   ZX=    -1.8768
   XY=     1.6459   YY=    28.7910   ZY=    -3.5784
   XZ=    -1.8522   YZ=    -2.6940   ZZ=    27.1696
   Eigenvalues:    24.6458    29.3931    33.4808
      9  H    Isotropic =    27.1565   Anisotropy =     6.8642
   XX=    31.3624   YX=     1.5886   ZX=     0.0508
   XY=     1.6210   YY=    24.5604   ZY=     0.0492
   XZ=     0.1229   YZ=     1.5034   ZZ=    25.5467
   Eigenvalues:    23.8732    25.8637    31.7326
     10  H    Isotropic =    28.5066   Anisotropy =     3.2699
   XX=    28.2510   YX=    -0.0593   ZX=    -1.2584
   XY=    -2.4753   YY=    29.9901   ZY=     0.3857
   XZ=    -2.1792   YZ=    -1.6042   ZZ=    27.2788
   Eigenvalues:    25.6126    29.2206    30.6865
     11  H    Isotropic =    30.0098   Anisotropy =     9.0780
   XX=    29.3981   YX=    -1.6946   ZX=    -3.1196
   XY=    -1.4469   YY=    26.4146   ZY=     1.7702
   XZ=    -2.9034   YZ=     1.0483   ZZ=    34.2169
   Eigenvalues:    25.7382    28.2295    36.0619
     12  H    Isotropic =    30.4870   Anisotropy =    10.9154
   XX=    29.0328   YX=    -2.3077   ZX=     1.1129
   XY=    -2.3252   YY=    36.5369   ZY=     3.0326
   XZ=     0.9533   YZ=     2.8813   ZZ=    25.8914
   Eigenvalues:    24.5294    29.1677    37.7640
     13  H    Isotropic =    29.7083   Anisotropy =     8.8729
   XX=    31.2105   YX=     1.1294   ZX=     3.1886
   XY=     2.1641   YY=    29.4308   ZY=     3.8859
   XZ=     3.3419   YZ=     3.9442   ZZ=    28.4836
   Eigenvalues:    24.6591    28.8422    35.6236
     14  O    Isotropic =   315.5388   Anisotropy =   110.0430
   XX=   366.0795   YX=    16.5304   ZX=   -13.9539
   XY=    10.3347   YY=   360.8588   ZY=    69.5614
   XZ=   -38.6966   YZ=    67.1817   ZZ=   219.6780
   Eigenvalues:   187.1494   370.5661   388.9007
     15  C    Isotropic =   146.3554   Anisotropy =    33.9599
   XX=   113.1111   YX=     6.6261   ZX=    13.7439
   XY=     3.7482   YY=   163.4340   ZY=    -1.5030
   XZ=    14.2229   YZ=     6.6826   ZZ=   162.5210
   Eigenvalues:   109.0774   160.9934   168.9953
     16  O    Isotropic =   312.1046   Anisotropy =    44.4366
   XX=   329.4170   YX=    15.4080   ZX=    26.0997
   XY=   -18.8996   YY=   294.5559   ZY=   -23.9745
   XZ=     0.7535   YZ=   -24.8280   ZZ=   312.3410
   Eigenvalues:   276.6913   317.8936   341.7290
     17  H    Isotropic =    29.6502   Anisotropy =    17.5023
   XX=    27.0361   YX=    -4.0863   ZX=    10.1775
   XY=    -2.7019   YY=    30.6503   ZY=    -2.5285
   XZ=    11.0577   YZ=    -1.6576   ZZ=    31.2642
   Eigenvalues:    18.1820    29.4503    41.3184
     18  O    Isotropic =   296.0330   Anisotropy =    68.0901
   XX=   314.0422   YX=   -37.2114   ZX=   -12.2423
   XY=   -25.2304   YY=   297.2613   ZY=     5.5646
   XZ=   -14.8642   YZ=     8.0913   ZZ=   276.7956
   Eigenvalues:   270.5806   276.0920   341.4265
     19  C    Isotropic =   136.8905   Anisotropy =    85.7498
   XX=   127.8824   YX=    36.8532   ZX=    -3.3904
   XY=    35.5785   YY=   174.1236   ZY=    -2.5383
   XZ=    -3.8090   YZ=     0.2622   ZZ=   108.6656
   Eigenvalues:   105.6847   110.9298   194.0571
     20  H    Isotropic =    27.2163   Anisotropy =     8.8799
   XX=    27.3948   YX=     2.4442   ZX=     4.1558
   XY=     3.7389   YY=    30.5848   ZY=     1.5318
   XZ=     2.9278   YZ=    -0.2638   ZZ=    23.6693
   Eigenvalues:    21.3928    27.1198    33.1363
     21  H    Isotropic =    27.8751   Anisotropy =    10.6187
   XX=    25.6205   YX=     2.2776   ZX=    -0.1045
   XY=    -0.9073   YY=    34.8943   ZY=     0.6184
   XZ=    -0.4629   YZ=     0.0989   ZZ=    23.1105
   Eigenvalues:    23.0628    25.6083    34.9542
     22  H    Isotropic =    28.3333   Anisotropy =    10.3196
   XX=    27.5421   YX=     3.3498   ZX=    -2.5919
   XY=     4.4609   YY=    30.3174   ZY=    -4.9292
   XZ=    -1.2271   YZ=    -2.5260   ZZ=    27.1405
   Eigenvalues:    24.3566    25.4303    35.2131
     23  O    Isotropic =   287.0310   Anisotropy =    20.0628
   XX=   283.9053   YX=    -2.5485   ZX=    17.2004
   XY=     3.1092   YY=   300.3896   ZY=    -1.9592
   XZ=    10.4911   YZ=     2.2402   ZZ=   276.7980
   Eigenvalues:   266.0570   294.6297   300.4061
     24  Si   Isotropic =   377.7871   Anisotropy =    32.0991
   XX=   396.1073   YX=   -16.6262   ZX=     5.6105
   XY=    -1.0222   YY=   373.6168   ZY=     3.4236
   XZ=    -0.1838   YZ=     6.0195   ZZ=   363.6372
   Eigenvalues:   360.7082   373.4665   399.1865
     25  C    Isotropic =   198.7494   Anisotropy =     8.7606
   XX=   202.1879   YX=    -2.7327   ZX=     0.1062
   XY=    -3.3964   YY=   192.9858   ZY=     5.6354
   XZ=    -1.3402   YZ=     2.9541   ZZ=   201.0746
   Eigenvalues:   190.5510   201.1074   204.5898
     26  H    Isotropic =    31.7335   Anisotropy =    10.9416
   XX=    34.3449   YX=    -4.0642   ZX=    -2.8344
   XY=    -3.6921   YY=    31.5406   ZY=     3.6222
   XZ=    -2.7478   YZ=     3.4881   ZZ=    29.3150
   Eigenvalues:    26.7021    29.4705    39.0279
     27  H    Isotropic =    30.9086   Anisotropy =    10.0836
   XX=    34.1188   YX=     4.9174   ZX=    -2.2909
   XY=     5.0129   YY=    30.4199   ZY=     1.4355
   XZ=    -1.5984   YZ=     1.5290   ZZ=    28.1870
   Eigenvalues:    25.1569    29.9378    37.6310
     28  H    Isotropic =    31.2864   Anisotropy =     8.2552
   XX=    28.2941   YX=    -0.0222   ZX=     1.2306
   XY=     0.3843   YY=    29.9709   ZY=    -2.2316
   XZ=     1.2867   YZ=    -3.0667   ZZ=    35.5944
   Eigenvalues:    27.7993    29.2701    36.7899
     29  C    Isotropic =   172.5859   Anisotropy =     7.2888
   XX=   174.7779   YX=    -4.0265   ZX=    -0.6502
   XY=    -1.7956   YY=   173.0711   ZY=     1.2979
   XZ=    -1.9571   YZ=     1.6031   ZZ=   169.9086
   Eigenvalues:   169.3359   170.9766   177.4451
     30  C    Isotropic =   201.1214   Anisotropy =     4.8164
   XX=   203.1252   YX=    -1.2852   ZX=     1.7388
   XY=     0.3018   YY=   198.0360   ZY=    -0.7028
   XZ=     1.4675   YZ=     2.0725   ZZ=   202.2031
   Eigenvalues:   197.8127   201.2192   204.3324
     31  H    Isotropic =    31.6990   Anisotropy =    10.6959
   XX=    35.5317   YX=    -4.9515   ZX=    -0.0734
   XY=    -4.5552   YY=    31.8939   ZY=    -1.3968
   XZ=    -0.3434   YZ=    -1.1471   ZZ=    27.6714
   Eigenvalues:    26.8705    29.3969    38.8297
     32  H    Isotropic =    31.4458   Anisotropy =     8.7929
   XX=    28.3527   YX=     0.5940   ZX=     1.8193
   XY=     0.5896   YY=    29.4428   ZY=     1.4315
   XZ=     1.8100   YZ=     1.8590   ZZ=    36.5419
   Eigenvalues:    27.9208    29.1088    37.3077
     33  H    Isotropic =    31.0509   Anisotropy =     9.6704
   XX=    33.9617   YX=     3.9774   ZX=     0.4069
   XY=     4.3161   YY=    32.1154   ZY=    -2.6231
   XZ=     0.3580   YZ=    -2.9193   ZZ=    27.0757
   Eigenvalues:    25.2675    30.3874    37.4979
     34  C    Isotropic =   170.3235   Anisotropy =    37.5594
   XX=   156.9360   YX=     3.6304   ZX=     3.0409
   XY=     1.9901   YY=   166.2682   ZY=    16.9452
   XZ=    -0.2337   YZ=    12.3783   ZZ=   187.7662
   Eigenvalues:   155.6688   159.9385   195.3630
     35  H    Isotropic =    30.6403   Anisotropy =     8.3106
   XX=    28.1348   YX=     0.9545   ZX=     2.8927
   XY=     1.2393   YY=    28.8835   ZY=    -0.7319
   XZ=     3.1359   YZ=    -2.1524   ZZ=    34.9027
   Eigenvalues:    26.1057    29.6344    36.1807
     36  H    Isotropic =    31.0505   Anisotropy =     9.8216
   XX=    31.1690   YX=     4.4318   ZX=     1.0923
   XY=     4.8549   YY=    32.8952   ZY=     1.9121
   XZ=     1.8143   YZ=     2.6346   ZZ=    29.0874
   Eigenvalues:    27.2093    28.3440    37.5982
     37  H    Isotropic =    30.4121   Anisotropy =     7.8028
   XX=    32.5839   YX=    -0.8083   ZX=    -1.7973
   XY=    -1.5694   YY=    29.6169   ZY=     4.0274
   XZ=    -2.9451   YZ=     4.3335   ZZ=    29.0357
   Eigenvalues:    25.0113    30.6111    35.6140
     38  C    Isotropic =   170.3575   Anisotropy =    38.9010
   XX=   185.4330   YX=   -17.9188   ZX=    -7.9274
   XY=   -13.5281   YY=   165.8964   ZY=     3.6443
   XZ=    -7.3926   YZ=     4.9971   ZZ=   159.7432
   Eigenvalues:   157.1482   157.6328   196.2915
     39  H    Isotropic =    30.7241   Anisotropy =     9.0379
   XX=    33.3238   YX=    -3.6400   ZX=     1.9364
   XY=    -3.0581   YY=    30.8979   ZY=    -3.6552
   XZ=     0.7482   YZ=    -2.9549   ZZ=    27.9505
   Eigenvalues:    25.7229    29.7000    36.7494
     40  H    Isotropic =    30.6980   Anisotropy =     8.8794
   XX=    31.2915   YX=    -1.3268   ZX=    -3.6126
   XY=    -0.8493   YY=    29.3307   ZY=     4.6524
   XZ=    -2.2368   YZ=     4.1541   ZZ=    31.4717
   Eigenvalues:    25.6753    29.8010    36.6176
     41  H    Isotropic =    30.9266   Anisotropy =    10.2501
   XX=    36.5449   YX=     3.3691   ZX=    -1.7683
   XY=     2.1211   YY=    29.0340   ZY=    -0.3034
   XZ=    -1.8358   YZ=    -0.4768   ZZ=    27.2008
   Eigenvalues:    26.8553    28.1644    37.7600
     42  C    Isotropic =   170.3799   Anisotropy =    37.5225
   XX=   161.5387   YX=    -2.9936   ZX=     7.6986
   XY=    -7.3788   YY=   171.8356   ZY=   -19.0498
   XZ=    11.1702   YZ=   -15.0186   ZZ=   177.7653
   Eigenvalues:   155.8306   159.9141   195.3949
     43  H    Isotropic =    31.0454   Anisotropy =     9.7954
   XX=    30.0745   YX=     3.2730   ZX=    -0.9637
   XY=     3.9988   YY=    33.8723   ZY=    -3.2051
   XZ=    -1.4899   YZ=    -3.5777   ZZ=    29.1894
   Eigenvalues:    27.1227    28.4378    37.5757
     44  H    Isotropic =    30.4888   Anisotropy =     8.3118
   XX=    27.1233   YX=     1.5726   ZX=     1.1279
   XY=     1.2450   YY=    28.4519   ZY=    -1.3324
   XZ=     0.9486   YZ=     0.2818   ZZ=    35.8913
   Eigenvalues:    26.0931    29.3434    36.0301
     45  H    Isotropic =    30.2165   Anisotropy =     8.1440
   XX=    33.6504   YX=    -2.5939   ZX=    -0.8988
   XY=    -3.3158   YY=    30.6056   ZY=    -2.6223
   XZ=     0.2997   YZ=    -3.2126   ZZ=    26.3935
   Eigenvalues:    24.5858    30.4179    35.6459
     46  H    Isotropic =    28.9847   Anisotropy =    10.8597
   XX=    28.1842   YX=    -0.4230   ZX=    -2.4023
   XY=    -4.2826   YY=    29.0746   ZY=     4.7911
   XZ=    -4.7500   YZ=     4.4138   ZZ=    29.6954
   Eigenvalues:    24.4856    26.2440    36.2245
     47  H    Isotropic =    28.4199   Anisotropy =     8.0597
   XX=    30.3122   YX=     1.2018   ZX=    -3.9038
   XY=     4.8710   YY=    30.4930   ZY=    -0.1547
   XZ=    -1.9143   YZ=     0.9880   ZZ=    24.4545
   Eigenvalues:    22.9041    28.5626    33.7930
 End of Minotr Frequency-dependent properties file   721 does not exist.
 End of Minotr Frequency-dependent properties file   722 does not exist.

 **********************************************************************

            Population analysis using the SCF density.

 **********************************************************************

 Orbital symmetries:
       Occupied  (A) (A) (A) (A) (A) (A) (A) (A) (A) (A) (A) (A)
                 (A) (A) (A) (A) (A) (A) (A) (A) (A) (A) (A) (A)
                 (A) (A) (A) (A) (A) (A) (A) (A) (A) (A) (A) (A)
                 (A) (A) (A) (A) (A) (A) (A) (A) (A) (A) (A) (A)
                 (A) (A) (A) (A) (A) (A) (A) (A) (A) (A) (A) (A)
                 (A) (A) (A) (A) (A) (A) (A) (A) (A) (A) (A) (A)
                 (A) (A) (A) (A) (A) (A) (A)
       Virtual   (A) (A) (A) (A) (A) (A) (A) (A) (A) (A) (A) (A)
                 (A) (A) (A) (A) (A) (A) (A) (A) (A) (A) (A) (A)
                 (A) (A) (A) (A) (A) (A) (A) (A) (A) (A) (A) (A)
                 (A) (A) (A) (A) (A) (A) (A) (A) (A) (A) (A) (A)
                 (A) (A) (A) (A) (A) (A) (A) (A) (A) (A) (A) (A)
                 (A) (A) (A) (A) (A) (A) (A) (A) (A) (A) (A) (A)
                 (A) (A) (A) (A) (A) (A) (A) (A) (A) (A) (A) (A)
                 (A) (A) (A) (A) (A) (A) (A) (A) (A) (A) (A) (A)
                 (A) (A) (A) (A) (A) (A) (A) (A) (A) (A) (A) (A)
                 (A) (A) (A) (A) (A) (A) (A) (A) (A) (A) (A) (A)
                 (A) (A) (A) (A) (A) (A) (A) (A) (A) (A) (A) (A)
                 (A) (A) (A) (A) (A) (A) (A) (A) (A) (A) (A) (A)
                 (A) (A) (A) (A) (A) (A) (A) (A) (A) (A) (A) (A)
                 (A) (A) (A) (A) (A) (A) (A) (A) (A) (A) (A) (A)
                 (A) (A) (A) (A) (A) (A) (A) (A) (A) (A) (A) (A)
                 (A) (A) (A) (A) (A) (A) (A) (A) (A) (A) (A) (A)
                 (A) (A) (A) (A) (A) (A) (A) (A) (A) (A) (A) (A)
                 (A) (A) (A) (A) (A) (A) (A) (A) (A) (A) (A) (A)
                 (A) (A) (A) (A) (A) (A) (A) (A) (A) (A) (A) (A)
                 (A) (A) (A) (A) (A) (A) (A) (A) (A) (A) (A) (A)
                 (A) (A) (A) (A) (A) (A) (A) (A) (A) (A) (A) (A)
                 (A) (A) (A) (A) (A) (A) (A) (A) (A) (A) (A) (A)
                 (A) (A) (A) (A) (A) (A) (A) (A) (A) (A) (A) (A)
                 (A) (A) (A) (A) (A) (A) (A) (A) (A) (A) (A) (A)
                 (A) (A) (A) (A) (A) (A) (A) (A) (A) (A) (A) (A)
                 (A) (A) (A) (A) (A) (A) (A) (A) (A) (A) (A) (A)
                 (A) (A) (A) (A) (A) (A) (A) (A) (A) (A) (A) (A)
                 (A) (A) (A) (A) (A) (A) (A) (A) (A) (A) (A) (A)
                 (A) (A) (A) (A) (A) (A) (A) (A) (A) (A) (A) (A)
                 (A) (A) (A) (A) (A) (A) (A) (A) (A) (A) (A) (A)
                 (A) (A) (A) (A) (A) (A) (A) (A) (A) (A) (A) (A)
                 (A) (A) (A) (A) (A) (A) (A) (A) (A) (A) (A) (A)
                 (A) (A) (A) (A) (A) (A) (A) (A) (A) (A) (A) (A)
                 (A) (A) (A) (A) (A) (A) (A) (A) (A) (A) (A) (A)
                 (A) (A) (A) (A) (A) (A) (A) (A) (A) (A) (A) (A)
                 (A) (A) (A) (A) (A) (A)
 The electronic state is 1-A.
 Alpha  occ. eigenvalues --  -66.30041 -19.27074 -19.25532 -19.25345 -19.23116
 Alpha  occ. eigenvalues --  -10.31670 -10.30903 -10.30558 -10.30511 -10.30194
 Alpha  occ. eigenvalues --  -10.28287 -10.25403 -10.25358 -10.24337 -10.23378
 Alpha  occ. eigenvalues --  -10.23185 -10.23067 -10.22029 -10.21563  -5.33396
 Alpha  occ. eigenvalues --   -3.67320  -3.67024  -3.66989  -1.11620  -1.07524
 Alpha  occ. eigenvalues --   -1.05522  -1.02926  -0.84905  -0.81918  -0.77632
 Alpha  occ. eigenvalues --   -0.75079  -0.71759  -0.70182  -0.70061  -0.69822
 Alpha  occ. eigenvalues --   -0.69272  -0.69086  -0.63349  -0.62529  -0.58694
 Alpha  occ. eigenvalues --   -0.56141  -0.55097  -0.52541  -0.52187  -0.51668
 Alpha  occ. eigenvalues --   -0.49004  -0.47955  -0.47201  -0.46296  -0.45377
 Alpha  occ. eigenvalues --   -0.44339  -0.44301  -0.43987  -0.43380  -0.42607
 Alpha  occ. eigenvalues --   -0.41676  -0.41001  -0.40480  -0.40181  -0.39769
 Alpha  occ. eigenvalues --   -0.39384  -0.39079  -0.38791  -0.38481  -0.37625
 Alpha  occ. eigenvalues --   -0.36991  -0.36522  -0.35833  -0.34085  -0.33528
 Alpha  occ. eigenvalues --   -0.33431  -0.32846  -0.31860  -0.31188  -0.30409
 Alpha  occ. eigenvalues --   -0.29368  -0.28366  -0.27201  -0.25952
 Alpha virt. eigenvalues --   -0.00060   0.00552   0.01289   0.01499   0.02316
 Alpha virt. eigenvalues --    0.02962   0.03274   0.03730   0.03991   0.04896
 Alpha virt. eigenvalues --    0.05092   0.05454   0.05729   0.06108   0.06373
 Alpha virt. eigenvalues --    0.06755   0.06908   0.07908   0.08124   0.08184
 Alpha virt. eigenvalues --    0.08241   0.09070   0.09189   0.09379   0.09802
 Alpha virt. eigenvalues --    0.10011   0.10258   0.10772   0.10959   0.11626
 Alpha virt. eigenvalues --    0.12037   0.12213   0.12716   0.12822   0.13275
 Alpha virt. eigenvalues --    0.13637   0.13997   0.14143   0.14461   0.14762
 Alpha virt. eigenvalues --    0.14847   0.15467   0.15671   0.16239   0.16549
 Alpha virt. eigenvalues --    0.16778   0.17076   0.17189   0.17534   0.18114
 Alpha virt. eigenvalues --    0.18606   0.18744   0.19092   0.19351   0.19983
 Alpha virt. eigenvalues --    0.20136   0.20522   0.20717   0.21079   0.21601
 Alpha virt. eigenvalues --    0.21828   0.21963   0.22256   0.22589   0.22863
 Alpha virt. eigenvalues --    0.23025   0.23292   0.23920   0.24099   0.24287
 Alpha virt. eigenvalues --    0.24503   0.24754   0.25238   0.25557   0.25971
 Alpha virt. eigenvalues --    0.26219   0.27029   0.27259   0.27605   0.27788
 Alpha virt. eigenvalues --    0.28153   0.28757   0.29185   0.29376   0.29552
 Alpha virt. eigenvalues --    0.29885   0.30515   0.30726   0.30972   0.31321
 Alpha virt. eigenvalues --    0.31877   0.32380   0.32487   0.33237   0.33400
 Alpha virt. eigenvalues --    0.33725   0.34798   0.35065   0.35452   0.35950
 Alpha virt. eigenvalues --    0.36856   0.37273   0.37645   0.38132   0.38631
 Alpha virt. eigenvalues --    0.39257   0.39863   0.40224   0.40599   0.41108
 Alpha virt. eigenvalues --    0.42132   0.42599   0.43664   0.44611   0.45414
 Alpha virt. eigenvalues --    0.45859   0.46073   0.46911   0.48052   0.48937
 Alpha virt. eigenvalues --    0.49415   0.50463   0.52363   0.53532   0.54863
 Alpha virt. eigenvalues --    0.55179   0.58565   0.62226   0.63330   0.65307
 Alpha virt. eigenvalues --    0.67508   0.69385   0.70053   0.71216   0.71512
 Alpha virt. eigenvalues --    0.72050   0.73048   0.73891   0.74477   0.75513
 Alpha virt. eigenvalues --    0.76093   0.77138   0.77657   0.78720   0.79484
 Alpha virt. eigenvalues --    0.79723   0.80292   0.81031   0.81567   0.81790
 Alpha virt. eigenvalues --    0.82551   0.84360   0.84905   0.85519   0.86059
 Alpha virt. eigenvalues --    0.87727   0.88051   0.88479   0.89179   0.90183
 Alpha virt. eigenvalues --    0.90864   0.91729   0.92866   0.93115   0.93700
 Alpha virt. eigenvalues --    0.93919   0.96590   0.97043   0.97477   0.98887
 Alpha virt. eigenvalues --    0.99289   0.99811   1.00637   1.01647   1.02564
 Alpha virt. eigenvalues --    1.02801   1.04034   1.04655   1.05638   1.06023
 Alpha virt. eigenvalues --    1.06410   1.06810   1.07354   1.07936   1.08469
 Alpha virt. eigenvalues --    1.08703   1.09468   1.09814   1.11312   1.12218
 Alpha virt. eigenvalues --    1.13435   1.14766   1.15266   1.16011   1.16929
 Alpha virt. eigenvalues --    1.17575   1.18414   1.19155   1.20480   1.22407
 Alpha virt. eigenvalues --    1.23189   1.23665   1.24328   1.24706   1.25622
 Alpha virt. eigenvalues --    1.28266   1.29897   1.30545   1.32411   1.34102
 Alpha virt. eigenvalues --    1.35088   1.35642   1.36131   1.36734   1.37601
 Alpha virt. eigenvalues --    1.38675   1.40279   1.40687   1.42328   1.42782
 Alpha virt. eigenvalues --    1.42993   1.45455   1.47097   1.48005   1.48325
 Alpha virt. eigenvalues --    1.50186   1.51639   1.53209   1.53357   1.54850
 Alpha virt. eigenvalues --    1.57150   1.58257   1.58896   1.62647   1.63257
 Alpha virt. eigenvalues --    1.64567   1.66777   1.68707   1.69645   1.70980
 Alpha virt. eigenvalues --    1.71194   1.72767   1.73384   1.75777   1.76747
 Alpha virt. eigenvalues --    1.78139   1.78934   1.80706   1.81201   1.82167
 Alpha virt. eigenvalues --    1.82348   1.83770   1.85636   1.87614   1.88826
 Alpha virt. eigenvalues --    1.89724   1.90315   1.91397   1.91598   1.92929
 Alpha virt. eigenvalues --    1.93515   1.94860   1.95684   1.96365   1.97086
 Alpha virt. eigenvalues --    1.98521   1.99538   1.99979   2.00036   2.02308
 Alpha virt. eigenvalues --    2.03080   2.03883   2.05977   2.06408   2.06868
 Alpha virt. eigenvalues --    2.07478   2.07723   2.08052   2.09299   2.10319
 Alpha virt. eigenvalues --    2.10872   2.11263   2.11810   2.12875   2.14110
 Alpha virt. eigenvalues --    2.14675   2.14975   2.15358   2.16266   2.16591
 Alpha virt. eigenvalues --    2.16674   2.17776   2.17991   2.18105   2.19448
 Alpha virt. eigenvalues --    2.19821   2.19918   2.20987   2.21741   2.22309
 Alpha virt. eigenvalues --    2.22483   2.23825   2.24730   2.25992   2.26669
 Alpha virt. eigenvalues --    2.27933   2.30006   2.30437   2.32760   2.35485
 Alpha virt. eigenvalues --    2.35943   2.36682   2.38679   2.38877   2.39694
 Alpha virt. eigenvalues --    2.40062   2.42134   2.43457   2.44169   2.45229
 Alpha virt. eigenvalues --    2.46216   2.46949   2.49492   2.52370   2.53310
 Alpha virt. eigenvalues --    2.55110   2.56567   2.57155   2.57632   2.57859
 Alpha virt. eigenvalues --    2.59889   2.60395   2.61669   2.64035   2.65568
 Alpha virt. eigenvalues --    2.65671   2.66716   2.68242   2.70113   2.70598
 Alpha virt. eigenvalues --    2.70982   2.72610   2.73270   2.74081   2.75342
 Alpha virt. eigenvalues --    2.76932   2.77392   2.78287   2.79027   2.79097
 Alpha virt. eigenvalues --    2.80913   2.81569   2.83811   2.85048   2.86055
 Alpha virt. eigenvalues --    2.86250   2.87359   2.87397   2.88421   2.88643
 Alpha virt. eigenvalues --    2.89055   2.89281   2.89968   2.90334   2.90623
 Alpha virt. eigenvalues --    2.92041   2.92913   2.94792   2.95384   2.97646
 Alpha virt. eigenvalues --    2.99170   3.00008   3.01465   3.03437   3.09197
 Alpha virt. eigenvalues --    3.11326   3.14492   3.20197   3.23375   3.27935
 Alpha virt. eigenvalues --    3.28835   3.29622   3.30101   3.30770   3.31571
 Alpha virt. eigenvalues --    3.31783   3.37329   3.38560   3.40084   3.43737
 Alpha virt. eigenvalues --    3.47989   3.48141   3.48716   3.49096   3.49786
 Alpha virt. eigenvalues --    3.50255   3.50698   3.51283   3.51504   3.52128
 Alpha virt. eigenvalues --    3.53278   3.53690   3.55471   3.56028   3.56655
 Alpha virt. eigenvalues --    3.57935   3.60159   3.61284   4.35295   4.43005
 Alpha virt. eigenvalues --    4.46440   4.48877   4.54575   4.55933   4.59400
 Alpha virt. eigenvalues --    4.62014   4.64853   4.65690   4.66954   4.68920
 Alpha virt. eigenvalues --    4.71855   4.75428   4.80934   4.83769   4.93655
 Alpha virt. eigenvalues --    4.95192
          Condensed to atoms (all electrons):
              1          2          3          4          5          6
     1  H    0.595938   0.161000   0.014081   0.045937  -0.007287   0.081313
     2  C    0.161000  10.965570  -0.077862  -1.421990   2.090238  -4.174782
     3  C    0.014081  -0.077862   7.483516  -1.280386  -1.321131   0.069891
     4  C    0.045937  -1.421990  -1.280386  11.666207  -3.078818   0.092678
     5  C   -0.007287   2.090238  -1.321131  -3.078818  15.489020  -3.440463
     6  C    0.081313  -4.174782   0.069891   0.092678  -3.440463  12.533245
     7  C    0.004876  -1.274869   0.464218   0.077011  -1.081717   0.409425
     8  H   -0.000055   0.015194   0.408024  -0.050634   0.074192  -0.040900
     9  H   -0.000164   0.119904  -0.052124   0.238660   0.279308  -0.248298
    10  H   -0.005228   0.163978  -0.013590  -0.164953   0.184556   0.146630
    11  H   -0.002450  -0.091046  -0.048788  -0.000511   0.055895  -0.000304
    12  H   -0.000097   0.048475   0.362490   0.051712  -0.129175   0.011729
    13  H   -0.004720  -0.022040  -0.019356  -0.012814   0.044247   0.029317
    14  O    0.000002  -0.078981  -0.074815  -0.168342   0.012874   0.158987
    15  C   -0.001972  -0.446427   0.137444  -0.150010  -2.654236   0.952281
    16  O   -0.000838   0.163841   0.056783   0.077393   0.023599  -0.198135
    17  H    0.000005  -0.021118   0.015603   0.002368  -0.084107   0.065747
    18  O    0.001152  -0.136478  -0.000105  -0.161505   0.072168   0.271213
    19  C   -0.004776   0.055529   0.029017   0.018809  -0.171748  -0.089741
    20  H    0.000016  -0.033015  -0.002596   0.006281  -0.015705   0.068452
    21  H   -0.000016  -0.003179  -0.000133   0.005172   0.002703  -0.000517
    22  H   -0.000067   0.052012   0.001513  -0.005772   0.010555  -0.078792
    23  O   -0.049665   0.173169   0.011679  -0.017438   0.145068  -0.292700
    24  Si   0.033641  -0.405538  -0.011586  -0.298032   0.265390   0.042035
    25  C   -0.003263   0.120059   0.000451   0.029156  -0.015072  -0.088499
    26  H    0.000002   0.004780  -0.000025  -0.000169   0.000028  -0.001985
    27  H    0.000004  -0.013926   0.000646   0.002566  -0.002079   0.004206
    28  H   -0.000003   0.004917  -0.000575  -0.002916   0.002764  -0.005993
    29  C    0.001799  -0.089039  -0.022563  -0.008049   0.006269   0.129667
    30  C   -0.005921   0.119773   0.000879   0.058822  -0.012454  -0.116210
    31  H    0.000064  -0.001595   0.000025   0.000221   0.000019   0.001459
    32  H   -0.000087  -0.012940  -0.000075  -0.000031  -0.000210   0.008556
    33  H   -0.000286  -0.010889   0.000504  -0.000138  -0.001262   0.011823
    34  C   -0.006421  -0.043542   0.039801   0.007627  -0.021187  -0.004628
    35  H    0.000005   0.001002  -0.000612  -0.000029   0.000147   0.001014
    36  H    0.000000  -0.000146  -0.000120   0.000070  -0.000136  -0.000132
    37  H    0.000017  -0.002256   0.004930   0.000640  -0.000890  -0.000771
    38  C    0.000704  -0.021585   0.001833  -0.005676   0.004627   0.027380
    39  H    0.000000   0.000633  -0.000014  -0.000038   0.000027   0.000097
    40  H    0.000000  -0.000199   0.000023  -0.000013  -0.000011  -0.000093
    41  H    0.000000  -0.000491  -0.000039   0.000014  -0.000007   0.000059
    42  C    0.001639   0.037825  -0.022676   0.014856  -0.024640  -0.025403
    43  H    0.000000  -0.000161  -0.000195   0.000078  -0.000169   0.000367
    44  H    0.000000   0.000816   0.000943  -0.000260  -0.000219  -0.000915
    45  H   -0.000005  -0.003105  -0.001467   0.000798   0.000166   0.001365
    46  H    0.000001  -0.012823   0.046964   0.000849  -0.143040   0.012890
    47  H    0.000000  -0.013351  -0.022022   0.098311  -0.190072   0.017615
              7          8          9         10         11         12
     1  H    0.004876  -0.000055  -0.000164  -0.005228  -0.002450  -0.000097
     2  C   -1.274869   0.015194   0.119904   0.163978  -0.091046   0.048475
     3  C    0.464218   0.408024  -0.052124  -0.013590  -0.048788   0.362490
     4  C    0.077011  -0.050634   0.238660  -0.164953  -0.000511   0.051712
     5  C   -1.081717   0.074192   0.279308   0.184556   0.055895  -0.129175
     6  C    0.409425  -0.040900  -0.248298   0.146630  -0.000304   0.011729
     7  C    6.887272  -0.062326  -0.014744  -0.005421   0.398176  -0.036207
     8  H   -0.062326   0.504847   0.002092   0.000037   0.004179  -0.026352
     9  H   -0.014744   0.002092   0.555372   0.005120   0.000016  -0.000158
    10  H   -0.005421   0.000037   0.005120   0.585760   0.000459  -0.000049
    11  H    0.398176   0.004179   0.000016   0.000459   0.533210  -0.004157
    12  H   -0.036207  -0.026352  -0.000158  -0.000049  -0.004157   0.531293
    13  H    0.328433  -0.002956  -0.000014   0.000010  -0.023329  -0.002099
    14  O    0.061296  -0.012030  -0.016816  -0.002217  -0.001318   0.005252
    15  C    0.257631  -0.024367  -0.029486  -0.017924  -0.005290   0.022068
    16  O    0.004441  -0.000348  -0.045816   0.003708  -0.000265  -0.000599
    17  H   -0.001355   0.000000  -0.004213  -0.000141   0.000000  -0.000014
    18  O    0.036480  -0.000528  -0.000294  -0.052344  -0.001088   0.000137
    19  C   -0.010206  -0.000620  -0.007489  -0.006025  -0.000517   0.000274
    20  H    0.001326   0.000000   0.000104  -0.001513   0.000000   0.000000
    21  H   -0.000977   0.000000   0.000015   0.000069   0.000000   0.000000
    22  H    0.001710   0.000000   0.000010   0.010184   0.000000   0.000000
    23  O   -0.070794   0.009294   0.012808   0.014371   0.013148  -0.001780
    24  Si   0.106320   0.011904   0.036709   0.007946  -0.000431  -0.004189
    25  C   -0.032366  -0.001018  -0.009102  -0.001536  -0.000015   0.000109
    26  H    0.000101   0.000000   0.000002   0.000000   0.000000   0.000000
    27  H   -0.000573   0.000000   0.000047   0.000001   0.000000   0.000000
    28  H    0.001649  -0.000001   0.000173   0.000000   0.000000   0.000000
    29  C   -0.015647   0.000691  -0.002192  -0.000224   0.000008   0.000306
    30  C   -0.059161   0.000213  -0.000104  -0.000050   0.000562   0.000129
    31  H    0.000721   0.000000   0.000000   0.000000   0.000000   0.000000
    32  H    0.000143   0.000000   0.000000   0.000001   0.000001   0.000000
    33  H   -0.001381   0.000000  -0.000001  -0.000014   0.000000   0.000000
    34  C    0.015005   0.000208   0.000247   0.000133   0.000338  -0.000294
    35  H   -0.000625   0.000000   0.000000   0.000000   0.000000   0.000000
    36  H    0.000811   0.000000   0.000000   0.000000   0.000000   0.000000
    37  H   -0.004684   0.000017   0.000000   0.000000   0.000001  -0.000001
    38  C   -0.010394   0.000300   0.000332   0.000010   0.000048  -0.000003
    39  H    0.000026   0.000000   0.000000   0.000000   0.000000   0.000000
    40  H   -0.000084   0.000000   0.000000   0.000000   0.000000   0.000000
    41  H    0.000012   0.000000   0.000000   0.000000   0.000000   0.000000
    42  C    0.031554  -0.003035  -0.001413  -0.000107  -0.000208   0.000369
    43  H    0.000003  -0.000001   0.000000   0.000000   0.000000   0.000000
    44  H   -0.000645  -0.000007  -0.000001   0.000000   0.000000   0.000000
    45  H    0.002490   0.000560   0.000006   0.000000   0.000001  -0.000003
    46  H    0.007425   0.000027  -0.000079  -0.000095  -0.000026   0.000731
    47  H    0.003264  -0.000123  -0.000111  -0.000285  -0.000102   0.000164
             13         14         15         16         17         18
     1  H   -0.004720   0.000002  -0.001972  -0.000838   0.000005   0.001152
     2  C   -0.022040  -0.078981  -0.446427   0.163841  -0.021118  -0.136478
     3  C   -0.019356  -0.074815   0.137444   0.056783   0.015603  -0.000105
     4  C   -0.012814  -0.168342  -0.150010   0.077393   0.002368  -0.161505
     5  C    0.044247   0.012874  -2.654236   0.023599  -0.084107   0.072168
     6  C    0.029317   0.158987   0.952281  -0.198135   0.065747   0.271213
     7  C    0.328433   0.061296   0.257631   0.004441  -0.001355   0.036480
     8  H   -0.002956  -0.012030  -0.024367  -0.000348   0.000000  -0.000528
     9  H   -0.000014  -0.016816  -0.029486  -0.045816  -0.004213  -0.000294
    10  H    0.000010  -0.002217  -0.017924   0.003708  -0.000141  -0.052344
    11  H   -0.023329  -0.001318  -0.005290  -0.000265   0.000000  -0.001088
    12  H   -0.002099   0.005252   0.022068  -0.000599  -0.000014   0.000137
    13  H    0.525869  -0.000402  -0.002756   0.000124   0.000000  -0.000666
    14  O   -0.000402   8.360554   0.160064   0.014012   0.030176  -0.001104
    15  C   -0.002756   0.160064   7.051452  -0.035536  -0.000852  -0.007184
    16  O    0.000124   0.014012  -0.035536   8.304122   0.236376   0.017315
    17  H    0.000000   0.030176  -0.000852   0.236376   0.358814   0.000318
    18  O   -0.000666  -0.001104  -0.007184   0.017315   0.000318   8.348151
    19  C    0.000427   0.001456   0.021059  -0.027635   0.002018  -0.030563
    20  H    0.000000   0.000002   0.000294  -0.017838   0.000221  -0.062800
    21  H    0.000000  -0.000005  -0.000222   0.001261  -0.000005  -0.068964
    22  H    0.000000  -0.000005  -0.000910   0.002888  -0.000002  -0.056417
    23  O   -0.009079  -0.002700  -0.015410  -0.006774   0.000347   0.043360
    24  Si  -0.001606  -0.003559  -0.022541  -0.016871   0.001832   0.088400
    25  C   -0.000057   0.000141   0.000982   0.006010  -0.000198  -0.036544
    26  H    0.000000   0.000000   0.000000   0.000002   0.000000   0.000746
    27  H    0.000000   0.000002   0.000109   0.000112   0.000000   0.000427
    28  H    0.000000   0.000002   0.000110  -0.000011   0.000000   0.000016
    29  C   -0.000112   0.000083   0.004664  -0.000414   0.000038   0.009216
    30  C   -0.000119  -0.000252  -0.002464   0.000451  -0.000070  -0.033630
    31  H    0.000000   0.000000  -0.000004   0.000000   0.000000   0.000549
    32  H    0.000006   0.000000  -0.000012  -0.000002   0.000000  -0.000543
    33  H   -0.000002   0.000000   0.000059  -0.000011   0.000000   0.000859
    34  C    0.002398   0.000024  -0.001109   0.000014  -0.000007  -0.003915
    35  H   -0.000008   0.000000   0.000004   0.000000   0.000000  -0.000011
    36  H   -0.000004   0.000000   0.000001   0.000000   0.000000   0.000002
    37  H    0.000723   0.000000  -0.000083   0.000000   0.000000  -0.000048
    38  C    0.000064  -0.000026  -0.000046  -0.000055   0.000003  -0.001306
    39  H    0.000000   0.000000   0.000000   0.000000   0.000000  -0.000002
    40  H    0.000000   0.000000   0.000000   0.000000   0.000000  -0.000004
    41  H    0.000000   0.000000   0.000000   0.000000   0.000000   0.000002
    42  C   -0.002862   0.000384   0.002415   0.000359  -0.000001   0.003173
    43  H   -0.000001   0.000000   0.000002   0.000000   0.000000   0.000004
    44  H    0.000001   0.000000  -0.000007   0.000000   0.000000  -0.000025
    45  H    0.000011  -0.000001  -0.000100  -0.000001   0.000000  -0.000064
    46  H   -0.000018  -0.028382   0.450637   0.000169   0.000187   0.000026
    47  H   -0.000001  -0.029587   0.472398   0.002008  -0.001684  -0.000180
             19         20         21         22         23         24
     1  H   -0.004776   0.000016  -0.000016  -0.000067  -0.049665   0.033641
     2  C    0.055529  -0.033015  -0.003179   0.052012   0.173169  -0.405538
     3  C    0.029017  -0.002596  -0.000133   0.001513   0.011679  -0.011586
     4  C    0.018809   0.006281   0.005172  -0.005772  -0.017438  -0.298032
     5  C   -0.171748  -0.015705   0.002703   0.010555   0.145068   0.265390
     6  C   -0.089741   0.068452  -0.000517  -0.078792  -0.292700   0.042035
     7  C   -0.010206   0.001326  -0.000977   0.001710  -0.070794   0.106320
     8  H   -0.000620   0.000000   0.000000   0.000000   0.009294   0.011904
     9  H   -0.007489   0.000104   0.000015   0.000010   0.012808   0.036709
    10  H   -0.006025  -0.001513   0.000069   0.010184   0.014371   0.007946
    11  H   -0.000517   0.000000   0.000000   0.000000   0.013148  -0.000431
    12  H    0.000274   0.000000   0.000000   0.000000  -0.001780  -0.004189
    13  H    0.000427   0.000000   0.000000   0.000000  -0.009079  -0.001606
    14  O    0.001456   0.000002  -0.000005  -0.000005  -0.002700  -0.003559
    15  C    0.021059   0.000294  -0.000222  -0.000910  -0.015410  -0.022541
    16  O   -0.027635  -0.017838   0.001261   0.002888  -0.006774  -0.016871
    17  H    0.002018   0.000221  -0.000005  -0.000002   0.000347   0.001832
    18  O   -0.030563  -0.062800  -0.068964  -0.056417   0.043360   0.088400
    19  C    5.163288   0.409481   0.426087   0.418544  -0.009465  -0.074706
    20  H    0.409481   0.537332  -0.028886  -0.041530   0.000152   0.004801
    21  H    0.426087  -0.028886   0.533128  -0.027331  -0.000240  -0.001708
    22  H    0.418544  -0.041530  -0.027331   0.573920  -0.000047  -0.003448
    23  O   -0.009465   0.000152  -0.000240  -0.000047   8.381234   0.082063
    24  Si  -0.074706   0.004801  -0.001708  -0.003448   0.082063  13.402830
    25  C    0.016882  -0.001667   0.000832   0.000287  -0.045118   0.119299
    26  H    0.000011   0.000000  -0.000001   0.000000   0.009834  -0.031151
    27  H    0.005322  -0.000029   0.000214  -0.000006  -0.002031  -0.048719
    28  H    0.000160   0.000000  -0.000002   0.000000  -0.010208  -0.019928
    29  C    0.001901   0.000041  -0.000172  -0.000084  -0.031083   0.253760
    30  C    0.018538  -0.000569   0.001384  -0.000285  -0.066385   0.170324
    31  H   -0.000581   0.000000  -0.000003   0.000000   0.009772  -0.029341
    32  H   -0.000320   0.000000  -0.000001   0.000000  -0.004518  -0.017623
    33  H    0.004873  -0.000002   0.000161  -0.000004  -0.004909  -0.058183
    34  C    0.000544  -0.000035   0.000016   0.000053   0.028952  -0.095955
    35  H   -0.000014   0.000000   0.000000   0.000000  -0.002374  -0.003009
    36  H    0.000004   0.000000   0.000000   0.000000  -0.000930   0.017074
    37  H   -0.000014   0.000000   0.000000   0.000000   0.008520  -0.007479
    38  C   -0.000291   0.000005   0.000002  -0.000004   0.016686  -0.055773
    39  H    0.000004   0.000000   0.000000   0.000000   0.000728  -0.014843
    40  H    0.000000   0.000000   0.000000   0.000000   0.000454  -0.010781
    41  H    0.000003   0.000000   0.000000   0.000000  -0.000631   0.019781
    42  C    0.001469   0.000039   0.000023  -0.000031  -0.012872  -0.136679
    43  H    0.000003   0.000000   0.000000   0.000000  -0.000614   0.019202
    44  H    0.000002   0.000000   0.000000   0.000000  -0.003813   0.006759
    45  H   -0.000043   0.000000   0.000000   0.000000   0.007098  -0.023763
    46  H    0.000096   0.000000   0.000000   0.000000  -0.000046   0.000143
    47  H    0.001653   0.000002   0.000000  -0.000001  -0.000125  -0.001130
             25         26         27         28         29         30
     1  H   -0.003263   0.000002   0.000004  -0.000003   0.001799  -0.005921
     2  C    0.120059   0.004780  -0.013926   0.004917  -0.089039   0.119773
     3  C    0.000451  -0.000025   0.000646  -0.000575  -0.022563   0.000879
     4  C    0.029156  -0.000169   0.002566  -0.002916  -0.008049   0.058822
     5  C   -0.015072   0.000028  -0.002079   0.002764   0.006269  -0.012454
     6  C   -0.088499  -0.001985   0.004206  -0.005993   0.129667  -0.116210
     7  C   -0.032366   0.000101  -0.000573   0.001649  -0.015647  -0.059161
     8  H   -0.001018   0.000000   0.000000  -0.000001   0.000691   0.000213
     9  H   -0.009102   0.000002   0.000047   0.000173  -0.002192  -0.000104
    10  H   -0.001536   0.000000   0.000001   0.000000  -0.000224  -0.000050
    11  H   -0.000015   0.000000   0.000000   0.000000   0.000008   0.000562
    12  H    0.000109   0.000000   0.000000   0.000000   0.000306   0.000129
    13  H   -0.000057   0.000000   0.000000   0.000000  -0.000112  -0.000119
    14  O    0.000141   0.000000   0.000002   0.000002   0.000083  -0.000252
    15  C    0.000982   0.000000   0.000109   0.000110   0.004664  -0.002464
    16  O    0.006010   0.000002   0.000112  -0.000011  -0.000414   0.000451
    17  H   -0.000198   0.000000   0.000000   0.000000   0.000038  -0.000070
    18  O   -0.036544   0.000746   0.000427   0.000016   0.009216  -0.033630
    19  C    0.016882   0.000011   0.005322   0.000160   0.001901   0.018538
    20  H   -0.001667   0.000000  -0.000029   0.000000   0.000041  -0.000569
    21  H    0.000832  -0.000001   0.000214  -0.000002  -0.000172   0.001384
    22  H    0.000287   0.000000  -0.000006   0.000000  -0.000084  -0.000285
    23  O   -0.045118   0.009834  -0.002031  -0.010208  -0.031083  -0.066385
    24  Si   0.119299  -0.031151  -0.048719  -0.019928   0.253760   0.170324
    25  C    5.578190   0.396071   0.409387   0.397046  -0.118726   0.031333
    26  H    0.396071   0.499812  -0.021711  -0.022795  -0.017981  -0.010978
    27  H    0.409387  -0.021711   0.473499  -0.021473   0.012419  -0.003803
    28  H    0.397046  -0.022795  -0.021473   0.495883  -0.014191   0.007103
    29  C   -0.118726  -0.017981   0.012419  -0.014191   7.987854  -0.131850
    30  C    0.031333  -0.010978  -0.003803   0.007103  -0.131850   5.555362
    31  H   -0.009033   0.000147   0.000086   0.000023  -0.018868   0.395369
    32  H    0.005077   0.000021   0.000003  -0.000017  -0.016738   0.395125
    33  H   -0.007654   0.000113   0.000406   0.000005   0.014556   0.415431
    34  C   -0.017930   0.000206  -0.001294  -0.002687  -0.289422   0.023474
    35  H   -0.000305   0.000001  -0.000001   0.000000  -0.063117   0.001691
    36  H   -0.001515   0.000000   0.000000   0.000000  -0.157704   0.000641
    37  H   -0.001052   0.000000   0.000000   0.000002  -0.109221  -0.001153
    38  C    0.019983   0.005983  -0.001286  -0.001242  -0.377720   0.009278
    39  H   -0.000258  -0.000004  -0.000006   0.000020  -0.082749   0.004095
    40  H    0.004214  -0.000015   0.000012   0.000026  -0.085730  -0.000806
    41  H   -0.000122   0.000026   0.000000  -0.000007  -0.153599   0.001121
    42  C   -0.019635   0.008790   0.002228   0.011218  -0.287200  -0.029351
    43  H    0.000041  -0.000001   0.000000  -0.000006  -0.162872  -0.001201
    44  H    0.000914   0.000057   0.000003   0.000193  -0.064077  -0.000428
    45  H    0.000290   0.000005  -0.000006   0.000034  -0.093325  -0.000718
    46  H    0.000000   0.000000   0.000000   0.000000  -0.000006  -0.000010
    47  H    0.000053   0.000000   0.000000   0.000000   0.000005   0.000018
             31         32         33         34         35         36
     1  H    0.000064  -0.000087  -0.000286  -0.006421   0.000005   0.000000
     2  C   -0.001595  -0.012940  -0.010889  -0.043542   0.001002  -0.000146
     3  C    0.000025  -0.000075   0.000504   0.039801  -0.000612  -0.000120
     4  C    0.000221  -0.000031  -0.000138   0.007627  -0.000029   0.000070
     5  C    0.000019  -0.000210  -0.001262  -0.021187   0.000147  -0.000136
     6  C    0.001459   0.008556   0.011823  -0.004628   0.001014  -0.000132
     7  C    0.000721   0.000143  -0.001381   0.015005  -0.000625   0.000811
     8  H    0.000000   0.000000   0.000000   0.000208   0.000000   0.000000
     9  H    0.000000   0.000000  -0.000001   0.000247   0.000000   0.000000
    10  H    0.000000   0.000001  -0.000014   0.000133   0.000000   0.000000
    11  H    0.000000   0.000001   0.000000   0.000338   0.000000   0.000000
    12  H    0.000000   0.000000   0.000000  -0.000294   0.000000   0.000000
    13  H    0.000000   0.000006  -0.000002   0.002398  -0.000008  -0.000004
    14  O    0.000000   0.000000   0.000000   0.000024   0.000000   0.000000
    15  C   -0.000004  -0.000012   0.000059  -0.001109   0.000004   0.000001
    16  O    0.000000  -0.000002  -0.000011   0.000014   0.000000   0.000000
    17  H    0.000000   0.000000   0.000000  -0.000007   0.000000   0.000000
    18  O    0.000549  -0.000543   0.000859  -0.003915  -0.000011   0.000002
    19  C   -0.000581  -0.000320   0.004873   0.000544  -0.000014   0.000004
    20  H    0.000000   0.000000  -0.000002  -0.000035   0.000000   0.000000
    21  H   -0.000003  -0.000001   0.000161   0.000016   0.000000   0.000000
    22  H    0.000000   0.000000  -0.000004   0.000053   0.000000   0.000000
    23  O    0.009772  -0.004518  -0.004909   0.028952  -0.002374  -0.000930
    24  Si  -0.029341  -0.017623  -0.058183  -0.095955  -0.003009   0.017074
    25  C   -0.009033   0.005077  -0.007654  -0.017930  -0.000305  -0.001515
    26  H    0.000147   0.000021   0.000113   0.000206   0.000001   0.000000
    27  H    0.000086   0.000003   0.000406  -0.001294  -0.000001   0.000000
    28  H    0.000023  -0.000017   0.000005  -0.002687   0.000000   0.000000
    29  C   -0.018868  -0.016738   0.014556  -0.289422  -0.063117  -0.157704
    30  C    0.395369   0.395125   0.415431   0.023474   0.001691   0.000641
    31  H    0.490920  -0.021608  -0.020447   0.005795   0.000088  -0.000002
    32  H   -0.021608   0.495748  -0.023028   0.009714   0.000048  -0.000002
    33  H   -0.020447  -0.023028   0.473581   0.001008   0.000015   0.000000
    34  C    0.005795   0.009714   0.001008   5.857014   0.423278   0.455992
    35  H    0.000088   0.000048   0.000015   0.423278   0.536769  -0.028008
    36  H   -0.000002  -0.000002   0.000000   0.455992  -0.028008   0.544811
    37  H    0.000011   0.000045  -0.000005   0.475177  -0.026970  -0.027387
    38  C    0.008359   0.004725  -0.000555   0.003523  -0.005282   0.008604
    39  H    0.000280   0.000005  -0.000004  -0.011630   0.002773  -0.000316
    40  H    0.000001   0.000008  -0.000005   0.004370   0.000031  -0.000002
    41  H    0.000011  -0.000005   0.000000   0.006282  -0.000332   0.005360
    42  C    0.001405  -0.004305  -0.000429  -0.275780   0.000357   0.016174
    43  H    0.000000   0.000000   0.000000   0.002400   0.000039   0.005616
    44  H    0.000000   0.000000  -0.000001   0.001022  -0.000153   0.000026
    45  H    0.000000   0.000002   0.000000  -0.002961   0.000020  -0.000310
    46  H    0.000000   0.000000   0.000000   0.000002   0.000000   0.000000
    47  H    0.000000   0.000000   0.000000  -0.000001   0.000000   0.000000
             37         38         39         40         41         42
     1  H    0.000017   0.000704   0.000000   0.000000   0.000000   0.001639
     2  C   -0.002256  -0.021585   0.000633  -0.000199  -0.000491   0.037825
     3  C    0.004930   0.001833  -0.000014   0.000023  -0.000039  -0.022676
     4  C    0.000640  -0.005676  -0.000038  -0.000013   0.000014   0.014856
     5  C   -0.000890   0.004627   0.000027  -0.000011  -0.000007  -0.024640
     6  C   -0.000771   0.027380   0.000097  -0.000093   0.000059  -0.025403
     7  C   -0.004684  -0.010394   0.000026  -0.000084   0.000012   0.031554
     8  H    0.000017   0.000300   0.000000   0.000000   0.000000  -0.003035
     9  H    0.000000   0.000332   0.000000   0.000000   0.000000  -0.001413
    10  H    0.000000   0.000010   0.000000   0.000000   0.000000  -0.000107
    11  H    0.000001   0.000048   0.000000   0.000000   0.000000  -0.000208
    12  H   -0.000001  -0.000003   0.000000   0.000000   0.000000   0.000369
    13  H    0.000723   0.000064   0.000000   0.000000   0.000000  -0.002862
    14  O    0.000000  -0.000026   0.000000   0.000000   0.000000   0.000384
    15  C   -0.000083  -0.000046   0.000000   0.000000   0.000000   0.002415
    16  O    0.000000  -0.000055   0.000000   0.000000   0.000000   0.000359
    17  H    0.000000   0.000003   0.000000   0.000000   0.000000  -0.000001
    18  O   -0.000048  -0.001306  -0.000002  -0.000004   0.000002   0.003173
    19  C   -0.000014  -0.000291   0.000004   0.000000   0.000003   0.001469
    20  H    0.000000   0.000005   0.000000   0.000000   0.000000   0.000039
    21  H    0.000000   0.000002   0.000000   0.000000   0.000000   0.000023
    22  H    0.000000  -0.000004   0.000000   0.000000   0.000000  -0.000031
    23  O    0.008520   0.016686   0.000728   0.000454  -0.000631  -0.012872
    24  Si  -0.007479  -0.055773  -0.014843  -0.010781   0.019781  -0.136679
    25  C   -0.001052   0.019983  -0.000258   0.004214  -0.000122  -0.019635
    26  H    0.000000   0.005983  -0.000004  -0.000015   0.000026   0.008790
    27  H    0.000000  -0.001286  -0.000006   0.000012   0.000000   0.002228
    28  H    0.000002  -0.001242   0.000020   0.000026  -0.000007   0.011218
    29  C   -0.109221  -0.377720  -0.082749  -0.085730  -0.153599  -0.287200
    30  C   -0.001153   0.009278   0.004095  -0.000806   0.001121  -0.029351
    31  H    0.000011   0.008359   0.000280   0.000001   0.000011   0.001405
    32  H    0.000045   0.004725   0.000005   0.000008  -0.000005  -0.004305
    33  H   -0.000005  -0.000555  -0.000004  -0.000005   0.000000  -0.000429
    34  C    0.475177   0.003523  -0.011630   0.004370   0.006282  -0.275780
    35  H   -0.026970  -0.005282   0.002773   0.000031  -0.000332   0.000357
    36  H   -0.027387   0.008604  -0.000316  -0.000002   0.005360   0.016174
    37  H    0.527046  -0.001150   0.000036  -0.000146   0.000018  -0.007894
    38  C   -0.001150   5.665889   0.449309   0.460166   0.449512  -0.122611
    39  H    0.000036   0.449309   0.535613  -0.027302  -0.028127   0.006294
    40  H   -0.000146   0.460166  -0.027302   0.531630  -0.027709  -0.018989
    41  H    0.000018   0.449512  -0.028127  -0.027709   0.542400   0.017653
    42  C   -0.007894  -0.122611   0.006294  -0.018989   0.017653   6.041417
    43  H   -0.000325   0.010790  -0.000008  -0.000312   0.005369   0.471627
    44  H    0.000032  -0.003839   0.000033   0.002775  -0.000357   0.415185
    45  H    0.003063   0.001539  -0.000146   0.000038   0.000011   0.464201
    46  H    0.000000   0.000000   0.000000   0.000000   0.000000   0.000007
    47  H    0.000000   0.000000   0.000000   0.000000   0.000000   0.000004
             43         44         45         46         47
     1  H    0.000000   0.000000  -0.000005   0.000001   0.000000
     2  C   -0.000161   0.000816  -0.003105  -0.012823  -0.013351
     3  C   -0.000195   0.000943  -0.001467   0.046964  -0.022022
     4  C    0.000078  -0.000260   0.000798   0.000849   0.098311
     5  C   -0.000169  -0.000219   0.000166  -0.143040  -0.190072
     6  C    0.000367  -0.000915   0.001365   0.012890   0.017615
     7  C    0.000003  -0.000645   0.002490   0.007425   0.003264
     8  H   -0.000001  -0.000007   0.000560   0.000027  -0.000123
     9  H    0.000000  -0.000001   0.000006  -0.000079  -0.000111
    10  H    0.000000   0.000000   0.000000  -0.000095  -0.000285
    11  H    0.000000   0.000000   0.000001  -0.000026  -0.000102
    12  H    0.000000   0.000000  -0.000003   0.000731   0.000164
    13  H   -0.000001   0.000001   0.000011  -0.000018  -0.000001
    14  O    0.000000   0.000000  -0.000001  -0.028382  -0.029587
    15  C    0.000002  -0.000007  -0.000100   0.450637   0.472398
    16  O    0.000000   0.000000  -0.000001   0.000169   0.002008
    17  H    0.000000   0.000000   0.000000   0.000187  -0.001684
    18  O    0.000004  -0.000025  -0.000064   0.000026  -0.000180
    19  C    0.000003   0.000002  -0.000043   0.000096   0.001653
    20  H    0.000000   0.000000   0.000000   0.000000   0.000002
    21  H    0.000000   0.000000   0.000000   0.000000   0.000000
    22  H    0.000000   0.000000   0.000000   0.000000  -0.000001
    23  O   -0.000614  -0.003813   0.007098  -0.000046  -0.000125
    24  Si   0.019202   0.006759  -0.023763   0.000143  -0.001130
    25  C    0.000041   0.000914   0.000290   0.000000   0.000053
    26  H   -0.000001   0.000057   0.000005   0.000000   0.000000
    27  H    0.000000   0.000003  -0.000006   0.000000   0.000000
    28  H   -0.000006   0.000193   0.000034   0.000000   0.000000
    29  C   -0.162872  -0.064077  -0.093325  -0.000006   0.000005
    30  C   -0.001201  -0.000428  -0.000718  -0.000010   0.000018
    31  H    0.000000   0.000000   0.000000   0.000000   0.000000
    32  H    0.000000   0.000000   0.000002   0.000000   0.000000
    33  H    0.000000  -0.000001   0.000000   0.000000   0.000000
    34  C    0.002400   0.001022  -0.002961   0.000002  -0.000001
    35  H    0.000039  -0.000153   0.000020   0.000000   0.000000
    36  H    0.005616   0.000026  -0.000310   0.000000   0.000000
    37  H   -0.000325   0.000032   0.003063   0.000000   0.000000
    38  C    0.010790  -0.003839   0.001539   0.000000   0.000000
    39  H   -0.000008   0.000033  -0.000146   0.000000   0.000000
    40  H   -0.000312   0.002775   0.000038   0.000000   0.000000
    41  H    0.005369  -0.000357   0.000011   0.000000   0.000000
    42  C    0.471627   0.415185   0.464201   0.000007   0.000004
    43  H    0.545756  -0.028297  -0.027656   0.000000   0.000000
    44  H   -0.028297   0.535860  -0.025976   0.000000   0.000000
    45  H   -0.027656  -0.025976   0.520943   0.000000   0.000000
    46  H    0.000000   0.000000   0.000000   0.522389  -0.031483
    47  H    0.000000   0.000000   0.000000  -0.031483   0.510587
 Mulliken atomic charges:
              1
     1  H    0.151124
     2  C    0.114661
     3  C   -0.178404
     4  C    0.332290
     5  C   -0.368025
     6  C   -0.340178
     7  C   -0.417641
     8  H    0.193524
     9  H    0.181694
    10  H    0.148741
    11  H    0.173804
    12  H    0.169941
    13  H    0.173390
    14  O   -0.384769
    15  C   -0.114725
    16  O   -0.563840
    17  H    0.399714
    18  O   -0.237405
    19  C   -0.162697
    20  H    0.177638
    21  H    0.161297
    22  H    0.143059
    23  O   -0.306988
    24  Si   0.708360
    25  C   -0.726123
    26  H    0.180079
    27  H    0.205242
    28  H    0.180709
    29  C   -0.008601
    30  C   -0.733147
    31  H    0.186159
    32  H    0.182835
    33  H    0.205817
    34  C   -0.585819
    35  H    0.163567
    36  H    0.161530
    37  H    0.171249
    38  C   -0.540812
    39  H    0.165478
    40  H    0.168454
    41  H    0.163791
    42  C   -0.554546
    43  H    0.160521
    44  H    0.164397
    45  H    0.177011
    46  H    0.173468
    47  H    0.184175
 Sum of Mulliken atomic charges =   0.00000
 Mulliken charges with hydrogens summed into heavy atoms:
              1
     2  C    0.265785
     3  C    0.185062
     4  C    0.513985
     5  C   -0.368025
     6  C   -0.191437
     7  C   -0.070447
    14  O   -0.384769
    15  C    0.242918
    16  O   -0.164126
    18  O   -0.237405
    19  C    0.319296
    23  O   -0.306988
    24  Si   0.708360
    25  C   -0.160093
    29  C   -0.008601
    30  C   -0.158336
    34  C   -0.089473
    38  C   -0.043089
    42  C   -0.052617
 Sum of Mulliken charges with hydrogens summed into heavy atoms =   0.00000
 Electronic spatial extent (au):  <R**2>=           6310.0681
 Charge=              0.0000 electrons
 Dipole moment (field-independent basis, Debye):
    X=              0.5098    Y=              0.2566    Z=             -2.9421  Tot=              2.9969
 Quadrupole moment (field-independent basis, Debye-Ang):
   XX=           -124.4895   YY=           -126.1786   ZZ=           -124.4836
   XY=             -0.0071   XZ=             -8.2230   YZ=              2.9642
 Traceless Quadrupole moment (field-independent basis, Debye-Ang):
   XX=              0.5610   YY=             -1.1281   ZZ=              0.5670
   XY=             -0.0071   XZ=             -8.2230   YZ=              2.9642
 Octapole moment (field-independent basis, Debye-Ang**2):
  XXX=             51.2263  YYY=             22.7877  ZZZ=              2.1111  XYY=              9.3110
  XXY=             11.6297  XXZ=            -25.6326  XZZ=             16.9984  YZZ=              3.4505
  YYZ=            -13.5144  XYZ=             12.8428
 Hexadecapole moment (field-independent basis, Debye-Ang**3):
 XXXX=          -5612.9436 YYYY=          -1870.8536 ZZZZ=           -910.3327 XXXY=             -4.8010
 XXXZ=            -66.8970 YYYX=             25.3425 YYYZ=             16.4442 ZZZX=             32.1316
 ZZZY=              2.7247 XXYY=          -1300.8808 XXZZ=          -1099.1630 YYZZ=           -502.9959
 XXYZ=             60.9538 YYXZ=            -47.1063 ZZXY=             15.1912
 N-N= 1.829398173908D+03 E-N=-6.329684660332D+03  KE= 1.131545006901D+03
 1\1\GINC-COMPUTE-8-30\SP\RmPW1PW91\6-31+G(d,p)\C14H28O4Si1\ELUCIANO.IQ
 UIR\06-Dec-2022\0\\# mPW1PW91/6-31+g** scrf=(PCM,solvent=chloroform) n
 mr\\comment\\0,1\H,0,0.070641,0.381981,-2.060039\C,0,0.487612,-0.09774
 6,-1.164102\C,0,1.813255,-2.113241,-0.354254\C,0,2.277549,0.207228,0.5
 99176\C,0,2.847855,-1.150535,0.186901\C,0,1.565252,0.854065,-0.597815\
 C,0,1.099266,-1.454825,-1.548372\H,0,1.080111,-2.341628,0.427875\H,0,1
 .526557,0.036155,1.384828\H,0,2.312738,1.034006,-1.388981\H,0,1.8105,-
 1.306157,-2.372496\H,0,2.288934,-3.055424,-0.646614\H,0,0.300565,-2.10
 4215,-1.921953\O,0,3.83472,-1.654748,1.106954\C,0,4.259541,-1.252911,-
 0.214451\O,0,3.302208,1.065301,1.080976\H,0,3.789225,0.536484,1.738094
 \O,0,0.921724,2.075391,-0.271625\C,0,1.743014,3.236313,-0.314484\H,0,2
 .515804,3.215219,0.458875\H,0,1.077919,4.088942,-0.152532\H,0,2.223723
 ,3.343559,-1.299348\O,0,-0.540827,-0.334441,-0.214591\Si,0,-1.961071,0
 .530867,0.077985\C,0,-1.779554,1.50785,1.681427\H,0,-2.683179,2.085696
 ,1.911049\H,0,-0.939698,2.203358,1.5897\H,0,-1.578219,0.85073,2.535351
 \C,0,-3.323268,-0.811098,0.250733\C,0,-2.32903,1.702228,-1.359566\H,0,
 -3.262532,2.250356,-1.183927\H,0,-2.431033,1.178204,-2.317104\H,0,-1.5
 22399,2.435695,-1.458352\C,0,-3.475924,-1.581575,-1.077507\H,0,-3.7959
 53,-0.926684,-1.897272\H,0,-4.232409,-2.374071,-0.979389\H,0,-2.535316
 ,-2.059048,-1.376702\C,0,-4.672549,-0.152244,0.609175\H,0,-5.001318,0.
 55847,-0.159649\H,0,-4.625899,0.385767,1.563709\H,0,-5.459877,-0.91447
 2,0.703262\C,0,-2.936371,-1.80959,1.362451\H,0,-3.699587,-2.596481,1.4
 5632\H,0,-2.851497,-1.321817,2.341174\H,0,-1.979221,-2.298448,1.148506
 \H,0,4.572478,-2.072779,-0.86093\H,0,4.881455,-0.361061,-0.244833\\Ver
 sion=EM64L-G09RevC.01\State=1-A\HF=-1140.6254158\RMSD=4.325e-09\Dipole
 =0.2005721,0.1009724,-1.157505\Quadrupole=0.4171239,-0.8386798,0.42155
 6,-0.0052963,-6.1136244,2.2038413\PG=C01 [X(C14H28O4Si1)]\\@


 A MATHEMATICIAN IS A MACHINE FOR TURNING COFFEE INTO THEOREMS.
     -- QUOTED BY PAUL ERDOS
 Job cpu time:  0 days  1 hours  6 minutes 50.9 seconds.
 File lengths (MBytes):  RWF=    297 Int=      0 D2E=      0 Chk=     16 Scr=      1
 Normal termination of Gaussian 09 at Tue Dec  6 20:59:29 2022.
