 Entering Gaussian System, Link 0=g09
 Input=/home/eluciano.iquir/todos_optB3L_MPW_B_PCM/02_epoxido28_023_optB3L_nmr_MPW_B_PCM.gjc
 Output=/home/eluciano.iquir/todos_optB3L_MPW_B_PCM/02_epoxido28_023_optB3L_nmr_MPW_B_PCM.log
 Initial command:
 /share/apps/Gaussian09/EM64T.SSE4.2-enabled/g09/l1.exe /tmp/Gau-20074.inp -scrdir=/tmp/
 Entering Link 1 = /share/apps/Gaussian09/EM64T.SSE4.2-enabled/g09/l1.exe PID=     20075.
  
 Copyright (c) 1988,1990,1992,1993,1995,1998,2003,2009,2011,
            Gaussian, Inc.  All Rights Reserved.
  
 This is part of the Gaussian(R) 09 program.  It is based on
 the Gaussian(R) 03 system (copyright 2003, Gaussian, Inc.),
 the Gaussian(R) 98 system (copyright 1998, Gaussian, Inc.),
 the Gaussian(R) 94 system (copyright 1995, Gaussian, Inc.),
 the Gaussian 92(TM) system (copyright 1992, Gaussian, Inc.),
 the Gaussian 90(TM) system (copyright 1990, Gaussian, Inc.),
 the Gaussian 88(TM) system (copyright 1988, Gaussian, Inc.),
 the Gaussian 86(TM) system (copyright 1986, Carnegie Mellon
 University), and the Gaussian 82(TM) system (copyright 1983,
 Carnegie Mellon University). Gaussian is a federally registered
 trademark of Gaussian, Inc.
  
 This software contains proprietary and confidential information,
 including trade secrets, belonging to Gaussian, Inc.
  
 This software is provided under written license and may be
 used, copied, transmitted, or stored only in accord with that
 written license.
  
 The following legend is applicable only to US Government
 contracts under FAR:
  
                    RESTRICTED RIGHTS LEGEND
  
 Use, reproduction and disclosure by the US Government is
 subject to restrictions as set forth in subparagraphs (a)
 and (c) of the Commercial Computer Software - Restricted
 Rights clause in FAR 52.227-19.
  
 Gaussian, Inc.
 340 Quinnipiac St., Bldg. 40, Wallingford CT 06492
  
  
 ---------------------------------------------------------------
 Warning -- This program may not be used in any manner that
 competes with the business of Gaussian, Inc. or will provide
 assistance to any competitor of Gaussian, Inc.  The licensee
 of this program is prohibited from giving any competitor of
 Gaussian, Inc. access to this program.  By using this program,
 the user acknowledges that Gaussian, Inc. is engaged in the
 business of creating and licensing software in the field of
 computational chemistry and represents and warrants to the
 licensee that it is not a competitor of Gaussian, Inc. and that
 it will not use this program in any manner prohibited above.
 ---------------------------------------------------------------
  

 Cite this work as:
 Gaussian 09, Revision C.01,
 M. J. Frisch, G. W. Trucks, H. B. Schlegel, G. E. Scuseria, 
 M. A. Robb, J. R. Cheeseman, G. Scalmani, V. Barone, B. Mennucci, 
 G. A. Petersson, H. Nakatsuji, M. Caricato, X. Li, H. P. Hratchian, 
 A. F. Izmaylov, J. Bloino, G. Zheng, J. L. Sonnenberg, M. Hada, 
 M. Ehara, K. Toyota, R. Fukuda, J. Hasegawa, M. Ishida, T. Nakajima, 
 Y. Honda, O. Kitao, H. Nakai, T. Vreven, J. A. Montgomery, Jr., 
 J. E. Peralta, F. Ogliaro, M. Bearpark, J. J. Heyd, E. Brothers, 
 K. N. Kudin, V. N. Staroverov, T. Keith, R. Kobayashi, J. Normand, 
 K. Raghavachari, A. Rendell, J. C. Burant, S. S. Iyengar, J. Tomasi, 
 M. Cossi, N. Rega, J. M. Millam, M. Klene, J. E. Knox, J. B. Cross, 
 V. Bakken, C. Adamo, J. Jaramillo, R. Gomperts, R. E. Stratmann, 
 O. Yazyev, A. J. Austin, R. Cammi, C. Pomelli, J. W. Ochterski, 
 R. L. Martin, K. Morokuma, V. G. Zakrzewski, G. A. Voth, 
 P. Salvador, J. J. Dannenberg, S. Dapprich, A. D. Daniels, 
 O. Farkas, J. B. Foresman, J. V. Ortiz, J. Cioslowski, 
 and D. J. Fox, Gaussian, Inc., Wallingford CT, 2010.
 
 ******************************************
 Gaussian 09:  EM64L-G09RevC.01 23-Sep-2011
                 7-Dec-2022 
 ******************************************
 %nprocshared=4
 Will use up to    4 processors via shared memory.
 %mem=80MW
 -----------------------------------------------------
 # mPW1PW91/6-31+g** scrf=(PCM,solvent=chloroform) nmr
 -----------------------------------------------------
 1/38=1/1;
 2/12=2,17=6,18=5,40=1/2;
 3/5=1,6=6,7=111,11=2,16=1,25=1,30=1,70=2201,72=7,74=-7/1,2,8,3;
 4//1;
 5/5=2,38=5,53=7/2;
 8/6=1,10=90,11=11/1;
 10/13=100,45=16/2;
 6/7=2,8=2,9=2,10=2,28=1/1;
 99/9=1/99;
 -------
 comment
 -------
 Charge =  0 Multiplicity = 1
 Symbolic Z-Matrix:
 1                    -0.22555   0.55239   2.19963 
 6                    -0.58931   0.11383   1.25866 
 6                    -1.82224  -1.88247   0.26461 
 6                    -2.36113   0.46297  -0.56078 
 6                    -2.87771  -0.95029  -0.30755 
 6                    -1.73303   1.00357   0.74011 
 6                    -1.16795  -1.29052   1.52492 
 1                    -1.05299  -2.05028  -0.49941 
 1                    -1.59148   0.39592  -1.34489 
 1                    -2.51602   0.96563   1.5089 
 1                    -1.90895  -1.21714   2.3327 
 1                    -2.27508  -2.85564   0.48152 
 1                    -0.37257  -1.95074   1.88436 
 8                    -3.70613  -1.50941  -1.33066 
 6                    -4.31124  -1.18168  -0.06703 
 8                    -3.40487   1.326    -0.97987 
 1                    -3.19155   2.19487  -0.59655 
 8                    -1.4704    2.40523   0.65101 
 6                    -0.51951   2.86672  -0.30805 
 1                     0.50071   2.57828  -0.04545 
 1                    -0.60191   3.95718  -0.29827 
 1                    -0.73896   2.50529  -1.32044 
 8                     0.47157   0.04434   0.30449 
 14                    2.11715  -0.12775   0.64285 
 6                     2.74001   1.39692   1.57615 
 1                     3.78072   1.26195   1.89484 
 1                     2.14646   1.57539   2.48123 
 1                     2.69388   2.30841   0.96997 
 6                     2.94367  -0.30931  -1.07222 
 6                     2.4379   -1.64123   1.73378 
 1                     1.96563  -1.53167   2.71766 
 1                     3.51337  -1.76947   1.90816 
 1                     2.06228  -2.567     1.28441 
 6                     2.44346  -1.59622  -1.76322 
 1                     2.70391  -2.49629  -1.1932 
 1                     2.89999  -1.69788  -2.75838 
 1                     1.35594  -1.58604  -1.89802 
 6                     4.4775   -0.38639  -0.90406 
 1                     4.78568  -1.24687  -0.29711 
 1                     4.88647   0.51778  -0.43647 
 1                     4.96215  -0.49243  -1.88509 
 6                     2.59612   0.90253  -1.96298 
 1                     3.0763    0.8016   -2.947 
 1                     2.94557   1.84707  -1.52769 
 1                     1.51648   0.98583  -2.12733 
 1                    -4.6222   -2.03746   0.53451 
 1                    -4.99896  -0.34009  -0.09619 
 
                          Input orientation:                          
 ---------------------------------------------------------------------
 Center     Atomic      Atomic             Coordinates (Angstroms)
 Number     Number       Type             X           Y           Z
 ---------------------------------------------------------------------
      1          1           0       -0.225552    0.552389    2.199632
      2          6           0       -0.589306    0.113833    1.258657
      3          6           0       -1.822241   -1.882466    0.264606
      4          6           0       -2.361131    0.462970   -0.560783
      5          6           0       -2.877713   -0.950288   -0.307545
      6          6           0       -1.733031    1.003574    0.740113
      7          6           0       -1.167945   -1.290523    1.524915
      8          1           0       -1.052987   -2.050278   -0.499408
      9          1           0       -1.591482    0.395920   -1.344893
     10          1           0       -2.516016    0.965634    1.508902
     11          1           0       -1.908946   -1.217142    2.332696
     12          1           0       -2.275082   -2.855642    0.481515
     13          1           0       -0.372568   -1.950735    1.884363
     14          8           0       -3.706134   -1.509406   -1.330659
     15          6           0       -4.311244   -1.181679   -0.067033
     16          8           0       -3.404869    1.326000   -0.979868
     17          1           0       -3.191551    2.194868   -0.596546
     18          8           0       -1.470398    2.405228    0.651008
     19          6           0       -0.519511    2.866717   -0.308049
     20          1           0        0.500710    2.578276   -0.045454
     21          1           0       -0.601910    3.957175   -0.298273
     22          1           0       -0.738955    2.505290   -1.320435
     23          8           0        0.471567    0.044340    0.304486
     24         14           0        2.117155   -0.127752    0.642850
     25          6           0        2.740014    1.396917    1.576146
     26          1           0        3.780718    1.261951    1.894836
     27          1           0        2.146457    1.575389    2.481228
     28          1           0        2.693883    2.308408    0.969968
     29          6           0        2.943673   -0.309312   -1.072225
     30          6           0        2.437901   -1.641227    1.733784
     31          1           0        1.965634   -1.531670    2.717658
     32          1           0        3.513373   -1.769467    1.908161
     33          1           0        2.062278   -2.567004    1.284410
     34          6           0        2.443456   -1.596217   -1.763219
     35          1           0        2.703907   -2.496294   -1.193200
     36          1           0        2.899992   -1.697878   -2.758382
     37          1           0        1.355935   -1.586037   -1.898023
     38          6           0        4.477497   -0.386385   -0.904059
     39          1           0        4.785675   -1.246866   -0.297107
     40          1           0        4.886467    0.517777   -0.436467
     41          1           0        4.962152   -0.492426   -1.885088
     42          6           0        2.596115    0.902526   -1.962982
     43          1           0        3.076296    0.801601   -2.946997
     44          1           0        2.945570    1.847071   -1.527689
     45          1           0        1.516476    0.985831   -2.127329
     46          1           0       -4.622203   -2.037460    0.534509
     47          1           0       -4.998963   -0.340091   -0.096192
 ---------------------------------------------------------------------
                    Distance matrix (angstroms):
                    1          2          3          4          5
     1  H    0.000000
     2  C    1.100037   0.000000
     3  C    3.496035   2.548230   0.000000
     4  C    3.491215   2.563518   2.544158   0.000000
     5  C    3.946889   2.970210   1.519978   1.525872   0.000000
     6  C    2.146219   1.539037   2.926310   1.542431   2.495087
     7  C    2.177079   1.542055   1.538466   2.974654   2.529224
     8  H    3.839706   2.826512   1.097101   2.833977   2.139256
     9  H    3.801829   2.803998   2.799068   1.100765   2.131374
    10  H    2.427778   2.121414   3.184536   2.135476   2.664782
    11  H    2.445968   2.160209   2.174206   3.376310   2.824994
    12  H    4.332110   3.501938   1.095074   3.479508   2.148524
    13  H    2.527180   2.168162   2.174816   3.969772   3.475789
    14  O    5.369209   4.365098   2.496617   2.508388   1.430265
    15  C    4.983738   4.157960   2.606957   2.598384   1.471869
    16  O    4.562428   3.795753   3.787833   1.417689   2.431337
    17  H    4.394713   3.813681   4.386484   1.921028   3.173960
    18  O    2.716779   2.529042   4.319424   2.456463   3.762824
    19  C    3.425053   3.168250   4.957800   3.038657   4.486719
    20  H    3.109998   2.993713   5.038894   3.595861   4.892157
    21  H    4.239545   4.146742   5.992282   3.920872   5.409488
    22  H    4.058112   3.520394   4.789391   2.716541   4.188228
    23  O    2.082226   1.428539   2.995952   2.991341   3.547047
    24  Si   2.893862   2.786129   4.329080   4.674690   5.150585
    25  C    3.145877   3.582105   5.769633   5.608957   6.373109
    26  H    4.080022   4.562895   6.628586   6.662638   7.353855
    27  H    2.598510   3.333950   5.711457   5.550645   6.276829
    28  H    3.621985   3.959650   6.201317   5.594820   6.579804
    29  C    4.635899   4.253705   5.193830   5.385066   5.906278
    30  C    3.481802   3.531284   4.512814   5.720436   5.735867
    31  H    3.068053   3.371065   4.526425   5.783395   5.740023
    32  H    4.410842   4.560773   5.584158   6.751982   6.813691
    33  H    3.975225   3.770736   4.074074   5.670276   5.436139
    34  C    5.238731   4.610168   4.731827   5.363782   5.554372
    35  H    5.421025   4.865143   4.794580   5.900153   5.859096
    36  H    6.278107   5.620863   5.609992   6.097386   6.320393
    37  H    4.885155   4.078989   3.855598   4.450081   4.567009
    38  C    5.712518   5.531731   6.579570   6.899716   7.400874
    39  H    5.880767   5.758674   6.662136   7.353224   7.669132
    40  H    5.751778   5.746365   7.159569   7.248871   7.902805
    41  H    6.684972   6.408539   7.251302   7.503135   8.010104
    42  C    5.041007   4.598685   5.678045   5.170460   6.011338
    43  H    6.119812   5.621138   6.443157   5.947630   6.744334
    44  H    5.062128   4.823193   6.312986   5.568817   6.574541
    45  H    4.684562   4.081617   5.009542   4.214651   5.135082
    46  H    5.367541   4.627819   2.817207   3.544610   2.221316
    47  H    5.371478   4.635379   3.549741   2.796231   2.217366
                    6          7          8          9         10
     6  C    0.000000
     7  C    2.489602   0.000000
     8  H    3.365247   2.165254   0.000000
     9  H    2.176357   3.355484   2.643616   0.000000
    10  H    1.097972   2.628269   3.907619   3.053438   0.000000
    11  H    2.738402   1.098625   3.073694   4.028326   2.410743
    12  H    3.905668   2.182667   1.761913   3.791534   3.964306
    13  H    3.447914   1.094398   2.480976   4.173803   3.638756
    14  O    3.807401   3.826828   2.832439   2.846440   3.950356
    15  C    3.474766   3.525120   3.399655   3.393943   3.212066
    16  O    2.420193   4.257224   4.142637   2.070426   2.667189
    17  H    2.309355   4.554506   4.754383   2.521202   2.529876
    18  O    1.428828   3.809694   4.620522   2.834714   1.975280
    19  C    2.458165   4.589430   4.949551   2.886002   3.301736
    20  H    2.843660   4.496451   4.903423   3.290667   3.757296
    21  H    3.328880   5.584151   6.027721   3.841511   3.984846
    22  H    2.736640   4.763218   4.639601   2.275268   3.678809
    23  O    2.443390   2.441169   2.712551   2.664626   3.350381
    24  Si   4.014136   3.594712   3.879518   4.240206   4.838575
    25  C    4.567472   4.743111   5.529732   5.319429   5.274123
    26  H    5.639288   5.580433   6.329926   6.332960   6.315505
    27  H    4.290557   4.484779   5.680325   5.477457   4.801653
    28  H    4.620930   5.307917   5.932642   5.232642   5.407082
    29  C    5.184573   4.961181   4.396859   4.597753   6.172188
    30  C    5.037760   3.628877   4.164225   5.464810   5.602463
    31  H    4.900844   3.361563   4.441907   5.733498   5.270940
    32  H    6.048045   4.721335   5.169805   6.428904   6.632776
    33  H    5.239242   3.481607   3.626829   5.389074   5.787115
    34  C    5.519839   4.893617   3.745464   4.519329   6.470411
    35  H    5.972704   4.881933   3.846366   5.180567   6.821576
    36  H    6.403297   5.921206   4.566530   5.153182   7.391695
    37  H    4.817422   4.263074   2.823924   3.594631   5.754143
    38  C    6.573123   6.211956   5.789519   6.135050   7.520609
    39  H    6.973796   6.226336   5.897149   6.668188   7.840377
    40  H    6.740778   6.616107   6.471165   6.542470   7.666928
    41  H    7.345418   7.059969   6.366232   6.635593   8.340750
    42  C    5.104747   5.580595   4.917016   4.263174   6.179955
    43  H    6.063431   6.510650   5.583447   4.951713   7.152335
    44  H    5.267231   6.006987   5.677601   4.766980   6.310843
    45  H    4.333801   5.072158   4.297700   3.258773   5.429878
    46  H    4.199699   3.670248   3.715972   4.317263   3.795265
    47  H    3.629208   4.267084   4.319496   3.702957   3.232069
                   11         12         13         14         15
    11  H    0.000000
    12  H    2.499122   0.000000
    13  H    1.760573   2.531086   0.000000
    14  O    4.090901   2.672870   4.652290   0.000000
    15  C    3.395732   2.692399   4.462349   1.438858   0.000000
    16  O    4.436038   4.571454   5.304306   2.872863   2.818375
    17  H    4.676253   5.244977   5.593532   3.811215   3.596549
    18  O    4.017706   5.324753   4.658413   4.924417   4.631619
    19  C    5.057862   6.037453   5.294913   5.509151   5.552012
    20  H    5.085984   6.124556   4.999875   6.004867   6.106769
    21  H    5.950117   7.058474   6.302372   6.370678   6.341960
    22  H    5.345161   5.860572   5.501012   4.992198   5.284506
    23  O    3.372212   3.998164   2.681212   4.747738   4.951407
    24  Si   4.500204   5.172926   3.326160   6.301936   6.552786
    25  C    5.386882   6.665858   4.581478   7.645198   7.685664
    26  H    6.221728   7.458201   5.250833   8.610296   8.677563
    27  H    4.926113   6.571369   4.374390   7.635395   7.469736
    28  H    5.955885   7.183078   5.327245   7.799282   7.894801
    29  C    5.997129   6.011099   4.736363   6.762170   7.375992
    30  C    4.408358   5.025454   2.831467   6.867121   7.000363
    31  H    3.906340   4.973621   2.517377   6.968380   6.875769
    32  H    5.466885   6.059811   3.890239   7.916999   8.091447
    33  H    4.323384   4.420480   2.582287   6.421190   6.660879
    34  C    5.988624   5.374903   4.621745   6.165395   6.976737
    35  H    5.945299   5.265371   4.385627   6.487023   7.225566
    36  H    7.019691   6.214398   5.685830   6.761273   7.714386
    37  H    5.356726   4.523094   4.174586   5.094342   5.969334
    38  C    7.207870   7.322183   5.809098   8.271335   8.864258
    39  H    7.192684   7.283454   5.644618   8.558503   9.100061
    40  H    7.540282   7.969343   6.255977   8.873660   9.360690
    41  H    8.094869   7.972650   6.692882   8.745331   9.475034
    42  C    6.575821   6.620268   5.635268   6.777580   7.459902
    43  H    7.536784   7.332624   6.543092   7.345383   8.173331
    44  H    6.917969   7.308052   6.088963   7.453182   7.998012
    45  H    6.039737   5.994906   5.318419   5.842649   6.550209
    46  H    3.356808   2.486203   4.459711   2.144032   1.091288
    47  H    4.027024   3.752502   5.283967   2.136027   1.087234
                   16         17         18         19         20
    16  O    0.000000
    17  H    0.973330   0.000000
    18  O    2.750758   2.136120   0.000000
    19  C    3.339228   2.770272   1.427217   0.000000
    20  H    4.206527   3.752798   2.097682   1.092248   0.000000
    21  H    3.904386   3.146575   2.015923   1.093610   1.783550
    22  H    2.934929   2.575967   2.105139   1.097137   1.779796
    23  O    4.280067   4.342242   3.076540   3.053399   2.558151
    24  Si   5.936275   5.925624   4.391650   4.101593   3.226336
    25  C    6.655661   6.367164   4.427205   4.041659   3.006606
    26  H    7.739553   7.462563   5.516195   5.091163   4.031859
    27  H    6.546648   6.192800   4.137630   4.068781   3.177796
    28  H    6.477790   6.091403   4.177600   3.502990   2.431855
    29  C    6.556429   6.643656   5.460978   4.760753   3.919246
    30  C    7.092694   7.199777   5.728962   5.765148   4.972183
    31  H    7.119008   7.174092   5.619299   5.888689   5.164537
    32  H    8.110777   8.182024   6.621668   6.532223   5.638760
    33  H    7.083229   7.335948   6.132217   6.223093   5.539038
    34  C    6.584519   6.891063   6.095761   5.551079   4.914404
    35  H    7.209201   7.557739   6.697077   6.319478   5.650014
    36  H    7.215138   7.545456   6.896356   6.207468   5.603751
    37  H    5.655813   6.055470   5.515062   5.086485   4.637340
    38  C    8.066579   8.097637   6.751947   5.992328   5.034010
    39  H    8.612248   8.693177   7.305831   6.713172   5.749432
    40  H    8.348339   8.251826   6.719733   5.895643   4.861421
    41  H    8.610060   8.681288   7.497058   6.619632   5.719959
    42  C    6.095708   6.085587   5.062370   4.037818   3.297844
    43  H    6.793386   6.837523   6.015786   4.915138   4.267220
    44  H    6.395287   6.217093   4.955707   3.812347   2.951105
    45  H    5.064782   5.096134   4.319174   3.315532   2.811026
    46  H    3.884341   4.608541   5.448387   6.449259   6.919943
    47  H    2.469388   3.153270   4.532754   5.513075   6.226222
                   21         22         23         24         25
    21  H    0.000000
    22  H    1.780889   0.000000
    23  O    4.101945   3.187790   0.000000
    24  Si   4.996564   4.352558   1.688806   0.000000
    25  C    4.608343   4.660676   2.931286   1.893043   0.000000
    26  H    5.592977   5.684303   3.868109   2.503235   1.096742
    27  H    4.577341   4.862403   3.144451   2.506229   1.096967
    28  H    3.897322   4.131475   3.241536   2.524777   1.095626
    29  C    5.601167   4.641696   2.851616   1.912480   3.156986
    30  C    6.686689   6.050973   2.958124   1.893046   3.057195
    31  H    6.768718   6.318073   3.246451   2.509736   3.237180
    32  H    7.389069   6.839567   3.887705   2.499133   3.276325
    33  H    7.222721   6.352975   3.210877   2.522808   4.032010
    34  C    6.500806   5.210197   3.294720   2.837610   4.494236
    35  H    7.305928   6.073329   3.698814   3.053743   4.777831
    36  H    7.091902   5.742495   4.279455   3.827076   5.328366
    37  H    6.092582   4.632616   2.879459   3.026894   4.783674
    38  C    6.710728   5.978840   4.206374   2.833908   3.514318
    39  H    7.490535   6.756287   4.543199   3.042521   3.831892
    40  H    6.478490   6.031333   4.501610   3.041500   3.070954
    41  H    7.299022   6.465892   5.024710   3.823279   4.526329
    42  C    4.725410   3.755584   3.223600   2.842751   3.576389
    43  H    5.522915   4.483793   4.234407   3.830228   4.574528
    44  H    4.306811   3.748591   3.567547   3.049170   3.143037
    45  H    4.081898   2.836689   2.809264   3.045451   3.921959
    46  H    7.265806   6.257556   5.507567   7.005546   8.190372
    47  H    6.151537   5.267128   5.498639   7.157542   8.105904
                   26         27         28         29         30
    26  H    0.000000
    27  H    1.764343   0.000000
    28  H    1.769651   1.766607   0.000000
    29  C    3.460197   4.100571   3.329475   0.000000
    30  C    3.202739   3.315152   4.030950   3.146981   0.000000
    31  H    3.431601   3.121284   4.281468   4.100480   1.096835
    32  H    3.043213   3.658542   4.263899   3.367389   1.097038
    33  H    4.241056   4.312642   4.926199   3.380497   1.095487
    34  C    4.831021   5.306847   4.772748   1.543961   3.497297
    35  H    4.981957   5.512783   5.269208   2.203409   3.060904
    36  H    5.584685   6.223793   5.476623   2.184754   4.516226
    37  H    5.326949   5.458698   5.018185   2.198381   3.789950
    38  C    3.322097   4.554390   3.735661   1.544939   3.562695
    39  H    3.479758   4.759174   4.315211   2.207439   3.129230
    40  H    2.685414   4.139945   3.160988   2.205156   3.920046
    41  H    4.331449   5.591843   4.597941   2.183697   4.559366
    42  C    4.051571   4.517293   3.253960   1.543631   4.490188
    43  H    4.914415   5.561382   4.214181   2.183228   5.318333
    44  H    3.571206   4.096805   2.552346   2.203960   4.802412
    45  H    4.623943   4.688630   3.567737   2.197164   4.760110
    46  H    9.129386   7.915627   8.520640   7.925312   7.172191
    47  H    9.144043   7.833849   8.205554   8.002441   7.768443
                   31         32         33         34         35
    31  H    0.000000
    32  H    1.762762   0.000000
    33  H    1.770722   1.769409   0.000000
    34  C    4.506744   3.828024   3.221144   0.000000
    35  H    4.095163   3.286632   2.560320   1.096766   0.000000
    36  H    5.557667   4.707227   4.219160   1.099595   1.767968
    37  H    4.656093   4.378952   3.404276   1.095891   1.772674
    38  C    4.553896   3.278877   3.921451   2.517771   2.771451
    39  H    4.137941   2.599052   3.414799   2.785233   2.588013
    40  H    4.762353   3.551641   4.522536   3.492498   3.797478
    41  H    5.589671   4.256587   4.770625   2.752642   3.097397
    42  C    5.313305   4.792354   4.782068   2.511360   3.486569
    43  H    6.226238   5.511260   5.502775   2.747972   3.753743
    44  H    5.513541   5.020639   5.307746   3.487668   4.362924
    45  H    5.478454   5.278678   4.955855   2.767461   3.795759
    46  H    6.958560   8.255079   6.747226   7.442969   7.541047
    47  H    7.605473   8.861174   7.531688   7.729582   8.073837
                   36         37         38         39         40
    36  H    0.000000
    37  H    1.771112   0.000000
    38  C    2.765330   3.488736   0.000000
    39  H    3.133223   3.800143   1.097175   0.000000
    40  H    3.774454   4.361976   1.096999   1.773005   0.000000
    41  H    2.543278   3.768415   1.099342   1.766920   1.767694
    42  C    2.736257   2.781225   2.514400   3.491303   2.779207
    43  H    2.512778   3.124228   2.747412   3.760334   3.108060
    44  H    3.752778   3.801357   2.779216   3.804309   2.593235
    45  H    3.084581   2.587056   3.485256   4.361457   3.799333
    46  H    8.218386   6.469863   9.359491   9.477594   9.893778
    47  H    8.445373   6.721883   9.510946   9.828619   9.928416
                   41         42         43         44         45
    41  H    0.000000
    42  C    2.747743   0.000000
    43  H    2.521628   1.099566   0.000000
    44  H    3.109274   1.097162   1.767635   0.000000
    45  H    3.757207   1.095249   1.771676   1.773023   0.000000
    46  H   10.005071   8.184442   8.913363   8.752910   7.342278
    47  H   10.121619   7.919231   8.639465   8.363520   6.952304
                   46         47
    46  H    0.000000
    47  H    1.849539   0.000000
 Stoichiometry    C14H28O4Si
 Framework group  C1[X(C14H28O4Si)]
 Deg. of freedom   135
 Full point group                 C1      NOp   1
 Largest Abelian subgroup         C1      NOp   1
 Largest concise Abelian subgroup C1      NOp   1
                         Standard orientation:                         
 ---------------------------------------------------------------------
 Center     Atomic      Atomic             Coordinates (Angstroms)
 Number     Number       Type             X           Y           Z
 ---------------------------------------------------------------------
      1          1           0        0.225552    0.552389   -2.199632
      2          6           0        0.589306    0.113833   -1.258657
      3          6           0        1.822241   -1.882466   -0.264606
      4          6           0        2.361131    0.462970    0.560783
      5          6           0        2.877713   -0.950288    0.307545
      6          6           0        1.733031    1.003574   -0.740113
      7          6           0        1.167945   -1.290523   -1.524915
      8          1           0        1.052987   -2.050278    0.499408
      9          1           0        1.591482    0.395920    1.344893
     10          1           0        2.516016    0.965634   -1.508902
     11          1           0        1.908946   -1.217142   -2.332696
     12          1           0        2.275082   -2.855642   -0.481515
     13          1           0        0.372568   -1.950735   -1.884363
     14          8           0        3.706134   -1.509406    1.330659
     15          6           0        4.311244   -1.181679    0.067033
     16          8           0        3.404869    1.326000    0.979868
     17          1           0        3.191551    2.194868    0.596546
     18          8           0        1.470398    2.405228   -0.651008
     19          6           0        0.519511    2.866717    0.308049
     20          1           0       -0.500710    2.578276    0.045454
     21          1           0        0.601910    3.957175    0.298273
     22          1           0        0.738955    2.505290    1.320435
     23          8           0       -0.471567    0.044340   -0.304486
     24         14           0       -2.117155   -0.127752   -0.642850
     25          6           0       -2.740014    1.396917   -1.576146
     26          1           0       -3.780718    1.261951   -1.894836
     27          1           0       -2.146457    1.575389   -2.481228
     28          1           0       -2.693883    2.308408   -0.969968
     29          6           0       -2.943673   -0.309312    1.072225
     30          6           0       -2.437901   -1.641227   -1.733784
     31          1           0       -1.965634   -1.531670   -2.717658
     32          1           0       -3.513373   -1.769467   -1.908161
     33          1           0       -2.062278   -2.567004   -1.284410
     34          6           0       -2.443456   -1.596217    1.763219
     35          1           0       -2.703907   -2.496294    1.193200
     36          1           0       -2.899992   -1.697878    2.758382
     37          1           0       -1.355935   -1.586037    1.898023
     38          6           0       -4.477497   -0.386385    0.904059
     39          1           0       -4.785675   -1.246866    0.297107
     40          1           0       -4.886467    0.517777    0.436467
     41          1           0       -4.962152   -0.492426    1.885088
     42          6           0       -2.596115    0.902526    1.962982
     43          1           0       -3.076296    0.801601    2.946997
     44          1           0       -2.945570    1.847071    1.527689
     45          1           0       -1.516476    0.985831    2.127329
     46          1           0        4.622203   -2.037460   -0.534509
     47          1           0        4.998963   -0.340091    0.096192
 ---------------------------------------------------------------------
 Rotational constants (GHZ):      0.5426282      0.2176114      0.2015393
 Standard basis: 6-31+G(d,p) (6D, 7F)
 There are   505 symmetry adapted basis functions of A   symmetry.
 Integral buffers will be    131072 words long.
 Raffenetti 2 integral format.
 Two-electron integral symmetry is turned on.
   505 basis functions,   828 primitive gaussians,   505 cartesian basis functions
    79 alpha electrons       79 beta electrons
       nuclear repulsion energy      1832.5857033098 Hartrees.
 NAtoms=   47 NActive=   47 NUniq=   47 SFac= 1.00D+00 NAtFMM=   60 NAOKFM=F Big=F
 ------------------------------------------------------------------------------
 Polarizable Continuum Model (PCM)
 =================================
 Model                : PCM.
 Atomic radii         : UFF (Universal Force Field).
 Polarization charges : Total charges.
 Charge compensation  : None.
 Solution method      : Matrix inversion.
 Cavity type          : Scaled VdW (van der Waals Surface) (Alpha=1.100).
 Cavity algorithm     : GePol (No added spheres)
                        Default sphere list used, NSphG=   47.
                        Lebedev-Laikov grids with approx.  5.0 points / Ang**2.
                        Smoothing algorithm: Karplus/York (Gamma=1.0000).
                        Polarization charges: spherical gaussians, with
                                              point-specific exponents (IZeta= 3).
                        Self-potential: point-specific (ISelfS= 7).
                        Self-field    : sphere-specific E.n sum rule (ISelfD= 2).
 Solvent              : Chloroform, Eps=   4.711300 Eps(inf)=   2.090627
 ------------------------------------------------------------------------------
 One-electron integrals computed using PRISM.
 NBasis=   505 RedAO= T  NBF=   505
 NBsUse=   505 1.00D-06 NBFU=   505
 Harris functional with IExCor=  908 diagonalized for initial guess.
 ExpMin= 3.31D-02 ExpMax= 1.61D+04 ExpMxC= 2.43D+03 IAcc=3 IRadAn=         5 AccDes= 0.00D+00
 HarFok:  IExCor=  908 AccDes= 0.00D+00 IRadAn=         5 IDoV= 1
 ScaDFX=  1.000000  1.000000  1.000000  1.000000
 FoFCou: FMM=F IPFlag=           0 FMFlag=      100000 FMFlg1=           0
         NFxFlg=           0 DoJE=T BraDBF=F KetDBF=T FulRan=T
         Omega=  0.000000  0.000000  1.000000  0.000000  0.000000 ICntrl=     500 IOpCl=  0
         NMat0=    1 NMatS0=    1 NMatT0=    0 NMatD0=    1 NMtDS0=    0 NMtDT0=    0
         I1Cent=           4 NGrid=           0.
 Petite list used in FoFCou.
 Initial guess orbital symmetries:
       Occupied  (A) (A) (A) (A) (A) (A) (A) (A) (A) (A) (A) (A)
                 (A) (A) (A) (A) (A) (A) (A) (A) (A) (A) (A) (A)
                 (A) (A) (A) (A) (A) (A) (A) (A) (A) (A) (A) (A)
                 (A) (A) (A) (A) (A) (A) (A) (A) (A) (A) (A) (A)
                 (A) (A) (A) (A) (A) (A) (A) (A) (A) (A) (A) (A)
                 (A) (A) (A) (A) (A) (A) (A) (A) (A) (A) (A) (A)
                 (A) (A) (A) (A) (A) (A) (A)
       Virtual   (A) (A) (A) (A) (A) (A) (A) (A) (A) (A) (A) (A)
                 (A) (A) (A) (A) (A) (A) (A) (A) (A) (A) (A) (A)
                 (A) (A) (A) (A) (A) (A) (A) (A) (A) (A) (A) (A)
                 (A) (A) (A) (A) (A) (A) (A) (A) (A) (A) (A) (A)
                 (A) (A) (A) (A) (A) (A) (A) (A) (A) (A) (A) (A)
                 (A) (A) (A) (A) (A) (A) (A) (A) (A) (A) (A) (A)
                 (A) (A) (A) (A) (A) (A) (A) (A) (A) (A) (A) (A)
                 (A) (A) (A) (A) (A) (A) (A) (A) (A) (A) (A) (A)
                 (A) (A) (A) (A) (A) (A) (A) (A) (A) (A) (A) (A)
                 (A) (A) (A) (A) (A) (A) (A) (A) (A) (A) (A) (A)
                 (A) (A) (A) (A) (A) (A) (A) (A) (A) (A) (A) (A)
                 (A) (A) (A) (A) (A) (A) (A) (A) (A) (A) (A) (A)
                 (A) (A) (A) (A) (A) (A) (A) (A) (A) (A) (A) (A)
                 (A) (A) (A) (A) (A) (A) (A) (A) (A) (A) (A) (A)
                 (A) (A) (A) (A) (A) (A) (A) (A) (A) (A) (A) (A)
                 (A) (A) (A) (A) (A) (A) (A) (A) (A) (A) (A) (A)
                 (A) (A) (A) (A) (A) (A) (A) (A) (A) (A) (A) (A)
                 (A) (A) (A) (A) (A) (A) (A) (A) (A) (A) (A) (A)
                 (A) (A) (A) (A) (A) (A) (A) (A) (A) (A) (A) (A)
                 (A) (A) (A) (A) (A) (A) (A) (A) (A) (A) (A) (A)
                 (A) (A) (A) (A) (A) (A) (A) (A) (A) (A) (A) (A)
                 (A) (A) (A) (A) (A) (A) (A) (A) (A) (A) (A) (A)
                 (A) (A) (A) (A) (A) (A) (A) (A) (A) (A) (A) (A)
                 (A) (A) (A) (A) (A) (A) (A) (A) (A) (A) (A) (A)
                 (A) (A) (A) (A) (A) (A) (A) (A) (A) (A) (A) (A)
                 (A) (A) (A) (A) (A) (A) (A) (A) (A) (A) (A) (A)
                 (A) (A) (A) (A) (A) (A) (A) (A) (A) (A) (A) (A)
                 (A) (A) (A) (A) (A) (A) (A) (A) (A) (A) (A) (A)
                 (A) (A) (A) (A) (A) (A) (A) (A) (A) (A) (A) (A)
                 (A) (A) (A) (A) (A) (A) (A) (A) (A) (A) (A) (A)
                 (A) (A) (A) (A) (A) (A) (A) (A) (A) (A) (A) (A)
                 (A) (A) (A) (A) (A) (A) (A) (A) (A) (A) (A) (A)
                 (A) (A) (A) (A) (A) (A) (A) (A) (A) (A) (A) (A)
                 (A) (A) (A) (A) (A) (A) (A) (A) (A) (A) (A) (A)
                 (A) (A) (A) (A) (A) (A) (A) (A) (A) (A) (A) (A)
                 (A) (A) (A) (A) (A) (A)
 The electronic state of the initial guess is 1-A.
 Requested convergence on RMS density matrix=1.00D-08 within 128 cycles.
 Requested convergence on MAX density matrix=1.00D-06.
 Requested convergence on             energy=1.00D-06.
 No special actions if energy rises.
 Error on total polarization charges =  0.01511
 SCF Done:  E(RmPW1PW91) =  -1140.62027605     A.U. after   13 cycles
             Convg  =    0.5087D-08             -V/T =  2.0080
 Range of M.O.s used for correlation:     1   505
 NBasis=   505 NAE=    79 NBE=    79 NFC=     0 NFV=     0
 NROrb=    505 NOA=    79 NOB=    79 NVA=   426 NVB=   426

 **** Warning!!: The largest alpha MO coefficient is  0.10933861D+03

 NEqPCM:  Using equilibrium solvation (IEInf=0, Eps=   4.7113, EpsInf=   2.0906)
          Differentiating once with respect to magnetic field using GIAOs.
          Electric field/nuclear overlap derivatives assumed to be zero.
 FoFCou: FMM=F IPFlag=           0 FMFlag=    10101102 FMFlg1=           0
         NFxFlg=    40000000 DoJE=F BraDBF=F KetDBF=T FulRan=T
         Omega=  0.000000  0.000000  1.000000  0.000000  0.000000 ICntrl=    6100 IOpCl=  0
         NMat0=    1 NMatS0=    1 NMatT0=    0 NMatD0=    1 NMtDS0=    0 NMtDT0=    0
         I1Cent=           7 NGrid=        2931.
 Symmetry not used in FoFCou.
          There are     3 degrees of freedom in the 1st order CPHF.  IDoFFX=0.
      3 vectors produced by pass  0 Test12= 1.12D-12 3.33D-08 XBig12= 1.95D+02 3.33D+00.
 AX will form     3 AO Fock derivatives at one time.
      3 vectors produced by pass  1 Test12= 1.12D-12 3.33D-08 XBig12= 4.97D-01 9.37D-02.
      3 vectors produced by pass  2 Test12= 1.12D-12 3.33D-08 XBig12= 1.03D-03 3.90D-03.
      3 vectors produced by pass  3 Test12= 1.12D-12 3.33D-08 XBig12= 4.63D-06 4.37D-04.
      3 vectors produced by pass  4 Test12= 1.12D-12 3.33D-08 XBig12= 2.23D-08 2.07D-05.
      3 vectors produced by pass  5 Test12= 1.12D-12 3.33D-08 XBig12= 5.96D-11 8.78D-07.
      2 vectors produced by pass  6 Test12= 1.12D-12 3.33D-08 XBig12= 1.68D-13 4.36D-08.
 Inverted reduced A of dimension    20 with in-core refinement.
 Calculating GIAO nuclear magnetic shielding tensors.
 SCF GIAO Magnetic shielding tensor (ppm):
      1  H    Isotropic =    27.1084   Anisotropy =     4.5760
   XX=    28.2456   YX=    -0.2686   ZX=    -2.3106
   XY=    -0.3435   YY=    24.0628   ZY=    -1.3962
   XZ=     0.1252   YZ=    -2.4941   ZZ=    29.0169
   Eigenvalues:    23.3034    27.8628    30.1591
      2  C    Isotropic =   122.5524   Anisotropy =    40.7339
   XX=   132.9227   YX=     9.2020   ZX=   -23.2663
   XY=     5.9775   YY=   117.3756   ZY=     4.4354
   XZ=   -21.9657   YZ=     1.2828   ZZ=   117.3588
   Eigenvalues:    98.7354   119.2135   149.7083
      3  C    Isotropic =   167.2094   Anisotropy =    32.1662
   XX=   168.0835   YX=     5.0656   ZX=    21.0723
   XY=     7.8101   YY=   174.5623   ZY=     6.9410
   XZ=    15.0461   YZ=     7.5891   ZZ=   158.9825
   Eigenvalues:   144.7943   168.1805   188.6535
      4  C    Isotropic =   132.4762   Anisotropy =    60.2720
   XX=   138.3144   YX=    22.4327   ZX=    11.6524
   XY=    25.8539   YY=   144.9841   ZY=    13.8307
   XZ=    15.1301   YZ=    15.1076   ZZ=   114.1302
   Eigenvalues:   107.4631   117.3080   172.6576
      5  C    Isotropic =   133.5496   Anisotropy =    61.7971
   XX=    92.0045   YX=    14.2408   ZX=    11.5462
   XY=    12.8789   YY=   169.4427   ZY=    10.9063
   XZ=    15.3432   YZ=     4.9700   ZZ=   139.2017
   Eigenvalues:    86.9158   138.9854   174.7477
      6  C    Isotropic =   113.4471   Anisotropy =    34.6934
   XX=   108.2984   YX=    -5.4609   ZX=    14.8305
   XY=   -14.7155   YY=   132.4540   ZY=     2.4363
   XZ=     2.9563   YZ=    12.3669   ZZ=    99.5890
   Eigenvalues:    90.7316   113.0337   136.5760
      7  C    Isotropic =   163.6456   Anisotropy =    20.6457
   XX=   164.3715   YX=    -7.3350   ZX=    -5.6330
   XY=    -8.5236   YY=   170.1056   ZY=     7.5408
   XZ=    -3.8827   YZ=     0.4817   ZZ=   156.4598
   Eigenvalues:   154.2207   159.3067   177.4094
      8  H    Isotropic =    29.1585   Anisotropy =     6.7640
   XX=    32.4207   YX=     0.7159   ZX=    -1.5341
   XY=     1.7463   YY=    27.6110   ZY=    -3.5655
   XZ=    -1.6753   YZ=    -2.2411   ZZ=    27.4438
   Eigenvalues:    24.6108    29.1968    33.6678
      9  H    Isotropic =    26.8022   Anisotropy =     5.4722
   XX=    30.1547   YX=     1.1591   ZX=    -0.9525
   XY=     1.0019   YY=    24.9152   ZY=     0.2267
   XZ=    -0.6743   YZ=     1.4453   ZZ=    25.3368
   Eigenvalues:    23.9682    25.9881    30.4504
     10  H    Isotropic =    28.2938   Anisotropy =     4.3470
   XX=    27.5468   YX=    -0.7058   ZX=    -2.5349
   XY=    -1.9030   YY=    30.2342   ZY=     0.8057
   XZ=    -2.7819   YZ=    -0.6525   ZZ=    27.1005
   Eigenvalues:    24.5320    29.1576    31.1919
     11  H    Isotropic =    30.0975   Anisotropy =     9.2496
   XX=    29.8551   YX=    -1.8625   ZX=    -3.1812
   XY=    -1.7072   YY=    26.5525   ZY=     2.2608
   XZ=    -3.0727   YZ=     1.6058   ZZ=    33.8848
   Eigenvalues:    25.7230    28.3056    36.2639
     12  H    Isotropic =    30.5631   Anisotropy =    10.3301
   XX=    29.1425   YX=    -2.1011   ZX=     1.6377
   XY=    -2.2410   YY=    36.5562   ZY=     2.3288
   XZ=     1.4965   YZ=     2.3071   ZZ=    25.9906
   Eigenvalues:    24.5912    29.6482    37.4498
     13  H    Isotropic =    29.8601   Anisotropy =     9.1994
   XX=    33.1289   YX=     0.8589   ZX=     3.2041
   XY=     2.0605   YY=    28.9206   ZY=     3.7667
   XZ=     3.5289   YZ=     3.4809   ZZ=    27.5307
   Eigenvalues:    24.1700    29.4173    35.9930
     14  O    Isotropic =   308.4662   Anisotropy =   113.8499
   XX=   376.3051   YX=    -0.6081   ZX=    20.4978
   XY=    -1.0424   YY=   359.1418   ZY=    64.4760
   XZ=    -1.3943   YZ=    73.1709   ZZ=   189.9517
   Eigenvalues:   165.0843   375.9481   384.3661
     15  C    Isotropic =   146.4911   Anisotropy =    35.6858
   XX=   112.6448   YX=    11.0550   ZX=     8.2781
   XY=     8.9282   YY=   164.8002   ZY=     0.5159
   XZ=     8.7959   YZ=     6.7623   ZZ=   162.0283
   Eigenvalues:   109.6446   159.5470   170.2817
     16  O    Isotropic =   313.6375   Anisotropy =    39.7837
   XX=   318.5362   YX=    14.3884   ZX=     9.6674
   XY=     7.1338   YY=   330.0005   ZY=   -14.1965
   XZ=   -14.4854   YZ=   -13.6236   ZZ=   292.3759
   Eigenvalues:   287.7504   313.0021   340.1600
     17  H    Isotropic =    29.2380   Anisotropy =    17.5071
   XX=    26.5969   YX=    -0.2418   ZX=     5.1034
   XY=    -0.6764   YY=    39.4244   ZY=    -4.8037
   XZ=     5.9546   YZ=    -4.8643   ZZ=    21.6928
   Eigenvalues:    17.4177    29.3870    40.9094
     18  O    Isotropic =   312.2855   Anisotropy =    56.4628
   XX=   297.8316   YX=    -2.7541   ZX=   -10.5527
   XY=    18.4458   YY=   341.3658   ZY=   -22.3572
   XZ=    -3.6910   YZ=   -14.4102   ZZ=   297.6589
   Eigenvalues:   288.7937   298.1353   349.9273
     19  C    Isotropic =   142.9224   Anisotropy =    67.9917
   XX=   152.5699   YX=   -12.4284   ZX=   -29.2379
   XY=   -16.2015   YY=   131.2749   ZY=    21.2054
   XZ=   -27.3804   YZ=    21.4724   ZZ=   144.9223
   Eigenvalues:   114.1687   126.3483   188.2502
     20  H    Isotropic =    27.7778   Anisotropy =     8.7736
   XX=    33.4137   YX=     1.8286   ZX=     0.2099
   XY=     0.2106   YY=    27.3699   ZY=     2.0375
   XZ=    -2.2669   YZ=     1.9866   ZZ=    22.5499
   Eigenvalues:    21.6725    28.0341    33.6268
     21  H    Isotropic =    28.2545   Anisotropy =     9.9425
   XX=    26.4107   YX=    -2.1625   ZX=    -1.6345
   XY=    -0.9199   YY=    33.5602   ZY=     1.7216
   XZ=    -1.3870   YZ=     4.1275   ZZ=    24.7926
   Eigenvalues:    23.5166    26.3641    34.8828
     22  H    Isotropic =    28.0245   Anisotropy =     7.0220
   XX=    27.5285   YX=    -0.8968   ZX=    -3.3439
   XY=    -1.1236   YY=    26.3528   ZY=     3.5384
   XZ=    -1.2360   YZ=     1.6471   ZZ=    30.1922
   Eigenvalues:    25.0356    26.3320    32.7058
     23  O    Isotropic =   284.0634   Anisotropy =    31.6852
   XX=   285.4438   YX=     1.7447   ZX=    16.2935
   XY=     4.6958   YY=   294.0340   ZY=     6.8941
   XZ=    24.7323   YZ=     8.1970   ZZ=   272.7123
   Eigenvalues:   257.1151   289.8881   305.1868
     24  Si   Isotropic =   379.4760   Anisotropy =    40.7971
   XX=   403.1194   YX=     4.7591   ZX=    -0.9191
   XY=     6.4569   YY=   362.6262   ZY=    -1.7781
   XZ=   -18.0067   YZ=    -3.5645   ZZ=   372.6824
   Eigenvalues:   361.6496   370.1043   406.6741
     25  C    Isotropic =   201.1122   Anisotropy =    11.0390
   XX=   203.0162   YX=     0.8407   ZX=     2.4072
   XY=     2.7310   YY=   207.4202   ZY=     3.5179
   XZ=     4.0983   YZ=    -0.6028   ZZ=   192.9003
   Eigenvalues:   191.8918   202.9734   208.4716
     26  H    Isotropic =    31.6561   Anisotropy =    11.0207
   XX=    37.2269   YX=    -0.6018   ZX=     4.0734
   XY=    -0.1333   YY=    28.1569   ZY=    -1.3641
   XZ=     3.8958   YZ=    -1.5362   ZZ=    29.5846
   Eigenvalues:    26.7930    29.1722    39.0032
     27  H    Isotropic =    31.1343   Anisotropy =     8.8375
   XX=    30.5816   YX=     0.0011   ZX=    -2.8830
   XY=     0.2265   YY=    28.4980   ZY=    -3.6116
   XZ=    -2.8668   YZ=    -3.2460   ZZ=    34.3233
   Eigenvalues:    26.5411    29.8359    37.0260
     28  H    Isotropic =    31.3775   Anisotropy =     8.8011
   XX=    27.8824   YX=    -0.7020   ZX=     0.7741
   XY=    -0.5605   YY=    36.3819   ZY=     2.9860
   XZ=     0.4030   YZ=     2.0014   ZZ=    29.8683
   Eigenvalues:    27.4888    29.3989    37.2449
     29  C    Isotropic =   173.0033   Anisotropy =     8.5336
   XX=   177.5798   YX=     0.5531   ZX=     2.8621
   XY=    -0.2591   YY=   169.6183   ZY=    -0.4508
   XZ=     2.6661   YZ=     0.4177   ZZ=   171.8118
   Eigenvalues:   169.6119   170.7056   178.6924
     30  C    Isotropic =   198.3777   Anisotropy =     7.1241
   XX=   202.3521   YX=     0.0164   ZX=     0.9368
   XY=    -2.0319   YY=   201.8011   ZY=    -0.1669
   XZ=     1.9151   YZ=     4.6427   ZZ=   190.9799
   Eigenvalues:   190.3231   201.6829   203.1271
     31  H    Isotropic =    31.3770   Anisotropy =     8.4142
   XX=    30.1084   YX=     0.7684   ZX=    -2.4515
   XY=     0.5433   YY=    28.0224   ZY=     1.7105
   XZ=    -2.2239   YZ=     1.3477   ZZ=    36.0002
   Eigenvalues:    27.2485    29.8961    36.9865
     32  H    Isotropic =    31.5643   Anisotropy =    10.8679
   XX=    37.1301   YX=     2.7910   ZX=     2.4840
   XY=     2.5086   YY=    28.1981   ZY=     2.1445
   XZ=     2.4592   YZ=     2.2783   ZZ=    29.3646
   Eigenvalues:    26.4503    29.4330    38.8095
     33  H    Isotropic =    31.4103   Anisotropy =     8.0751
   XX=    28.9744   YX=    -1.7405   ZX=     0.8630
   XY=    -1.8398   YY=    36.1847   ZY=    -1.4898
   XZ=     0.6619   YZ=    -0.6293   ZZ=    29.0717
   Eigenvalues:    28.1976    29.2396    36.7937
     34  C    Isotropic =   170.5809   Anisotropy =    37.6278
   XX=   162.2629   YX=   -11.0499   ZX=     3.0409
   XY=   -13.5401   YY=   184.6524   ZY=   -10.0643
   XZ=     5.4410   YZ=   -14.8562   ZZ=   164.8273
   Eigenvalues:   156.4235   159.6530   195.6661
     35  H    Isotropic =    30.5178   Anisotropy =     8.2222
   XX=    26.5657   YX=     0.3302   ZX=    -0.7197
   XY=     1.0685   YY=    35.8946   ZY=     1.2496
   XZ=    -0.4328   YZ=     0.0407   ZZ=    29.0931
   Eigenvalues:    26.3692    29.1849    35.9992
     36  H    Isotropic =    30.8841   Anisotropy =     9.6833
   XX=    28.2050   YX=     0.1691   ZX=    -1.9728
   XY=     0.6951   YY=    29.6603   ZY=    -4.2045
   XZ=    -2.3884   YZ=    -3.4794   ZZ=    34.7869
   Eigenvalues:    27.0234    28.2892    37.3396
     37  H    Isotropic =    30.1959   Anisotropy =     8.6029
   XX=    34.9972   YX=    -1.6781   ZX=     0.2216
   XY=    -2.8582   YY=    27.4963   ZY=    -3.2418
   XZ=     1.1179   YZ=    -2.7859   ZZ=    28.0942
   Eigenvalues:    24.6108    30.0458    35.9312
     38  C    Isotropic =   170.8195   Anisotropy =    39.0630
   XX=   195.6534   YX=     1.6806   ZX=     8.8885
   XY=     2.3610   YY=   157.7847   ZY=     0.2555
   XZ=     3.9990   YZ=     0.4563   ZZ=   159.0204
   Eigenvalues:   157.6765   157.9204   196.8615
     39  H    Isotropic =    30.6542   Anisotropy =     9.3583
   XX=    33.2918   YX=     4.6600   ZX=     1.6511
   XY=     3.2266   YY=    29.4270   ZY=     3.1211
   XZ=     1.1398   YZ=     3.2845   ZZ=    29.2439
   Eigenvalues:    25.5885    29.4811    36.8931
     40  H    Isotropic =    30.7074   Anisotropy =     9.0898
   XX=    34.1756   YX=    -4.2663   ZX=     1.2698
   XY=    -2.8188   YY=    29.4564   ZY=    -2.8602
   XZ=     0.9186   YZ=    -2.9326   ZZ=    28.4901
   Eigenvalues:    25.7153    29.6395    36.7672
     41  H    Isotropic =    30.9153   Anisotropy =    10.1666
   XX=    34.2668   YX=     0.8723   ZX=    -5.1425
   XY=     0.7796   YY=    26.9507   ZY=    -0.6423
   XZ=    -3.8347   YZ=    -0.6567   ZZ=    31.5285
   Eigenvalues:    26.8473    28.2055    37.6931
     42  C    Isotropic =   170.5369   Anisotropy =    36.9766
   XX=   160.1678   YX=     8.1906   ZX=     2.6507
   XY=    10.2707   YY=   182.5689   ZY=    12.3970
   XZ=     4.9771   YZ=    18.0765   ZZ=   168.8738
   Eigenvalues:   156.2930   160.1297   195.1879
     43  H    Isotropic =    30.9428   Anisotropy =     9.5299
   XX=    28.5260   YX=     0.1666   ZX=    -2.5513
   XY=    -0.3397   YY=    28.5692   ZY=     2.8348
   XZ=    -2.9469   YZ=     2.0578   ZZ=    35.7332
   Eigenvalues:    27.0676    28.4647    37.2961
     44  H    Isotropic =    30.5465   Anisotropy =     8.0192
   XX=    27.1944   YX=    -0.9572   ZX=    -0.7536
   XY=    -1.8936   YY=    35.6462   ZY=    -0.4649
   XZ=    -0.9165   YZ=     0.7933   ZZ=    28.7990
   Eigenvalues:    26.6616    29.0853    35.8927
     45  H    Isotropic =    30.1947   Anisotropy =     8.7167
   XX=    34.3906   YX=     2.9111   ZX=     0.1361
   XY=     3.6997   YY=    27.0804   ZY=     2.6746
   XZ=     1.1624   YZ=     2.2399   ZZ=    29.1130
   Eigenvalues:    24.7800    29.7982    36.0058
     46  H    Isotropic =    29.0635   Anisotropy =    10.8135
   XX=    28.6872   YX=    -0.6303   ZX=    -2.0937
   XY=    -4.8383   YY=    29.8522   ZY=     4.5738
   XZ=    -4.6033   YZ=     4.5683   ZZ=    28.6511
   Eigenvalues:    24.4232    26.4948    36.2725
     47  H    Isotropic =    28.1935   Anisotropy =     8.6425
   XX=    31.3897   YX=     1.0607   ZX=    -2.8551
   XY=     4.9724   YY=    30.1732   ZY=     0.2642
   XZ=    -0.9514   YZ=     1.2193   ZZ=    23.0176
   Eigenvalues:    22.3399    28.2854    33.9552
 End of Minotr Frequency-dependent properties file   721 does not exist.
 End of Minotr Frequency-dependent properties file   722 does not exist.

 **********************************************************************

            Population analysis using the SCF density.

 **********************************************************************

 Orbital symmetries:
       Occupied  (A) (A) (A) (A) (A) (A) (A) (A) (A) (A) (A) (A)
                 (A) (A) (A) (A) (A) (A) (A) (A) (A) (A) (A) (A)
                 (A) (A) (A) (A) (A) (A) (A) (A) (A) (A) (A) (A)
                 (A) (A) (A) (A) (A) (A) (A) (A) (A) (A) (A) (A)
                 (A) (A) (A) (A) (A) (A) (A) (A) (A) (A) (A) (A)
                 (A) (A) (A) (A) (A) (A) (A) (A) (A) (A) (A) (A)
                 (A) (A) (A) (A) (A) (A) (A)
       Virtual   (A) (A) (A) (A) (A) (A) (A) (A) (A) (A) (A) (A)
                 (A) (A) (A) (A) (A) (A) (A) (A) (A) (A) (A) (A)
                 (A) (A) (A) (A) (A) (A) (A) (A) (A) (A) (A) (A)
                 (A) (A) (A) (A) (A) (A) (A) (A) (A) (A) (A) (A)
                 (A) (A) (A) (A) (A) (A) (A) (A) (A) (A) (A) (A)
                 (A) (A) (A) (A) (A) (A) (A) (A) (A) (A) (A) (A)
                 (A) (A) (A) (A) (A) (A) (A) (A) (A) (A) (A) (A)
                 (A) (A) (A) (A) (A) (A) (A) (A) (A) (A) (A) (A)
                 (A) (A) (A) (A) (A) (A) (A) (A) (A) (A) (A) (A)
                 (A) (A) (A) (A) (A) (A) (A) (A) (A) (A) (A) (A)
                 (A) (A) (A) (A) (A) (A) (A) (A) (A) (A) (A) (A)
                 (A) (A) (A) (A) (A) (A) (A) (A) (A) (A) (A) (A)
                 (A) (A) (A) (A) (A) (A) (A) (A) (A) (A) (A) (A)
                 (A) (A) (A) (A) (A) (A) (A) (A) (A) (A) (A) (A)
                 (A) (A) (A) (A) (A) (A) (A) (A) (A) (A) (A) (A)
                 (A) (A) (A) (A) (A) (A) (A) (A) (A) (A) (A) (A)
                 (A) (A) (A) (A) (A) (A) (A) (A) (A) (A) (A) (A)
                 (A) (A) (A) (A) (A) (A) (A) (A) (A) (A) (A) (A)
                 (A) (A) (A) (A) (A) (A) (A) (A) (A) (A) (A) (A)
                 (A) (A) (A) (A) (A) (A) (A) (A) (A) (A) (A) (A)
                 (A) (A) (A) (A) (A) (A) (A) (A) (A) (A) (A) (A)
                 (A) (A) (A) (A) (A) (A) (A) (A) (A) (A) (A) (A)
                 (A) (A) (A) (A) (A) (A) (A) (A) (A) (A) (A) (A)
                 (A) (A) (A) (A) (A) (A) (A) (A) (A) (A) (A) (A)
                 (A) (A) (A) (A) (A) (A) (A) (A) (A) (A) (A) (A)
                 (A) (A) (A) (A) (A) (A) (A) (A) (A) (A) (A) (A)
                 (A) (A) (A) (A) (A) (A) (A) (A) (A) (A) (A) (A)
                 (A) (A) (A) (A) (A) (A) (A) (A) (A) (A) (A) (A)
                 (A) (A) (A) (A) (A) (A) (A) (A) (A) (A) (A) (A)
                 (A) (A) (A) (A) (A) (A) (A) (A) (A) (A) (A) (A)
                 (A) (A) (A) (A) (A) (A) (A) (A) (A) (A) (A) (A)
                 (A) (A) (A) (A) (A) (A) (A) (A) (A) (A) (A) (A)
                 (A) (A) (A) (A) (A) (A) (A) (A) (A) (A) (A) (A)
                 (A) (A) (A) (A) (A) (A) (A) (A) (A) (A) (A) (A)
                 (A) (A) (A) (A) (A) (A) (A) (A) (A) (A) (A) (A)
                 (A) (A) (A) (A) (A) (A)
 The electronic state is 1-A.
 Alpha  occ. eigenvalues --  -66.30793 -19.26674 -19.26076 -19.25196 -19.23939
 Alpha  occ. eigenvalues --  -10.31509 -10.31397 -10.31116 -10.30663 -10.29557
 Alpha  occ. eigenvalues --  -10.28869 -10.25600 -10.25393 -10.25067 -10.23812
 Alpha  occ. eigenvalues --  -10.23507 -10.23489 -10.22771 -10.22719  -5.34187
 Alpha  occ. eigenvalues --   -3.68100  -3.67815  -3.67788  -1.11012  -1.08356
 Alpha  occ. eigenvalues --   -1.05223  -1.03594  -0.85093  -0.82433  -0.77656
 Alpha  occ. eigenvalues --   -0.75386  -0.72678  -0.71226  -0.70687  -0.70371
 Alpha  occ. eigenvalues --   -0.69788  -0.68565  -0.64089  -0.62106  -0.58710
 Alpha  occ. eigenvalues --   -0.56626  -0.54756  -0.52936  -0.52207  -0.50408
 Alpha  occ. eigenvalues --   -0.49967  -0.48531  -0.47705  -0.46407  -0.45619
 Alpha  occ. eigenvalues --   -0.45427  -0.44776  -0.44459  -0.43701  -0.43086
 Alpha  occ. eigenvalues --   -0.41916  -0.41255  -0.40987  -0.40606  -0.40433
 Alpha  occ. eigenvalues --   -0.39529  -0.39240  -0.39093  -0.38669  -0.38044
 Alpha  occ. eigenvalues --   -0.37428  -0.37072  -0.36127  -0.34916  -0.33998
 Alpha  occ. eigenvalues --   -0.33856  -0.32604  -0.32353  -0.31784  -0.30867
 Alpha  occ. eigenvalues --   -0.28782  -0.28029  -0.27721  -0.27176
 Alpha virt. eigenvalues --   -0.00440   0.00766   0.01026   0.01495   0.02519
 Alpha virt. eigenvalues --    0.02653   0.03281   0.03584   0.03941   0.04706
 Alpha virt. eigenvalues --    0.04987   0.05300   0.05865   0.06055   0.06587
 Alpha virt. eigenvalues --    0.06810   0.06937   0.07531   0.07721   0.08282
 Alpha virt. eigenvalues --    0.08713   0.09071   0.09361   0.09550   0.09795
 Alpha virt. eigenvalues --    0.10218   0.10492   0.10809   0.10895   0.11274
 Alpha virt. eigenvalues --    0.11571   0.12033   0.12153   0.12522   0.12747
 Alpha virt. eigenvalues --    0.13435   0.13879   0.14088   0.14141   0.14633
 Alpha virt. eigenvalues --    0.15052   0.15287   0.15683   0.15950   0.16333
 Alpha virt. eigenvalues --    0.16575   0.17071   0.17474   0.17741   0.17863
 Alpha virt. eigenvalues --    0.18045   0.18234   0.18540   0.19028   0.19176
 Alpha virt. eigenvalues --    0.19702   0.20193   0.20380   0.20762   0.21196
 Alpha virt. eigenvalues --    0.21434   0.21852   0.22088   0.22367   0.22617
 Alpha virt. eigenvalues --    0.22723   0.23057   0.23351   0.23641   0.24094
 Alpha virt. eigenvalues --    0.24427   0.25301   0.25677   0.25739   0.26237
 Alpha virt. eigenvalues --    0.26606   0.26729   0.27042   0.27268   0.27844
 Alpha virt. eigenvalues --    0.28108   0.28396   0.28617   0.28903   0.29879
 Alpha virt. eigenvalues --    0.30207   0.30544   0.30665   0.31102   0.31357
 Alpha virt. eigenvalues --    0.31973   0.32038   0.32338   0.33361   0.33424
 Alpha virt. eigenvalues --    0.33479   0.33934   0.34766   0.35188   0.35576
 Alpha virt. eigenvalues --    0.36137   0.36751   0.37556   0.38187   0.38322
 Alpha virt. eigenvalues --    0.38677   0.39030   0.39778   0.40177   0.40819
 Alpha virt. eigenvalues --    0.41322   0.41950   0.42513   0.44036   0.44529
 Alpha virt. eigenvalues --    0.44746   0.46069   0.46498   0.46782   0.47862
 Alpha virt. eigenvalues --    0.48889   0.50222   0.51110   0.53714   0.54765
 Alpha virt. eigenvalues --    0.55644   0.58361   0.61993   0.65190   0.65684
 Alpha virt. eigenvalues --    0.67751   0.69161   0.70009   0.70192   0.70804
 Alpha virt. eigenvalues --    0.71679   0.72412   0.73405   0.74168   0.74564
 Alpha virt. eigenvalues --    0.76239   0.76598   0.77743   0.78595   0.78881
 Alpha virt. eigenvalues --    0.79341   0.79818   0.80449   0.80884   0.82667
 Alpha virt. eigenvalues --    0.83198   0.83517   0.84155   0.85397   0.85619
 Alpha virt. eigenvalues --    0.86592   0.87073   0.88038   0.88746   0.89408
 Alpha virt. eigenvalues --    0.89806   0.91035   0.91469   0.92107   0.93537
 Alpha virt. eigenvalues --    0.94656   0.95297   0.95540   0.96937   0.97877
 Alpha virt. eigenvalues --    0.98660   0.99261   0.99976   1.00514   1.01427
 Alpha virt. eigenvalues --    1.02817   1.04234   1.04695   1.04879   1.05198
 Alpha virt. eigenvalues --    1.05968   1.06061   1.06986   1.07625   1.08127
 Alpha virt. eigenvalues --    1.09029   1.09850   1.10788   1.11374   1.11802
 Alpha virt. eigenvalues --    1.13005   1.13916   1.15274   1.15933   1.17019
 Alpha virt. eigenvalues --    1.18779   1.19197   1.19796   1.20952   1.22093
 Alpha virt. eigenvalues --    1.22668   1.23409   1.23826   1.25217   1.26183
 Alpha virt. eigenvalues --    1.27459   1.29034   1.30525   1.31200   1.32279
 Alpha virt. eigenvalues --    1.34300   1.35198   1.36056   1.36540   1.37638
 Alpha virt. eigenvalues --    1.39358   1.40933   1.41877   1.43567   1.44069
 Alpha virt. eigenvalues --    1.44838   1.45813   1.47347   1.47986   1.48438
 Alpha virt. eigenvalues --    1.48945   1.50881   1.51013   1.52829   1.53999
 Alpha virt. eigenvalues --    1.54751   1.58271   1.59490   1.61731   1.63242
 Alpha virt. eigenvalues --    1.64991   1.65176   1.66515   1.68712   1.69456
 Alpha virt. eigenvalues --    1.71288   1.72142   1.72241   1.73276   1.75486
 Alpha virt. eigenvalues --    1.77631   1.77891   1.79348   1.80876   1.81541
 Alpha virt. eigenvalues --    1.82005   1.83548   1.87098   1.87438   1.87802
 Alpha virt. eigenvalues --    1.88500   1.89570   1.90640   1.90896   1.91928
 Alpha virt. eigenvalues --    1.93682   1.93743   1.94858   1.96160   1.96424
 Alpha virt. eigenvalues --    1.96986   1.98341   1.99314   1.99859   2.01497
 Alpha virt. eigenvalues --    2.02475   2.03495   2.05797   2.06283   2.06641
 Alpha virt. eigenvalues --    2.07135   2.07571   2.08990   2.09563   2.09748
 Alpha virt. eigenvalues --    2.10164   2.11313   2.12004   2.12440   2.12972
 Alpha virt. eigenvalues --    2.13107   2.13955   2.14563   2.15932   2.16187
 Alpha virt. eigenvalues --    2.16418   2.16771   2.17792   2.18098   2.18475
 Alpha virt. eigenvalues --    2.19419   2.19823   2.20152   2.21251   2.21931
 Alpha virt. eigenvalues --    2.22315   2.23062   2.24650   2.25050   2.26172
 Alpha virt. eigenvalues --    2.28923   2.29060   2.29514   2.32790   2.34029
 Alpha virt. eigenvalues --    2.35239   2.36413   2.37409   2.38695   2.39186
 Alpha virt. eigenvalues --    2.39534   2.40124   2.41274   2.42312   2.43589
 Alpha virt. eigenvalues --    2.45101   2.48154   2.48660   2.50008   2.51439
 Alpha virt. eigenvalues --    2.55087   2.56408   2.57199   2.57682   2.58357
 Alpha virt. eigenvalues --    2.59337   2.60263   2.63009   2.63622   2.65713
 Alpha virt. eigenvalues --    2.66885   2.67659   2.68365   2.69144   2.69661
 Alpha virt. eigenvalues --    2.70715   2.72470   2.73028   2.73949   2.75083
 Alpha virt. eigenvalues --    2.76631   2.77249   2.78542   2.78598   2.80540
 Alpha virt. eigenvalues --    2.80914   2.82991   2.83377   2.84127   2.84223
 Alpha virt. eigenvalues --    2.85810   2.86542   2.87260   2.87567   2.88223
 Alpha virt. eigenvalues --    2.88602   2.88891   2.88996   2.89764   2.90096
 Alpha virt. eigenvalues --    2.92049   2.92985   2.94444   2.96619   2.97500
 Alpha virt. eigenvalues --    2.98869   2.99317   2.99731   3.03085   3.07110
 Alpha virt. eigenvalues --    3.10192   3.18326   3.18785   3.24118   3.26148
 Alpha virt. eigenvalues --    3.27333   3.27666   3.29813   3.30642   3.31457
 Alpha virt. eigenvalues --    3.32361   3.37660   3.39308   3.41007   3.43894
 Alpha virt. eigenvalues --    3.47680   3.47881   3.48368   3.49440   3.49764
 Alpha virt. eigenvalues --    3.49963   3.50621   3.50734   3.51277   3.51604
 Alpha virt. eigenvalues --    3.52317   3.53539   3.55650   3.56320   3.56483
 Alpha virt. eigenvalues --    3.58384   3.61114   3.62482   4.34746   4.42403
 Alpha virt. eigenvalues --    4.44662   4.50579   4.52410   4.53961   4.56649
 Alpha virt. eigenvalues --    4.59836   4.60443   4.63956   4.66511   4.67235
 Alpha virt. eigenvalues --    4.69415   4.75112   4.78472   4.83497   4.92695
 Alpha virt. eigenvalues --    4.94622
          Condensed to atoms (all electrons):
              1          2          3          4          5          6
     1  H    0.604636   0.072737   0.018874   0.007416  -0.004175   0.133014
     2  C    0.072737  11.764503  -0.034519   0.264785   1.341655  -5.983610
     3  C    0.018874  -0.034519   8.494899  -1.556691  -1.177387  -0.572461
     4  C    0.007416   0.264785  -1.556691  13.366663  -4.631103  -2.083983
     5  C   -0.004175   1.341655  -1.177387  -4.631103  17.280544  -2.933539
     6  C    0.133014  -5.983610  -0.572461  -2.083983  -2.933539  17.044723
     7  C    0.064418  -1.285619   0.572308   0.040979  -1.056744   0.389165
     8  H   -0.000042  -0.001470   0.379103  -0.083659   0.135991  -0.031441
     9  H   -0.000265   0.004670  -0.092974   0.276254   0.112190   0.054852
    10  H   -0.005365   0.081029  -0.010014  -0.082673   0.146787   0.210671
    11  H   -0.002368  -0.075882  -0.082837  -0.020411   0.084333  -0.004360
    12  H   -0.000114   0.069135   0.352968   0.058066  -0.113672  -0.011188
    13  H   -0.004290  -0.002315  -0.015733  -0.015428   0.047718   0.036847
    14  O    0.000076  -0.076108  -0.169264  -0.078365   0.081201   0.114977
    15  C    0.001045  -0.496494  -0.032313  -0.238851  -2.714862   1.246905
    16  O   -0.001187   0.005887   0.059670   0.367362  -0.345925   0.005106
    17  H   -0.000009   0.029693  -0.020499  -0.040547   0.054749  -0.046417
    18  O   -0.010455   0.037003   0.035013   0.075401   0.065127  -0.066911
    19  C   -0.012605   0.233730   0.009762   0.340364  -0.140190  -0.737561
    20  H    0.000220  -0.016167  -0.000772   0.000104   0.003801   0.037455
    21  H   -0.000036   0.022520   0.000696   0.015270   0.004318  -0.053155
    22  H    0.000011  -0.017930   0.000114  -0.032842  -0.013371   0.029979
    23  O   -0.064242   0.170197  -0.038033  -0.006602   0.143158  -0.332846
    24  Si   0.074677  -0.522316  -0.090569  -0.298042   0.132613   0.363178
    25  C   -0.010635   0.052723   0.009210   0.031349  -0.003860  -0.097299
    26  H   -0.000059   0.005498   0.000224   0.000172  -0.000053   0.000285
    27  H    0.001368   0.007993   0.000075   0.001439  -0.000575  -0.009229
    28  H   -0.000071  -0.004266  -0.000427  -0.000241   0.000185   0.002564
    29  C    0.001272  -0.098652   0.014442  -0.049245  -0.003512   0.042844
    30  C   -0.013011   0.087172  -0.012293  -0.000007   0.007633   0.001284
    31  H    0.000143   0.010397  -0.000479  -0.000192   0.000452  -0.001430
    32  H   -0.000003   0.001208   0.001091   0.000094  -0.000101   0.001017
    33  H    0.000039  -0.027226   0.003770  -0.000482  -0.000059  -0.000396
    34  C   -0.000469  -0.056957  -0.010097   0.022402  -0.001829   0.044532
    35  H    0.000000   0.001274   0.000872  -0.000045  -0.000974  -0.000804
    36  H    0.000000   0.000323   0.000895   0.000457  -0.000591   0.000076
    37  H    0.000000  -0.005498  -0.008496  -0.002059   0.005931   0.004561
    38  C    0.000158  -0.002066   0.000148  -0.001298   0.003122  -0.005034
    39  H    0.000000   0.000766   0.000079   0.000016  -0.000031  -0.000016
    40  H    0.000000  -0.000129  -0.000001  -0.000041   0.000007   0.000059
    41  H    0.000000  -0.000274   0.000023   0.000013  -0.000006  -0.000030
    42  C   -0.001870   0.167244   0.018795   0.070631  -0.022027  -0.175403
    43  H    0.000000   0.001621   0.000429   0.001055  -0.000483  -0.001726
    44  H    0.000001  -0.004608  -0.000277  -0.000920   0.000210   0.003169
    45  H    0.000004   0.000267  -0.001861  -0.001530   0.001690  -0.000556
    46  H    0.000001  -0.005283   0.079559  -0.043023  -0.139816   0.008792
    47  H    0.000000  -0.007484  -0.027935   0.183995  -0.241733   0.004805
              7          8          9         10         11         12
     1  H    0.064418  -0.000042  -0.000265  -0.005365  -0.002368  -0.000114
     2  C   -1.285619  -0.001470   0.004670   0.081029  -0.075882   0.069135
     3  C    0.572308   0.379103  -0.092974  -0.010014  -0.082837   0.352968
     4  C    0.040979  -0.083659   0.276254  -0.082673  -0.020411   0.058066
     5  C   -1.056744   0.135991   0.112190   0.146787   0.084333  -0.113672
     6  C    0.389165  -0.031441   0.054852   0.210671  -0.004360  -0.011188
     7  C    6.741078  -0.058321  -0.013908  -0.022331   0.405107  -0.038595
     8  H   -0.058321   0.512996   0.002499   0.000102   0.004327  -0.027533
     9  H   -0.013908   0.002499   0.566481   0.004707   0.000022  -0.000180
    10  H   -0.022331   0.000102   0.004707   0.558507   0.001339  -0.000074
    11  H    0.405107   0.004327   0.000022   0.001339   0.532537  -0.004204
    12  H   -0.038595  -0.027533  -0.000180  -0.000074  -0.004204   0.531974
    13  H    0.295698  -0.003277   0.000001   0.000033  -0.023660  -0.002390
    14  O    0.067685  -0.013587  -0.014663  -0.002007  -0.001102   0.006399
    15  C    0.223861  -0.025648  -0.013904  -0.024537  -0.004382   0.014163
    16  O    0.014309  -0.000099  -0.049534   0.002231  -0.000257  -0.000622
    17  H   -0.001003  -0.000002   0.000574  -0.002136   0.000000   0.000003
    18  O   -0.004823  -0.000353  -0.020906  -0.057136  -0.000357   0.000109
    19  C    0.010202  -0.000904  -0.010813   0.009188  -0.000442   0.000403
    20  H   -0.005563   0.000001  -0.000484  -0.000361  -0.000001   0.000000
    21  H    0.000469   0.000000   0.000116  -0.000005   0.000000   0.000000
    22  H    0.006989   0.000003   0.001222  -0.000049   0.000000   0.000000
    23  O   -0.013268   0.012919   0.012801   0.017234   0.015245  -0.002251
    24  Si   0.123690   0.010337   0.006279  -0.008960  -0.000025  -0.004649
    25  C   -0.010003   0.000300   0.000200   0.001540   0.000270   0.000049
    26  H   -0.001362   0.000000   0.000000   0.000000   0.000000   0.000000
    27  H   -0.001526   0.000000   0.000000  -0.000001   0.000003   0.000000
    28  H   -0.000673   0.000000   0.000000   0.000000   0.000000   0.000000
    29  C    0.062867  -0.004071   0.001668   0.000924   0.000320  -0.000264
    30  C   -0.055123   0.000376   0.000449   0.000467   0.001147   0.001174
    31  H   -0.003186   0.000002   0.000000   0.000001   0.000003  -0.000001
    32  H   -0.000794  -0.000001   0.000000   0.000000  -0.000001   0.000000
    33  H    0.014285   0.000062   0.000000   0.000000   0.000012  -0.000006
    34  C    0.012985   0.001578  -0.001369  -0.000104   0.000016   0.000421
    35  H   -0.000505  -0.000008   0.000000   0.000000   0.000000   0.000000
    36  H   -0.000564  -0.000001   0.000000   0.000000   0.000000   0.000000
    37  H    0.003802   0.000950   0.000198   0.000000   0.000000   0.000000
    38  C    0.005635   0.000370   0.000954   0.000084   0.000024   0.000017
    39  H   -0.000325   0.000000   0.000000   0.000000   0.000000   0.000000
    40  H   -0.000040   0.000000   0.000000   0.000000   0.000000   0.000000
    41  H    0.000068   0.000000   0.000000   0.000000   0.000000   0.000000
    42  C   -0.039141  -0.000362  -0.000698   0.000050  -0.000272  -0.000025
    43  H   -0.000072   0.000000  -0.000001   0.000000   0.000000   0.000000
    44  H    0.000428   0.000000  -0.000002   0.000000   0.000000   0.000000
    45  H   -0.000063   0.000010   0.000476   0.000001   0.000000   0.000000
    46  H    0.010134   0.000026  -0.000098  -0.000134  -0.000091   0.000982
    47  H    0.001370  -0.000132  -0.000075  -0.000135  -0.000065   0.000188
             13         14         15         16         17         18
     1  H   -0.004290   0.000076   0.001045  -0.001187  -0.000009  -0.010455
     2  C   -0.002315  -0.076108  -0.496494   0.005887   0.029693   0.037003
     3  C   -0.015733  -0.169264  -0.032313   0.059670  -0.020499   0.035013
     4  C   -0.015428  -0.078365  -0.238851   0.367362  -0.040547   0.075401
     5  C    0.047718   0.081201  -2.714862  -0.345925   0.054749   0.065127
     6  C    0.036847   0.114977   1.246905   0.005106  -0.046417  -0.066911
     7  C    0.295698   0.067685   0.223861   0.014309  -0.001003  -0.004823
     8  H   -0.003277  -0.013587  -0.025648  -0.000099  -0.000002  -0.000353
     9  H    0.000001  -0.014663  -0.013904  -0.049534   0.000574  -0.020906
    10  H    0.000033  -0.002007  -0.024537   0.002231  -0.002136  -0.057136
    11  H   -0.023660  -0.001102  -0.004382  -0.000257   0.000000  -0.000357
    12  H   -0.002390   0.006399   0.014163  -0.000622   0.000003   0.000109
    13  H    0.533978  -0.000518  -0.002350   0.000070   0.000000  -0.000664
    14  O   -0.000518   8.294131   0.165513   0.028971  -0.000233  -0.002071
    15  C   -0.002350   0.165513   7.148228  -0.025736   0.021513  -0.026381
    16  O    0.000070   0.028971  -0.025736   8.262763   0.219132  -0.025624
    17  H    0.000000  -0.000233   0.021513   0.219132   0.375191   0.037253
    18  O   -0.000664  -0.002071  -0.026381  -0.025624   0.037253   8.325518
    19  C   -0.000861  -0.000415  -0.009714   0.017599  -0.012890   0.100688
    20  H    0.000006   0.000000   0.000499  -0.001730   0.000312  -0.043278
    21  H    0.000000  -0.000006  -0.000445   0.000367  -0.000215  -0.064085
    22  H   -0.000001   0.000129   0.000574   0.007819  -0.001988  -0.054578
    23  O   -0.003325  -0.002348  -0.008691  -0.003484  -0.001024   0.019994
    24  Si  -0.006294  -0.000479   0.015037  -0.005041   0.001607  -0.048464
    25  C   -0.000233  -0.000098  -0.002774   0.000218  -0.000168   0.011860
    26  H    0.000001   0.000000  -0.000002   0.000000   0.000000  -0.000049
    27  H    0.000007   0.000000  -0.000011  -0.000002   0.000000   0.000303
    28  H    0.000000   0.000000   0.000004   0.000000   0.000000   0.000309
    29  C   -0.004694   0.000362   0.003988   0.000336  -0.000177   0.003356
    30  C    0.001066  -0.000256   0.000264   0.000010   0.000001   0.000386
    31  H   -0.000200   0.000000   0.000007   0.000000   0.000000   0.000029
    32  H    0.000127   0.000000   0.000000   0.000000   0.000000  -0.000002
    33  H   -0.000096   0.000001   0.000021   0.000000   0.000000  -0.000008
    34  C    0.001367  -0.000026  -0.000801  -0.000209  -0.000024  -0.000158
    35  H   -0.000003   0.000001  -0.000001   0.000000   0.000000   0.000001
    36  H    0.000000   0.000000  -0.000014   0.000000   0.000000   0.000000
    37  H    0.000001  -0.000036  -0.000121  -0.000020   0.000000  -0.000040
    38  C   -0.000377  -0.000055  -0.000298  -0.000036  -0.000006  -0.000111
    39  H    0.000000   0.000000   0.000000   0.000000   0.000000   0.000000
    40  H    0.000000   0.000000   0.000000   0.000000   0.000000   0.000000
    41  H    0.000000   0.000000   0.000000   0.000000   0.000000   0.000000
    42  C    0.000153  -0.000178  -0.003436   0.000319   0.000172   0.004249
    43  H    0.000000   0.000000  -0.000010   0.000000   0.000000   0.000000
    44  H    0.000000   0.000000   0.000005  -0.000001   0.000000  -0.000032
    45  H    0.000000  -0.000007   0.000022  -0.000011   0.000000  -0.000142
    46  H   -0.000014  -0.035760   0.451060   0.001445   0.000010   0.000002
    47  H   -0.000001  -0.025230   0.456910  -0.005170  -0.000426  -0.000223
             19         20         21         22         23         24
     1  H   -0.012605   0.000220  -0.000036   0.000011  -0.064242   0.074677
     2  C    0.233730  -0.016167   0.022520  -0.017930   0.170197  -0.522316
     3  C    0.009762  -0.000772   0.000696   0.000114  -0.038033  -0.090569
     4  C    0.340364   0.000104   0.015270  -0.032842  -0.006602  -0.298042
     5  C   -0.140190   0.003801   0.004318  -0.013371   0.143158   0.132613
     6  C   -0.737561   0.037455  -0.053155   0.029979  -0.332846   0.363178
     7  C    0.010202  -0.005563   0.000469   0.006989  -0.013268   0.123690
     8  H   -0.000904   0.000001   0.000000   0.000003   0.012919   0.010337
     9  H   -0.010813  -0.000484   0.000116   0.001222   0.012801   0.006279
    10  H    0.009188  -0.000361  -0.000005  -0.000049   0.017234  -0.008960
    11  H   -0.000442  -0.000001   0.000000   0.000000   0.015245  -0.000025
    12  H    0.000403   0.000000   0.000000   0.000000  -0.002251  -0.004649
    13  H   -0.000861   0.000006   0.000000  -0.000001  -0.003325  -0.006294
    14  O   -0.000415   0.000000  -0.000006   0.000129  -0.002348  -0.000479
    15  C   -0.009714   0.000499  -0.000445   0.000574  -0.008691   0.015037
    16  O    0.017599  -0.001730   0.000367   0.007819  -0.003484  -0.005041
    17  H   -0.012890   0.000312  -0.000215  -0.001988  -0.001024   0.001607
    18  O    0.100688  -0.043278  -0.064085  -0.054578   0.019994  -0.048464
    19  C    5.171560   0.382786   0.436495   0.417239   0.013126  -0.074252
    20  H    0.382786   0.560374  -0.030879  -0.042481  -0.011141   0.034006
    21  H    0.436495  -0.030879   0.530426  -0.027910   0.001920  -0.008088
    22  H    0.417239  -0.042481  -0.027910   0.562112   0.000691   0.012017
    23  O    0.013126  -0.011141   0.001920   0.000691   8.435629  -0.000478
    24  Si  -0.074252   0.034006  -0.008088   0.012017  -0.000478  13.879114
    25  C    0.008446  -0.013556   0.002616  -0.001445  -0.030359   0.157981
    26  H    0.000408   0.000053   0.000000   0.000000   0.009422  -0.040042
    27  H    0.003210   0.000083  -0.000009  -0.000002  -0.004159  -0.040624
    28  H   -0.002065   0.001255   0.000001  -0.000002  -0.009262  -0.002899
    29  C   -0.011293  -0.016158   0.001145   0.000119  -0.094329   0.367234
    30  C    0.000196  -0.000237   0.000083  -0.000218  -0.064678   0.192159
    31  H    0.000240   0.000000   0.000000   0.000000  -0.007588  -0.043646
    32  H   -0.000038   0.000000   0.000000   0.000000   0.009462  -0.026132
    33  H   -0.000079   0.000000   0.000000   0.000000  -0.001841  -0.022974
    34  C    0.002494  -0.000445   0.000034  -0.000530   0.042112  -0.218749
    35  H   -0.000021   0.000000   0.000000   0.000000  -0.002679   0.003958
    36  H    0.000078   0.000000   0.000000   0.000000  -0.000582   0.012764
    37  H   -0.000375   0.000002   0.000000  -0.000003   0.009534  -0.009974
    38  C    0.001046  -0.001977   0.000184  -0.000201   0.008357  -0.190255
    39  H   -0.000018   0.000000   0.000000   0.000000   0.000737  -0.010228
    40  H    0.000081   0.000002   0.000000   0.000000   0.000371  -0.018189
    41  H    0.000031   0.000000   0.000000   0.000000  -0.000578   0.011419
    42  C    0.018256   0.007392  -0.000464  -0.001754   0.036993  -0.168720
    43  H    0.000500   0.000023  -0.000001   0.000002  -0.000569  -0.000150
    44  H   -0.000086   0.000055   0.000007  -0.000061  -0.004987   0.021495
    45  H   -0.002352  -0.000335   0.000026   0.000257   0.008347  -0.000065
    46  H   -0.000071   0.000000   0.000000   0.000000  -0.000059   0.000432
    47  H    0.001097   0.000000   0.000000   0.000000  -0.000124  -0.000313
             25         26         27         28         29         30
     1  H   -0.010635  -0.000059   0.001368  -0.000071   0.001272  -0.013011
     2  C    0.052723   0.005498   0.007993  -0.004266  -0.098652   0.087172
     3  C    0.009210   0.000224   0.000075  -0.000427   0.014442  -0.012293
     4  C    0.031349   0.000172   0.001439  -0.000241  -0.049245  -0.000007
     5  C   -0.003860  -0.000053  -0.000575   0.000185  -0.003512   0.007633
     6  C   -0.097299   0.000285  -0.009229   0.002564   0.042844   0.001284
     7  C   -0.010003  -0.001362  -0.001526  -0.000673   0.062867  -0.055123
     8  H    0.000300   0.000000   0.000000   0.000000  -0.004071   0.000376
     9  H    0.000200   0.000000   0.000000   0.000000   0.001668   0.000449
    10  H    0.001540   0.000000  -0.000001   0.000000   0.000924   0.000467
    11  H    0.000270   0.000000   0.000003   0.000000   0.000320   0.001147
    12  H    0.000049   0.000000   0.000000   0.000000  -0.000264   0.001174
    13  H   -0.000233   0.000001   0.000007   0.000000  -0.004694   0.001066
    14  O   -0.000098   0.000000   0.000000   0.000000   0.000362  -0.000256
    15  C   -0.002774  -0.000002  -0.000011   0.000004   0.003988   0.000264
    16  O    0.000218   0.000000  -0.000002   0.000000   0.000336   0.000010
    17  H   -0.000168   0.000000   0.000000   0.000000  -0.000177   0.000001
    18  O    0.011860  -0.000049   0.000303   0.000309   0.003356   0.000386
    19  C    0.008446   0.000408   0.003210  -0.002065  -0.011293   0.000196
    20  H   -0.013556   0.000053   0.000083   0.001255  -0.016158  -0.000237
    21  H    0.002616   0.000000  -0.000009   0.000001   0.001145   0.000083
    22  H   -0.001445   0.000000  -0.000002  -0.000002   0.000119  -0.000218
    23  O   -0.030359   0.009422  -0.004159  -0.009262  -0.094329  -0.064678
    24  Si   0.157981  -0.040042  -0.040624  -0.002899   0.367234   0.192159
    25  C    5.442529   0.408964   0.397188   0.388445  -0.109374  -0.005182
    26  H    0.408964   0.483229  -0.021607  -0.021306  -0.028502  -0.005621
    27  H    0.397188  -0.021607   0.497027  -0.023013   0.020556  -0.012546
    28  H    0.388445  -0.021306  -0.023013   0.494594  -0.020688   0.008064
    29  C   -0.109374  -0.028502   0.020556  -0.020688   8.352684  -0.139534
    30  C   -0.005182  -0.005621  -0.012546   0.008064  -0.139534   5.466002
    31  H   -0.007506   0.000140   0.000402   0.000000   0.020091   0.394613
    32  H   -0.006942   0.000084   0.000134   0.000027  -0.025199   0.396432
    33  H    0.007541   0.000029   0.000001  -0.000018  -0.022457   0.402733
    34  C    0.005976   0.000410  -0.000565  -0.003316  -0.356508   0.013603
    35  H   -0.000031   0.000001  -0.000001   0.000000  -0.064698   0.000185
    36  H   -0.001402   0.000000   0.000000   0.000000  -0.162892   0.000739
    37  H    0.000016   0.000000  -0.000001   0.000001  -0.105314  -0.000343
    38  C    0.050035   0.008017  -0.001253  -0.000034  -0.498803   0.031655
    39  H   -0.001246   0.000028  -0.000005   0.000022  -0.080941   0.003000
    40  H    0.004648   0.000006   0.000011   0.000011  -0.083426  -0.000098
    41  H    0.000890   0.000015   0.000000  -0.000007  -0.160741   0.000955
    42  C   -0.018025   0.010151   0.001846   0.009202  -0.482946  -0.014116
    43  H    0.002403  -0.000001   0.000001  -0.000016  -0.162159  -0.001428
    44  H   -0.004898   0.000057  -0.000003   0.000342  -0.059451   0.000449
    45  H   -0.001231   0.000001  -0.000004   0.000017  -0.103264  -0.000810
    46  H   -0.000003   0.000000   0.000000   0.000000   0.000008  -0.000003
    47  H    0.000000   0.000000   0.000000   0.000000  -0.000001   0.000002
             31         32         33         34         35         36
     1  H    0.000143  -0.000003   0.000039  -0.000469   0.000000   0.000000
     2  C    0.010397   0.001208  -0.027226  -0.056957   0.001274   0.000323
     3  C   -0.000479   0.001091   0.003770  -0.010097   0.000872   0.000895
     4  C   -0.000192   0.000094  -0.000482   0.022402  -0.000045   0.000457
     5  C    0.000452  -0.000101  -0.000059  -0.001829  -0.000974  -0.000591
     6  C   -0.001430   0.001017  -0.000396   0.044532  -0.000804   0.000076
     7  C   -0.003186  -0.000794   0.014285   0.012985  -0.000505  -0.000564
     8  H    0.000002  -0.000001   0.000062   0.001578  -0.000008  -0.000001
     9  H    0.000000   0.000000   0.000000  -0.001369   0.000000   0.000000
    10  H    0.000001   0.000000   0.000000  -0.000104   0.000000   0.000000
    11  H    0.000003  -0.000001   0.000012   0.000016   0.000000   0.000000
    12  H   -0.000001   0.000000  -0.000006   0.000421   0.000000   0.000000
    13  H   -0.000200   0.000127  -0.000096   0.001367  -0.000003   0.000000
    14  O    0.000000   0.000000   0.000001  -0.000026   0.000001   0.000000
    15  C    0.000007   0.000000   0.000021  -0.000801  -0.000001  -0.000014
    16  O    0.000000   0.000000   0.000000  -0.000209   0.000000   0.000000
    17  H    0.000000   0.000000   0.000000  -0.000024   0.000000   0.000000
    18  O    0.000029  -0.000002  -0.000008  -0.000158   0.000001   0.000000
    19  C    0.000240  -0.000038  -0.000079   0.002494  -0.000021   0.000078
    20  H    0.000000   0.000000   0.000000  -0.000445   0.000000   0.000000
    21  H    0.000000   0.000000   0.000000   0.000034   0.000000   0.000000
    22  H    0.000000   0.000000   0.000000  -0.000530   0.000000   0.000000
    23  O   -0.007588   0.009462  -0.001841   0.042112  -0.002679  -0.000582
    24  Si  -0.043646  -0.026132  -0.022974  -0.218749   0.003958   0.012764
    25  C   -0.007506  -0.006942   0.007541   0.005976  -0.000031  -0.001402
    26  H    0.000140   0.000084   0.000029   0.000410   0.000001   0.000000
    27  H    0.000402   0.000134   0.000001  -0.000565  -0.000001   0.000000
    28  H    0.000000   0.000027  -0.000018  -0.003316   0.000000   0.000000
    29  C    0.020091  -0.025199  -0.022457  -0.356508  -0.064698  -0.162892
    30  C    0.394613   0.396432   0.402733   0.013603   0.000185   0.000739
    31  H    0.493846  -0.020940  -0.023089   0.001289   0.000006   0.000000
    32  H   -0.020940   0.486432  -0.021374   0.007952   0.000054  -0.000001
    33  H   -0.023089  -0.021374   0.489584   0.011344   0.000061  -0.000003
    34  C    0.001289   0.007952   0.011344   5.902556   0.417460   0.466033
    35  H    0.000006   0.000054   0.000061   0.417460   0.534697  -0.027616
    36  H    0.000000  -0.000001  -0.000003   0.466033  -0.027616   0.539411
    37  H   -0.000006   0.000011   0.000054   0.468043  -0.026250  -0.026709
    38  C   -0.001066   0.007318   0.004983   0.067974  -0.005503   0.012591
    39  H   -0.000007   0.000399   0.000014  -0.015428   0.002724  -0.000305
    40  H   -0.000005   0.000012   0.000009   0.006648   0.000025   0.000000
    41  H    0.000000   0.000011  -0.000004   0.013498  -0.000332   0.005292
    42  C   -0.000698  -0.000466  -0.003810  -0.284257   0.003237   0.011784
    43  H    0.000000   0.000000   0.000000   0.011289   0.000026   0.005369
    44  H   -0.000001   0.000001   0.000000  -0.000025  -0.000154   0.000031
    45  H    0.000000   0.000000   0.000002  -0.005667   0.000032  -0.000303
    46  H    0.000000   0.000000   0.000000  -0.000021   0.000000   0.000000
    47  H    0.000000   0.000000   0.000000   0.000010   0.000000   0.000000
             37         38         39         40         41         42
     1  H    0.000000   0.000158   0.000000   0.000000   0.000000  -0.001870
     2  C   -0.005498  -0.002066   0.000766  -0.000129  -0.000274   0.167244
     3  C   -0.008496   0.000148   0.000079  -0.000001   0.000023   0.018795
     4  C   -0.002059  -0.001298   0.000016  -0.000041   0.000013   0.070631
     5  C    0.005931   0.003122  -0.000031   0.000007  -0.000006  -0.022027
     6  C    0.004561  -0.005034  -0.000016   0.000059  -0.000030  -0.175403
     7  C    0.003802   0.005635  -0.000325  -0.000040   0.000068  -0.039141
     8  H    0.000950   0.000370   0.000000   0.000000   0.000000  -0.000362
     9  H    0.000198   0.000954   0.000000   0.000000   0.000000  -0.000698
    10  H    0.000000   0.000084   0.000000   0.000000   0.000000   0.000050
    11  H    0.000000   0.000024   0.000000   0.000000   0.000000  -0.000272
    12  H    0.000000   0.000017   0.000000   0.000000   0.000000  -0.000025
    13  H    0.000001  -0.000377   0.000000   0.000000   0.000000   0.000153
    14  O   -0.000036  -0.000055   0.000000   0.000000   0.000000  -0.000178
    15  C   -0.000121  -0.000298   0.000000   0.000000   0.000000  -0.003436
    16  O   -0.000020  -0.000036   0.000000   0.000000   0.000000   0.000319
    17  H    0.000000  -0.000006   0.000000   0.000000   0.000000   0.000172
    18  O   -0.000040  -0.000111   0.000000   0.000000   0.000000   0.004249
    19  C   -0.000375   0.001046  -0.000018   0.000081   0.000031   0.018256
    20  H    0.000002  -0.001977   0.000000   0.000002   0.000000   0.007392
    21  H    0.000000   0.000184   0.000000   0.000000   0.000000  -0.000464
    22  H   -0.000003  -0.000201   0.000000   0.000000   0.000000  -0.001754
    23  O    0.009534   0.008357   0.000737   0.000371  -0.000578   0.036993
    24  Si  -0.009974  -0.190255  -0.010228  -0.018189   0.011419  -0.168720
    25  C    0.000016   0.050035  -0.001246   0.004648   0.000890  -0.018025
    26  H    0.000000   0.008017   0.000028   0.000006   0.000015   0.010151
    27  H   -0.000001  -0.001253  -0.000005   0.000011   0.000000   0.001846
    28  H    0.000001  -0.000034   0.000022   0.000011  -0.000007   0.009202
    29  C   -0.105314  -0.498803  -0.080941  -0.083426  -0.160741  -0.482946
    30  C   -0.000343   0.031655   0.003000  -0.000098   0.000955  -0.014116
    31  H   -0.000006  -0.001066  -0.000007  -0.000005   0.000000  -0.000698
    32  H    0.000011   0.007318   0.000399   0.000012   0.000011  -0.000466
    33  H    0.000054   0.004983   0.000014   0.000009  -0.000004  -0.003810
    34  C    0.468043   0.067974  -0.015428   0.006648   0.013498  -0.284257
    35  H   -0.026250  -0.005503   0.002724   0.000025  -0.000332   0.003237
    36  H   -0.026709   0.012591  -0.000305   0.000000   0.005292   0.011784
    37  H    0.521024  -0.001404   0.000040  -0.000145   0.000026  -0.006681
    38  C   -0.001404   5.710731   0.446374   0.458026   0.460885  -0.032168
    39  H    0.000040   0.446374   0.532338  -0.027248  -0.027326   0.008908
    40  H   -0.000145   0.458026  -0.027248   0.529290  -0.027139  -0.015708
    41  H    0.000026   0.460885  -0.027326  -0.027139   0.535953   0.013970
    42  C   -0.006681  -0.032168   0.008908  -0.015708   0.013970   6.120406
    43  H   -0.000272   0.016012   0.000007  -0.000329   0.005427   0.471473
    44  H    0.000030  -0.002459   0.000022   0.002698  -0.000322   0.403279
    45  H    0.003182  -0.004395  -0.000147   0.000040   0.000035   0.463641
    46  H    0.000000   0.000000   0.000000   0.000000   0.000000  -0.000003
    47  H    0.000000   0.000000   0.000000   0.000000   0.000000   0.000002
             43         44         45         46         47
     1  H    0.000000   0.000001   0.000004   0.000001   0.000000
     2  C    0.001621  -0.004608   0.000267  -0.005283  -0.007484
     3  C    0.000429  -0.000277  -0.001861   0.079559  -0.027935
     4  C    0.001055  -0.000920  -0.001530  -0.043023   0.183995
     5  C   -0.000483   0.000210   0.001690  -0.139816  -0.241733
     6  C   -0.001726   0.003169  -0.000556   0.008792   0.004805
     7  C   -0.000072   0.000428  -0.000063   0.010134   0.001370
     8  H    0.000000   0.000000   0.000010   0.000026  -0.000132
     9  H   -0.000001  -0.000002   0.000476  -0.000098  -0.000075
    10  H    0.000000   0.000000   0.000001  -0.000134  -0.000135
    11  H    0.000000   0.000000   0.000000  -0.000091  -0.000065
    12  H    0.000000   0.000000   0.000000   0.000982   0.000188
    13  H    0.000000   0.000000   0.000000  -0.000014  -0.000001
    14  O    0.000000   0.000000  -0.000007  -0.035760  -0.025230
    15  C   -0.000010   0.000005   0.000022   0.451060   0.456910
    16  O    0.000000  -0.000001  -0.000011   0.001445  -0.005170
    17  H    0.000000   0.000000   0.000000   0.000010  -0.000426
    18  O    0.000000  -0.000032  -0.000142   0.000002  -0.000223
    19  C    0.000500  -0.000086  -0.002352  -0.000071   0.001097
    20  H    0.000023   0.000055  -0.000335   0.000000   0.000000
    21  H   -0.000001   0.000007   0.000026   0.000000   0.000000
    22  H    0.000002  -0.000061   0.000257   0.000000   0.000000
    23  O   -0.000569  -0.004987   0.008347  -0.000059  -0.000124
    24  Si  -0.000150   0.021495  -0.000065   0.000432  -0.000313
    25  C    0.002403  -0.004898  -0.001231  -0.000003   0.000000
    26  H   -0.000001   0.000057   0.000001   0.000000   0.000000
    27  H    0.000001  -0.000003  -0.000004   0.000000   0.000000
    28  H   -0.000016   0.000342   0.000017   0.000000   0.000000
    29  C   -0.162159  -0.059451  -0.103264   0.000008  -0.000001
    30  C   -0.001428   0.000449  -0.000810  -0.000003   0.000002
    31  H    0.000000  -0.000001   0.000000   0.000000   0.000000
    32  H    0.000000   0.000001   0.000000   0.000000   0.000000
    33  H    0.000000   0.000000   0.000002   0.000000   0.000000
    34  C    0.011289  -0.000025  -0.005667  -0.000021   0.000010
    35  H    0.000026  -0.000154   0.000032   0.000000   0.000000
    36  H    0.005369   0.000031  -0.000303   0.000000   0.000000
    37  H   -0.000272   0.000030   0.003182   0.000000   0.000000
    38  C    0.016012  -0.002459  -0.004395   0.000000   0.000000
    39  H    0.000007   0.000022  -0.000147   0.000000   0.000000
    40  H   -0.000329   0.002698   0.000040   0.000000   0.000000
    41  H    0.005427  -0.000322   0.000035   0.000000   0.000000
    42  C    0.471473   0.403279   0.463641  -0.000003   0.000002
    43  H    0.540985  -0.027703  -0.026633   0.000000   0.000000
    44  H   -0.027703   0.535230  -0.026644   0.000000   0.000000
    45  H   -0.026633  -0.026644   0.517542   0.000000   0.000000
    46  H    0.000000   0.000000   0.000000   0.541239  -0.034439
    47  H    0.000000   0.000000   0.000000  -0.034439   0.511036
 Mulliken atomic charges:
              1
     1  H    0.151159
     2  C    0.290843
     3  C   -0.097087
     4  C    0.143995
     5  C   -0.106797
     6  C   -0.631466
     7  C   -0.453982
     8  H    0.188959
     9  H    0.173263
    10  H    0.181125
    11  H    0.176011
    12  H    0.169717
    13  H    0.169650
    14  O   -0.336634
    15  C   -0.117846
    16  O   -0.528926
    17  H    0.387552
    18  O   -0.289750
    19  C   -0.162186
    20  H    0.157132
    21  H    0.168605
    22  H    0.156090
    23  O   -0.258721
    24  Si   0.440620
    25  C   -0.659127
    26  H    0.191408
    27  H    0.183490
    28  H    0.183262
    29  C    0.055076
    30  C   -0.686794
    31  H    0.188379
    32  H    0.190128
    33  H    0.189375
    34  C   -0.564475
    35  H    0.165009
    36  H    0.165139
    37  H    0.176341
    38  C   -0.545900
    39  H    0.167800
    40  H    0.170552
    41  H    0.168249
    42  C   -0.568925
    43  H    0.164929
    44  H    0.165125
    45  H    0.180431
    46  H    0.165128
    47  H    0.184072
 Sum of Mulliken atomic charges =   0.00000
 Mulliken charges with hydrogens summed into heavy atoms:
              1
     2  C    0.442003
     3  C    0.261589
     4  C    0.317258
     5  C   -0.106797
     6  C   -0.450341
     7  C   -0.108321
    14  O   -0.336634
    15  C    0.231354
    16  O   -0.141373
    18  O   -0.289750
    19  C    0.319641
    23  O   -0.258721
    24  Si   0.440620
    25  C   -0.100967
    29  C    0.055076
    30  C   -0.118912
    34  C   -0.057986
    38  C   -0.039299
    42  C   -0.058440
 Sum of Mulliken charges with hydrogens summed into heavy atoms =   0.00000
 Electronic spatial extent (au):  <R**2>=           6154.0463
 Charge=              0.0000 electrons
 Dipole moment (field-independent basis, Debye):
    X=             -3.8533    Y=              0.0359    Z=             -4.0076  Tot=              5.5597
 Quadrupole moment (field-independent basis, Debye-Ang):
   XX=           -133.3913   YY=           -124.7098   ZZ=           -129.3346
   XY=             -0.4097   XZ=            -12.8876   YZ=              7.0793
 Traceless Quadrupole moment (field-independent basis, Debye-Ang):
   XX=             -4.2460   YY=              4.4354   ZZ=             -0.1894
   XY=             -0.4097   XZ=            -12.8876   YZ=              7.0793
 Octapole moment (field-independent basis, Debye-Ang**2):
  XXX=             -9.2850  YYY=             21.9301  ZZZ=            -12.8560  XYY=              6.5441
  XXY=              0.7737  XXZ=            -57.8002  XZZ=            -11.0649  YZZ=              4.1008
  YYZ=              3.1911  XYZ=             16.1170
 Hexadecapole moment (field-independent basis, Debye-Ang**3):
 XXXX=          -5421.0066 YYYY=          -1616.9692 ZZZZ=          -1235.4610 XXXY=              1.5161
 XXXZ=           -170.1331 YYYX=             20.8445 YYYZ=             53.0248 ZZZX=            -26.9093
 ZZZY=             -1.9847 XXYY=          -1188.7435 XXZZ=          -1181.0358 YYZZ=           -522.0165
 XXYZ=             49.7604 YYXZ=            -13.1354 ZZXY=             14.5073
 N-N= 1.832585703310D+03 E-N=-6.335121287850D+03  KE= 1.131525212837D+03
 1\1\GINC-COMPUTE-8-10\SP\RmPW1PW91\6-31+G(d,p)\C14H28O4Si1\ELUCIANO.IQ
 UIR\07-Dec-2022\0\\# mPW1PW91/6-31+g** scrf=(PCM,solvent=chloroform) n
 mr\\comment\\0,1\H,0,-0.225552,0.552389,2.199632\C,0,-0.589306,0.11383
 3,1.258657\C,0,-1.822241,-1.882466,0.264606\C,0,-2.361131,0.46297,-0.5
 60783\C,0,-2.877713,-0.950288,-0.307545\C,0,-1.733031,1.003574,0.74011
 3\C,0,-1.167945,-1.290523,1.524915\H,0,-1.052987,-2.050278,-0.499408\H
 ,0,-1.591482,0.39592,-1.344893\H,0,-2.516016,0.965634,1.508902\H,0,-1.
 908946,-1.217142,2.332696\H,0,-2.275082,-2.855642,0.481515\H,0,-0.3725
 68,-1.950735,1.884363\O,0,-3.706134,-1.509406,-1.330659\C,0,-4.311244,
 -1.181679,-0.067033\O,0,-3.404869,1.326,-0.979868\H,0,-3.191551,2.1948
 68,-0.596546\O,0,-1.470398,2.405228,0.651008\C,0,-0.519511,2.866717,-0
 .308049\H,0,0.50071,2.578276,-0.045454\H,0,-0.60191,3.957175,-0.298273
 \H,0,-0.738955,2.50529,-1.320435\O,0,0.471567,0.04434,0.304486\Si,0,2.
 117155,-0.127752,0.64285\C,0,2.740014,1.396917,1.576146\H,0,3.780718,1
 .261951,1.894836\H,0,2.146457,1.575389,2.481228\H,0,2.693883,2.308408,
 0.969968\C,0,2.943673,-0.309312,-1.072225\C,0,2.437901,-1.641227,1.733
 784\H,0,1.965634,-1.53167,2.717658\H,0,3.513373,-1.769467,1.908161\H,0
 ,2.062278,-2.567004,1.28441\C,0,2.443456,-1.596217,-1.763219\H,0,2.703
 907,-2.496294,-1.1932\H,0,2.899992,-1.697878,-2.758382\H,0,1.355935,-1
 .586037,-1.898023\C,0,4.477497,-0.386385,-0.904059\H,0,4.785675,-1.246
 866,-0.297107\H,0,4.886467,0.517777,-0.436467\H,0,4.962152,-0.492426,-
 1.885088\C,0,2.596115,0.902526,-1.962982\H,0,3.076296,0.801601,-2.9469
 97\H,0,2.94557,1.847071,-1.527689\H,0,1.516476,0.985831,-2.127329\H,0,
 -4.622203,-2.03746,0.534509\H,0,-4.998963,-0.340091,-0.096192\\Version
 =EM64L-G09RevC.01\State=1-A\HF=-1140.6202761\RMSD=5.087e-09\Dipole=1.5
 160115,0.0141364,1.5767131\Quadrupole=-3.1568202,3.2976333,-0.1408131,
 0.3046264,-9.5816518,-5.263315\PG=C01 [X(C14H28O4Si1)]\\@


 IN-LAWS ARE LIKE SEEDS. YOU DON'T NEED THEM
 BUT THEY COME WITH THE TOMATO.
 Job cpu time:  0 days  3 hours 27 minutes 45.6 seconds.
 File lengths (MBytes):  RWF=    288 Int=      0 D2E=      0 Chk=     16 Scr=      1
 Normal termination of Gaussian 09 at Wed Dec  7 01:28:18 2022.
