 Entering Gaussian System, Link 0=g09
 Input=/home/eluciano.iquir/todos_optB3L_MPW_B_PCM/02_epoxido28_011_optB3L_nmr_MPW_B_PCM.gjc
 Output=/home/eluciano.iquir/todos_optB3L_MPW_B_PCM/02_epoxido28_011_optB3L_nmr_MPW_B_PCM.log
 Initial command:
 /share/apps/Gaussian09/EM64T.SSE4.2-enabled/g09/l1.exe /tmp/Gau-94426.inp -scrdir=/tmp/
 Entering Link 1 = /share/apps/Gaussian09/EM64T.SSE4.2-enabled/g09/l1.exe PID=     94427.
  
 Copyright (c) 1988,1990,1992,1993,1995,1998,2003,2009,2011,
            Gaussian, Inc.  All Rights Reserved.
  
 This is part of the Gaussian(R) 09 program.  It is based on
 the Gaussian(R) 03 system (copyright 2003, Gaussian, Inc.),
 the Gaussian(R) 98 system (copyright 1998, Gaussian, Inc.),
 the Gaussian(R) 94 system (copyright 1995, Gaussian, Inc.),
 the Gaussian 92(TM) system (copyright 1992, Gaussian, Inc.),
 the Gaussian 90(TM) system (copyright 1990, Gaussian, Inc.),
 the Gaussian 88(TM) system (copyright 1988, Gaussian, Inc.),
 the Gaussian 86(TM) system (copyright 1986, Carnegie Mellon
 University), and the Gaussian 82(TM) system (copyright 1983,
 Carnegie Mellon University). Gaussian is a federally registered
 trademark of Gaussian, Inc.
  
 This software contains proprietary and confidential information,
 including trade secrets, belonging to Gaussian, Inc.
  
 This software is provided under written license and may be
 used, copied, transmitted, or stored only in accord with that
 written license.
  
 The following legend is applicable only to US Government
 contracts under FAR:
  
                    RESTRICTED RIGHTS LEGEND
  
 Use, reproduction and disclosure by the US Government is
 subject to restrictions as set forth in subparagraphs (a)
 and (c) of the Commercial Computer Software - Restricted
 Rights clause in FAR 52.227-19.
  
 Gaussian, Inc.
 340 Quinnipiac St., Bldg. 40, Wallingford CT 06492
  
  
 ---------------------------------------------------------------
 Warning -- This program may not be used in any manner that
 competes with the business of Gaussian, Inc. or will provide
 assistance to any competitor of Gaussian, Inc.  The licensee
 of this program is prohibited from giving any competitor of
 Gaussian, Inc. access to this program.  By using this program,
 the user acknowledges that Gaussian, Inc. is engaged in the
 business of creating and licensing software in the field of
 computational chemistry and represents and warrants to the
 licensee that it is not a competitor of Gaussian, Inc. and that
 it will not use this program in any manner prohibited above.
 ---------------------------------------------------------------
  

 Cite this work as:
 Gaussian 09, Revision C.01,
 M. J. Frisch, G. W. Trucks, H. B. Schlegel, G. E. Scuseria, 
 M. A. Robb, J. R. Cheeseman, G. Scalmani, V. Barone, B. Mennucci, 
 G. A. Petersson, H. Nakatsuji, M. Caricato, X. Li, H. P. Hratchian, 
 A. F. Izmaylov, J. Bloino, G. Zheng, J. L. Sonnenberg, M. Hada, 
 M. Ehara, K. Toyota, R. Fukuda, J. Hasegawa, M. Ishida, T. Nakajima, 
 Y. Honda, O. Kitao, H. Nakai, T. Vreven, J. A. Montgomery, Jr., 
 J. E. Peralta, F. Ogliaro, M. Bearpark, J. J. Heyd, E. Brothers, 
 K. N. Kudin, V. N. Staroverov, T. Keith, R. Kobayashi, J. Normand, 
 K. Raghavachari, A. Rendell, J. C. Burant, S. S. Iyengar, J. Tomasi, 
 M. Cossi, N. Rega, J. M. Millam, M. Klene, J. E. Knox, J. B. Cross, 
 V. Bakken, C. Adamo, J. Jaramillo, R. Gomperts, R. E. Stratmann, 
 O. Yazyev, A. J. Austin, R. Cammi, C. Pomelli, J. W. Ochterski, 
 R. L. Martin, K. Morokuma, V. G. Zakrzewski, G. A. Voth, 
 P. Salvador, J. J. Dannenberg, S. Dapprich, A. D. Daniels, 
 O. Farkas, J. B. Foresman, J. V. Ortiz, J. Cioslowski, 
 and D. J. Fox, Gaussian, Inc., Wallingford CT, 2010.
 
 ******************************************
 Gaussian 09:  EM64L-G09RevC.01 23-Sep-2011
                 6-Dec-2022 
 ******************************************
 %nprocshared=4
 Will use up to    4 processors via shared memory.
 %mem=80MW
 -----------------------------------------------------
 # mPW1PW91/6-31+g** scrf=(PCM,solvent=chloroform) nmr
 -----------------------------------------------------
 1/38=1/1;
 2/12=2,17=6,18=5,40=1/2;
 3/5=1,6=6,7=111,11=2,16=1,25=1,30=1,70=2201,72=7,74=-7/1,2,8,3;
 4//1;
 5/5=2,38=5,53=7/2;
 8/6=1,10=90,11=11/1;
 10/13=100,45=16/2;
 6/7=2,8=2,9=2,10=2,28=1/1;
 99/9=1/99;
 -------
 comment
 -------
 Charge =  0 Multiplicity = 1
 Symbolic Z-Matrix:
 1                    -0.24244  -0.93429   0.65263 
 6                    -0.47749  -0.30989  -0.22043 
 6                    -2.61258  -1.63137  -0.48075 
 6                    -2.5332    0.43457   1.04279 
 6                    -3.3779   -0.49468   0.17404 
 6                    -1.26504   0.90723   0.30685 
 6                    -1.34572  -1.11989  -1.18971 
 1                    -3.27283  -2.14696  -1.1862 
 1                    -3.13077   1.32108   1.2961 
 1                    -0.63834   1.46112   1.02276 
 1                    -0.7669   -1.96282  -1.58324 
 1                    -2.3307   -2.35437   0.29678 
 1                    -1.61783  -0.47706  -2.03338 
 8                    -4.35573   0.16422  -0.64775 
 6                    -4.81995  -0.61898   0.45604 
 8                    -2.0819   -0.24669   2.21763 
 1                    -2.86666  -0.56485   2.69075 
 8                    -1.71498   1.76736  -0.7249 
 6                    -0.80563   2.77525  -1.13654 
 1                    -0.42908   3.34675  -0.27325 
 1                    -1.37031   3.45104  -1.78541 
 1                     0.04632   2.36283  -1.68567 
 8                     0.72305   0.12732  -0.85587 
 14                    2.26839  -0.5102   -0.65827 
 6                     2.185    -2.39812  -0.53956 
 1                     3.18536  -2.83157  -0.42162 
 1                     1.75125  -2.82123  -1.45333 
 1                     1.57822  -2.74211   0.30598 
 6                     3.10723   0.22844   0.90601 
 6                     3.18257  -0.00473  -2.22693 
 1                     4.22641  -0.3396   -2.22125 
 1                     3.17925   1.08269  -2.36097 
 1                     2.69502  -0.44538  -3.10417 
 6                     3.1174    1.7693    0.81412 
 1                     3.69202   2.12409  -0.05029 
 1                     3.57769   2.2052    1.71294 
 1                     2.10355   2.17678   0.72943 
 6                     4.56433  -0.2759    1.00694 
 1                     5.16459   0.01832   0.13736 
 1                     4.6197   -1.36776   1.09876 
 1                     5.05305   0.14789   1.89643 
 6                     2.34899  -0.19193   2.18415 
 1                     2.83886   0.22986   3.07414 
 1                     2.32954  -1.28129   2.31175 
 1                     1.3114    0.16232   2.18875 
 1                    -5.34121  -1.54093   0.19437 
 1                    -5.27418  -0.05044   1.27069 
 
                          Input orientation:                          
 ---------------------------------------------------------------------
 Center     Atomic      Atomic             Coordinates (Angstroms)
 Number     Number       Type             X           Y           Z
 ---------------------------------------------------------------------
      1          1           0       -0.242437   -0.934285    0.652628
      2          6           0       -0.477493   -0.309894   -0.220426
      3          6           0       -2.612582   -1.631372   -0.480754
      4          6           0       -2.533202    0.434573    1.042790
      5          6           0       -3.377901   -0.494684    0.174042
      6          6           0       -1.265044    0.907228    0.306845
      7          6           0       -1.345719   -1.119894   -1.189709
      8          1           0       -3.272834   -2.146955   -1.186199
      9          1           0       -3.130772    1.321077    1.296095
     10          1           0       -0.638337    1.461123    1.022760
     11          1           0       -0.766895   -1.962819   -1.583240
     12          1           0       -2.330699   -2.354371    0.296781
     13          1           0       -1.617834   -0.477058   -2.033381
     14          8           0       -4.355725    0.164218   -0.647752
     15          6           0       -4.819952   -0.618978    0.456036
     16          8           0       -2.081898   -0.246692    2.217633
     17          1           0       -2.866660   -0.564845    2.690752
     18          8           0       -1.714980    1.767356   -0.724899
     19          6           0       -0.805628    2.775252   -1.136544
     20          1           0       -0.429075    3.346754   -0.273246
     21          1           0       -1.370312    3.451040   -1.785413
     22          1           0        0.046321    2.362826   -1.685670
     23          8           0        0.723046    0.127320   -0.855870
     24         14           0        2.268392   -0.510197   -0.658272
     25          6           0        2.185001   -2.398120   -0.539555
     26          1           0        3.185362   -2.831567   -0.421617
     27          1           0        1.751246   -2.821231   -1.453328
     28          1           0        1.578217   -2.742107    0.305983
     29          6           0        3.107228    0.228442    0.906007
     30          6           0        3.182568   -0.004730   -2.226934
     31          1           0        4.226409   -0.339597   -2.221245
     32          1           0        3.179246    1.082689   -2.360974
     33          1           0        2.695017   -0.445381   -3.104172
     34          6           0        3.117399    1.769303    0.814121
     35          1           0        3.692018    2.124094   -0.050291
     36          1           0        3.577694    2.205204    1.712941
     37          1           0        2.103553    2.176783    0.729430
     38          6           0        4.564333   -0.275902    1.006940
     39          1           0        5.164593    0.018323    0.137358
     40          1           0        4.619698   -1.367760    1.098759
     41          1           0        5.053052    0.147894    1.896433
     42          6           0        2.348990   -0.191927    2.184152
     43          1           0        2.838857    0.229858    3.074135
     44          1           0        2.329539   -1.281291    2.311753
     45          1           0        1.311401    0.162319    2.188749
     46          1           0       -5.341209   -1.540927    0.194366
     47          1           0       -5.274182   -0.050438    1.270691
 ---------------------------------------------------------------------
                    Distance matrix (angstroms):
                    1          2          3          4          5
     1  H    0.000000
     2  C    1.098790   0.000000
     3  C    2.718101   2.524417   0.000000
     4  C    2.696962   2.525052   2.568193   0.000000
     5  C    3.202097   2.932937   1.518727   1.527010   0.000000
     6  C    2.134587   1.542607   2.980044   1.540533   2.539126
     7  C    2.155432   1.532784   1.539210   2.968255   2.525959
     8  H    3.746353   3.481586   1.095176   3.489948   2.142731
     9  H    3.720643   3.464072   3.484633   1.098700   2.148735
    10  H    2.455955   2.169766   3.965063   2.155161   3.471414
    11  H    2.516355   2.161753   2.175291   3.970310   3.472868
    12  H    2.550316   2.807448   1.098520   2.894088   2.137787
    13  H    3.052117   2.148285   2.175457   3.336435   2.823272
    14  O    4.451610   3.930404   2.508103   2.500523   1.437232
    15  C    4.592571   4.405688   2.602883   2.585242   1.474612
    16  O    2.511104   2.919288   3.079003   1.431102   2.432568
    17  H    3.343199   3.774662   3.355665   1.955968   2.569070
    18  O    3.371176   2.469987   3.523726   2.360195   2.947919
    19  C    4.156800   3.234976   4.807648   3.634940   4.361961
    20  H    4.383990   3.657350   5.439899   3.826238   4.863362
    21  H    5.142686   4.170244   5.392243   4.295360   4.841344
    22  H    4.052402   3.092694   4.947242   4.220971   4.832100
    23  O    2.082001   1.426968   3.789475   3.781860   4.273801
    24  Si   2.864013   2.787780   5.011233   5.180879   5.707330
    25  C    3.075153   3.398736   4.858823   5.726203   5.922682
    26  H    4.062448   4.451496   5.921159   6.746416   6.992300
    27  H    3.459825   3.576889   4.626517   5.931893   5.862534
    28  H    2.589047   3.227803   4.406300   5.247661   5.443475
    29  C    3.554770   3.795903   6.172377   5.645852   6.566246
    30  C    4.570187   4.185122   6.267286   6.599554   7.003177
    31  H    5.346343   5.111835   7.174245   7.546231   7.974145
    32  H    4.985769   4.460154   6.666830   6.681147   7.204900
    33  H    4.793872   4.289425   6.038171   6.730965   6.901409
    34  C    4.315549   4.279789   6.787781   5.810601   6.908275
    35  H    5.032665   4.830949   7.350973   6.542375   7.542684
    36  H    5.057080   5.148608   7.605993   6.397444   7.618261
    37  H    3.897218   3.707774   6.181304   4.963163   6.123033
    38  C    4.864570   5.189180   7.453767   7.133096   7.988784
    39  H    5.514430   5.662938   7.974209   7.762031   8.557963
    40  H    4.901764   5.370352   7.407444   7.376687   8.098083
    41  H    5.546203   5.939494   8.220630   7.639512   8.629050
    42  C    3.100348   3.712805   5.812996   5.052822   6.076963
    43  H    4.088190   4.705703   6.769018   5.746937   6.898085
    44  H    3.080287   3.903200   5.687285   5.310434   6.145196
    45  H    2.444713   3.037639   5.073580   4.020985   5.145896
    46  H    5.155143   5.034206   2.812361   3.536570   2.224773
    47  H    5.146032   5.029808   3.556828   2.792874   2.235145
                    6          7          8          9         10
     6  C    0.000000
     7  C    2.520993   0.000000
     8  H    3.948219   2.183721   0.000000
     9  H    2.151936   3.914585   4.267225   0.000000
    10  H    1.100952   3.472327   4.983804   2.511286   0.000000
    11  H    3.472426   1.095640   2.543871   4.966131   4.304781
    12  H    3.431290   2.168818   1.769144   3.892000   4.236641
    13  H    2.741782   1.095019   2.499059   4.075252   3.749128
    14  O    3.318980   3.317046   2.608467   2.572426   4.276862
    15  C    3.871554   3.876814   2.724926   2.706075   4.704668
    16  O    2.376950   3.593664   4.076199   2.099350   2.535394
    17  H    3.227257   4.204678   4.206994   2.360408   3.442698
    18  O    1.416601   2.947646   4.238105   2.507598   2.075392
    19  C    2.404984   3.932771   5.506150   3.665877   2.533281
    20  H    2.643225   4.650923   6.253102   3.723623   2.297613
    21  H    3.295391   4.609654   5.942743   4.139040   3.518720
    22  H    2.794380   3.783265   5.621778   4.479965   2.935544
    23  O    2.431597   2.438602   4.609610   4.572518   2.676125
    24  Si   3.927558   3.703506   5.801971   6.026947   3.893719
    25  C    4.852270   3.810846   5.501745   6.742365   5.030489
    26  H    5.857931   4.904129   6.539234   7.751680   5.927401
    27  H    5.108583   3.543337   5.076159   6.967937   5.493603
    28  H    4.626206   3.663069   5.110138   6.297965   4.805624
    29  C    4.465032   5.102820   7.122151   6.344972   3.944920
    30  C    5.199323   4.777532   6.880732   7.350358   5.225758
    31  H    6.172671   5.720275   7.783091   8.322117   6.118163
    32  H    5.186498   5.167063   7.310269   7.297075   5.115350
    33  H    5.398766   4.521912   6.495323   7.511494   5.637160
    34  C    4.495143   5.681744   7.757154   6.282742   3.774130
    35  H    5.116715   6.099223   8.248716   7.000575   4.510315
    36  H    5.207107   6.612235   8.618355   6.779304   4.336464
    37  H    3.624609   5.142825   7.160299   5.333995   2.848890
    38  C    5.989288   6.361313   8.350562   7.864388   5.485005
    39  H    6.493005   6.740980   8.810812   8.476610   6.044800
    40  H    6.358686   6.394116   8.253499   8.206008   5.971205
    41  H    6.559094   7.216358   9.170023   8.289254   5.905911
    42  C    4.218254   5.088707   6.840052   5.753748   3.606318
    43  H    4.995871   6.124775   7.820003   6.323658   4.220786
    44  H    4.661577   5.078760   6.661203   6.133423   4.241536
    45  H    3.276358   4.485347   6.143145   4.676799   2.616849
    46  H    4.756179   4.249338   2.559571   3.780331   5.640527
    47  H    4.233121   4.757113   3.799617   2.544780   4.882350
                   11         12         13         14         15
    11  H    0.000000
    12  H    2.476545   0.000000
    13  H    1.770370   3.076058   0.000000
    14  O    4.275409   3.366922   3.134844   0.000000
    15  C    4.732000   3.038640   4.058435   1.430822   0.000000
    16  O    4.372752   2.862496   4.282469   3.680974   3.277005
    17  H    4.962898   3.036570   4.887198   3.727527   2.968541
    18  O    3.943326   4.290871   2.599799   3.090233   4.090238
    19  C    4.759239   5.540153   3.470089   4.433915   5.492896
    20  H    5.479213   6.036881   4.374101   5.068271   5.961433
    21  H    5.451133   6.241848   3.943692   4.583684   5.786982
    22  H    4.402615   5.642011   3.309872   5.028833   6.095791
    23  O    2.667897   4.100336   2.689149   5.083167   5.744814
    24  Si   3.489791   5.046260   4.122472   6.658369   7.176220
    25  C    3.161085   4.592703   4.514814   7.025552   7.295609
    26  H    4.210039   5.583076   5.586787   8.117503   8.351699
    27  H    2.663603   4.465771   4.145155   6.845214   7.188618
    28  H    3.110628   3.928110   4.562654   6.675927   6.742904
    29  C    5.099687   6.050878   5.609273   7.623251   7.985035
    30  C    4.454965   6.502774   4.827465   7.703780   8.462621
    31  H    5.289138   7.307218   5.848877   8.739722   9.438354
    32  H    5.044999   7.016875   5.054909   7.781678   8.649762
    33  H    4.074394   6.361489   4.443904   7.491233   8.317450
    34  C    5.896085   6.852306   5.964632   7.782092   8.296605
    35  H    6.239767   7.513337   6.236439   8.304471   8.957368
    36  H    6.863868   7.596337   6.944276   8.525118   8.948535
    37  H    5.542943   6.354615   5.340854   6.904297   7.471676
    38  C    6.162525   7.236424   6.892257   9.082904   9.406700
    39  H    6.485980   7.863491   7.138545   9.553750  10.009937
    40  H    6.046701   7.065733   7.036367   9.271218   9.491088
    41  H    7.101762   7.958643   7.767543   9.746703  10.006950
    42  C    5.199812   5.489793   5.796945   7.286956   7.386642
    43  H    6.284936   6.412195   6.815317   8.100541   8.138324
    44  H    5.022286   5.189357   5.925262   7.452578   7.416034
    45  H    4.802440   4.814371   5.178378   6.337354   6.419206
    46  H    4.925670   3.120152   4.467460   2.141929   1.090949
    47  H    5.667253   3.862732   4.946491   2.137771   1.092349
                   16         17         18         19         20
    16  O    0.000000
    17  H    0.970007   0.000000
    18  O    3.584622   4.293274   0.000000
    19  C    4.691643   5.481997   1.418530   0.000000
    20  H    4.674308   5.479755   2.086154   1.101676   0.000000
    21  H    5.495812   6.196970   2.019475   1.093887   1.784223
    22  H    5.155063   6.017457   2.092808   1.094281   1.785793
    23  O    4.177800   5.093487   2.941231   3.070369   3.468658
    24  Si   5.221617   6.130881   4.589002   4.524657   4.722356
    25  C    5.516988   6.270172   5.709238   6.005334   6.317269
    26  H    6.433603   7.172994   6.727215   6.919215   7.159457
    27  H    5.898915   6.602252   5.796591   6.161053   6.647588
    28  H    4.824722   5.494044   5.678303   6.181007   6.437310
    29  C    5.373374   6.285058   5.318064   5.095949   4.860036
    30  C    6.894006   7.816043   5.420551   4.982264   5.300312
    31  H    7.714078   8.630764   6.479074   6.016665   6.249593
    32  H    7.100037   8.049055   5.205666   4.499247   4.743899
    33  H    7.154020   8.032911   5.477702   5.147674   5.670483
    34  C    5.750371   6.691708   5.071536   4.495238   4.030905
    35  H    6.640950   7.599998   5.460585   4.672555   4.304418
    36  H    6.188497   7.082301   5.843558   5.259090   4.615439
    37  H    5.060235   6.005525   4.106568   3.507614   2.964523
    38  C    6.755666   7.624852   6.826708   6.537625   6.300527
    39  H    7.543833   8.447540   7.150603   6.698285   6.521976
    40  H    6.886223   7.695757   7.299509   7.182986   7.042666
    41  H    7.153068   7.991294   7.436417   7.101133   6.707751
    42  C    4.431353   5.253448   5.368167   5.457361   5.126277
    43  H    5.017422   5.773340   6.126499   6.122999   5.621333
    44  H    4.532111   5.259032   5.905391   6.178638   5.975866
    45  H    3.417982   4.270476   4.497162   4.729356   4.385351
    46  H    4.048674   3.648023   4.993928   6.400954   6.945297
    47  H    3.335550   2.842068   4.467065   5.809241   6.115531
                   21         22         23         24         25
    21  H    0.000000
    22  H    1.789136   0.000000
    23  O    4.036498   2.478712   0.000000
    24  Si   5.495636   3.774574   1.683320   0.000000
    25  C    6.957376   5.343607   2.935169   1.893489   0.000000
    26  H    7.879420   6.199446   3.873834   2.507110   1.096589
    27  H    7.013971   5.462161   3.179325   2.498086   1.096425
    28  H    7.170971   5.689792   3.211671   2.527361   1.096106
    29  C    6.138179   4.543296   2.966270   1.922551   3.136715
    30  C    5.732888   3.966653   2.818954   1.884653   3.093655
    31  H    6.773637   5.006303   3.788907   2.511139   3.351559
    32  H    5.161282   3.451088   3.034961   2.503225   4.052422
    33  H    5.783435   4.112635   3.044917   2.483674   3.263521
    34  C    5.452097   4.004091   3.349314   2.843391   4.479868
    35  H    5.513494   4.002820   3.667541   3.055461   4.791753
    36  H    6.186546   4.903672   4.366395   3.835404   5.310737
    37  H    4.473914   3.177975   2.935860   3.028655   4.748336
    38  C    7.543696   5.884341   4.288139   2.845904   3.543540
    39  H    7.627947   5.917502   4.552551   3.049646   3.895559
    40  H    8.210938   6.525802   4.608659   3.057975   3.110219
    41  H    8.107180   6.542533   5.130745   3.835874   4.543340
    42  C    6.546897   5.177313   3.462275   2.861322   3.508954
    43  H    7.190850   5.916380   4.464539   3.847593   4.515811
    44  H    7.271219   5.871291   3.820843   3.069100   3.065641
    45  H    5.813883   4.631823   3.101144   3.077928   3.842222
    46  H    6.678868   6.913704   6.376616   7.726281   7.610339
    47  H    6.069623   6.547646   6.365580   7.798891   8.026706
                   26         27         28         29         30
    26  H    0.000000
    27  H    1.766698   0.000000
    28  H    1.766443   1.769569   0.000000
    29  C    3.336517   4.087255   3.394417   0.000000
    30  C    3.354129   3.252665   4.059907   3.142509   0.000000
    31  H    3.245359   3.588124   4.378568   3.369709   1.096254
    32  H    4.368357   4.254832   4.930012   3.377586   1.095654
    33  H    3.623593   3.043132   4.260440   4.087235   1.096096
    34  C    4.764417   5.299123   4.793757   1.543632   3.521286
    35  H    4.995314   5.494665   5.317424   2.202267   3.086941
    36  H    5.484462   6.215000   5.518453   2.186337   4.534595
    37  H    5.251551   5.465226   4.964954   2.198767   3.829277
    38  C    3.236319   4.521623   3.935784   1.545220   3.527145
    39  H    3.514496   4.716385   4.528852   2.206291   3.085260
    40  H    2.551782   4.105331   3.430442   2.207392   3.870843
    41  H    4.211747   5.562241   4.791254   2.184871   4.530360
    42  C    3.802269   4.527891   3.259605   1.544438   4.493059
    43  H    4.659686   5.566863   4.252582   2.184675   5.317377
    44  H    3.256854   4.108731   2.592601   2.204590   4.791341
    45  H    4.391935   4.728611   3.471554   2.207894   4.798690
    46  H    8.645669   7.393037   7.023799   8.661015   8.993185
    47  H    9.064352   8.028338   7.425033   8.393974   9.151617
                   31         32         33         34         35
    31  H    0.000000
    32  H    1.771714   0.000000
    33  H    1.770851   1.766867   0.000000
    34  C    3.858861   3.249076   4.520647   0.000000
    35  H    3.326919   2.585868   4.113685   1.096937   0.000000
    36  H    4.730186   4.244477   5.568599   1.099890   1.768795
    37  H    4.420992   3.450327   4.682102   1.095945   1.770300
    38  C    3.246449   3.886783   4.519326   2.512700   2.763811
    39  H    2.563455   3.363947   4.101383   2.777579   2.576424
    40  H    3.497745   4.477651   4.713789   3.489855   3.791299
    41  H    4.228032   4.744524   5.560428   2.747202   3.089905
    42  C    4.791037   4.792926   5.305690   2.512740   3.487178
    43  H    5.503692   5.512132   6.216761   2.748661   3.752073
    44  H    5.003296   5.305166   5.492228   3.488517   4.362596
    45  H    5.310107   5.003589   5.504426   2.780940   3.811719
    46  H    9.940708   9.274226   8.755655   9.104382   9.751483
    47  H   10.126128   9.270028   9.099645   8.598753   9.320211
                   36         37         38         39         40
    36  H    0.000000
    37  H    1.772341   0.000000
    38  C    2.761844   3.485414   0.000000
    39  H    3.127804   3.792026   1.096838   0.000000
    40  H    3.772143   4.362473   1.097110   1.772690   0.000000
    41  H    2.538282   3.765346   1.099840   1.767364   1.766716
    42  C    2.734591   2.790563   2.510104   3.487290   2.777909
    43  H    2.510124   3.135097   2.739773   3.752127   3.102562
    44  H    3.751282   3.809605   2.776265   3.801910   2.593002
    45  H    3.088018   2.610590   3.488592   4.367611   3.804477
    46  H    9.792160   8.338594  10.018998  10.621035  10.003379
    47  H    9.145448   7.725571   9.844632  10.500343   9.982673
                   41         42         43         44         45
    41  H    0.000000
    42  C    2.740477   0.000000
    43  H    2.509255   1.099974   0.000000
    44  H    3.103640   1.096984   1.767541   0.000000
    45  H    3.753080   1.096404   1.766803   1.770803   0.000000
    46  H   10.667231   8.057184   8.851115   7.961854   7.150932
    47  H   10.348075   7.679009   8.315791   7.772733   6.652669
                   46         47
    46  H    0.000000
    47  H    1.839708   0.000000
 Stoichiometry    C14H28O4Si
 Framework group  C1[X(C14H28O4Si)]
 Deg. of freedom   135
 Full point group                 C1      NOp   1
 Largest Abelian subgroup         C1      NOp   1
 Largest concise Abelian subgroup C1      NOp   1
                         Standard orientation:                         
 ---------------------------------------------------------------------
 Center     Atomic      Atomic             Coordinates (Angstroms)
 Number     Number       Type             X           Y           Z
 ---------------------------------------------------------------------
      1          1           0       -0.242437   -0.934285    0.652628
      2          6           0       -0.477493   -0.309894   -0.220426
      3          6           0       -2.612582   -1.631372   -0.480754
      4          6           0       -2.533202    0.434573    1.042790
      5          6           0       -3.377901   -0.494684    0.174042
      6          6           0       -1.265044    0.907228    0.306845
      7          6           0       -1.345719   -1.119894   -1.189709
      8          1           0       -3.272834   -2.146955   -1.186199
      9          1           0       -3.130772    1.321077    1.296095
     10          1           0       -0.638337    1.461123    1.022760
     11          1           0       -0.766895   -1.962819   -1.583240
     12          1           0       -2.330699   -2.354371    0.296781
     13          1           0       -1.617834   -0.477058   -2.033381
     14          8           0       -4.355725    0.164218   -0.647752
     15          6           0       -4.819952   -0.618978    0.456036
     16          8           0       -2.081898   -0.246692    2.217633
     17          1           0       -2.866660   -0.564845    2.690752
     18          8           0       -1.714980    1.767356   -0.724899
     19          6           0       -0.805628    2.775252   -1.136544
     20          1           0       -0.429075    3.346754   -0.273246
     21          1           0       -1.370312    3.451040   -1.785413
     22          1           0        0.046321    2.362826   -1.685670
     23          8           0        0.723046    0.127320   -0.855870
     24         14           0        2.268392   -0.510197   -0.658272
     25          6           0        2.185001   -2.398120   -0.539555
     26          1           0        3.185362   -2.831567   -0.421617
     27          1           0        1.751246   -2.821231   -1.453328
     28          1           0        1.578217   -2.742107    0.305983
     29          6           0        3.107228    0.228442    0.906007
     30          6           0        3.182568   -0.004730   -2.226934
     31          1           0        4.226409   -0.339597   -2.221245
     32          1           0        3.179246    1.082689   -2.360974
     33          1           0        2.695017   -0.445381   -3.104172
     34          6           0        3.117399    1.769303    0.814121
     35          1           0        3.692018    2.124094   -0.050291
     36          1           0        3.577694    2.205204    1.712941
     37          1           0        2.103553    2.176783    0.729430
     38          6           0        4.564333   -0.275902    1.006940
     39          1           0        5.164593    0.018323    0.137358
     40          1           0        4.619698   -1.367760    1.098759
     41          1           0        5.053052    0.147894    1.896433
     42          6           0        2.348990   -0.191927    2.184152
     43          1           0        2.838857    0.229858    3.074135
     44          1           0        2.329539   -1.281291    2.311753
     45          1           0        1.311401    0.162319    2.188749
     46          1           0       -5.341209   -1.540927    0.194366
     47          1           0       -5.274182   -0.050438    1.270691
 ---------------------------------------------------------------------
 Rotational constants (GHZ):      0.6167338      0.1950401      0.1932698
 Standard basis: 6-31+G(d,p) (6D, 7F)
 There are   505 symmetry adapted basis functions of A   symmetry.
 Integral buffers will be    131072 words long.
 Raffenetti 2 integral format.
 Two-electron integral symmetry is turned on.
   505 basis functions,   828 primitive gaussians,   505 cartesian basis functions
    79 alpha electrons       79 beta electrons
       nuclear repulsion energy      1819.7277850806 Hartrees.
 NAtoms=   47 NActive=   47 NUniq=   47 SFac= 1.00D+00 NAtFMM=   60 NAOKFM=F Big=F
 ------------------------------------------------------------------------------
 Polarizable Continuum Model (PCM)
 =================================
 Model                : PCM.
 Atomic radii         : UFF (Universal Force Field).
 Polarization charges : Total charges.
 Charge compensation  : None.
 Solution method      : Matrix inversion.
 Cavity type          : Scaled VdW (van der Waals Surface) (Alpha=1.100).
 Cavity algorithm     : GePol (No added spheres)
                        Default sphere list used, NSphG=   47.
                        Lebedev-Laikov grids with approx.  5.0 points / Ang**2.
                        Smoothing algorithm: Karplus/York (Gamma=1.0000).
                        Polarization charges: spherical gaussians, with
                                              point-specific exponents (IZeta= 3).
                        Self-potential: point-specific (ISelfS= 7).
                        Self-field    : sphere-specific E.n sum rule (ISelfD= 2).
 Solvent              : Chloroform, Eps=   4.711300 Eps(inf)=   2.090627
 ------------------------------------------------------------------------------
 One-electron integrals computed using PRISM.
 NBasis=   505 RedAO= T  NBF=   505
 NBsUse=   505 1.00D-06 NBFU=   505
 Harris functional with IExCor=  908 diagonalized for initial guess.
 ExpMin= 3.31D-02 ExpMax= 1.61D+04 ExpMxC= 2.43D+03 IAcc=3 IRadAn=         5 AccDes= 0.00D+00
 HarFok:  IExCor=  908 AccDes= 0.00D+00 IRadAn=         5 IDoV= 1
 ScaDFX=  1.000000  1.000000  1.000000  1.000000
 FoFCou: FMM=F IPFlag=           0 FMFlag=      100000 FMFlg1=           0
         NFxFlg=           0 DoJE=T BraDBF=F KetDBF=T FulRan=T
         Omega=  0.000000  0.000000  1.000000  0.000000  0.000000 ICntrl=     500 IOpCl=  0
         NMat0=    1 NMatS0=    1 NMatT0=    0 NMatD0=    1 NMtDS0=    0 NMtDT0=    0
         I1Cent=           4 NGrid=           0.
 Petite list used in FoFCou.
 Initial guess orbital symmetries:
       Occupied  (A) (A) (A) (A) (A) (A) (A) (A) (A) (A) (A) (A)
                 (A) (A) (A) (A) (A) (A) (A) (A) (A) (A) (A) (A)
                 (A) (A) (A) (A) (A) (A) (A) (A) (A) (A) (A) (A)
                 (A) (A) (A) (A) (A) (A) (A) (A) (A) (A) (A) (A)
                 (A) (A) (A) (A) (A) (A) (A) (A) (A) (A) (A) (A)
                 (A) (A) (A) (A) (A) (A) (A) (A) (A) (A) (A) (A)
                 (A) (A) (A) (A) (A) (A) (A)
       Virtual   (A) (A) (A) (A) (A) (A) (A) (A) (A) (A) (A) (A)
                 (A) (A) (A) (A) (A) (A) (A) (A) (A) (A) (A) (A)
                 (A) (A) (A) (A) (A) (A) (A) (A) (A) (A) (A) (A)
                 (A) (A) (A) (A) (A) (A) (A) (A) (A) (A) (A) (A)
                 (A) (A) (A) (A) (A) (A) (A) (A) (A) (A) (A) (A)
                 (A) (A) (A) (A) (A) (A) (A) (A) (A) (A) (A) (A)
                 (A) (A) (A) (A) (A) (A) (A) (A) (A) (A) (A) (A)
                 (A) (A) (A) (A) (A) (A) (A) (A) (A) (A) (A) (A)
                 (A) (A) (A) (A) (A) (A) (A) (A) (A) (A) (A) (A)
                 (A) (A) (A) (A) (A) (A) (A) (A) (A) (A) (A) (A)
                 (A) (A) (A) (A) (A) (A) (A) (A) (A) (A) (A) (A)
                 (A) (A) (A) (A) (A) (A) (A) (A) (A) (A) (A) (A)
                 (A) (A) (A) (A) (A) (A) (A) (A) (A) (A) (A) (A)
                 (A) (A) (A) (A) (A) (A) (A) (A) (A) (A) (A) (A)
                 (A) (A) (A) (A) (A) (A) (A) (A) (A) (A) (A) (A)
                 (A) (A) (A) (A) (A) (A) (A) (A) (A) (A) (A) (A)
                 (A) (A) (A) (A) (A) (A) (A) (A) (A) (A) (A) (A)
                 (A) (A) (A) (A) (A) (A) (A) (A) (A) (A) (A) (A)
                 (A) (A) (A) (A) (A) (A) (A) (A) (A) (A) (A) (A)
                 (A) (A) (A) (A) (A) (A) (A) (A) (A) (A) (A) (A)
                 (A) (A) (A) (A) (A) (A) (A) (A) (A) (A) (A) (A)
                 (A) (A) (A) (A) (A) (A) (A) (A) (A) (A) (A) (A)
                 (A) (A) (A) (A) (A) (A) (A) (A) (A) (A) (A) (A)
                 (A) (A) (A) (A) (A) (A) (A) (A) (A) (A) (A) (A)
                 (A) (A) (A) (A) (A) (A) (A) (A) (A) (A) (A) (A)
                 (A) (A) (A) (A) (A) (A) (A) (A) (A) (A) (A) (A)
                 (A) (A) (A) (A) (A) (A) (A) (A) (A) (A) (A) (A)
                 (A) (A) (A) (A) (A) (A) (A) (A) (A) (A) (A) (A)
                 (A) (A) (A) (A) (A) (A) (A) (A) (A) (A) (A) (A)
                 (A) (A) (A) (A) (A) (A) (A) (A) (A) (A) (A) (A)
                 (A) (A) (A) (A) (A) (A) (A) (A) (A) (A) (A) (A)
                 (A) (A) (A) (A) (A) (A) (A) (A) (A) (A) (A) (A)
                 (A) (A) (A) (A) (A) (A) (A) (A) (A) (A) (A) (A)
                 (A) (A) (A) (A) (A) (A) (A) (A) (A) (A) (A) (A)
                 (A) (A) (A) (A) (A) (A) (A) (A) (A) (A) (A) (A)
                 (A) (A) (A) (A) (A) (A)
 The electronic state of the initial guess is 1-A.
 Requested convergence on RMS density matrix=1.00D-08 within 128 cycles.
 Requested convergence on MAX density matrix=1.00D-06.
 Requested convergence on             energy=1.00D-06.
 No special actions if energy rises.
 Error on total polarization charges =  0.01520
 SCF Done:  E(RmPW1PW91) =  -1140.61991042     A.U. after   13 cycles
             Convg  =    0.5406D-08             -V/T =  2.0080
 Range of M.O.s used for correlation:     1   505
 NBasis=   505 NAE=    79 NBE=    79 NFC=     0 NFV=     0
 NROrb=    505 NOA=    79 NOB=    79 NVA=   426 NVB=   426

 **** Warning!!: The largest alpha MO coefficient is  0.96313625D+02

 NEqPCM:  Using equilibrium solvation (IEInf=0, Eps=   4.7113, EpsInf=   2.0906)
          Differentiating once with respect to magnetic field using GIAOs.
          Electric field/nuclear overlap derivatives assumed to be zero.
 FoFCou: FMM=F IPFlag=           0 FMFlag=    10101102 FMFlg1=           0
         NFxFlg=    40000000 DoJE=F BraDBF=F KetDBF=T FulRan=T
         Omega=  0.000000  0.000000  1.000000  0.000000  0.000000 ICntrl=    6100 IOpCl=  0
         NMat0=    1 NMatS0=    1 NMatT0=    0 NMatD0=    1 NMtDS0=    0 NMtDT0=    0
         I1Cent=           7 NGrid=        3036.
 Symmetry not used in FoFCou.
          There are     3 degrees of freedom in the 1st order CPHF.  IDoFFX=0.
      3 vectors produced by pass  0 Test12= 1.12D-12 3.33D-08 XBig12= 1.72D+02 1.90D+00.
 AX will form     3 AO Fock derivatives at one time.
      3 vectors produced by pass  1 Test12= 1.12D-12 3.33D-08 XBig12= 4.38D-01 9.00D-02.
      3 vectors produced by pass  2 Test12= 1.12D-12 3.33D-08 XBig12= 9.15D-04 3.63D-03.
      3 vectors produced by pass  3 Test12= 1.12D-12 3.33D-08 XBig12= 3.79D-06 3.41D-04.
      3 vectors produced by pass  4 Test12= 1.12D-12 3.33D-08 XBig12= 2.01D-08 2.07D-05.
      3 vectors produced by pass  5 Test12= 1.12D-12 3.33D-08 XBig12= 6.66D-11 1.05D-06.
      3 vectors produced by pass  6 Test12= 1.12D-12 3.33D-08 XBig12= 2.04D-13 4.78D-08.
 Inverted reduced A of dimension    21 with in-core refinement.
 Calculating GIAO nuclear magnetic shielding tensors.
 SCF GIAO Magnetic shielding tensor (ppm):
      1  H    Isotropic =    27.1353   Anisotropy =     8.7169
   XX=    32.6791   YX=     0.5754   ZX=    -2.2898
   XY=    -1.0723   YY=    23.1527   ZY=    -1.4124
   XZ=    -0.5159   YZ=    -1.9552   ZZ=    25.5742
   Eigenvalues:    22.2165    26.2429    32.9466
      2  C    Isotropic =   121.5292   Anisotropy =    55.2739
   XX=   140.8554   YX=    11.3195   ZX=   -18.3155
   XY=    26.6246   YY=   113.3389   ZY=    -3.7897
   XZ=   -22.6054   YZ=    -0.4976   ZZ=   110.3933
   Eigenvalues:    96.2446   109.9645   158.3785
      3  C    Isotropic =   165.8945   Anisotropy =    22.4634
   XX=   173.8837   YX=    -4.1526   ZX=    -1.7131
   XY=    -3.6758   YY=   166.0780   ZY=    11.8147
   XZ=    -8.1822   YZ=    14.1059   ZZ=   157.7219
   Eigenvalues:   148.1650   168.6485   180.8701
      4  C    Isotropic =   116.7607   Anisotropy =    31.2730
   XX=   107.5493   YX=    -2.2959   ZX=     9.9039
   XY=    -5.1181   YY=   117.9187   ZY=   -17.6686
   XZ=    11.3822   YZ=    -6.0594   ZZ=   124.8141
   Eigenvalues:   102.1776   110.4951   137.6093
      5  C    Isotropic =   137.7300   Anisotropy =    59.1233
   XX=    90.7336   YX=    -3.2515   ZX=    12.9438
   XY=    -2.9113   YY=   163.0924   ZY=    17.9876
   XZ=    13.9635   YZ=    12.5507   ZZ=   159.3639
   Eigenvalues:    87.7167   148.3277   177.1455
      6  C    Isotropic =   113.4749   Anisotropy =    47.8971
   XX=   100.0648   YX=     0.4086   ZX=     1.0863
   XY=    -6.1213   YY=   112.7658   ZY=   -22.3247
   XZ=    21.2713   YZ=   -20.4814   ZZ=   127.5941
   Eigenvalues:    93.4663   101.5521   145.4063
      7  C    Isotropic =   166.2876   Anisotropy =    30.8782
   XX=   181.3985   YX=    10.7017   ZX=    -7.3247
   XY=    14.6043   YY=   157.5999   ZY=     7.0297
   XZ=     0.9328   YZ=     9.4479   ZZ=   159.8643
   Eigenvalues:   146.3560   165.6336   186.8730
      8  H    Isotropic =    30.5109   Anisotropy =    10.4931
   XX=    32.1124   YX=     3.9665   ZX=     1.7804
   XY=     3.2238   YY=    31.1269   ZY=     5.4724
   XZ=     0.5418   YZ=     4.9299   ZZ=    28.2934
   Eigenvalues:    24.0885    29.9380    37.5063
      9  H    Isotropic =    28.2388   Anisotropy =     4.9286
   XX=    27.2884   YX=    -2.3123   ZX=    -1.1457
   XY=    -0.7803   YY=    29.7819   ZY=     2.3202
   XZ=    -0.3573   YZ=     1.3324   ZZ=    27.6461
   Eigenvalues:    26.4869    26.7049    31.5246
     10  H    Isotropic =    27.8326   Anisotropy =     3.0047
   XX=    28.5320   YX=    -0.1314   ZX=     0.4200
   XY=    -0.3167   YY=    26.6214   ZY=    -0.8331
   XZ=     2.3630   YZ=     1.5905   ZZ=    28.3444
   Eigenvalues:    26.3519    27.3101    29.8357
     11  H    Isotropic =    30.0960   Anisotropy =     8.3569
   XX=    33.1535   YX=    -1.9274   ZX=    -1.3030
   XY=    -1.9508   YY=    30.2654   ZY=     3.9373
   XZ=    -2.3726   YZ=     4.0196   ZZ=    26.8690
   Eigenvalues:    24.2149    30.4057    35.6673
     12  H    Isotropic =    29.2407   Anisotropy =     7.0590
   XX=    28.3023   YX=     0.0016   ZX=    -0.8722
   XY=    -1.3757   YY=    32.8124   ZY=    -3.0605
   XZ=    -0.9750   YZ=    -2.6608   ZZ=    26.6076
   Eigenvalues:    25.1034    28.6721    33.9467
     13  H    Isotropic =    29.1144   Anisotropy =     4.1346
   XX=    28.6350   YX=     0.6205   ZX=     0.9889
   XY=    -0.4028   YY=    27.2327   ZY=    -0.5447
   XZ=     0.4039   YZ=    -1.6354   ZZ=    31.4754
   Eigenvalues:    26.9243    28.5481    31.8707
     14  O    Isotropic =   292.9508   Anisotropy =   133.8341
   XX=   364.1026   YX=   -13.1955   ZX=    22.4557
   XY=    30.0394   YY=   294.9427   ZY=   114.7131
   XZ=   -13.7244   YZ=   113.0641   ZZ=   219.8072
   Eigenvalues:   137.4416   359.2374   382.1735
     15  C    Isotropic =   147.7058   Anisotropy =    43.9429
   XX=   116.2728   YX=    -2.7482   ZX=     4.3739
   XY=    -3.9590   YY=   168.5776   ZY=    11.2540
   XZ=    10.6449   YZ=    13.7982   ZZ=   158.2670
   Eigenvalues:   114.3904   151.7258   177.0011
     16  O    Isotropic =   289.4231   Anisotropy =    71.0244
   XX=   305.7095   YX=    37.8827   ZX=   -28.6300
   XY=    20.1969   YY=   260.9564   ZY=   -23.1376
   XZ=    -4.4719   YZ=   -17.5390   ZZ=   301.6033
   Eigenvalues:   244.2685   287.2280   336.7727
     17  H    Isotropic =    30.5305   Anisotropy =    18.8776
   XX=    34.5154   YX=     3.7652   ZX=    -6.7259
   XY=     4.8830   YY=    23.1139   ZY=    -5.2250
   XZ=    -6.3954   YZ=    -5.3775   ZZ=    33.9623
   Eigenvalues:    20.7185    27.7575    43.1156
     18  O    Isotropic =   313.2943   Anisotropy =    44.3942
   XX=   320.9236   YX=    -4.2062   ZX=    14.8401
   XY=    -2.2067   YY=   298.2914   ZY=   -13.1885
   XZ=    13.3501   YZ=   -30.9283   ZZ=   320.6680
   Eigenvalues:   284.0945   312.8980   342.8905
     19  C    Isotropic =   135.5684   Anisotropy =    85.1212
   XX=   132.2991   YX=    37.3782   ZX=   -13.6229
   XY=    36.9119   YY=   156.4492   ZY=   -20.4809
   XZ=   -12.8372   YZ=   -23.8049   ZZ=   117.9568
   Eigenvalues:   104.3099   110.0795   192.3159
     20  H    Isotropic =    28.2162   Anisotropy =     8.4227
   XX=    28.0063   YX=     2.5182   ZX=     1.4219
   XY=     2.8745   YY=    32.4624   ZY=     2.3024
   XZ=    -0.6320   YZ=    -0.5107   ZZ=    24.1799
   Eigenvalues:    24.0804    26.7368    33.8313
     21  H    Isotropic =    27.8767   Anisotropy =    10.8360
   XX=    25.4015   YX=     1.3654   ZX=    -0.6095
   XY=    -0.9530   YY=    31.8340   ZY=    -5.7386
   XZ=     1.0290   YZ=    -4.9263   ZZ=    26.3946
   Eigenvalues:    23.0928    25.4366    35.1007
     22  H    Isotropic =    27.1902   Anisotropy =     6.9159
   XX=    29.1016   YX=    -1.0614   ZX=    -3.5850
   XY=     1.4507   YY=    28.0553   ZY=    -4.1193
   XZ=    -3.0056   YZ=    -2.4913   ZZ=    24.4137
   Eigenvalues:    21.4303    28.3395    31.8008
     23  O    Isotropic =   277.8728   Anisotropy =    29.5897
   XX=   284.8093   YX=     9.1615   ZX=     2.1006
   XY=    13.9607   YY=   276.7562   ZY=     9.7589
   XZ=     1.2910   YZ=    19.6196   ZZ=   272.0528
   Eigenvalues:   257.9063   278.1129   297.5992
     24  Si   Isotropic =   380.3688   Anisotropy =    29.9535
   XX=   396.2280   YX=   -16.6050   ZX=     2.0472
   XY=    -4.8019   YY=   370.0888   ZY=    -5.2882
   XZ=     0.9660   YZ=    -2.2693   ZZ=   374.7897
   Eigenvalues:   365.2656   375.5031   400.3379
     25  C    Isotropic =   201.0495   Anisotropy =     7.9276
   XX=   204.2954   YX=     0.6362   ZX=     2.7640
   XY=     2.0738   YY=   202.2589   ZY=    -0.8025
   XZ=     4.9619   YZ=     1.2160   ZZ=   196.5943
   Eigenvalues:   194.9755   201.8386   206.3346
     26  H    Isotropic =    31.5821   Anisotropy =    10.7590
   XX=    35.4458   YX=    -4.7613   ZX=     1.5296
   XY=    -4.2206   YY=    32.3792   ZY=     0.4346
   XZ=     1.6056   YZ=     0.2949   ZZ=    26.9211
   Eigenvalues:    26.3170    29.6744    38.7547
     27  H    Isotropic =    31.5638   Anisotropy =     9.7676
   XX=    29.9374   YX=     1.1027   ZX=     2.9376
   XY=     1.4848   YY=    31.6867   ZY=     4.7706
   XZ=     2.5196   YZ=     4.4237   ZZ=    33.0674
   Eigenvalues:    27.3535    29.2624    38.0756
     28  H    Isotropic =    31.0501   Anisotropy =     7.4937
   XX=    30.5704   YX=     1.4266   ZX=    -3.4398
   XY=     1.6948   YY=    31.3429   ZY=    -2.8404
   XZ=    -3.3284   YZ=    -2.0338   ZZ=    31.2369
   Eigenvalues:    27.4190    29.6853    36.0459
     29  C    Isotropic =   171.7866   Anisotropy =     7.8202
   XX=   175.6007   YX=    -2.1322   ZX=    -0.5723
   XY=    -3.3872   YY=   171.0072   ZY=     2.1729
   XZ=    -0.4161   YZ=     0.0944   ZZ=   168.7519
   Eigenvalues:   168.2092   170.1506   177.0001
     30  C    Isotropic =   199.0790   Anisotropy =     7.8911
   XX=   202.9778   YX=     0.3433   ZX=    -0.5986
   XY=     0.0836   YY=   194.6638   ZY=    -3.0230
   XZ=    -3.4045   YZ=    -4.6887   ZZ=   199.5954
   Eigenvalues:   192.4935   200.4038   204.3398
     31  H    Isotropic =    31.6171   Anisotropy =    10.7352
   XX=    37.7286   YX=    -2.3532   ZX=    -2.3387
   XY=    -2.2798   YY=    26.9849   ZY=     0.3465
   XZ=    -2.0676   YZ=     0.1977   ZZ=    30.1377
   Eigenvalues:    26.4968    29.5806    38.7739
     32  H    Isotropic =    31.2699   Anisotropy =     8.6554
   XX=    27.6251   YX=     1.1140   ZX=    -1.4563
   XY=     0.9944   YY=    35.7270   ZY=    -2.2453
   XZ=    -1.3462   YZ=    -2.9612   ZZ=    30.4577
   Eigenvalues:    27.0491    29.7205    37.0402
     33  H    Isotropic =    31.4958   Anisotropy =     9.9314
   XX=    29.4990   YX=     1.6914   ZX=     1.6209
   XY=     1.4949   YY=    28.1051   ZY=     2.4762
   XZ=     1.8355   YZ=     2.7558   ZZ=    36.8834
   Eigenvalues:    26.8641    29.5067    38.1168
     34  C    Isotropic =   170.4884   Anisotropy =    36.9602
   XX=   157.2821   YX=     0.6727   ZX=     0.6828
   XY=    -2.2386   YY=   194.5905   ZY=    -6.8430
   XZ=     1.5221   YZ=    -1.7204   ZZ=   159.5927
   Eigenvalues:   156.8171   159.5196   195.1286
     35  H    Isotropic =    30.4857   Anisotropy =     8.6300
   XX=    28.3241   YX=     2.9911   ZX=    -1.9678
   XY=     3.6924   YY=    32.1707   ZY=    -3.3614
   XZ=    -2.1404   YZ=    -2.0050   ZZ=    30.9622
   Eigenvalues:    26.3323    28.8858    36.2390
     36  H    Isotropic =    30.9644   Anisotropy =     9.2670
   XX=    28.9811   YX=     2.2314   ZX=     2.3491
   XY=     2.6231   YY=    33.0433   ZY=     4.0505
   XZ=     2.1813   YZ=     3.3345   ZZ=    30.8689
   Eigenvalues:    27.4705    28.2804    37.1424
     37  H    Isotropic =    30.1090   Anisotropy =     8.7488
   XX=    32.9654   YX=    -2.4355   ZX=     2.2201
   XY=    -4.0465   YY=    32.0310   ZY=     0.3532
   XZ=     1.9365   YZ=     0.4357   ZZ=    25.3307
   Eigenvalues:    24.5837    29.8019    35.9416
     38  C    Isotropic =   169.6024   Anisotropy =    40.5193
   XX=   191.7278   YX=   -14.3570   ZX=    -1.2662
   XY=   -12.2988   YY=   160.2462   ZY=     1.3175
   XZ=     2.4394   YZ=    -0.0560   ZZ=   156.8330
   Eigenvalues:   155.0144   157.1775   196.6152
     39  H    Isotropic =    30.7499   Anisotropy =     9.2487
   XX=    35.4231   YX=     0.7167   ZX=    -3.6150
   XY=    -0.2258   YY=    25.8016   ZY=     0.0853
   XZ=    -2.2932   YZ=    -0.5076   ZZ=    31.0251
   Eigenvalues:    25.7910    29.5430    36.9157
     40  H    Isotropic =    30.7072   Anisotropy =     8.9275
   XX=    31.2917   YX=    -4.3300   ZX=     2.1666
   XY=    -2.6831   YY=    34.1319   ZY=    -0.1935
   XZ=     1.8538   YZ=    -0.1281   ZZ=    26.6979
   Eigenvalues:    25.7646    29.6981    36.6588
     41  H    Isotropic =    30.9548   Anisotropy =    10.0125
   XX=    33.9954   YX=     0.9350   ZX=     5.1795
   XY=     0.1869   YY=    27.6105   ZY=     1.1970
   XZ=     4.1156   YZ=     1.4918   ZZ=    31.2585
   Eigenvalues:    26.8645    28.3702    37.6298
     42  C    Isotropic =   169.8919   Anisotropy =    37.4406
   XX=   168.6118   YX=     7.1758   ZX=   -13.3925
   XY=     7.6763   YY=   159.1282   ZY=    -6.9387
   XZ=   -16.0621   YZ=    -9.7360   ZZ=   181.9357
   Eigenvalues:   155.0539   159.7694   194.8523
     43  H    Isotropic =    30.9139   Anisotropy =     9.1364
   XX=    28.8386   YX=     0.8067   ZX=     1.0939
   XY=     0.6998   YY=    27.4143   ZY=     1.1657
   XZ=     1.8091   YZ=     1.7014   ZZ=    36.4888
   Eigenvalues:    27.0191    28.7178    37.0049
     44  H    Isotropic =    30.4331   Anisotropy =     7.4785
   XX=    27.4570   YX=     2.2310   ZX=    -0.2682
   XY=     1.3574   YY=    33.1872   ZY=    -2.0702
   XZ=    -0.4916   YZ=    -3.6480   ZZ=    30.6551
   Eigenvalues:    26.8721    29.0084    35.4188
     45  H    Isotropic =    30.2621   Anisotropy =     9.9619
   XX=    36.6426   YX=    -1.1445   ZX=    -0.6156
   XY=    -0.8385   YY=    24.7265   ZY=     0.0694
   XZ=    -1.6528   YZ=     0.5712   ZZ=    29.4172
   Eigenvalues:    24.6336    29.2493    36.9034
     46  H    Isotropic =    29.2222   Anisotropy =    11.1670
   XX=    29.9999   YX=     3.5357   ZX=    -2.0510
   XY=     7.3833   YY=    32.1408   ZY=     0.6045
   XZ=     0.3007   YZ=     2.3922   ZZ=    25.5259
   Eigenvalues:    23.8744    27.1253    36.6669
     47  H    Isotropic =    29.1790   Anisotropy =    10.7707
   XX=    29.6336   YX=     0.8901   ZX=    -3.5825
   XY=    -2.6978   YY=    26.8072   ZY=     3.8213
   XZ=    -6.3934   YZ=     2.5196   ZZ=    31.0963
   Eigenvalues:    24.2349    26.9426    36.3595
 End of Minotr Frequency-dependent properties file   721 does not exist.
 End of Minotr Frequency-dependent properties file   722 does not exist.

 **********************************************************************

            Population analysis using the SCF density.

 **********************************************************************

 Orbital symmetries:
       Occupied  (A) (A) (A) (A) (A) (A) (A) (A) (A) (A) (A) (A)
                 (A) (A) (A) (A) (A) (A) (A) (A) (A) (A) (A) (A)
                 (A) (A) (A) (A) (A) (A) (A) (A) (A) (A) (A) (A)
                 (A) (A) (A) (A) (A) (A) (A) (A) (A) (A) (A) (A)
                 (A) (A) (A) (A) (A) (A) (A) (A) (A) (A) (A) (A)
                 (A) (A) (A) (A) (A) (A) (A) (A) (A) (A) (A) (A)
                 (A) (A) (A) (A) (A) (A) (A)
       Virtual   (A) (A) (A) (A) (A) (A) (A) (A) (A) (A) (A) (A)
                 (A) (A) (A) (A) (A) (A) (A) (A) (A) (A) (A) (A)
                 (A) (A) (A) (A) (A) (A) (A) (A) (A) (A) (A) (A)
                 (A) (A) (A) (A) (A) (A) (A) (A) (A) (A) (A) (A)
                 (A) (A) (A) (A) (A) (A) (A) (A) (A) (A) (A) (A)
                 (A) (A) (A) (A) (A) (A) (A) (A) (A) (A) (A) (A)
                 (A) (A) (A) (A) (A) (A) (A) (A) (A) (A) (A) (A)
                 (A) (A) (A) (A) (A) (A) (A) (A) (A) (A) (A) (A)
                 (A) (A) (A) (A) (A) (A) (A) (A) (A) (A) (A) (A)
                 (A) (A) (A) (A) (A) (A) (A) (A) (A) (A) (A) (A)
                 (A) (A) (A) (A) (A) (A) (A) (A) (A) (A) (A) (A)
                 (A) (A) (A) (A) (A) (A) (A) (A) (A) (A) (A) (A)
                 (A) (A) (A) (A) (A) (A) (A) (A) (A) (A) (A) (A)
                 (A) (A) (A) (A) (A) (A) (A) (A) (A) (A) (A) (A)
                 (A) (A) (A) (A) (A) (A) (A) (A) (A) (A) (A) (A)
                 (A) (A) (A) (A) (A) (A) (A) (A) (A) (A) (A) (A)
                 (A) (A) (A) (A) (A) (A) (A) (A) (A) (A) (A) (A)
                 (A) (A) (A) (A) (A) (A) (A) (A) (A) (A) (A) (A)
                 (A) (A) (A) (A) (A) (A) (A) (A) (A) (A) (A) (A)
                 (A) (A) (A) (A) (A) (A) (A) (A) (A) (A) (A) (A)
                 (A) (A) (A) (A) (A) (A) (A) (A) (A) (A) (A) (A)
                 (A) (A) (A) (A) (A) (A) (A) (A) (A) (A) (A) (A)
                 (A) (A) (A) (A) (A) (A) (A) (A) (A) (A) (A) (A)
                 (A) (A) (A) (A) (A) (A) (A) (A) (A) (A) (A) (A)
                 (A) (A) (A) (A) (A) (A) (A) (A) (A) (A) (A) (A)
                 (A) (A) (A) (A) (A) (A) (A) (A) (A) (A) (A) (A)
                 (A) (A) (A) (A) (A) (A) (A) (A) (A) (A) (A) (A)
                 (A) (A) (A) (A) (A) (A) (A) (A) (A) (A) (A) (A)
                 (A) (A) (A) (A) (A) (A) (A) (A) (A) (A) (A) (A)
                 (A) (A) (A) (A) (A) (A) (A) (A) (A) (A) (A) (A)
                 (A) (A) (A) (A) (A) (A) (A) (A) (A) (A) (A) (A)
                 (A) (A) (A) (A) (A) (A) (A) (A) (A) (A) (A) (A)
                 (A) (A) (A) (A) (A) (A) (A) (A) (A) (A) (A) (A)
                 (A) (A) (A) (A) (A) (A) (A) (A) (A) (A) (A) (A)
                 (A) (A) (A) (A) (A) (A) (A) (A) (A) (A) (A) (A)
                 (A) (A) (A) (A) (A) (A)
 The electronic state is 1-A.
 Alpha  occ. eigenvalues --  -66.30345 -19.26526 -19.26343 -19.25003 -19.23287
 Alpha  occ. eigenvalues --  -10.31597 -10.31061 -10.30317 -10.30221 -10.30198
 Alpha  occ. eigenvalues --  -10.28042 -10.25370 -10.24750 -10.24333 -10.23625
 Alpha  occ. eigenvalues --  -10.23504 -10.23360 -10.22500 -10.22253  -5.33746
 Alpha  occ. eigenvalues --   -3.67654  -3.67389  -3.67334  -1.11384  -1.07405
 Alpha  occ. eigenvalues --   -1.06259  -1.02828  -0.84275  -0.82227  -0.77822
 Alpha  occ. eigenvalues --   -0.74742  -0.72185  -0.70560  -0.70201  -0.69641
 Alpha  occ. eigenvalues --   -0.69463  -0.68669  -0.64701  -0.62231  -0.57410
 Alpha  occ. eigenvalues --   -0.57161  -0.54006  -0.53610  -0.52751  -0.50290
 Alpha  occ. eigenvalues --   -0.48501  -0.48006  -0.47676  -0.46363  -0.45051
 Alpha  occ. eigenvalues --   -0.44665  -0.44386  -0.43720  -0.43143  -0.43028
 Alpha  occ. eigenvalues --   -0.41810  -0.41292  -0.40851  -0.40152  -0.40130
 Alpha  occ. eigenvalues --   -0.39895  -0.39161  -0.38879  -0.38591  -0.37925
 Alpha  occ. eigenvalues --   -0.37257  -0.35842  -0.35702  -0.35013  -0.33852
 Alpha  occ. eigenvalues --   -0.33450  -0.32548  -0.31689  -0.31087  -0.30746
 Alpha  occ. eigenvalues --   -0.30069  -0.28272  -0.26746  -0.25798
 Alpha virt. eigenvalues --   -0.00239   0.00518   0.01220   0.01693   0.02140
 Alpha virt. eigenvalues --    0.02986   0.03150   0.03847   0.04146   0.04740
 Alpha virt. eigenvalues --    0.04908   0.05219   0.05369   0.06137   0.06471
 Alpha virt. eigenvalues --    0.06961   0.07105   0.07362   0.07692   0.08151
 Alpha virt. eigenvalues --    0.08534   0.08638   0.09171   0.09416   0.09769
 Alpha virt. eigenvalues --    0.10252   0.10271   0.10585   0.10985   0.11258
 Alpha virt. eigenvalues --    0.11625   0.12267   0.12421   0.12598   0.13032
 Alpha virt. eigenvalues --    0.13212   0.13755   0.13976   0.14512   0.14846
 Alpha virt. eigenvalues --    0.14965   0.15401   0.15698   0.16105   0.16163
 Alpha virt. eigenvalues --    0.16744   0.17093   0.17174   0.17872   0.18402
 Alpha virt. eigenvalues --    0.18686   0.18848   0.19425   0.19617   0.19749
 Alpha virt. eigenvalues --    0.20335   0.20600   0.20687   0.20950   0.21322
 Alpha virt. eigenvalues --    0.21541   0.22137   0.22491   0.22745   0.22930
 Alpha virt. eigenvalues --    0.23288   0.23513   0.23808   0.24124   0.24626
 Alpha virt. eigenvalues --    0.24891   0.25303   0.25539   0.25972   0.26237
 Alpha virt. eigenvalues --    0.26699   0.27003   0.27586   0.27843   0.28067
 Alpha virt. eigenvalues --    0.28420   0.28636   0.29165   0.29655   0.29893
 Alpha virt. eigenvalues --    0.30196   0.30378   0.30598   0.30867   0.31412
 Alpha virt. eigenvalues --    0.31650   0.31907   0.32579   0.33227   0.34025
 Alpha virt. eigenvalues --    0.34636   0.34851   0.35322   0.35563   0.36150
 Alpha virt. eigenvalues --    0.36496   0.37443   0.37729   0.38672   0.39424
 Alpha virt. eigenvalues --    0.39511   0.39895   0.40500   0.40967   0.41442
 Alpha virt. eigenvalues --    0.42178   0.42800   0.43298   0.44541   0.44979
 Alpha virt. eigenvalues --    0.45463   0.45922   0.46822   0.47603   0.49484
 Alpha virt. eigenvalues --    0.49695   0.52389   0.53390   0.54245   0.54993
 Alpha virt. eigenvalues --    0.56638   0.57913   0.62303   0.65311   0.66802
 Alpha virt. eigenvalues --    0.67411   0.67990   0.70025   0.70499   0.71430
 Alpha virt. eigenvalues --    0.72392   0.73490   0.73995   0.74111   0.74572
 Alpha virt. eigenvalues --    0.75024   0.77048   0.77412   0.78448   0.78986
 Alpha virt. eigenvalues --    0.79742   0.80131   0.80956   0.81809   0.82239
 Alpha virt. eigenvalues --    0.83532   0.84051   0.84530   0.85057   0.85497
 Alpha virt. eigenvalues --    0.86046   0.86803   0.88903   0.89092   0.89735
 Alpha virt. eigenvalues --    0.90493   0.92067   0.92433   0.92896   0.93731
 Alpha virt. eigenvalues --    0.94469   0.94752   0.95758   0.97522   0.98733
 Alpha virt. eigenvalues --    0.98997   0.99434   1.00715   1.01698   1.02256
 Alpha virt. eigenvalues --    1.03199   1.03441   1.03969   1.04526   1.05153
 Alpha virt. eigenvalues --    1.05704   1.06696   1.06952   1.07175   1.07889
 Alpha virt. eigenvalues --    1.09774   1.10101   1.10462   1.11375   1.12648
 Alpha virt. eigenvalues --    1.13565   1.14069   1.15497   1.17427   1.18016
 Alpha virt. eigenvalues --    1.18944   1.19738   1.20230   1.20637   1.21427
 Alpha virt. eigenvalues --    1.22599   1.23809   1.24794   1.27165   1.27906
 Alpha virt. eigenvalues --    1.28614   1.29140   1.29952   1.31631   1.32077
 Alpha virt. eigenvalues --    1.33837   1.34704   1.35761   1.36156   1.37575
 Alpha virt. eigenvalues --    1.38670   1.39958   1.40622   1.43265   1.43761
 Alpha virt. eigenvalues --    1.46276   1.47181   1.48384   1.49101   1.49705
 Alpha virt. eigenvalues --    1.50753   1.51097   1.51637   1.53694   1.54810
 Alpha virt. eigenvalues --    1.57713   1.59039   1.61032   1.62007   1.62173
 Alpha virt. eigenvalues --    1.63494   1.64536   1.65278   1.66510   1.68591
 Alpha virt. eigenvalues --    1.69803   1.70990   1.74012   1.74389   1.75692
 Alpha virt. eigenvalues --    1.77496   1.78955   1.79989   1.80285   1.82510
 Alpha virt. eigenvalues --    1.83072   1.83618   1.85487   1.86569   1.87957
 Alpha virt. eigenvalues --    1.90044   1.90261   1.91245   1.91945   1.92631
 Alpha virt. eigenvalues --    1.94133   1.95347   1.95683   1.96041   1.97361
 Alpha virt. eigenvalues --    1.98023   1.98615   1.98764   2.01002   2.02066
 Alpha virt. eigenvalues --    2.03682   2.04423   2.06068   2.06269   2.06952
 Alpha virt. eigenvalues --    2.07042   2.07240   2.07353   2.08959   2.09837
 Alpha virt. eigenvalues --    2.10683   2.11054   2.12038   2.12266   2.12789
 Alpha virt. eigenvalues --    2.12968   2.14336   2.14454   2.15321   2.16012
 Alpha virt. eigenvalues --    2.16263   2.16711   2.17250   2.18284   2.18557
 Alpha virt. eigenvalues --    2.18852   2.19202   2.19942   2.21181   2.21611
 Alpha virt. eigenvalues --    2.22059   2.22772   2.24530   2.25658   2.26664
 Alpha virt. eigenvalues --    2.28271   2.28868   2.30217   2.31696   2.34697
 Alpha virt. eigenvalues --    2.36605   2.37881   2.38323   2.38859   2.39200
 Alpha virt. eigenvalues --    2.40124   2.41906   2.42871   2.43664   2.44344
 Alpha virt. eigenvalues --    2.45704   2.47395   2.48074   2.50106   2.51627
 Alpha virt. eigenvalues --    2.53645   2.56305   2.57432   2.57933   2.58801
 Alpha virt. eigenvalues --    2.59898   2.60805   2.63512   2.64418   2.66946
 Alpha virt. eigenvalues --    2.67841   2.68172   2.68245   2.69587   2.71419
 Alpha virt. eigenvalues --    2.72055   2.72870   2.73836   2.74495   2.74929
 Alpha virt. eigenvalues --    2.76590   2.77110   2.77889   2.78925   2.79430
 Alpha virt. eigenvalues --    2.81451   2.81918   2.83334   2.83898   2.85487
 Alpha virt. eigenvalues --    2.85515   2.86531   2.86858   2.87849   2.88248
 Alpha virt. eigenvalues --    2.88268   2.89058   2.89265   2.90841   2.91548
 Alpha virt. eigenvalues --    2.92172   2.93189   2.94539   2.97386   2.97990
 Alpha virt. eigenvalues --    2.98142   2.98851   3.00804   3.03133   3.05104
 Alpha virt. eigenvalues --    3.11774   3.13795   3.19191   3.25972   3.27601
 Alpha virt. eigenvalues --    3.27948   3.28438   3.30467   3.30991   3.32085
 Alpha virt. eigenvalues --    3.32362   3.35815   3.39062   3.39793   3.47334
 Alpha virt. eigenvalues --    3.47595   3.48325   3.48527   3.49353   3.49487
 Alpha virt. eigenvalues --    3.49587   3.50430   3.50745   3.51260   3.51793
 Alpha virt. eigenvalues --    3.51915   3.53125   3.56196   3.56497   3.57284
 Alpha virt. eigenvalues --    3.57459   3.60959   3.63772   4.35871   4.44752
 Alpha virt. eigenvalues --    4.46598   4.49900   4.53508   4.55733   4.58009
 Alpha virt. eigenvalues --    4.59298   4.63702   4.64705   4.66845   4.70477
 Alpha virt. eigenvalues --    4.72535   4.74227   4.77706   4.86868   4.96975
 Alpha virt. eigenvalues --    5.06676
          Condensed to atoms (all electrons):
              1          2          3          4          5          6
     1  H    0.591113   0.285669  -0.026192   0.017884   0.014576   0.038830
     2  C    0.285669  12.510253   0.347294  -0.241899   0.050344  -4.109882
     3  C   -0.026192   0.347294   8.574584  -2.107430  -0.517405   0.196110
     4  C    0.017884  -0.241899  -2.107430  11.997428  -2.762668  -1.981905
     5  C    0.014576   0.050344  -0.517405  -2.762668  12.126024   0.221604
     6  C    0.038830  -4.109882   0.196110  -1.981905   0.221604  12.415297
     7  C   -0.063111  -1.095697  -0.299066   0.897984  -0.458138  -1.405907
     8  H    0.000008   0.059078   0.388075   0.032459  -0.044029   0.000649
     9  H   -0.000138   0.024503   0.035370   0.125834   0.040405   0.111610
    10  H   -0.001643   0.085506  -0.028745   0.099106   0.033246   0.108442
    11  H   -0.005201  -0.047770   0.013531  -0.017098   0.018188   0.068027
    12  H    0.002890  -0.036475   0.344987   0.040855  -0.061140   0.019162
    13  H    0.004733  -0.118876  -0.068946   0.002313   0.016689  -0.008478
    14  O   -0.000042  -0.007097  -0.125999  -0.118109   0.248273   0.018473
    15  C   -0.002015  -0.601385  -0.046046  -0.103764  -2.807616   0.306118
    16  O   -0.000948   0.030328   0.032707  -0.146191   0.066570   0.086103
    17  H    0.000005  -0.028487  -0.016277   0.066619   0.011045   0.021136
    18  O    0.010928  -0.165382  -0.096607  -0.043355   0.130782   0.268243
    19  C    0.002268  -0.162271  -0.070340   0.096732  -0.066950  -0.151716
    20  H    0.000035   0.011096  -0.004567   0.030127  -0.008221  -0.048243
    21  H    0.000009  -0.010436   0.001859  -0.009284  -0.000536   0.027032
    22  H   -0.000187   0.030879   0.004532  -0.009738   0.005869  -0.003643
    23  O   -0.064334   0.112069  -0.007067   0.106769  -0.010107  -0.135759
    24  Si   0.058692  -0.548205  -0.117633  -0.082961   0.100110   0.319891
    25  C   -0.010989   0.043883   0.027686   0.024475  -0.026368  -0.094711
    26  H   -0.000010   0.007415   0.000175  -0.000029  -0.000127  -0.000781
    27  H   -0.000077  -0.025420   0.001211   0.000812  -0.000555   0.001690
    28  H    0.000733  -0.019319   0.001021   0.002771  -0.000186  -0.005896
    29  C   -0.016892   0.069418  -0.024256  -0.031540   0.021754  -0.068390
    30  C    0.000822  -0.061175  -0.005552   0.003256  -0.001814  -0.039880
    31  H    0.000002   0.006154   0.000055  -0.000019  -0.000004   0.000110
    32  H   -0.000003   0.000574  -0.000034  -0.000203   0.000134   0.002019
    33  H   -0.000005  -0.013639   0.000196   0.000175  -0.000155   0.000435
    34  C   -0.003355   0.095197   0.018350  -0.025895  -0.013453   0.070096
    35  H    0.000001  -0.004678  -0.000009   0.000490   0.000025   0.003623
    36  H    0.000002   0.001318   0.000040   0.000718  -0.000040   0.000993
    37  H    0.000032   0.000408  -0.000356  -0.002847  -0.000336  -0.010521
    38  C    0.000587  -0.019137  -0.013067   0.015554  -0.001390  -0.064427
    39  H    0.000000   0.000184   0.000000  -0.000001  -0.000003  -0.000109
    40  H    0.000000   0.000361  -0.000022   0.000061  -0.000013  -0.000447
    41  H    0.000001  -0.000693   0.000018   0.000054  -0.000003   0.000262
    42  C    0.006074  -0.091746   0.022553   0.086814  -0.025042  -0.015315
    43  H    0.000048  -0.004478   0.000201   0.000882  -0.000005   0.007084
    44  H   -0.000065   0.007539  -0.000249  -0.001325   0.000283  -0.002856
    45  H    0.001631   0.006532  -0.001235   0.000835   0.000728  -0.023164
    46  H    0.000000   0.006631   0.068441  -0.029882  -0.133290  -0.009378
    47  H   -0.000002  -0.005020  -0.020618   0.096197  -0.110891   0.015214
              7          8          9         10         11         12
     1  H   -0.063111   0.000008  -0.000138  -0.001643  -0.005201   0.002890
     2  C   -1.095697   0.059078   0.024503   0.085506  -0.047770  -0.036475
     3  C   -0.299066   0.388075   0.035370  -0.028745   0.013531   0.344987
     4  C    0.897984   0.032459   0.125834   0.099106  -0.017098   0.040855
     5  C   -0.458138  -0.044029   0.040405   0.033246   0.018188  -0.061140
     6  C   -1.405907   0.000649   0.111610   0.108442   0.068027   0.019162
     7  C    7.983653  -0.041817  -0.031305  -0.013087   0.306705  -0.016155
     8  H   -0.041817   0.523976  -0.000107   0.000013  -0.002254  -0.022202
     9  H   -0.031305  -0.000107   0.571561  -0.006434   0.000014  -0.000123
    10  H   -0.013087   0.000013  -0.006434   0.599068  -0.000147  -0.000011
    11  H    0.306705  -0.002254   0.000014  -0.000147   0.544305  -0.004365
    12  H   -0.016155  -0.022202  -0.000123  -0.000011  -0.004365   0.527569
    13  H    0.474285  -0.003189  -0.000071   0.000046  -0.026478   0.004263
    14  O    0.035660   0.000293   0.006131  -0.000866   0.000029   0.010461
    15  C   -0.092613  -0.065313  -0.000652   0.004054   0.003082   0.002264
    16  O   -0.048189   0.000499  -0.026222   0.000469   0.000363   0.001971
    17  H    0.019187  -0.000017  -0.007822   0.000130  -0.000006   0.000187
    18  O   -0.009504   0.000791  -0.006568  -0.043590  -0.001470   0.000840
    19  C    0.081861  -0.000359   0.001081  -0.005571  -0.000686   0.000777
    20  H   -0.007222   0.000000  -0.000068   0.010667   0.000000   0.000000
    21  H   -0.000526   0.000000  -0.000034   0.000117  -0.000001   0.000000
    22  H    0.008562   0.000000  -0.000001  -0.001901  -0.000002   0.000000
    23  O   -0.007223  -0.000638  -0.000924   0.006465  -0.002039   0.000146
    24  Si  -0.199036  -0.000036   0.002177   0.001323  -0.011398   0.000931
    25  C    0.031801  -0.000041  -0.000018  -0.000328   0.001915  -0.000717
    26  H   -0.000744   0.000000   0.000000   0.000000   0.000030   0.000000
    27  H    0.017445  -0.000001   0.000000  -0.000001   0.000160  -0.000003
    28  H    0.013826   0.000000   0.000000   0.000003  -0.000097  -0.000005
    29  C    0.024386   0.000093   0.000030   0.013064   0.001333   0.000404
    30  C    0.050639  -0.000010  -0.000052   0.000026  -0.001481   0.000015
    31  H   -0.001630   0.000000   0.000000   0.000000   0.000001   0.000000
    32  H   -0.000300   0.000000   0.000000   0.000001   0.000001   0.000000
    33  H    0.006350   0.000000   0.000000   0.000000  -0.000006   0.000000
    34  C    0.008854  -0.000004  -0.000095  -0.011121   0.000413  -0.000047
    35  H   -0.000217   0.000000   0.000000   0.000002   0.000000   0.000000
    36  H    0.000728   0.000000   0.000000  -0.000014   0.000000   0.000000
    37  H   -0.001684   0.000000   0.000000   0.001308   0.000000   0.000000
    38  C    0.009851   0.000011  -0.000036   0.002953  -0.000589   0.000049
    39  H   -0.000128   0.000000   0.000000   0.000000   0.000000   0.000000
    40  H   -0.000136   0.000000   0.000000   0.000000   0.000000   0.000000
    41  H    0.000199   0.000000   0.000000   0.000000   0.000000   0.000000
    42  C    0.011600   0.000017  -0.000522   0.004799  -0.001352  -0.000427
    43  H    0.000110   0.000000   0.000000  -0.000041   0.000000   0.000000
    44  H    0.002648   0.000000   0.000000  -0.000002   0.000001   0.000000
    45  H   -0.002591   0.000000  -0.000002   0.002545  -0.000003   0.000002
    46  H   -0.001050   0.000367   0.000108   0.000001  -0.000001  -0.000377
    47  H   -0.000993   0.000053   0.001076  -0.000001   0.000001   0.000272
             13         14         15         16         17         18
     1  H    0.004733  -0.000042  -0.002015  -0.000948   0.000005   0.010928
     2  C   -0.118876  -0.007097  -0.601385   0.030328  -0.028487  -0.165382
     3  C   -0.068946  -0.125999  -0.046046   0.032707  -0.016277  -0.096607
     4  C    0.002313  -0.118109  -0.103764  -0.146191   0.066619  -0.043355
     5  C    0.016689   0.248273  -2.807616   0.066570   0.011045   0.130782
     6  C   -0.008478   0.018473   0.306118   0.086103   0.021136   0.268243
     7  C    0.474285   0.035660  -0.092613  -0.048189   0.019187  -0.009504
     8  H   -0.003189   0.000293  -0.065313   0.000499  -0.000017   0.000791
     9  H   -0.000071   0.006131  -0.000652  -0.026222  -0.007822  -0.006568
    10  H    0.000046  -0.000866   0.004054   0.000469   0.000130  -0.043590
    11  H   -0.026478   0.000029   0.003082   0.000363  -0.000006  -0.001470
    12  H    0.004263   0.010461   0.002264   0.001971   0.000187   0.000840
    13  H    0.502508   0.003330   0.000011   0.000363   0.000001   0.011168
    14  O    0.003330   8.238134   0.082462   0.012328  -0.000557  -0.013031
    15  C    0.000011   0.082462   8.504904  -0.038020  -0.041860   0.017042
    16  O    0.000363   0.012328  -0.038020   8.302633   0.203792   0.019938
    17  H    0.000001  -0.000557  -0.041860   0.203792   0.387159  -0.000662
    18  O    0.011168  -0.013031   0.017042   0.019938  -0.000662   8.275288
    19  C    0.007621  -0.003536   0.012616  -0.000948  -0.000560   0.002750
    20  H   -0.000005  -0.000086   0.000107  -0.000412   0.000001  -0.050127
    21  H    0.000026  -0.000153  -0.002099   0.000068   0.000000  -0.079979
    22  H   -0.000069  -0.000051   0.000027   0.000112   0.000000  -0.052358
    23  O    0.003481  -0.000024   0.006144  -0.001705   0.000168   0.039756
    24  Si   0.003348   0.000596  -0.002889   0.014520  -0.001368  -0.000002
    25  C   -0.001170  -0.000002  -0.001903  -0.002337  -0.000048  -0.001745
    26  H    0.000000   0.000000   0.000005   0.000002   0.000000   0.000003
    27  H   -0.000001   0.000000  -0.000030  -0.000010   0.000000  -0.000024
    28  H    0.000004   0.000000   0.000116  -0.000132   0.000000  -0.000003
    29  C   -0.000257  -0.000202  -0.004778  -0.003232   0.000343  -0.002130
    30  C    0.001070   0.000007  -0.000358  -0.000248   0.000012   0.001464
    31  H    0.000000   0.000000   0.000000   0.000000   0.000000   0.000004
    32  H   -0.000001   0.000000   0.000002   0.000000   0.000000  -0.000011
    33  H   -0.000010   0.000000  -0.000006   0.000000   0.000000  -0.000043
    34  C   -0.000305   0.000032  -0.000321  -0.001632   0.000017  -0.000696
    35  H    0.000000   0.000000   0.000003   0.000001   0.000000  -0.000023
    36  H    0.000000   0.000000   0.000000  -0.000009   0.000000  -0.000018
    37  H    0.000000   0.000000  -0.000060  -0.000003   0.000000   0.000382
    38  C    0.000068  -0.000006  -0.000618  -0.000408   0.000048  -0.000425
    39  H    0.000000   0.000000   0.000000   0.000000   0.000000   0.000000
    40  H    0.000000   0.000000   0.000000   0.000001   0.000000   0.000000
    41  H    0.000000   0.000000   0.000000   0.000000   0.000000   0.000000
    42  C   -0.000291   0.000126   0.000348   0.000307  -0.000046   0.001107
    43  H    0.000000   0.000000   0.000007  -0.000115   0.000000  -0.000013
    44  H    0.000000   0.000000  -0.000026  -0.000005   0.000000   0.000004
    45  H    0.000001   0.000002   0.000251   0.002451  -0.000021   0.000351
    46  H   -0.000017  -0.037193   0.471773   0.000338  -0.000072  -0.000233
    47  H    0.000004  -0.033656   0.390656   0.001568  -0.000432   0.000473
             19         20         21         22         23         24
     1  H    0.002268   0.000035   0.000009  -0.000187  -0.064334   0.058692
     2  C   -0.162271   0.011096  -0.010436   0.030879   0.112069  -0.548205
     3  C   -0.070340  -0.004567   0.001859   0.004532  -0.007067  -0.117633
     4  C    0.096732   0.030127  -0.009284  -0.009738   0.106769  -0.082961
     5  C   -0.066950  -0.008221  -0.000536   0.005869  -0.010107   0.100110
     6  C   -0.151716  -0.048243   0.027032  -0.003643  -0.135759   0.319891
     7  C    0.081861  -0.007222  -0.000526   0.008562  -0.007223  -0.199036
     8  H   -0.000359   0.000000   0.000000   0.000000  -0.000638  -0.000036
     9  H    0.001081  -0.000068  -0.000034  -0.000001  -0.000924   0.002177
    10  H   -0.005571   0.010667   0.000117  -0.001901   0.006465   0.001323
    11  H   -0.000686   0.000000  -0.000001  -0.000002  -0.002039  -0.011398
    12  H    0.000777   0.000000   0.000000   0.000000   0.000146   0.000931
    13  H    0.007621  -0.000005   0.000026  -0.000069   0.003481   0.003348
    14  O   -0.003536  -0.000086  -0.000153  -0.000051  -0.000024   0.000596
    15  C    0.012616   0.000107  -0.002099   0.000027   0.006144  -0.002889
    16  O   -0.000948  -0.000412   0.000068   0.000112  -0.001705   0.014520
    17  H   -0.000560   0.000001   0.000000   0.000000   0.000168  -0.001368
    18  O    0.002750  -0.050127  -0.079979  -0.052358   0.039756  -0.000002
    19  C    5.142129   0.412458   0.433782   0.391829  -0.005505  -0.011682
    20  H    0.412458   0.578606  -0.026649  -0.043365   0.002312   0.005357
    21  H    0.433782  -0.026649   0.536777  -0.031100   0.002603  -0.002683
    22  H    0.391829  -0.043365  -0.031100   0.548742  -0.022699   0.007762
    23  O   -0.005505   0.002312   0.002603  -0.022699   8.359644  -0.027312
    24  Si  -0.011682   0.005357  -0.002683   0.007762  -0.027312  13.547653
    25  C    0.001150  -0.000113  -0.000016   0.000326  -0.058013   0.230823
    26  H    0.000006   0.000000   0.000000   0.000000   0.009365  -0.043571
    27  H   -0.000025   0.000000   0.000000   0.000001  -0.001405  -0.039848
    28  H   -0.000055   0.000000   0.000000   0.000000  -0.005331  -0.018272
    29  C   -0.008405   0.002070   0.000804  -0.007295  -0.010600   0.359274
    30  C    0.005817  -0.000716   0.000325  -0.000727  -0.059258   0.297963
    31  H    0.000029   0.000000   0.000000   0.000000   0.009960  -0.037709
    32  H   -0.000127   0.000000   0.000000   0.000118  -0.005465  -0.026814
    33  H    0.000079   0.000000   0.000000  -0.000006  -0.004656  -0.016770
    34  C    0.007909  -0.003163  -0.000311   0.004314   0.001143  -0.405250
    35  H    0.000048  -0.000005   0.000000  -0.000022  -0.002380   0.003935
    36  H   -0.000170  -0.000002   0.000000   0.000002  -0.000915   0.002181
    37  H   -0.000097   0.000593   0.000008  -0.000137   0.012427   0.002338
    38  C    0.000576   0.000289   0.000037  -0.000779   0.021879  -0.023708
    39  H    0.000045   0.000000   0.000000   0.000000   0.000152  -0.008513
    40  H    0.000001   0.000000   0.000000   0.000000   0.000462  -0.011597
    41  H   -0.000021   0.000000   0.000000   0.000000  -0.000611   0.007316
    42  C   -0.006764   0.001147   0.000008  -0.001230  -0.017008  -0.094813
    43  H    0.000016   0.000000   0.000000   0.000000  -0.000748   0.002883
    44  H    0.000096   0.000000   0.000000   0.000000  -0.001925  -0.020474
    45  H   -0.000535   0.000013   0.000000  -0.000006   0.010387   0.013466
    46  H   -0.000126   0.000000   0.000000   0.000000  -0.000010   0.000033
    47  H    0.000478   0.000000   0.000000   0.000000   0.000000  -0.000094
             25         26         27         28         29         30
     1  H   -0.010989  -0.000010  -0.000077   0.000733  -0.016892   0.000822
     2  C    0.043883   0.007415  -0.025420  -0.019319   0.069418  -0.061175
     3  C    0.027686   0.000175   0.001211   0.001021  -0.024256  -0.005552
     4  C    0.024475  -0.000029   0.000812   0.002771  -0.031540   0.003256
     5  C   -0.026368  -0.000127  -0.000555  -0.000186   0.021754  -0.001814
     6  C   -0.094711  -0.000781   0.001690  -0.005896  -0.068390  -0.039880
     7  C    0.031801  -0.000744   0.017445   0.013826   0.024386   0.050639
     8  H   -0.000041   0.000000  -0.000001   0.000000   0.000093  -0.000010
     9  H   -0.000018   0.000000   0.000000   0.000000   0.000030  -0.000052
    10  H   -0.000328   0.000000  -0.000001   0.000003   0.013064   0.000026
    11  H    0.001915   0.000030   0.000160  -0.000097   0.001333  -0.001481
    12  H   -0.000717   0.000000  -0.000003  -0.000005   0.000404   0.000015
    13  H   -0.001170   0.000000  -0.000001   0.000004  -0.000257   0.001070
    14  O   -0.000002   0.000000   0.000000   0.000000  -0.000202   0.000007
    15  C   -0.001903   0.000005  -0.000030   0.000116  -0.004778  -0.000358
    16  O   -0.002337   0.000002  -0.000010  -0.000132  -0.003232  -0.000248
    17  H   -0.000048   0.000000   0.000000   0.000000   0.000343   0.000012
    18  O   -0.001745   0.000003  -0.000024  -0.000003  -0.002130   0.001464
    19  C    0.001150   0.000006  -0.000025  -0.000055  -0.008405   0.005817
    20  H   -0.000113   0.000000   0.000000   0.000000   0.002070  -0.000716
    21  H   -0.000016   0.000000   0.000000   0.000000   0.000804   0.000325
    22  H    0.000326   0.000000   0.000001   0.000000  -0.007295  -0.000727
    23  O   -0.058013   0.009365  -0.001405  -0.005331  -0.010600  -0.059258
    24  Si   0.230823  -0.043571  -0.039848  -0.018272   0.359274   0.297963
    25  C    5.461576   0.403217   0.397528   0.400214  -0.140790  -0.009895
    26  H    0.403217   0.487117  -0.020712  -0.022343  -0.017418  -0.004477
    27  H    0.397528  -0.020712   0.494647  -0.023028   0.021464  -0.008998
    28  H    0.400214  -0.022343  -0.023028   0.494641  -0.029358   0.007206
    29  C   -0.140790  -0.017418   0.021464  -0.029358   8.385379  -0.172930
    30  C   -0.009895  -0.004477  -0.008998   0.007206  -0.172930   5.448151
    31  H   -0.006252   0.000091   0.000101   0.000008  -0.018354   0.399443
    32  H    0.006835   0.000014   0.000004  -0.000016  -0.025914   0.398908
    33  H   -0.009362   0.000115   0.000416   0.000012   0.017273   0.389182
    34  C    0.006692   0.003481  -0.000888  -0.005265  -0.354832  -0.040445
    35  H   -0.000327   0.000001  -0.000001   0.000000  -0.062297   0.000225
    36  H   -0.000792   0.000000   0.000000   0.000000  -0.149439   0.000982
    37  H   -0.001082   0.000000  -0.000001   0.000002  -0.091365  -0.000529
    38  C    0.021270   0.002503  -0.000534   0.003958  -0.583462   0.084515
    39  H   -0.000335  -0.000001  -0.000007   0.000009  -0.095246   0.004365
    40  H    0.003818   0.000460  -0.000008   0.000029  -0.095923  -0.000388
    41  H    0.001152   0.000017   0.000000  -0.000004  -0.136953   0.000270
    42  C    0.009186   0.006664  -0.001246   0.018496  -0.438367   0.006961
    43  H    0.001267   0.000000   0.000000  -0.000003  -0.148241  -0.001355
    44  H    0.006849   0.000082   0.000009   0.000048  -0.059221  -0.000028
    45  H   -0.004448   0.000012  -0.000006   0.000020  -0.101567  -0.000223
    46  H    0.000007   0.000000   0.000000   0.000000   0.000001   0.000000
    47  H    0.000001   0.000000   0.000000   0.000000  -0.000004   0.000000
             31         32         33         34         35         36
     1  H    0.000002  -0.000003  -0.000005  -0.003355   0.000001   0.000002
     2  C    0.006154   0.000574  -0.013639   0.095197  -0.004678   0.001318
     3  C    0.000055  -0.000034   0.000196   0.018350  -0.000009   0.000040
     4  C   -0.000019  -0.000203   0.000175  -0.025895   0.000490   0.000718
     5  C   -0.000004   0.000134  -0.000155  -0.013453   0.000025  -0.000040
     6  C    0.000110   0.002019   0.000435   0.070096   0.003623   0.000993
     7  C   -0.001630  -0.000300   0.006350   0.008854  -0.000217   0.000728
     8  H    0.000000   0.000000   0.000000  -0.000004   0.000000   0.000000
     9  H    0.000000   0.000000   0.000000  -0.000095   0.000000   0.000000
    10  H    0.000000   0.000001   0.000000  -0.011121   0.000002  -0.000014
    11  H    0.000001   0.000001  -0.000006   0.000413   0.000000   0.000000
    12  H    0.000000   0.000000   0.000000  -0.000047   0.000000   0.000000
    13  H    0.000000  -0.000001  -0.000010  -0.000305   0.000000   0.000000
    14  O    0.000000   0.000000   0.000000   0.000032   0.000000   0.000000
    15  C    0.000000   0.000002  -0.000006  -0.000321   0.000003   0.000000
    16  O    0.000000   0.000000   0.000000  -0.001632   0.000001  -0.000009
    17  H    0.000000   0.000000   0.000000   0.000017   0.000000   0.000000
    18  O    0.000004  -0.000011  -0.000043  -0.000696  -0.000023  -0.000018
    19  C    0.000029  -0.000127   0.000079   0.007909   0.000048  -0.000170
    20  H    0.000000   0.000000   0.000000  -0.003163  -0.000005  -0.000002
    21  H    0.000000   0.000000   0.000000  -0.000311   0.000000   0.000000
    22  H    0.000000   0.000118  -0.000006   0.004314  -0.000022   0.000002
    23  O    0.009960  -0.005465  -0.004656   0.001143  -0.002380  -0.000915
    24  Si  -0.037709  -0.026814  -0.016770  -0.405250   0.003935   0.002181
    25  C   -0.006252   0.006835  -0.009362   0.006692  -0.000327  -0.000792
    26  H    0.000091   0.000014   0.000115   0.003481   0.000001   0.000000
    27  H    0.000101   0.000004   0.000416  -0.000888  -0.000001   0.000000
    28  H    0.000008  -0.000016   0.000012  -0.005265   0.000000   0.000000
    29  C   -0.018354  -0.025914   0.017273  -0.354832  -0.062297  -0.149439
    30  C    0.399443   0.398908   0.389182  -0.040445   0.000225   0.000982
    31  H    0.491827  -0.021844  -0.020930   0.008514   0.000059  -0.000001
    32  H   -0.021844   0.488285  -0.022197   0.022126   0.000056  -0.000005
    33  H   -0.020930  -0.022197   0.487590  -0.000068   0.000002   0.000000
    34  C    0.008514   0.022126  -0.000068   6.164129   0.414052   0.480079
    35  H    0.000059   0.000056   0.000002   0.414052   0.533370  -0.027868
    36  H   -0.000001  -0.000005   0.000000   0.480079  -0.027868   0.542163
    37  H    0.000006   0.000057  -0.000005   0.444049  -0.026671  -0.027852
    38  C    0.004083  -0.000386  -0.000751  -0.232393  -0.008113  -0.004354
    39  H    0.000289   0.000042   0.000000  -0.018362   0.002713  -0.000284
    40  H   -0.000009   0.000013  -0.000006   0.005302   0.000035  -0.000007
    41  H    0.000025  -0.000007   0.000000   0.013793  -0.000300   0.005267
    42  C    0.000209  -0.003003  -0.001475  -0.100595   0.008614   0.009418
    43  H    0.000000   0.000000   0.000000   0.027534   0.000019   0.005494
    44  H    0.000001   0.000000  -0.000001   0.006552  -0.000152   0.000042
    45  H    0.000000   0.000001  -0.000001  -0.008455   0.000051  -0.000483
    46  H    0.000000   0.000000   0.000000  -0.000001   0.000000   0.000000
    47  H    0.000000   0.000000   0.000000   0.000003   0.000000   0.000000
             37         38         39         40         41         42
     1  H    0.000032   0.000587   0.000000   0.000000   0.000001   0.006074
     2  C    0.000408  -0.019137   0.000184   0.000361  -0.000693  -0.091746
     3  C   -0.000356  -0.013067   0.000000  -0.000022   0.000018   0.022553
     4  C   -0.002847   0.015554  -0.000001   0.000061   0.000054   0.086814
     5  C   -0.000336  -0.001390  -0.000003  -0.000013  -0.000003  -0.025042
     6  C   -0.010521  -0.064427  -0.000109  -0.000447   0.000262  -0.015315
     7  C   -0.001684   0.009851  -0.000128  -0.000136   0.000199   0.011600
     8  H    0.000000   0.000011   0.000000   0.000000   0.000000   0.000017
     9  H    0.000000  -0.000036   0.000000   0.000000   0.000000  -0.000522
    10  H    0.001308   0.002953   0.000000   0.000000   0.000000   0.004799
    11  H    0.000000  -0.000589   0.000000   0.000000   0.000000  -0.001352
    12  H    0.000000   0.000049   0.000000   0.000000   0.000000  -0.000427
    13  H    0.000000   0.000068   0.000000   0.000000   0.000000  -0.000291
    14  O    0.000000  -0.000006   0.000000   0.000000   0.000000   0.000126
    15  C   -0.000060  -0.000618   0.000000   0.000000   0.000000   0.000348
    16  O   -0.000003  -0.000408   0.000000   0.000001   0.000000   0.000307
    17  H    0.000000   0.000048   0.000000   0.000000   0.000000  -0.000046
    18  O    0.000382  -0.000425   0.000000   0.000000   0.000000   0.001107
    19  C   -0.000097   0.000576   0.000045   0.000001  -0.000021  -0.006764
    20  H    0.000593   0.000289   0.000000   0.000000   0.000000   0.001147
    21  H    0.000008   0.000037   0.000000   0.000000   0.000000   0.000008
    22  H   -0.000137  -0.000779   0.000000   0.000000   0.000000  -0.001230
    23  O    0.012427   0.021879   0.000152   0.000462  -0.000611  -0.017008
    24  Si   0.002338  -0.023708  -0.008513  -0.011597   0.007316  -0.094813
    25  C   -0.001082   0.021270  -0.000335   0.003818   0.001152   0.009186
    26  H    0.000000   0.002503  -0.000001   0.000460   0.000017   0.006664
    27  H   -0.000001  -0.000534  -0.000007  -0.000008   0.000000  -0.001246
    28  H    0.000002   0.003958   0.000009   0.000029  -0.000004   0.018496
    29  C   -0.091365  -0.583462  -0.095246  -0.095923  -0.136953  -0.438367
    30  C   -0.000529   0.084515   0.004365  -0.000388   0.000270   0.006961
    31  H    0.000006   0.004083   0.000289  -0.000009   0.000025   0.000209
    32  H    0.000057  -0.000386   0.000042   0.000013  -0.000007  -0.003003
    33  H   -0.000005  -0.000751   0.000000  -0.000006   0.000000  -0.001475
    34  C    0.444049  -0.232393  -0.018362   0.005302   0.013793  -0.100595
    35  H   -0.026671  -0.008113   0.002713   0.000035  -0.000300   0.008614
    36  H   -0.027852  -0.004354  -0.000284  -0.000007   0.005267   0.009418
    37  H    0.530321   0.007690   0.000049  -0.000148   0.000009  -0.011493
    38  C    0.007690   6.088668   0.460977   0.465243   0.440898  -0.140107
    39  H    0.000049   0.460977   0.532091  -0.027126  -0.027659   0.009029
    40  H   -0.000148   0.465243  -0.027126   0.534255  -0.027950  -0.015244
    41  H    0.000009   0.440898  -0.027659  -0.027950   0.539317   0.014116
    42  C   -0.011493  -0.140107   0.009029  -0.015244   0.014116   6.008186
    43  H   -0.000290  -0.013341   0.000009  -0.000340   0.005648   0.467382
    44  H    0.000018  -0.010621   0.000021   0.002655  -0.000310   0.426008
    45  H    0.003052   0.005598  -0.000147   0.000044   0.000010   0.444989
    46  H    0.000000   0.000000   0.000000   0.000000   0.000000   0.000001
    47  H    0.000000   0.000000   0.000000   0.000000   0.000000   0.000001
             43         44         45         46         47
     1  H    0.000048  -0.000065   0.001631   0.000000  -0.000002
     2  C   -0.004478   0.007539   0.006532   0.006631  -0.005020
     3  C    0.000201  -0.000249  -0.001235   0.068441  -0.020618
     4  C    0.000882  -0.001325   0.000835  -0.029882   0.096197
     5  C   -0.000005   0.000283   0.000728  -0.133290  -0.110891
     6  C    0.007084  -0.002856  -0.023164  -0.009378   0.015214
     7  C    0.000110   0.002648  -0.002591  -0.001050  -0.000993
     8  H    0.000000   0.000000   0.000000   0.000367   0.000053
     9  H    0.000000   0.000000  -0.000002   0.000108   0.001076
    10  H   -0.000041  -0.000002   0.002545   0.000001  -0.000001
    11  H    0.000000   0.000001  -0.000003  -0.000001   0.000001
    12  H    0.000000   0.000000   0.000002  -0.000377   0.000272
    13  H    0.000000   0.000000   0.000001  -0.000017   0.000004
    14  O    0.000000   0.000000   0.000002  -0.037193  -0.033656
    15  C    0.000007  -0.000026   0.000251   0.471773   0.390656
    16  O   -0.000115  -0.000005   0.002451   0.000338   0.001568
    17  H    0.000000   0.000000  -0.000021  -0.000072  -0.000432
    18  O   -0.000013   0.000004   0.000351  -0.000233   0.000473
    19  C    0.000016   0.000096  -0.000535  -0.000126   0.000478
    20  H    0.000000   0.000000   0.000013   0.000000   0.000000
    21  H    0.000000   0.000000   0.000000   0.000000   0.000000
    22  H    0.000000   0.000000  -0.000006   0.000000   0.000000
    23  O   -0.000748  -0.001925   0.010387  -0.000010   0.000000
    24  Si   0.002883  -0.020474   0.013466   0.000033  -0.000094
    25  C    0.001267   0.006849  -0.004448   0.000007   0.000001
    26  H    0.000000   0.000082   0.000012   0.000000   0.000000
    27  H    0.000000   0.000009  -0.000006   0.000000   0.000000
    28  H   -0.000003   0.000048   0.000020   0.000000   0.000000
    29  C   -0.148241  -0.059221  -0.101567   0.000001  -0.000004
    30  C   -0.001355  -0.000028  -0.000223   0.000000   0.000000
    31  H    0.000000   0.000001   0.000000   0.000000   0.000000
    32  H    0.000000   0.000000   0.000001   0.000000   0.000000
    33  H    0.000000  -0.000001  -0.000001   0.000000   0.000000
    34  C    0.027534   0.006552  -0.008455  -0.000001   0.000003
    35  H    0.000019  -0.000152   0.000051   0.000000   0.000000
    36  H    0.005494   0.000042  -0.000483   0.000000   0.000000
    37  H   -0.000290   0.000018   0.003052   0.000000   0.000000
    38  C   -0.013341  -0.010621   0.005598   0.000000   0.000000
    39  H    0.000009   0.000021  -0.000147   0.000000   0.000000
    40  H   -0.000340   0.002655   0.000044   0.000000   0.000000
    41  H    0.005648  -0.000310   0.000010   0.000000   0.000000
    42  C    0.467382   0.426008   0.444989   0.000001   0.000001
    43  H    0.540642  -0.027204  -0.027687   0.000000   0.000000
    44  H   -0.027204   0.534129  -0.028187   0.000000   0.000000
    45  H   -0.027687  -0.028187   0.536228   0.000000   0.000000
    46  H    0.000000   0.000000   0.000000   0.527032  -0.035664
    47  H    0.000000   0.000000   0.000000  -0.035664   0.532397
 Mulliken atomic charges:
              1
     1  H    0.157636
     2  C   -0.373468
     3  C   -0.481279
     4  C   -0.031060
     5  C   -0.056168
     6  C   -0.146847
     7  C   -0.188265
     8  H    0.173635
     9  H    0.161294
    10  H    0.140151
    11  H    0.164345
    12  H    0.184002
    13  H    0.192832
    14  O   -0.315728
    15  C    0.010380
    16  O   -0.506667
    17  H    0.388382
    18  O   -0.213316
    19  C   -0.105706
    20  H    0.138086
    21  H    0.160351
    22  H    0.172240
    23  O   -0.251672
    24  Si   0.770067
    25  C   -0.709871
    26  H    0.189439
    27  H    0.187338
    28  H    0.186198
    29  C   -0.017429
    30  C   -0.691088
    31  H    0.185782
    32  H    0.187140
    33  H    0.188265
    34  C   -0.575680
    35  H    0.165741
    36  H    0.162826
    37  H    0.172733
    38  C   -0.518654
    39  H    0.167947
    40  H    0.166622
    41  H    0.166139
    42  C   -0.598075
    43  H    0.164633
    44  H    0.165666
    45  H    0.169561
    46  H    0.172562
    47  H    0.168981
 Sum of Mulliken atomic charges =   0.00000
 Mulliken charges with hydrogens summed into heavy atoms:
              1
     2  C   -0.215832
     3  C   -0.123642
     4  C    0.130234
     5  C   -0.056168
     6  C   -0.006697
     7  C    0.168912
    14  O   -0.315728
    15  C    0.351923
    16  O   -0.118285
    18  O   -0.213316
    19  C    0.364971
    23  O   -0.251672
    24  Si   0.770067
    25  C   -0.146897
    29  C   -0.017429
    30  C   -0.129900
    34  C   -0.074380
    38  C   -0.017947
    42  C   -0.098215
 Sum of Mulliken charges with hydrogens summed into heavy atoms =   0.00000
 Electronic spatial extent (au):  <R**2>=           6429.2045
 Charge=              0.0000 electrons
 Dipole moment (field-independent basis, Debye):
    X=              0.4049    Y=             -2.2314    Z=              2.3374  Tot=              3.2567
 Quadrupole moment (field-independent basis, Debye-Ang):
   XX=           -120.0082   YY=           -120.7831   ZZ=           -126.8807
   XY=              8.3132   XZ=            -13.7231   YZ=              0.8551
 Traceless Quadrupole moment (field-independent basis, Debye-Ang):
   XX=              2.5491   YY=              1.7742   ZZ=             -4.3234
   XY=              8.3132   XZ=            -13.7231   YZ=              0.8551
 Octapole moment (field-independent basis, Debye-Ang**2):
  XXX=            -53.7594  YYY=             15.5686  ZZZ=              3.4608  XYY=            -17.7047
  XXY=            -41.9251  XXZ=             60.3625  XZZ=            -23.0316  YZZ=             -0.6946
  YYZ=             -5.3233  XYZ=             -1.3396
 Hexadecapole moment (field-independent basis, Debye-Ang**3):
 XXXX=          -5881.6490 YYYY=          -1356.1516 ZZZZ=          -1255.6797 XXXY=            151.5920
 XXXZ=           -305.1030 YYYX=             -2.8023 YYYZ=            -31.9435 ZZZX=            -49.9766
 ZZZY=            -17.1046 XXYY=          -1216.9489 XXZZ=          -1175.0335 YYZZ=           -419.1803
 XXYZ=             10.6597 YYXZ=             -4.9583 ZZXY=             10.5355
 N-N= 1.819727785081D+03 E-N=-6.310556568116D+03  KE= 1.131542931263D+03
 1\1\GINC-COMPUTE-8-30\SP\RmPW1PW91\6-31+G(d,p)\C14H28O4Si1\ELUCIANO.IQ
 UIR\06-Dec-2022\0\\# mPW1PW91/6-31+g** scrf=(PCM,solvent=chloroform) n
 mr\\comment\\0,1\H,0,-0.242437,-0.934285,0.652628\C,0,-0.477493,-0.309
 894,-0.220426\C,0,-2.612582,-1.631372,-0.480754\C,0,-2.533202,0.434573
 ,1.04279\C,0,-3.377901,-0.494684,0.174042\C,0,-1.265044,0.907228,0.306
 845\C,0,-1.345719,-1.119894,-1.189709\H,0,-3.272834,-2.146955,-1.18619
 9\H,0,-3.130772,1.321077,1.296095\H,0,-0.638337,1.461123,1.02276\H,0,-
 0.766895,-1.962819,-1.58324\H,0,-2.330699,-2.354371,0.296781\H,0,-1.61
 7834,-0.477058,-2.033381\O,0,-4.355725,0.164218,-0.647752\C,0,-4.81995
 2,-0.618978,0.456036\O,0,-2.081898,-0.246692,2.217633\H,0,-2.86666,-0.
 564845,2.690752\O,0,-1.71498,1.767356,-0.724899\C,0,-0.805628,2.775252
 ,-1.136544\H,0,-0.429075,3.346754,-0.273246\H,0,-1.370312,3.45104,-1.7
 85413\H,0,0.046321,2.362826,-1.68567\O,0,0.723046,0.12732,-0.85587\Si,
 0,2.268392,-0.510197,-0.658272\C,0,2.185001,-2.39812,-0.539555\H,0,3.1
 85362,-2.831567,-0.421617\H,0,1.751246,-2.821231,-1.453328\H,0,1.57821
 7,-2.742107,0.305983\C,0,3.107228,0.228442,0.906007\C,0,3.182568,-0.00
 473,-2.226934\H,0,4.226409,-0.339597,-2.221245\H,0,3.179246,1.082689,-
 2.360974\H,0,2.695017,-0.445381,-3.104172\C,0,3.117399,1.769303,0.8141
 21\H,0,3.692018,2.124094,-0.050291\H,0,3.577694,2.205204,1.712941\H,0,
 2.103553,2.176783,0.72943\C,0,4.564333,-0.275902,1.00694\H,0,5.164593,
 0.018323,0.137358\H,0,4.619698,-1.36776,1.098759\H,0,5.053052,0.147894
 ,1.896433\C,0,2.34899,-0.191927,2.184152\H,0,2.838857,0.229858,3.07413
 5\H,0,2.329539,-1.281291,2.311753\H,0,1.311401,0.162319,2.188749\H,0,-
 5.341209,-1.540927,0.194366\H,0,-5.274182,-0.050438,1.270691\\Version=
 EM64L-G09RevC.01\State=1-A\HF=-1140.6199104\RMSD=5.406e-09\Dipole=0.15
 93163,-0.8778914,0.9195958\Quadrupole=1.8952228,1.319108,-3.2143309,6.
 1806471,-10.2027831,0.6357801\PG=C01 [X(C14H28O4Si1)]\\@


 IT IS BETTER TO THINK YOU ARE HALF DRY THAN TO KNOW YOU
 ARE ALL WET.  -- SNOOPY
 Job cpu time:  0 days  1 hours  5 minutes 40.7 seconds.
 File lengths (MBytes):  RWF=    299 Int=      0 D2E=      0 Chk=     16 Scr=      1
 Normal termination of Gaussian 09 at Tue Dec  6 21:33:08 2022.
