 Entering Gaussian System, Link 0=g09
 Input=/home/eluciano.iquir/todos_optB3L_MPW_B_PCM/02_epoxido28_014_optB3L_nmr_MPW_B_PCM.gjc
 Output=/home/eluciano.iquir/todos_optB3L_MPW_B_PCM/02_epoxido28_014_optB3L_nmr_MPW_B_PCM.log
 Initial command:
 /share/apps/Gaussian09/EM64T.SSE4.2-enabled/g09/l1.exe /tmp/Gau-86402.inp -scrdir=/tmp/
 Entering Link 1 = /share/apps/Gaussian09/EM64T.SSE4.2-enabled/g09/l1.exe PID=     86403.
  
 Copyright (c) 1988,1990,1992,1993,1995,1998,2003,2009,2011,
            Gaussian, Inc.  All Rights Reserved.
  
 This is part of the Gaussian(R) 09 program.  It is based on
 the Gaussian(R) 03 system (copyright 2003, Gaussian, Inc.),
 the Gaussian(R) 98 system (copyright 1998, Gaussian, Inc.),
 the Gaussian(R) 94 system (copyright 1995, Gaussian, Inc.),
 the Gaussian 92(TM) system (copyright 1992, Gaussian, Inc.),
 the Gaussian 90(TM) system (copyright 1990, Gaussian, Inc.),
 the Gaussian 88(TM) system (copyright 1988, Gaussian, Inc.),
 the Gaussian 86(TM) system (copyright 1986, Carnegie Mellon
 University), and the Gaussian 82(TM) system (copyright 1983,
 Carnegie Mellon University). Gaussian is a federally registered
 trademark of Gaussian, Inc.
  
 This software contains proprietary and confidential information,
 including trade secrets, belonging to Gaussian, Inc.
  
 This software is provided under written license and may be
 used, copied, transmitted, or stored only in accord with that
 written license.
  
 The following legend is applicable only to US Government
 contracts under FAR:
  
                    RESTRICTED RIGHTS LEGEND
  
 Use, reproduction and disclosure by the US Government is
 subject to restrictions as set forth in subparagraphs (a)
 and (c) of the Commercial Computer Software - Restricted
 Rights clause in FAR 52.227-19.
  
 Gaussian, Inc.
 340 Quinnipiac St., Bldg. 40, Wallingford CT 06492
  
  
 ---------------------------------------------------------------
 Warning -- This program may not be used in any manner that
 competes with the business of Gaussian, Inc. or will provide
 assistance to any competitor of Gaussian, Inc.  The licensee
 of this program is prohibited from giving any competitor of
 Gaussian, Inc. access to this program.  By using this program,
 the user acknowledges that Gaussian, Inc. is engaged in the
 business of creating and licensing software in the field of
 computational chemistry and represents and warrants to the
 licensee that it is not a competitor of Gaussian, Inc. and that
 it will not use this program in any manner prohibited above.
 ---------------------------------------------------------------
  

 Cite this work as:
 Gaussian 09, Revision C.01,
 M. J. Frisch, G. W. Trucks, H. B. Schlegel, G. E. Scuseria, 
 M. A. Robb, J. R. Cheeseman, G. Scalmani, V. Barone, B. Mennucci, 
 G. A. Petersson, H. Nakatsuji, M. Caricato, X. Li, H. P. Hratchian, 
 A. F. Izmaylov, J. Bloino, G. Zheng, J. L. Sonnenberg, M. Hada, 
 M. Ehara, K. Toyota, R. Fukuda, J. Hasegawa, M. Ishida, T. Nakajima, 
 Y. Honda, O. Kitao, H. Nakai, T. Vreven, J. A. Montgomery, Jr., 
 J. E. Peralta, F. Ogliaro, M. Bearpark, J. J. Heyd, E. Brothers, 
 K. N. Kudin, V. N. Staroverov, T. Keith, R. Kobayashi, J. Normand, 
 K. Raghavachari, A. Rendell, J. C. Burant, S. S. Iyengar, J. Tomasi, 
 M. Cossi, N. Rega, J. M. Millam, M. Klene, J. E. Knox, J. B. Cross, 
 V. Bakken, C. Adamo, J. Jaramillo, R. Gomperts, R. E. Stratmann, 
 O. Yazyev, A. J. Austin, R. Cammi, C. Pomelli, J. W. Ochterski, 
 R. L. Martin, K. Morokuma, V. G. Zakrzewski, G. A. Voth, 
 P. Salvador, J. J. Dannenberg, S. Dapprich, A. D. Daniels, 
 O. Farkas, J. B. Foresman, J. V. Ortiz, J. Cioslowski, 
 and D. J. Fox, Gaussian, Inc., Wallingford CT, 2010.
 
 ******************************************
 Gaussian 09:  EM64L-G09RevC.01 23-Sep-2011
                 6-Dec-2022 
 ******************************************
 %nprocshared=4
 Will use up to    4 processors via shared memory.
 %mem=80MW
 -----------------------------------------------------
 # mPW1PW91/6-31+g** scrf=(PCM,solvent=chloroform) nmr
 -----------------------------------------------------
 1/38=1/1;
 2/12=2,17=6,18=5,40=1/2;
 3/5=1,6=6,7=111,11=2,16=1,25=1,30=1,70=2201,72=7,74=-7/1,2,8,3;
 4//1;
 5/5=2,38=5,53=7/2;
 8/6=1,10=90,11=11/1;
 10/13=100,45=16/2;
 6/7=2,8=2,9=2,10=2,28=1/1;
 99/9=1/99;
 -------
 comment
 -------
 Charge =  0 Multiplicity = 1
 Symbolic Z-Matrix:
 1                    -0.51553  -1.44143   0.56276 
 6                    -0.52415  -0.57248  -0.11116 
 6                    -2.67766  -1.42922  -1.13218 
 6                    -2.73176   0.07935   0.94227 
 6                    -3.44777  -0.41036  -0.31196 
 6                    -1.29508   0.54539   0.61722 
 6                    -1.23929  -0.9589   -1.41093 
 1                    -3.21378  -1.6156   -2.069 
 1                    -3.30363   0.91989   1.36119 
 1                    -0.78557   0.77684   1.56591 
 1                    -0.67063  -1.75055  -1.91146 
 1                    -2.655    -2.37411  -0.57231 
 1                    -1.2466   -0.08619  -2.0717 
 8                    -4.12184   0.62685  -1.04763 
 6                    -4.91955  -0.34649  -0.36437 
 8                    -2.60107  -0.96968   1.90655 
 1                    -3.49387  -1.27622   2.13035 
 8                    -1.30115   1.67958  -0.22843 
 6                    -1.60531   2.90677   0.40238 
 1                    -2.65951   2.9764    0.70637 
 1                    -1.40554   3.69248  -0.3309 
 1                    -0.96961   3.07348   1.2863 
 8                     0.79727  -0.14779  -0.40673 
 14                    2.20504  -0.6076    0.38272 
 6                     2.07105  -0.25776   2.2387 
 1                     2.96643  -0.59594   2.77457 
 1                     1.21347  -0.78274   2.67748 
 1                     1.94303   0.81118   2.44354 
 6                     3.55964   0.45358  -0.44732 
 6                     2.50041  -2.46249   0.14599 
 1                     3.42784  -2.78689   0.63379 
 1                     2.56829  -2.72992  -0.91441 
 1                     1.68369  -3.05029   0.58341 
 6                     3.62984   0.12275  -1.95406 
 1                     3.92303  -0.91949  -2.13214 
 1                     4.37683   0.75962  -2.4504 
 1                     2.66655   0.29062  -2.44791 
 6                     4.93386   0.17674   0.19858 
 1                     5.23604  -0.87295   0.09303 
 1                     4.94346   0.42254   1.26794 
 1                     5.71185   0.78785  -0.28174 
 6                     3.20846   1.9483   -0.28163 
 1                     3.9568    2.57521  -0.78861 
 1                     3.1938    2.25017   0.77325 
 1                     2.22723   2.17816  -0.71057 
 1                    -5.46479  -1.0405   -1.00513 
 1                    -5.4866    0.03214   0.489 
 
                          Input orientation:                          
 ---------------------------------------------------------------------
 Center     Atomic      Atomic             Coordinates (Angstroms)
 Number     Number       Type             X           Y           Z
 ---------------------------------------------------------------------
      1          1           0       -0.515534   -1.441425    0.562760
      2          6           0       -0.524154   -0.572480   -0.111155
      3          6           0       -2.677663   -1.429218   -1.132178
      4          6           0       -2.731756    0.079353    0.942274
      5          6           0       -3.447772   -0.410358   -0.311959
      6          6           0       -1.295078    0.545387    0.617218
      7          6           0       -1.239288   -0.958899   -1.410930
      8          1           0       -3.213775   -1.615599   -2.068996
      9          1           0       -3.303633    0.919885    1.361189
     10          1           0       -0.785571    0.776844    1.565910
     11          1           0       -0.670634   -1.750545   -1.911460
     12          1           0       -2.654997   -2.374114   -0.572307
     13          1           0       -1.246595   -0.086186   -2.071704
     14          8           0       -4.121836    0.626851   -1.047628
     15          6           0       -4.919546   -0.346491   -0.364373
     16          8           0       -2.601069   -0.969680    1.906549
     17          1           0       -3.493870   -1.276215    2.130348
     18          8           0       -1.301154    1.679578   -0.228430
     19          6           0       -1.605311    2.906770    0.402382
     20          1           0       -2.659513    2.976398    0.706372
     21          1           0       -1.405535    3.692479   -0.330903
     22          1           0       -0.969607    3.073475    1.286303
     23          8           0        0.797274   -0.147791   -0.406728
     24         14           0        2.205038   -0.607603    0.382721
     25          6           0        2.071047   -0.257763    2.238698
     26          1           0        2.966434   -0.595938    2.774569
     27          1           0        1.213468   -0.782742    2.677481
     28          1           0        1.943026    0.811182    2.443544
     29          6           0        3.559636    0.453579   -0.447321
     30          6           0        2.500406   -2.462493    0.145993
     31          1           0        3.427838   -2.786886    0.633792
     32          1           0        2.568285   -2.729919   -0.914409
     33          1           0        1.683686   -3.050287    0.583411
     34          6           0        3.629836    0.122747   -1.954063
     35          1           0        3.923032   -0.919487   -2.132145
     36          1           0        4.376832    0.759624   -2.450399
     37          1           0        2.666551    0.290619   -2.447906
     38          6           0        4.933859    0.176736    0.198580
     39          1           0        5.236036   -0.872946    0.093033
     40          1           0        4.943461    0.422535    1.267937
     41          1           0        5.711850    0.787850   -0.281744
     42          6           0        3.208463    1.948297   -0.281634
     43          1           0        3.956803    2.575206   -0.788612
     44          1           0        3.193801    2.250168    0.773253
     45          1           0        2.227231    2.178164   -0.710568
     46          1           0       -5.464787   -1.040499   -1.005125
     47          1           0       -5.486603    0.032140    0.488997
 ---------------------------------------------------------------------
                    Distance matrix (angstroms):
                    1          2          3          4          5
     1  H    0.000000
     2  C    1.099682   0.000000
     3  C    2.747320   2.532605   0.000000
     4  C    2.714486   2.531424   2.565553   0.000000
     5  C    3.228971   2.934987   1.517861   1.524991   0.000000
     6  C    2.134965   1.540934   2.978421   1.544957   2.531977
     7  C    2.156874   1.533020   1.538774   2.973718   2.527061
     8  H    3.773192   3.486445   1.095346   3.488976   2.143488
     9  H    3.739889   3.481444   3.482385   1.099558   2.142369
    10  H    2.449479   2.168308   3.965653   2.159410   3.467442
    11  H    2.498275   2.156477   2.176855   3.967436   3.473759
    12  H    2.595301   2.828257   1.098543   2.884328   2.133685
    13  H    3.051479   2.145263   2.175868   3.364100   2.836718
    14  O    4.458310   3.906238   2.514002   2.488330   1.439227
    15  C    4.631822   4.408476   2.605353   2.583620   1.474091
    16  O    2.525424   2.922751   3.074232   1.430865   2.439575
    17  H    3.369735   3.786660   3.366553   1.957014   2.591659
    18  O    3.314188   2.385214   3.517975   2.444972   2.997128
    19  C    4.485547   3.679375   4.722881   3.091059   3.861125
    20  H    4.912681   4.221687   4.773892   2.907531   3.623323
    21  H    5.286559   4.360619   5.337802   4.053951   4.583052
    22  H    4.594999   3.929924   5.388947   3.491173   4.564300
    23  O    2.082513   1.419118   3.774059   3.784898   4.254214
    24  Si   2.851173   2.773740   5.177909   5.015670   5.698750
    25  C    3.301549   3.515099   5.940148   4.986109   6.081653
    26  H    4.210825   4.529035   6.914684   6.023512   7.120613
    27  H    2.809868   3.292420   5.483825   4.395332   5.550007
    28  H    3.828329   3.811559   6.257471   4.964169   6.176217
    29  C    4.606334   4.224115   6.551172   6.453885   7.061762
    30  C    3.211257   3.575785   5.432658   5.871164   6.308867
    31  H    4.167193   4.590946   6.499158   6.800815   7.335962
    32  H    3.654064   3.855248   5.409179   6.279309   6.475820
    33  H    2.724965   3.390650   4.959080   5.423980   5.839758
    34  C    5.095599   4.597313   6.547414   6.990029   7.285138
    35  H    5.218793   4.897170   6.695441   7.398374   7.609273
    36  H    6.152966   5.591621   7.502975   7.906012   8.195499
    37  H    4.710600   4.047955   5.766247   6.378062   6.514490
    38  C    5.696223   5.517895   7.892102   7.702222   8.417664
    39  H    5.798652   5.771634   8.027279   8.069312   8.705546
    40  H    5.811389   5.725973   8.201894   7.689785   8.579194
    41  H    6.668071   6.384931   8.719092   8.561231   9.237710
    42  C    5.106013   4.507306   6.839409   6.346425   7.061844
    43  H    6.161277   5.517776   7.756906   7.345888   7.998032
    44  H    5.237493   4.751074   7.186281   6.312942   7.236475
    45  H    4.716519   3.936427   6.103191   5.632801   6.250200
    46  H    5.207121   5.042626   2.816967   3.537780   2.223939
    47  H    5.185399   5.035042   3.557235   2.792288   2.234763
                    6          7          8          9         10
     6  C    0.000000
     7  C    2.525742   0.000000
     8  H    3.945504   2.182408   0.000000
     9  H    2.174404   3.933954   4.266488   0.000000
    10  H    1.101447   3.475664   4.983222   2.530416   0.000000
    11  H    3.472095   1.095719   2.551587   4.977360   4.300350
    12  H    3.433342   2.170335   1.768518   3.874218   4.242082
    13  H    2.762524   1.094671   2.491768   4.126541   3.766908
    14  O    3.281602   3.309936   2.626090   2.560805   4.240724
    15  C    3.859499   3.874871   2.725074   2.681874   4.698683
    16  O    2.379793   3.586116   4.074013   2.088413   2.542128
    17  H    3.231483   4.210045   4.222336   2.334663   3.445073
    18  O    1.414760   2.892005   4.231311   2.667198   2.073743
    19  C    2.391345   4.285495   5.398767   2.784119   2.561710
    20  H    2.789166   4.688984   5.394100   2.252315   3.014714
    21  H    3.288666   4.778014   5.870808   3.762078   3.533155
    22  H    2.635305   4.858789   6.187224   3.176670   2.320897
    23  O    2.430411   2.411204   4.583242   4.591612   2.692889
    24  Si   3.692585   3.899227   6.032454   5.799662   3.501481
    25  C    3.821655   4.976916   6.951927   5.571720   3.111804
    26  H    4.910934   5.944598   7.918006   6.603719   4.174078
    27  H    3.507337   4.770969   6.543942   5.003575   2.768403
    28  H    3.727121   5.302573   7.269448   5.358240   2.866472
    29  C    4.970907   5.094439   7.265702   7.112848   4.799836
    30  C    4.865706   4.320893   6.186701   6.826716   4.827744
    31  H    5.780160   5.413362   7.265535   7.718935   5.596591
    32  H    5.291416   4.228553   6.000583   7.278656   5.449561
    33  H    4.669374   4.110362   5.751410   6.421881   4.659342
    34  C    5.571794   5.017302   7.061874   7.726533   5.684529
    35  H    6.077296   5.212605   7.170953   8.234765   6.222868
    36  H    6.451878   5.964446   7.962692   8.575747   6.540752
    37  H    5.015416   4.229916   6.193180   7.109731   5.316416
    38  C    6.253864   6.479810   8.645132   8.352257   5.911142
    39  H    6.703871   6.648241   8.753583   8.817506   6.414899
    40  H    6.273587   6.878305   9.045972   8.262603   5.747707
    41  H    7.068519   7.255654   9.414755   9.164911   6.755030
    42  C    4.801872   5.432273   7.559177   6.794402   4.553903
    43  H    5.803342   6.314787   8.403536   7.750849   5.591779
    44  H    4.804234   5.892457   8.004971   6.658226   4.316757
    45  H    4.103125   4.727412   6.770710   6.038700   4.027782
    46  H    4.746947   4.245725   2.555311   3.756745   5.639860
    47  H    4.224778   4.757265   3.797910   2.512801   4.879962
                   11         12         13         14         15
    11  H    0.000000
    12  H    2.473836   0.000000
    13  H    1.768474   3.076752   0.000000
    14  O    4.278903   3.373920   3.134352   0.000000
    15  C    4.734775   3.046748   4.058732   1.431982   0.000000
    16  O    4.348968   2.849574   4.294375   3.686300   3.304661
    17  H    4.952965   3.035364   4.911584   3.757064   3.020028
    18  O    3.872453   4.287606   2.553147   3.120187   4.149241
    19  C    5.283755   5.471709   3.899688   3.692351   4.706992
    20  H    5.757836   5.501183   4.369607   3.276473   4.158826
    21  H    5.715308   6.198627   4.163407   4.158132   5.353753
    22  H    5.795364   5.997599   4.619133   4.622743   5.479317
    23  O    2.643443   4.111217   2.636919   5.020803   5.720429
    24  Si   3.852152   5.258572   4.267300   6.602962   7.168405
    25  C    5.193171   5.892044   5.442036   7.066419   7.460043
    26  H    6.043199   6.779674   6.441725   8.145427   8.491399
    27  H    5.054193   5.297038   5.393687   6.657992   6.859814
    28  H    5.688561   6.354784   5.600573   7.000344   7.504632
    29  C    4.989694   6.828846   5.101943   7.706841   8.517248
    30  C    3.846489   5.205953   4.960346   7.404247   7.732634
    31  H    4.934550   6.214977   6.038527   8.454487   8.753895
    32  H    3.527588   5.246552   4.783510   7.486212   7.877238
    33  H    3.668315   4.540602   4.941870   7.062982   7.198019
    34  C    4.690957   6.902368   4.882322   7.820752   8.708572
    35  H    4.673449   6.915164   5.236706   8.263609   9.035736
    36  H    5.662889   7.924277   5.699275   8.614682   9.591540
    37  H    3.948535   6.239996   3.949205   6.939454   7.892774
    38  C    6.291027   8.043124   6.589486   9.152117   9.883333
    39  H    6.298962   8.060061   6.879650   9.545694  10.179500
    40  H    6.808003   8.303271   7.051864   9.358589  10.026702
    41  H    7.059428   8.949110   7.237945   9.864780  10.692060
    42  C    5.602246   7.290260   5.214500   7.487740   8.446149
    43  H    6.433202   8.261868   5.983701   8.314300   9.354457
    44  H    6.176346   7.576474   5.767967   7.711635   8.594372
    45  H    5.027377   6.676713   4.364337   6.544527   7.587500
    46  H    4.930468   3.140188   4.454374   2.141350   1.090641
    47  H    5.668661   3.864507   4.954680   2.139506   1.092317
                   16         17         18         19         20
    16  O    0.000000
    17  H    0.970125   0.000000
    18  O    3.642318   4.371333   0.000000
    19  C    4.275619   4.904068   1.412953   0.000000
    20  H    4.124969   4.561642   2.097793   1.099363   0.000000
    21  H    5.307657   5.925101   2.018209   1.093140   1.777969
    22  H    4.403802   5.099423   2.085015   1.101466   1.789281
    23  O    4.192313   5.111165   2.788273   3.969561   4.790504
    24  Si   5.054880   5.998233   4.230613   5.183625   6.050923
    25  C    4.737702   5.658382   4.605622   5.186707   5.931780
    26  H    5.647144   6.527888   5.692827   6.228731   6.977844
    27  H    3.896149   4.764651   4.564062   5.170502   5.745989
    28  H    4.910054   5.832251   4.291650   4.598753   5.374876
    29  C    6.746900   7.706394   5.017795   5.780728   6.809805
    30  C    5.599383   6.424661   5.634608   6.763995   7.518000
    31  H    6.424163   7.240984   6.561714   7.602885   8.383111
    32  H    6.146419   6.937833   5.906504   7.136183   7.906887
    33  H    4.943556   5.687480   5.651547   6.807114   7.429632
    34  C    7.410931   8.329868   5.451256   6.380469   7.401159
    35  H    7.673165   8.561924   6.137702   7.185168   8.158737
    36  H    8.406223   9.331443   6.166278   6.966680   8.024303
    37  H    6.949637   7.833656   4.753732   5.763436   6.747580
    38  C    7.810670   8.767520   6.427772   7.089102   8.108962
    39  H    8.044775   8.973547   7.025210   7.822147   8.805301
    40  H    7.698443   8.649743   6.543278   7.057409   8.040074
    41  H    8.773948   9.737753   7.069671   7.648444   8.708951
    42  C    6.859548   7.818977   4.517929   4.955701   6.038732
    43  H    7.926903   8.880670   5.363028   5.697852   6.794966
    44  H    6.725496   7.681278   4.640427   4.857998   5.898573
    45  H    6.330143   7.261855   3.595907   4.056834   5.150259
    46  H    4.084574   3.710966   5.033678   5.697154   5.189821
    47  H    3.367403   2.894272   4.554859   4.830676   4.087584
                   21         22         23         24         25
    21  H    0.000000
    22  H    1.785652   0.000000
    23  O    4.427843   4.045340   0.000000
    24  Si   5.660053   4.944205   1.678230   0.000000
    25  C    5.856098   4.609748   2.938175   1.893408   0.000000
    26  H    6.866483   5.583184   3.876434   2.510139   1.096922
    27  H    5.994761   4.644524   3.176275   2.505955   1.097076
    28  H    5.216540   3.865308   3.218140   2.515669   1.095899
    29  C    5.929330   5.512109   2.827355   1.910501   3.152238
    30  C    7.305305   6.632363   2.926432   1.893119   3.069951
    31  H    8.140903   7.355754   3.868769   2.511484   3.288323
    32  H    7.574888   7.144172   3.172003   2.513706   4.037435
    33  H    7.472894   6.710774   3.192269   2.505751   3.269283
    34  C    6.382209   6.353081   3.238957   2.832670   4.489305
    35  H    7.273811   7.181048   3.652799   3.061589   4.792911
    36  H    6.821266   6.921073   4.220572   3.822639   5.323472
    37  H    5.712813   5.908490   2.802286   3.005370   4.756007
    38  C    7.268337   6.665219   4.193215   2.845270   3.542113
    39  H    8.070520   7.450378   4.525287   3.056350   3.872917
    40  H    7.318372   6.480138   4.507842   3.056755   3.107402
    41  H    7.687422   7.233583   5.004408   3.832301   4.549877
    42  C    4.932907   4.602252   3.197353   2.825041   3.537300
    43  H    5.496587   5.368711   4.188457   3.817195   4.554821
    44  H    4.945029   4.274929   3.589694   3.049102   3.114133
    45  H    3.954021   3.874126   2.747210   2.992703   3.828355
    46  H    6.271617   6.510151   6.353614   7.806390   8.241593
    47  H    5.543053   5.503514   6.349946   7.718932   7.762961
                   26         27         28         29         30
    26  H    0.000000
    27  H    1.765563   0.000000
    28  H    1.771138   1.768495   0.000000
    29  C    3.440051   4.098461   3.331427   0.000000
    30  C    3.257395   3.299425   4.038114   3.158713   0.000000
    31  H    3.097753   3.618935   4.292547   3.418595   1.096954
    32  H    4.280299   4.304498   4.919979   3.366839   1.095708
    33  H    3.531352   3.122178   4.293984   4.105932   1.097209
    34  C    4.828724   5.301881   4.760065   1.544231   3.517003
    35  H    5.009551   5.522041   5.277553   2.203633   3.097522
    36  H    5.579163   6.219399   5.465963   2.184901   4.543596
    37  H    5.305672   5.434441   4.971997   2.196929   3.786231
    38  C    3.332192   4.572402   3.793081   1.543476   3.590263
    39  H    3.523984   4.782108   4.382363   2.204987   3.164354
    40  H    2.686236   4.165616   3.245876   2.204097   3.943433
    41  H    4.335116   5.608851   4.650997   2.184303   4.589233
    42  C    3.983979   4.493878   3.212625   1.544330   4.487681
    43  H    4.871678   5.551171   4.196893   2.185297   5.326630
    44  H    3.486729   4.092230   2.534757   2.202582   4.804521
    45  H    4.515334   4.612327   3.449324   2.195176   4.726946
    46  H    9.250363   7.630669   8.378409   9.164258   8.172603
    47  H    8.779075   7.095382   7.721823   9.104325   8.374554
                   31         32         33         34         35
    31  H    0.000000
    32  H    1.771723   0.000000
    33  H    1.764649   1.768789   0.000000
    34  C    3.899200   3.216438   4.504933   0.000000
    35  H    3.373841   2.568245   4.114514   1.097237   0.000000
    36  H    4.794847   4.219836   5.565291   1.099984   1.768229
    37  H    4.421251   3.388941   4.616986   1.095436   1.772796
    38  C    3.352695   3.909390   4.596237   2.517392   2.766904
    39  H    2.687967   3.402967   4.195292   2.786016   2.584098
    40  H    3.605501   4.510217   4.811985   3.492387   3.795109
    41  H    4.339776   4.759933   5.630799   2.752053   3.088503
    42  C    4.827845   4.764025   5.297083   2.511415   3.487002
    43  H    5.572707   5.485267   6.220585   2.734911   3.744209
    44  H    5.044416   5.295351   5.514645   3.486302   4.361173
    45  H    5.282091   4.924139   5.413550   2.781784   3.806844
    46  H    9.209489   8.209301   7.593639   9.217689   9.456001
    47  H    9.350675   8.630164   7.805339   9.438549   9.814133
                   36         37         38         39         40
    36  H    0.000000
    37  H    1.773424   0.000000
    38  C    2.768958   3.486767   0.000000
    39  H    3.142063   3.796381   1.097398   0.000000
    40  H    3.776337   4.359955   1.097285   1.773209   0.000000
    41  H    2.546789   3.770059   1.099746   1.767795   1.767877
    42  C    2.735246   2.781061   2.519132   3.494401   2.781967
    43  H    2.496858   3.104407   2.771614   3.781995   3.136380
    44  H    3.743423   3.807058   2.767159   3.793055   2.578035
    45  H    3.108062   2.602724   3.486847   4.359811   3.791388
    46  H   10.108745   8.364936  10.538615  10.758329  10.753553
    47  H   10.317782   8.669840  10.425511  10.768053  10.466393
                   41         42         43         44         45
    41  H    0.000000
    42  C    2.759272   0.000000
    43  H    2.555728   1.100025   0.000000
    44  H    3.097089   1.097328   1.768402   0.000000
    45  H    3.776166   1.095281   1.776275   1.772334   0.000000
    46  H   11.348275   9.202261  10.093887   9.431981   8.343482
    47  H   11.250355   8.936985   9.862930   8.963809   8.096148
                   46         47
    46  H    0.000000
    47  H    1.839410   0.000000
 Stoichiometry    C14H28O4Si
 Framework group  C1[X(C14H28O4Si)]
 Deg. of freedom   135
 Full point group                 C1      NOp   1
 Largest Abelian subgroup         C1      NOp   1
 Largest concise Abelian subgroup C1      NOp   1
                         Standard orientation:                         
 ---------------------------------------------------------------------
 Center     Atomic      Atomic             Coordinates (Angstroms)
 Number     Number       Type             X           Y           Z
 ---------------------------------------------------------------------
      1          1           0       -0.515534   -1.441425    0.562760
      2          6           0       -0.524154   -0.572480   -0.111155
      3          6           0       -2.677663   -1.429218   -1.132178
      4          6           0       -2.731756    0.079353    0.942274
      5          6           0       -3.447772   -0.410358   -0.311959
      6          6           0       -1.295078    0.545387    0.617218
      7          6           0       -1.239288   -0.958899   -1.410930
      8          1           0       -3.213775   -1.615599   -2.068996
      9          1           0       -3.303633    0.919885    1.361189
     10          1           0       -0.785571    0.776844    1.565910
     11          1           0       -0.670634   -1.750545   -1.911460
     12          1           0       -2.654997   -2.374114   -0.572307
     13          1           0       -1.246595   -0.086186   -2.071704
     14          8           0       -4.121836    0.626851   -1.047628
     15          6           0       -4.919546   -0.346491   -0.364373
     16          8           0       -2.601069   -0.969680    1.906549
     17          1           0       -3.493870   -1.276215    2.130348
     18          8           0       -1.301154    1.679578   -0.228430
     19          6           0       -1.605311    2.906770    0.402382
     20          1           0       -2.659513    2.976398    0.706372
     21          1           0       -1.405535    3.692479   -0.330903
     22          1           0       -0.969607    3.073475    1.286303
     23          8           0        0.797274   -0.147791   -0.406728
     24         14           0        2.205038   -0.607603    0.382721
     25          6           0        2.071047   -0.257763    2.238698
     26          1           0        2.966434   -0.595938    2.774569
     27          1           0        1.213468   -0.782742    2.677481
     28          1           0        1.943026    0.811182    2.443544
     29          6           0        3.559636    0.453579   -0.447321
     30          6           0        2.500406   -2.462493    0.145993
     31          1           0        3.427838   -2.786886    0.633792
     32          1           0        2.568285   -2.729919   -0.914409
     33          1           0        1.683686   -3.050287    0.583411
     34          6           0        3.629836    0.122747   -1.954063
     35          1           0        3.923032   -0.919487   -2.132145
     36          1           0        4.376832    0.759624   -2.450399
     37          1           0        2.666551    0.290619   -2.447906
     38          6           0        4.933859    0.176736    0.198580
     39          1           0        5.236036   -0.872946    0.093033
     40          1           0        4.943461    0.422535    1.267937
     41          1           0        5.711850    0.787850   -0.281744
     42          6           0        3.208463    1.948297   -0.281634
     43          1           0        3.956803    2.575206   -0.788612
     44          1           0        3.193801    2.250168    0.773253
     45          1           0        2.227231    2.178164   -0.710568
     46          1           0       -5.464787   -1.040499   -1.005125
     47          1           0       -5.486603    0.032140    0.488997
 ---------------------------------------------------------------------
 Rotational constants (GHZ):      0.6615848      0.1862082      0.1781116
 Standard basis: 6-31+G(d,p) (6D, 7F)
 There are   505 symmetry adapted basis functions of A   symmetry.
 Integral buffers will be    131072 words long.
 Raffenetti 2 integral format.
 Two-electron integral symmetry is turned on.
   505 basis functions,   828 primitive gaussians,   505 cartesian basis functions
    79 alpha electrons       79 beta electrons
       nuclear repulsion energy      1806.8964591574 Hartrees.
 NAtoms=   47 NActive=   47 NUniq=   47 SFac= 1.00D+00 NAtFMM=   60 NAOKFM=F Big=F
 ------------------------------------------------------------------------------
 Polarizable Continuum Model (PCM)
 =================================
 Model                : PCM.
 Atomic radii         : UFF (Universal Force Field).
 Polarization charges : Total charges.
 Charge compensation  : None.
 Solution method      : Matrix inversion.
 Cavity type          : Scaled VdW (van der Waals Surface) (Alpha=1.100).
 Cavity algorithm     : GePol (No added spheres)
                        Default sphere list used, NSphG=   47.
                        Lebedev-Laikov grids with approx.  5.0 points / Ang**2.
                        Smoothing algorithm: Karplus/York (Gamma=1.0000).
                        Polarization charges: spherical gaussians, with
                                              point-specific exponents (IZeta= 3).
                        Self-potential: point-specific (ISelfS= 7).
                        Self-field    : sphere-specific E.n sum rule (ISelfD= 2).
 Solvent              : Chloroform, Eps=   4.711300 Eps(inf)=   2.090627
 ------------------------------------------------------------------------------
 One-electron integrals computed using PRISM.
 NBasis=   505 RedAO= T  NBF=   505
 NBsUse=   505 1.00D-06 NBFU=   505
 Harris functional with IExCor=  908 diagonalized for initial guess.
 ExpMin= 3.31D-02 ExpMax= 1.61D+04 ExpMxC= 2.43D+03 IAcc=3 IRadAn=         5 AccDes= 0.00D+00
 HarFok:  IExCor=  908 AccDes= 0.00D+00 IRadAn=         5 IDoV= 1
 ScaDFX=  1.000000  1.000000  1.000000  1.000000
 FoFCou: FMM=F IPFlag=           0 FMFlag=      100000 FMFlg1=           0
         NFxFlg=           0 DoJE=T BraDBF=F KetDBF=T FulRan=T
         Omega=  0.000000  0.000000  1.000000  0.000000  0.000000 ICntrl=     500 IOpCl=  0
         NMat0=    1 NMatS0=    1 NMatT0=    0 NMatD0=    1 NMtDS0=    0 NMtDT0=    0
         I1Cent=           4 NGrid=           0.
 Petite list used in FoFCou.
 Initial guess orbital symmetries:
       Occupied  (A) (A) (A) (A) (A) (A) (A) (A) (A) (A) (A) (A)
                 (A) (A) (A) (A) (A) (A) (A) (A) (A) (A) (A) (A)
                 (A) (A) (A) (A) (A) (A) (A) (A) (A) (A) (A) (A)
                 (A) (A) (A) (A) (A) (A) (A) (A) (A) (A) (A) (A)
                 (A) (A) (A) (A) (A) (A) (A) (A) (A) (A) (A) (A)
                 (A) (A) (A) (A) (A) (A) (A) (A) (A) (A) (A) (A)
                 (A) (A) (A) (A) (A) (A) (A)
       Virtual   (A) (A) (A) (A) (A) (A) (A) (A) (A) (A) (A) (A)
                 (A) (A) (A) (A) (A) (A) (A) (A) (A) (A) (A) (A)
                 (A) (A) (A) (A) (A) (A) (A) (A) (A) (A) (A) (A)
                 (A) (A) (A) (A) (A) (A) (A) (A) (A) (A) (A) (A)
                 (A) (A) (A) (A) (A) (A) (A) (A) (A) (A) (A) (A)
                 (A) (A) (A) (A) (A) (A) (A) (A) (A) (A) (A) (A)
                 (A) (A) (A) (A) (A) (A) (A) (A) (A) (A) (A) (A)
                 (A) (A) (A) (A) (A) (A) (A) (A) (A) (A) (A) (A)
                 (A) (A) (A) (A) (A) (A) (A) (A) (A) (A) (A) (A)
                 (A) (A) (A) (A) (A) (A) (A) (A) (A) (A) (A) (A)
                 (A) (A) (A) (A) (A) (A) (A) (A) (A) (A) (A) (A)
                 (A) (A) (A) (A) (A) (A) (A) (A) (A) (A) (A) (A)
                 (A) (A) (A) (A) (A) (A) (A) (A) (A) (A) (A) (A)
                 (A) (A) (A) (A) (A) (A) (A) (A) (A) (A) (A) (A)
                 (A) (A) (A) (A) (A) (A) (A) (A) (A) (A) (A) (A)
                 (A) (A) (A) (A) (A) (A) (A) (A) (A) (A) (A) (A)
                 (A) (A) (A) (A) (A) (A) (A) (A) (A) (A) (A) (A)
                 (A) (A) (A) (A) (A) (A) (A) (A) (A) (A) (A) (A)
                 (A) (A) (A) (A) (A) (A) (A) (A) (A) (A) (A) (A)
                 (A) (A) (A) (A) (A) (A) (A) (A) (A) (A) (A) (A)
                 (A) (A) (A) (A) (A) (A) (A) (A) (A) (A) (A) (A)
                 (A) (A) (A) (A) (A) (A) (A) (A) (A) (A) (A) (A)
                 (A) (A) (A) (A) (A) (A) (A) (A) (A) (A) (A) (A)
                 (A) (A) (A) (A) (A) (A) (A) (A) (A) (A) (A) (A)
                 (A) (A) (A) (A) (A) (A) (A) (A) (A) (A) (A) (A)
                 (A) (A) (A) (A) (A) (A) (A) (A) (A) (A) (A) (A)
                 (A) (A) (A) (A) (A) (A) (A) (A) (A) (A) (A) (A)
                 (A) (A) (A) (A) (A) (A) (A) (A) (A) (A) (A) (A)
                 (A) (A) (A) (A) (A) (A) (A) (A) (A) (A) (A) (A)
                 (A) (A) (A) (A) (A) (A) (A) (A) (A) (A) (A) (A)
                 (A) (A) (A) (A) (A) (A) (A) (A) (A) (A) (A) (A)
                 (A) (A) (A) (A) (A) (A) (A) (A) (A) (A) (A) (A)
                 (A) (A) (A) (A) (A) (A) (A) (A) (A) (A) (A) (A)
                 (A) (A) (A) (A) (A) (A) (A) (A) (A) (A) (A) (A)
                 (A) (A) (A) (A) (A) (A) (A) (A) (A) (A) (A) (A)
                 (A) (A) (A) (A) (A) (A)
 The electronic state of the initial guess is 1-A.
 Requested convergence on RMS density matrix=1.00D-08 within 128 cycles.
 Requested convergence on MAX density matrix=1.00D-06.
 Requested convergence on             energy=1.00D-06.
 No special actions if energy rises.
 Error on total polarization charges =  0.01535
 SCF Done:  E(RmPW1PW91) =  -1140.62111343     A.U. after   13 cycles
             Convg  =    0.4232D-08             -V/T =  2.0080
 Range of M.O.s used for correlation:     1   505
 NBasis=   505 NAE=    79 NBE=    79 NFC=     0 NFV=     0
 NROrb=    505 NOA=    79 NOB=    79 NVA=   426 NVB=   426

 **** Warning!!: The largest alpha MO coefficient is  0.11076502D+03

 NEqPCM:  Using equilibrium solvation (IEInf=0, Eps=   4.7113, EpsInf=   2.0906)
          Differentiating once with respect to magnetic field using GIAOs.
          Electric field/nuclear overlap derivatives assumed to be zero.
 FoFCou: FMM=F IPFlag=           0 FMFlag=    10101102 FMFlg1=           0
         NFxFlg=    40000000 DoJE=F BraDBF=F KetDBF=T FulRan=T
         Omega=  0.000000  0.000000  1.000000  0.000000  0.000000 ICntrl=    6100 IOpCl=  0
         NMat0=    1 NMatS0=    1 NMatT0=    0 NMatD0=    1 NMtDS0=    0 NMtDT0=    0
         I1Cent=           7 NGrid=        3090.
 Symmetry not used in FoFCou.
          There are     3 degrees of freedom in the 1st order CPHF.  IDoFFX=0.
      3 vectors produced by pass  0 Test12= 1.12D-12 3.33D-08 XBig12= 1.62D+02 1.97D+00.
 AX will form     3 AO Fock derivatives at one time.
      3 vectors produced by pass  1 Test12= 1.12D-12 3.33D-08 XBig12= 4.19D-01 8.26D-02.
      3 vectors produced by pass  2 Test12= 1.12D-12 3.33D-08 XBig12= 7.89D-04 3.97D-03.
      3 vectors produced by pass  3 Test12= 1.12D-12 3.33D-08 XBig12= 3.27D-06 3.36D-04.
      3 vectors produced by pass  4 Test12= 1.12D-12 3.33D-08 XBig12= 1.92D-08 1.87D-05.
      3 vectors produced by pass  5 Test12= 1.12D-12 3.33D-08 XBig12= 6.69D-11 9.69D-07.
      2 vectors produced by pass  6 Test12= 1.12D-12 3.33D-08 XBig12= 2.02D-13 4.39D-08.
 Inverted reduced A of dimension    20 with in-core refinement.
 Calculating GIAO nuclear magnetic shielding tensors.
 SCF GIAO Magnetic shielding tensor (ppm):
      1  H    Isotropic =    27.3218   Anisotropy =     8.0382
   XX=    32.6153   YX=     1.1729   ZX=    -1.0857
   XY=    -0.8326   YY=    25.3156   ZY=    -2.2175
   XZ=    -0.1813   YZ=    -2.8035   ZZ=    24.0345
   Eigenvalues:    22.0692    27.2156    32.6806
      2  C    Isotropic =   126.8616   Anisotropy =    53.4739
   XX=   154.2585   YX=    11.5196   ZX=    -7.6001
   XY=    27.6010   YY=   113.8696   ZY=     4.9211
   XZ=    -5.6207   YZ=     6.2175   ZZ=   112.4568
   Eigenvalues:   100.8147   117.2593   162.5109
      3  C    Isotropic =   166.9274   Anisotropy =    22.2055
   XX=   174.6699   YX=    -8.7916   ZX=     0.4136
   XY=    -5.9846   YY=   160.8024   ZY=    10.7257
   XZ=    -4.0645   YZ=    14.4721   ZZ=   165.3100
   Eigenvalues:   149.4099   169.6412   181.7311
      4  C    Isotropic =   122.1868   Anisotropy =    41.9641
   XX=   105.8638   YX=    -4.4740   ZX=    15.1754
   XY=    -0.4169   YY=   125.5613   ZY=   -15.0149
   XZ=    10.9320   YZ=   -16.6233   ZZ=   135.1353
   Eigenvalues:   100.3011   116.0964   150.1629
      5  C    Isotropic =   137.2828   Anisotropy =    59.8524
   XX=    86.9643   YX=     2.7193   ZX=    -1.5780
   XY=     2.0032   YY=   154.2041   ZY=    14.1478
   XZ=    -2.4595   YZ=    10.2917   ZZ=   170.6802
   Eigenvalues:    86.8082   147.8559   177.1844
      6  C    Isotropic =   113.3409   Anisotropy =    46.0580
   XX=   100.3536   YX=     7.4476   ZX=    -2.5831
   XY=   -10.7910   YY=   128.3153   ZY=   -21.5082
   XZ=     9.9804   YZ=   -23.2548   ZZ=   111.3539
   Eigenvalues:    95.0355   100.9410   144.0463
      7  C    Isotropic =   167.2396   Anisotropy =    29.0958
   XX=   183.0210   YX=     5.7303   ZX=    -0.3349
   XY=     8.8737   YY=   152.3535   ZY=     7.9227
   XZ=     9.1670   YZ=     8.3637   ZZ=   166.3443
   Eigenvalues:   147.9145   167.1674   186.6368
      8  H    Isotropic =    30.5168   Anisotropy =    10.7016
   XX=    31.6450   YX=     1.7394   ZX=     3.5962
   XY=     1.4947   YY=    27.4155   ZY=     5.2959
   XZ=     2.3417   YZ=     5.1387   ZZ=    32.4898
   Eigenvalues:    24.1447    29.7544    37.6511
      9  H    Isotropic =    27.9627   Anisotropy =     4.2997
   XX=    27.0199   YX=    -1.3892   ZX=    -2.0035
   XY=    -0.3300   YY=    29.7412   ZY=     2.1421
   XZ=    -0.4212   YZ=     0.7543   ZZ=    27.1272
   Eigenvalues:    25.8092    27.2498    30.8292
     10  H    Isotropic =    28.1339   Anisotropy =     4.2873
   XX=    29.8431   YX=    -0.8324   ZX=     1.1307
   XY=    -0.8634   YY=    26.1295   ZY=    -1.8534
   XZ=     1.7841   YZ=     0.5244   ZZ=    28.4292
   Eigenvalues:    25.8860    27.5236    30.9921
     11  H    Isotropic =    30.1428   Anisotropy =     8.2421
   XX=    32.4586   YX=    -2.2480   ZX=    -1.1029
   XY=    -1.7337   YY=    29.1545   ZY=     4.6430
   XZ=    -1.8585   YZ=     4.8358   ZZ=    28.8154
   Eigenvalues:    24.2292    30.5616    35.6376
     12  H    Isotropic =    29.1733   Anisotropy =     7.7056
   XX=    28.0757   YX=     1.2925   ZX=    -0.5324
   XY=     0.3216   YY=    34.1651   ZY=    -0.9048
   XZ=    -1.0134   YZ=    -0.1014   ZZ=    25.2790
   Eigenvalues:    25.0704    28.1391    34.3103
     13  H    Isotropic =    29.2565   Anisotropy =     4.0799
   XX=    28.7932   YX=     0.9164   ZX=     0.2238
   XY=     0.2954   YY=    27.8844   ZY=    -1.5337
   XZ=    -0.3899   YZ=    -2.1813   ZZ=    31.0918
   Eigenvalues:    26.8923    28.9008    31.9764
     14  O    Isotropic =   296.6529   Anisotropy =   132.2967
   XX=   351.3215   YX=   -63.5553   ZX=    48.0645
   XY=   -15.0733   YY=   232.4490   ZY=   109.1164
   XZ=    29.7207   YZ=   101.5278   ZZ=   306.1882
   Eigenvalues:   143.3858   361.7223   384.8507
     15  C    Isotropic =   147.4321   Anisotropy =    44.2482
   XX=   114.3311   YX=     2.0837   ZX=    -5.2139
   XY=    -0.8271   YY=   161.3761   ZY=    12.1231
   XZ=     1.2768   YZ=    13.2018   ZZ=   166.5892
   Eigenvalues:   114.2294   151.1360   176.9309
     16  O    Isotropic =   293.3840   Anisotropy =    64.2498
   XX=   319.7808   YX=    42.5833   ZX=   -13.4600
   XY=    17.4896   YY=   269.8904   ZY=   -24.5022
   XZ=     9.2881   YZ=   -13.4837   ZZ=   290.4810
   Eigenvalues:   249.1673   294.7676   336.2172
     17  H    Isotropic =    30.5049   Anisotropy =    18.8952
   XX=    37.7187   YX=     5.1358   ZX=    -5.2766
   XY=     6.1129   YY=    25.3801   ZY=    -5.5284
   XZ=    -4.4968   YZ=    -6.2968   ZZ=    28.4158
   Eigenvalues:    20.6293    27.7837    43.1017
     18  O    Isotropic =   316.7820   Anisotropy =    44.1737
   XX=   296.3623   YX=    13.0981   ZX=     5.5909
   XY=     1.9949   YY=   310.2161   ZY=    -6.5736
   XZ=    -7.3359   YZ=   -11.6423   ZZ=   343.7676
   Eigenvalues:   292.8717   311.2432   346.2311
     19  C    Isotropic =   139.2833   Anisotropy =    83.3118
   XX=   113.1463   YX=   -15.3486   ZX=     1.9846
   XY=   -13.0067   YY=   178.9299   ZY=    30.6486
   XZ=     0.0686   YZ=    30.6152   ZZ=   125.7736
   Eigenvalues:   104.7666   118.2588   194.8245
     20  H    Isotropic =    28.0394   Anisotropy =     9.8344
   XX=    29.1044   YX=    -2.0845   ZX=    -1.2514
   XY=    -4.2317   YY=    31.3738   ZY=     3.2811
   XZ=    -2.1457   YZ=     2.4230   ZZ=    23.6400
   Eigenvalues:    22.6263    26.8963    34.5956
     21  H    Isotropic =    27.8210   Anisotropy =    10.6545
   XX=    24.4837   YX=    -1.1903   ZX=    -0.0268
   XY=    -0.0217   YY=    34.6853   ZY=    -2.8384
   XZ=    -0.4437   YZ=    -0.1299   ZZ=    24.2939
   Eigenvalues:    23.9037    24.6353    34.9240
     22  H    Isotropic =    28.5461   Anisotropy =     9.2015
   XX=    27.2426   YX=    -0.1986   ZX=     0.8541
   XY=     1.5829   YY=    30.8471   ZY=     6.1872
   XZ=     2.0163   YZ=     3.7114   ZZ=    27.5484
   Eigenvalues:    23.8036    27.1542    34.6804
     23  O    Isotropic =   284.6341   Anisotropy =    48.6607
   XX=   283.9730   YX=     0.9645   ZX=    13.6915
   XY=    10.1566   YY=   273.3537   ZY=    14.5689
   XZ=    27.2001   YZ=    15.2632   ZZ=   296.5754
   Eigenvalues:   264.2556   272.5721   317.0745
     24  Si   Isotropic =   381.3920   Anisotropy =    40.6640
   XX=   407.5961   YX=    -1.5088   ZX=    11.5379
   XY=    11.3861   YY=   370.5576   ZY=    -0.9364
   XZ=    -3.9932   YZ=    -5.9190   ZZ=   366.0222
   Eigenvalues:   363.4419   372.2327   408.5013
     25  C    Isotropic =   199.6367   Anisotropy =     7.7668
   XX=   201.1896   YX=    -4.0171   ZX=     1.7093
   XY=    -5.3574   YY=   197.6670   ZY=     2.6060
   XZ=     2.8349   YZ=     7.0784   ZZ=   200.0534
   Eigenvalues:   191.2422   202.8533   204.8146
     26  H    Isotropic =    31.6965   Anisotropy =    10.9471
   XX=    34.2248   YX=    -2.0108   ZX=     4.6093
   XY=    -2.1160   YY=    27.4604   ZY=    -2.0384
   XZ=     4.3445   YZ=    -1.7756   ZZ=    33.4044
   Eigenvalues:    26.7759    29.3191    38.9946
     27  H    Isotropic =    31.2641   Anisotropy =     8.5202
   XX=    34.0439   YX=     2.9812   ZX=    -2.5280
   XY=     2.4117   YY=    27.9653   ZY=    -1.8790
   XZ=    -2.5105   YZ=    -2.2095   ZZ=    31.7830
   Eigenvalues:    26.6811    30.1669    36.9442
     28  H    Isotropic =    31.4285   Anisotropy =     8.1857
   XX=    28.5549   YX=    -0.8766   ZX=    -0.4874
   XY=    -0.5515   YY=    35.1886   ZY=     2.6636
   XZ=    -0.8377   YZ=     3.6387   ZZ=    30.5420
   Eigenvalues:    28.3334    29.0664    36.8856
     29  C    Isotropic =   174.5359   Anisotropy =     7.8700
   XX=   175.9094   YX=    -2.8801   ZX=     3.4637
   XY=    -2.3351   YY=   173.0485   ZY=    -1.2214
   XZ=     2.8843   YZ=    -1.6051   ZZ=   174.6498
   Eigenvalues:   171.3817   172.4434   179.7825
     30  C    Isotropic =   200.9022   Anisotropy =     9.8852
   XX=   199.8781   YX=    -2.2083   ZX=     3.4870
   XY=    -4.0930   YY=   201.2354   ZY=     8.5993
   XZ=     5.0253   YZ=     3.2744   ZZ=   201.5930
   Eigenvalues:   191.9917   203.2225   207.4923
     31  H    Isotropic =    31.6790   Anisotropy =    10.8473
   XX=    34.8986   YX=    -3.7655   ZX=     3.4060
   XY=    -3.5785   YY=    31.8322   ZY=    -1.9550
   XZ=     3.6550   YZ=    -2.1409   ZZ=    28.3061
   Eigenvalues:    26.7202    29.4062    38.9105
     32  H    Isotropic =    31.5436   Anisotropy =     9.2571
   XX=    27.8992   YX=    -0.4318   ZX=    -1.1710
   XY=    -0.3538   YY=    31.4528   ZY=     4.2550
   XZ=    -1.5125   YZ=     3.1402   ZZ=    35.2787
   Eigenvalues:    27.6316    29.2842    37.7150
     33  H    Isotropic =    31.2978   Anisotropy =     8.7845
   XX=    32.9522   YX=     2.8131   ZX=    -2.4603
   XY=     2.9635   YY=    33.4777   ZY=    -2.2955
   XZ=    -2.2359   YZ=    -2.0046   ZZ=    27.4635
   Eigenvalues:    26.4070    30.3322    37.1541
     34  C    Isotropic =   170.3308   Anisotropy =    38.1988
   XX=   156.8607   YX=     1.3305   ZX=    -3.3247
   XY=     1.8318   YY=   161.1242   ZY=     7.3850
   XZ=     0.8667   YZ=    12.2278   ZZ=   193.0074
   Eigenvalues:   155.5957   159.6000   195.7967
     35  H    Isotropic =    30.5850   Anisotropy =     8.8078
   XX=    27.5648   YX=    -1.0286   ZX=    -2.5587
   XY=    -1.0656   YY=    33.1538   ZY=     2.7335
   XZ=    -2.9504   YZ=     4.2394   ZZ=    31.0365
   Eigenvalues:    25.9337    29.3644    36.4568
     36  H    Isotropic =    31.0451   Anisotropy =     9.7552
   XX=    30.7249   YX=     2.3097   ZX=    -3.8379
   XY=     2.0466   YY=    28.8456   ZY=    -1.7017
   XZ=    -4.5519   YZ=    -2.3286   ZZ=    33.5648
   Eigenvalues:    27.2229    28.3638    37.5486
     37  H    Isotropic =    30.1793   Anisotropy =     7.6822
   XX=    32.2677   YX=     0.3611   ZX=     1.7109
   XY=     0.4948   YY=    24.9345   ZY=    -0.2912
   XZ=     3.1692   YZ=    -0.6909   ZZ=    33.3356
   Eigenvalues:    24.8578    30.3793    35.3007
     38  C    Isotropic =   170.6996   Anisotropy =    39.3274
   XX=   186.7624   YX=    -9.2292   ZX=    17.1888
   XY=    -6.9619   YY=   159.1179   ZY=    -2.6162
   XZ=    13.6143   YZ=    -3.1688   ZZ=   166.2184
   Eigenvalues:   156.2940   158.8869   196.9178
     39  H    Isotropic =    30.6862   Anisotropy =     9.4176
   XX=    33.1232   YX=    -4.2384   ZX=     0.5213
   XY=    -3.1745   YY=    33.0919   ZY=    -0.6588
   XZ=     1.1481   YZ=    -1.3322   ZZ=    25.8435
   Eigenvalues:    25.6893    29.4047    36.9646
     40  H    Isotropic =    30.7186   Anisotropy =     8.9809
   XX=    31.5973   YX=     1.2254   ZX=     3.7239
   XY=     0.6482   YY=    25.8418   ZY=     0.2556
   XZ=     2.4694   YZ=     0.7966   ZZ=    34.7169
   Eigenvalues:    25.6929    29.7571    36.7059
     41  H    Isotropic =    30.8559   Anisotropy =    10.2000
   XX=    36.5533   YX=     3.3490   ZX=    -1.4585
   XY=     2.5085   YY=    28.2900   ZY=    -1.3026
   XZ=    -0.5283   YZ=    -0.9914   ZZ=    27.7243
   Eigenvalues:    26.6648    28.2470    37.6559
     42  C    Isotropic =   170.5283   Anisotropy =    37.9875
   XX=   160.8862   YX=    -6.7633   ZX=    -4.0339
   XY=   -11.9062   YY=   192.4997   ZY=     6.4817
   XZ=    -3.3402   YZ=     2.8823   ZZ=   158.1989
   Eigenvalues:   155.5206   160.2110   195.8533
     43  H    Isotropic =    31.0299   Anisotropy =     9.5486
   XX=    30.1025   YX=     2.9864   ZX=    -1.9202
   XY=     3.7432   YY=    34.8198   ZY=    -2.3420
   XZ=    -1.8529   YZ=    -1.8991   ZZ=    28.1675
   Eigenvalues:    27.0140    28.6800    37.3956
     44  H    Isotropic =    30.5584   Anisotropy =     8.0461
   XX=    27.4817   YX=     0.5622   ZX=    -1.6271
   XY=     0.5622   YY=    32.1472   ZY=     4.5195
   XZ=    -1.3316   YZ=     3.0312   ZZ=    32.0464
   Eigenvalues:    26.3663    29.3865    35.9225
     45  H    Isotropic =    30.0401   Anisotropy =     8.5972
   XX=    34.1008   YX=    -1.6070   ZX=     1.2598
   XY=    -3.1711   YY=    31.1449   ZY=    -2.1535
   XZ=     1.0794   YZ=    -1.4867   ZZ=    24.8746
   Eigenvalues:    24.3553    29.9935    35.7716
     46  H    Isotropic =    29.1503   Anisotropy =    11.3780
   XX=    31.1404   YX=     3.1820   ZX=     0.2507
   XY=     6.4081   YY=    28.7449   ZY=     3.5665
   XZ=     3.9509   YZ=     4.2400   ZZ=    27.5656
   Eigenvalues:    23.6824    27.0328    36.7356
     47  H    Isotropic =    29.1079   Anisotropy =    10.7712
   XX=    31.5289   YX=     0.9528   ZX=    -2.9716
   XY=    -1.7517   YY=    25.2233   ZY=     2.3222
   XZ=    -6.8411   YZ=     2.2496   ZZ=    30.5717
   Eigenvalues:    23.9906    27.0445    36.2887
 End of Minotr Frequency-dependent properties file   721 does not exist.
 End of Minotr Frequency-dependent properties file   722 does not exist.

 **********************************************************************

            Population analysis using the SCF density.

 **********************************************************************

 Orbital symmetries:
       Occupied  (A) (A) (A) (A) (A) (A) (A) (A) (A) (A) (A) (A)
                 (A) (A) (A) (A) (A) (A) (A) (A) (A) (A) (A) (A)
                 (A) (A) (A) (A) (A) (A) (A) (A) (A) (A) (A) (A)
                 (A) (A) (A) (A) (A) (A) (A) (A) (A) (A) (A) (A)
                 (A) (A) (A) (A) (A) (A) (A) (A) (A) (A) (A) (A)
                 (A) (A) (A) (A) (A) (A) (A) (A) (A) (A) (A) (A)
                 (A) (A) (A) (A) (A) (A) (A)
       Virtual   (A) (A) (A) (A) (A) (A) (A) (A) (A) (A) (A) (A)
                 (A) (A) (A) (A) (A) (A) (A) (A) (A) (A) (A) (A)
                 (A) (A) (A) (A) (A) (A) (A) (A) (A) (A) (A) (A)
                 (A) (A) (A) (A) (A) (A) (A) (A) (A) (A) (A) (A)
                 (A) (A) (A) (A) (A) (A) (A) (A) (A) (A) (A) (A)
                 (A) (A) (A) (A) (A) (A) (A) (A) (A) (A) (A) (A)
                 (A) (A) (A) (A) (A) (A) (A) (A) (A) (A) (A) (A)
                 (A) (A) (A) (A) (A) (A) (A) (A) (A) (A) (A) (A)
                 (A) (A) (A) (A) (A) (A) (A) (A) (A) (A) (A) (A)
                 (A) (A) (A) (A) (A) (A) (A) (A) (A) (A) (A) (A)
                 (A) (A) (A) (A) (A) (A) (A) (A) (A) (A) (A) (A)
                 (A) (A) (A) (A) (A) (A) (A) (A) (A) (A) (A) (A)
                 (A) (A) (A) (A) (A) (A) (A) (A) (A) (A) (A) (A)
                 (A) (A) (A) (A) (A) (A) (A) (A) (A) (A) (A) (A)
                 (A) (A) (A) (A) (A) (A) (A) (A) (A) (A) (A) (A)
                 (A) (A) (A) (A) (A) (A) (A) (A) (A) (A) (A) (A)
                 (A) (A) (A) (A) (A) (A) (A) (A) (A) (A) (A) (A)
                 (A) (A) (A) (A) (A) (A) (A) (A) (A) (A) (A) (A)
                 (A) (A) (A) (A) (A) (A) (A) (A) (A) (A) (A) (A)
                 (A) (A) (A) (A) (A) (A) (A) (A) (A) (A) (A) (A)
                 (A) (A) (A) (A) (A) (A) (A) (A) (A) (A) (A) (A)
                 (A) (A) (A) (A) (A) (A) (A) (A) (A) (A) (A) (A)
                 (A) (A) (A) (A) (A) (A) (A) (A) (A) (A) (A) (A)
                 (A) (A) (A) (A) (A) (A) (A) (A) (A) (A) (A) (A)
                 (A) (A) (A) (A) (A) (A) (A) (A) (A) (A) (A) (A)
                 (A) (A) (A) (A) (A) (A) (A) (A) (A) (A) (A) (A)
                 (A) (A) (A) (A) (A) (A) (A) (A) (A) (A) (A) (A)
                 (A) (A) (A) (A) (A) (A) (A) (A) (A) (A) (A) (A)
                 (A) (A) (A) (A) (A) (A) (A) (A) (A) (A) (A) (A)
                 (A) (A) (A) (A) (A) (A) (A) (A) (A) (A) (A) (A)
                 (A) (A) (A) (A) (A) (A) (A) (A) (A) (A) (A) (A)
                 (A) (A) (A) (A) (A) (A) (A) (A) (A) (A) (A) (A)
                 (A) (A) (A) (A) (A) (A) (A) (A) (A) (A) (A) (A)
                 (A) (A) (A) (A) (A) (A) (A) (A) (A) (A) (A) (A)
                 (A) (A) (A) (A) (A) (A) (A) (A) (A) (A) (A) (A)
                 (A) (A) (A) (A) (A) (A)
 The electronic state is 1-A.
 Alpha  occ. eigenvalues --  -66.30034 -19.26624 -19.26449 -19.25128 -19.22918
 Alpha  occ. eigenvalues --  -10.31617 -10.31096 -10.30384 -10.30247 -10.30201
 Alpha  occ. eigenvalues --  -10.28597 -10.25327 -10.24509 -10.24210 -10.23465
 Alpha  occ. eigenvalues --  -10.23047 -10.22976 -10.22235 -10.22218  -5.33454
 Alpha  occ. eigenvalues --   -3.67359  -3.67084  -3.67060  -1.11401  -1.07609
 Alpha  occ. eigenvalues --   -1.06454  -1.02803  -0.84186  -0.81951  -0.77537
 Alpha  occ. eigenvalues --   -0.74954  -0.72027  -0.70258  -0.70209  -0.69968
 Alpha  occ. eigenvalues --   -0.69280  -0.68724  -0.64456  -0.62365  -0.57554
 Alpha  occ. eigenvalues --   -0.56956  -0.54103  -0.53427  -0.52663  -0.50275
 Alpha  occ. eigenvalues --   -0.48478  -0.48133  -0.47590  -0.46281  -0.45532
 Alpha  occ. eigenvalues --   -0.44320  -0.44184  -0.43559  -0.43224  -0.42637
 Alpha  occ. eigenvalues --   -0.41730  -0.41396  -0.40990  -0.40121  -0.39930
 Alpha  occ. eigenvalues --   -0.39738  -0.39257  -0.38821  -0.38571  -0.38154
 Alpha  occ. eigenvalues --   -0.36967  -0.36018  -0.35635  -0.34239  -0.33557
 Alpha  occ. eigenvalues --   -0.33344  -0.32310  -0.31675  -0.31433  -0.30549
 Alpha  occ. eigenvalues --   -0.28660  -0.27628  -0.27128  -0.26838
 Alpha virt. eigenvalues --   -0.00297   0.00482   0.01138   0.01599   0.02293
 Alpha virt. eigenvalues --    0.02926   0.03188   0.03970   0.04216   0.04610
 Alpha virt. eigenvalues --    0.04954   0.05180   0.05679   0.05833   0.06301
 Alpha virt. eigenvalues --    0.06935   0.07310   0.07398   0.08092   0.08137
 Alpha virt. eigenvalues --    0.08495   0.08611   0.08998   0.09302   0.09472
 Alpha virt. eigenvalues --    0.09958   0.10367   0.10628   0.11190   0.11603
 Alpha virt. eigenvalues --    0.11704   0.12120   0.12388   0.12796   0.13120
 Alpha virt. eigenvalues --    0.13373   0.14018   0.14178   0.14340   0.14593
 Alpha virt. eigenvalues --    0.14712   0.14972   0.15471   0.15603   0.16493
 Alpha virt. eigenvalues --    0.16693   0.17211   0.17333   0.17686   0.18045
 Alpha virt. eigenvalues --    0.18348   0.18566   0.19098   0.19501   0.19928
 Alpha virt. eigenvalues --    0.20571   0.20700   0.20868   0.21125   0.21303
 Alpha virt. eigenvalues --    0.21414   0.21764   0.22548   0.22873   0.23081
 Alpha virt. eigenvalues --    0.23372   0.23848   0.24304   0.24323   0.24493
 Alpha virt. eigenvalues --    0.24736   0.25458   0.25950   0.26333   0.26593
 Alpha virt. eigenvalues --    0.26957   0.27071   0.27178   0.27611   0.28011
 Alpha virt. eigenvalues --    0.28227   0.28356   0.28910   0.29354   0.29747
 Alpha virt. eigenvalues --    0.30158   0.30403   0.30478   0.30686   0.31565
 Alpha virt. eigenvalues --    0.32080   0.32201   0.32412   0.33105   0.33482
 Alpha virt. eigenvalues --    0.33809   0.34288   0.34635   0.35449   0.36591
 Alpha virt. eigenvalues --    0.36634   0.36772   0.37630   0.37997   0.38278
 Alpha virt. eigenvalues --    0.38598   0.39576   0.40506   0.40765   0.41361
 Alpha virt. eigenvalues --    0.41765   0.43192   0.43405   0.44235   0.44664
 Alpha virt. eigenvalues --    0.45826   0.46522   0.47396   0.48231   0.48995
 Alpha virt. eigenvalues --    0.50109   0.50830   0.52739   0.53859   0.55405
 Alpha virt. eigenvalues --    0.55601   0.60281   0.64271   0.65873   0.67088
 Alpha virt. eigenvalues --    0.68353   0.68649   0.69059   0.70591   0.71260
 Alpha virt. eigenvalues --    0.71396   0.72064   0.72406   0.73004   0.73642
 Alpha virt. eigenvalues --    0.74523   0.75542   0.77324   0.78212   0.78607
 Alpha virt. eigenvalues --    0.79260   0.80408   0.80829   0.81265   0.81884
 Alpha virt. eigenvalues --    0.82768   0.82927   0.84212   0.85253   0.86063
 Alpha virt. eigenvalues --    0.86593   0.87262   0.88158   0.88831   0.89710
 Alpha virt. eigenvalues --    0.90859   0.91397   0.92319   0.93156   0.94665
 Alpha virt. eigenvalues --    0.95048   0.95721   0.96620   0.97262   0.97754
 Alpha virt. eigenvalues --    0.99058   0.99234   0.99973   1.00950   1.01055
 Alpha virt. eigenvalues --    1.02434   1.03686   1.03999   1.05073   1.05655
 Alpha virt. eigenvalues --    1.05849   1.06206   1.06426   1.07706   1.08285
 Alpha virt. eigenvalues --    1.08462   1.09014   1.10086   1.10752   1.11326
 Alpha virt. eigenvalues --    1.12049   1.13591   1.14693   1.15603   1.16792
 Alpha virt. eigenvalues --    1.17644   1.18342   1.19188   1.20113   1.20797
 Alpha virt. eigenvalues --    1.22076   1.23287   1.23490   1.25035   1.25541
 Alpha virt. eigenvalues --    1.27464   1.28457   1.29842   1.31007   1.33048
 Alpha virt. eigenvalues --    1.33911   1.35019   1.35828   1.36327   1.36705
 Alpha virt. eigenvalues --    1.38064   1.40281   1.41623   1.42128   1.44235
 Alpha virt. eigenvalues --    1.45621   1.47599   1.47897   1.48679   1.49617
 Alpha virt. eigenvalues --    1.51304   1.51522   1.52091   1.52908   1.54187
 Alpha virt. eigenvalues --    1.57669   1.58314   1.59875   1.61464   1.63314
 Alpha virt. eigenvalues --    1.65204   1.66155   1.66421   1.67862   1.68775
 Alpha virt. eigenvalues --    1.69889   1.70553   1.72721   1.75161   1.75423
 Alpha virt. eigenvalues --    1.77220   1.77831   1.79762   1.81305   1.82604
 Alpha virt. eigenvalues --    1.83473   1.84151   1.85268   1.86296   1.87086
 Alpha virt. eigenvalues --    1.89397   1.90758   1.91098   1.91923   1.93431
 Alpha virt. eigenvalues --    1.93483   1.94708   1.95709   1.95985   1.97083
 Alpha virt. eigenvalues --    1.97916   1.98745   2.00270   2.00535   2.02463
 Alpha virt. eigenvalues --    2.03585   2.03903   2.04927   2.06082   2.06389
 Alpha virt. eigenvalues --    2.06782   2.07712   2.08457   2.09331   2.09651
 Alpha virt. eigenvalues --    2.10825   2.11167   2.11346   2.12194   2.12933
 Alpha virt. eigenvalues --    2.13846   2.14238   2.14667   2.15628   2.15974
 Alpha virt. eigenvalues --    2.16135   2.16337   2.17147   2.17198   2.18039
 Alpha virt. eigenvalues --    2.18969   2.19628   2.20101   2.20841   2.21611
 Alpha virt. eigenvalues --    2.22032   2.22801   2.24584   2.25695   2.27604
 Alpha virt. eigenvalues --    2.28590   2.29224   2.30392   2.34759   2.35066
 Alpha virt. eigenvalues --    2.35847   2.37180   2.38033   2.39187   2.39758
 Alpha virt. eigenvalues --    2.40017   2.41461   2.42384   2.43087   2.43726
 Alpha virt. eigenvalues --    2.45814   2.46872   2.48245   2.49059   2.51020
 Alpha virt. eigenvalues --    2.55047   2.56978   2.57664   2.57968   2.58632
 Alpha virt. eigenvalues --    2.60193   2.60549   2.62523   2.63104   2.64289
 Alpha virt. eigenvalues --    2.67598   2.67993   2.68974   2.69288   2.70922
 Alpha virt. eigenvalues --    2.71719   2.72910   2.73432   2.73963   2.74217
 Alpha virt. eigenvalues --    2.76445   2.76970   2.78217   2.78361   2.79158
 Alpha virt. eigenvalues --    2.81079   2.82244   2.83119   2.85109   2.85484
 Alpha virt. eigenvalues --    2.85728   2.86666   2.87180   2.87715   2.88538
 Alpha virt. eigenvalues --    2.88785   2.88879   2.89461   2.90110   2.91133
 Alpha virt. eigenvalues --    2.92100   2.93990   2.94618   2.96662   2.97875
 Alpha virt. eigenvalues --    2.99239   2.99617   3.00747   3.03922   3.05555
 Alpha virt. eigenvalues --    3.09954   3.16524   3.17926   3.24582   3.26705
 Alpha virt. eigenvalues --    3.27440   3.27970   3.29950   3.30811   3.32110
 Alpha virt. eigenvalues --    3.32265   3.35728   3.39034   3.39964   3.46508
 Alpha virt. eigenvalues --    3.47773   3.47953   3.48257   3.48518   3.48751
 Alpha virt. eigenvalues --    3.49951   3.50217   3.50749   3.51409   3.52191
 Alpha virt. eigenvalues --    3.52842   3.53015   3.55468   3.55950   3.56376
 Alpha virt. eigenvalues --    3.57299   3.60045   3.62970   4.35041   4.43108
 Alpha virt. eigenvalues --    4.46490   4.49256   4.54645   4.57272   4.59923
 Alpha virt. eigenvalues --    4.62460   4.64003   4.65769   4.66465   4.68577
 Alpha virt. eigenvalues --    4.71457   4.73221   4.78616   4.85310   4.97310
 Alpha virt. eigenvalues --    5.04993
          Condensed to atoms (all electrons):
              1          2          3          4          5          6
     1  H    0.583606   0.254456  -0.016892  -0.040819  -0.000930   0.155861
     2  C    0.254456  13.158529   0.330383  -0.141903   0.384888  -5.127868
     3  C   -0.016892   0.330383   8.551676  -2.044169  -0.359446   0.381229
     4  C   -0.040819  -0.141903  -2.044169  11.070451  -2.673552  -1.586602
     5  C   -0.000930   0.384888  -0.359446  -2.673552  11.585777  -0.079067
     6  C    0.155861  -5.127868   0.381229  -1.586602  -0.079067  12.729070
     7  C   -0.095581  -0.995534  -0.476132   0.794540  -0.185573  -1.426365
     8  H   -0.000034   0.040135   0.409821   0.029328  -0.061494  -0.002785
     9  H   -0.000099  -0.030006   0.044930   0.198777  -0.019275   0.120170
    10  H   -0.004734   0.201814  -0.034225  -0.035337   0.046390   0.095900
    11  H   -0.005138  -0.055660   0.009467  -0.005036   0.011120   0.074523
    12  H    0.002696  -0.035154   0.334037   0.038411  -0.054854   0.035838
    13  H    0.004463  -0.108980  -0.083391   0.003662   0.009025   0.036426
    14  O    0.000161  -0.008337  -0.120762  -0.148876   0.264614   0.045718
    15  C   -0.008180  -0.539573  -0.219781   0.195457  -2.499011   0.108131
    16  O   -0.001808  -0.065262   0.006430   0.053751   0.034944   0.019342
    17  H   -0.000005  -0.014285  -0.009655   0.039387   0.013067   0.028131
    18  O    0.012518  -0.084910  -0.067871  -0.093484   0.104465   0.338774
    19  C    0.004642  -0.121433  -0.037443   0.077518  -0.155500  -0.007851
    20  H    0.000005  -0.019366   0.000364  -0.047691  -0.003771   0.064902
    21  H    0.000003  -0.007430   0.003732   0.018771  -0.002582  -0.004876
    22  H   -0.000008   0.025549  -0.003822   0.002342   0.000331  -0.056506
    23  O   -0.073677   0.162233   0.004611   0.071205   0.016491  -0.087899
    24  Si   0.099796  -0.795083  -0.098961  -0.112498   0.044531   0.485881
    25  C   -0.014738   0.165162   0.003276  -0.008292  -0.001045  -0.111546
    26  H   -0.000013   0.009304  -0.000003   0.000981   0.000043  -0.004198
    27  H    0.000534  -0.002570  -0.000906   0.002982   0.001804  -0.004399
    28  H    0.000035  -0.024270  -0.000441  -0.003174   0.000475   0.015088
    29  C    0.004150  -0.305222   0.001955  -0.017138   0.003502   0.163712
    30  C   -0.018537   0.063185   0.014208   0.003902  -0.010627  -0.050313
    31  H   -0.000039   0.008704   0.000256   0.000143   0.000010  -0.002645
    32  H   -0.000042  -0.014486  -0.000193  -0.000087  -0.000455   0.003727
    33  H    0.001167  -0.019007   0.000687  -0.000645   0.000319   0.006796
    34  C   -0.002323  -0.004071   0.021002   0.001702  -0.007732   0.037190
    35  H    0.000001  -0.001747  -0.000033  -0.000061   0.000056  -0.000075
    36  H    0.000000   0.000038  -0.000001  -0.000014   0.000021   0.000232
    37  H    0.000000   0.009701   0.000111   0.000762  -0.000377  -0.002534
    38  C    0.000911  -0.045596   0.001825  -0.005088  -0.000222   0.019228
    39  H    0.000000   0.000721   0.000008  -0.000018   0.000005  -0.000240
    40  H    0.000000  -0.000318   0.000004   0.000012  -0.000006   0.000307
    41  H    0.000000  -0.001013  -0.000003  -0.000004   0.000001   0.000171
    42  C    0.001362   0.140581  -0.011048   0.015796   0.003628  -0.106057
    43  H    0.000000   0.000864  -0.000013   0.000078   0.000027  -0.000091
    44  H    0.000000  -0.004048   0.000043   0.000022   0.000035   0.003213
    45  H    0.000000   0.008342   0.000328   0.000417  -0.000454  -0.005930
    46  H    0.000000   0.003550   0.064066  -0.033704  -0.109675  -0.006568
    47  H    0.000000  -0.005235  -0.030738   0.116445  -0.110160   0.005359
              7          8          9         10         11         12
     1  H   -0.095581  -0.000034  -0.000099  -0.004734  -0.005138   0.002696
     2  C   -0.995534   0.040135  -0.030006   0.201814  -0.055660  -0.035154
     3  C   -0.476132   0.409821   0.044930  -0.034225   0.009467   0.334037
     4  C    0.794540   0.029328   0.198777  -0.035337  -0.005036   0.038411
     5  C   -0.185573  -0.061494  -0.019275   0.046390   0.011120  -0.054854
     6  C   -1.426365  -0.002785   0.120170   0.095900   0.074523   0.035838
     7  C    7.884573  -0.035884  -0.039016   0.017420   0.306739  -0.019613
     8  H   -0.035884   0.523337  -0.000110   0.000011  -0.001938  -0.022582
     9  H   -0.039016  -0.000110   0.593916  -0.006635   0.000013  -0.000084
    10  H    0.017420   0.000011  -0.006635   0.598468  -0.000122  -0.000020
    11  H    0.306739  -0.001938   0.000013  -0.000122   0.537000  -0.004375
    12  H   -0.019613  -0.022582  -0.000084  -0.000020  -0.004375   0.529239
    13  H    0.451466  -0.003295  -0.000053  -0.000055  -0.025458   0.004192
    14  O    0.025587   0.000381   0.007188  -0.000310   0.000014   0.011049
    15  C    0.067689  -0.048842   0.013781   0.013647   0.003597  -0.008674
    16  O   -0.012945   0.000370  -0.030466   0.004166   0.000426   0.002883
    17  H    0.011591  -0.000023  -0.008136  -0.000098  -0.000005   0.000049
    18  O   -0.039785   0.000557  -0.011848  -0.043475  -0.001438   0.000894
    19  C   -0.040981  -0.000054   0.014515  -0.004691   0.000175   0.001087
    20  H   -0.001792   0.000001   0.002373  -0.001566   0.000000   0.000000
    21  H    0.003093   0.000000  -0.000008  -0.000075  -0.000001   0.000000
    22  H   -0.001172   0.000000  -0.000348   0.011341   0.000001   0.000000
    23  O   -0.020278  -0.000698  -0.000974   0.003881  -0.002727  -0.000236
    24  Si  -0.054953  -0.000587   0.003358  -0.005580  -0.014787   0.003882
    25  C   -0.002821   0.000037  -0.000659   0.002637   0.000486  -0.000146
    26  H   -0.000449   0.000000   0.000000   0.000073   0.000000   0.000000
    27  H    0.002446   0.000000   0.000000   0.000150   0.000000   0.000000
    28  H   -0.000295   0.000000   0.000000   0.000105   0.000000   0.000000
    29  C    0.074261  -0.000046  -0.000031  -0.006884  -0.002118  -0.000002
    30  C   -0.000421   0.000021  -0.000056   0.000036   0.003596  -0.000998
    31  H    0.000547   0.000000   0.000000   0.000000   0.000001   0.000000
    32  H    0.004923   0.000000   0.000000   0.000000  -0.000006   0.000000
    33  H    0.003145   0.000000   0.000000   0.000000  -0.000005  -0.000001
    34  C   -0.004575   0.000003   0.000018   0.000060   0.002536  -0.000016
    35  H    0.000001   0.000000   0.000000   0.000000  -0.000001   0.000000
    36  H   -0.000128   0.000000   0.000000   0.000000   0.000000   0.000000
    37  H   -0.001815   0.000000   0.000000   0.000000  -0.000010   0.000000
    38  C   -0.006351  -0.000002   0.000002  -0.000254  -0.000091   0.000002
    39  H   -0.000070   0.000000   0.000000   0.000000   0.000000   0.000000
    40  H   -0.000084   0.000000   0.000000   0.000000   0.000000   0.000000
    41  H    0.000107   0.000000   0.000000   0.000000   0.000000   0.000000
    42  C   -0.042362   0.000019   0.000064   0.002671  -0.000081   0.000004
    43  H    0.000110   0.000000   0.000000   0.000000   0.000000   0.000000
    44  H    0.000160   0.000000   0.000000  -0.000007   0.000000   0.000000
    45  H   -0.000552   0.000000   0.000000  -0.000012  -0.000001   0.000000
    46  H    0.002152   0.000385   0.000152   0.000001  -0.000001  -0.000293
    47  H   -0.000300   0.000063   0.001199   0.000000   0.000001   0.000267
             13         14         15         16         17         18
     1  H    0.004463   0.000161  -0.008180  -0.001808  -0.000005   0.012518
     2  C   -0.108980  -0.008337  -0.539573  -0.065262  -0.014285  -0.084910
     3  C   -0.083391  -0.120762  -0.219781   0.006430  -0.009655  -0.067871
     4  C    0.003662  -0.148876   0.195457   0.053751   0.039387  -0.093484
     5  C    0.009025   0.264614  -2.499011   0.034944   0.013067   0.104465
     6  C    0.036426   0.045718   0.108131   0.019342   0.028131   0.338774
     7  C    0.451466   0.025587   0.067689  -0.012945   0.011591  -0.039785
     8  H   -0.003295   0.000381  -0.048842   0.000370  -0.000023   0.000557
     9  H   -0.000053   0.007188   0.013781  -0.030466  -0.008136  -0.011848
    10  H   -0.000055  -0.000310   0.013647   0.004166  -0.000098  -0.043475
    11  H   -0.025458   0.000014   0.003597   0.000426  -0.000005  -0.001438
    12  H    0.004192   0.011049  -0.008674   0.002883   0.000049   0.000894
    13  H    0.496047   0.004387  -0.006668   0.000279   0.000002   0.008609
    14  O    0.004387   8.223482   0.068717   0.012926  -0.000340  -0.019235
    15  C   -0.006668   0.068717   8.016295  -0.049401  -0.036436  -0.008509
    16  O    0.000279   0.012926  -0.049401   8.303790   0.203052   0.021858
    17  H    0.000002  -0.000340  -0.036436   0.203052   0.389770  -0.001034
    18  O    0.008609  -0.019235  -0.008509   0.021858  -0.001034   8.227698
    19  C    0.004978  -0.008082   0.018016   0.004087  -0.001029   0.005394
    20  H    0.000013   0.003099   0.009242  -0.000502   0.000029  -0.058707
    21  H   -0.000003   0.000065  -0.001983   0.000061   0.000000  -0.072629
    22  H   -0.000010  -0.000196   0.001815   0.000044  -0.000003  -0.045683
    23  O   -0.001424  -0.000622   0.016055  -0.001851   0.000148  -0.001941
    24  Si   0.012043   0.001783  -0.013773   0.010136  -0.001750   0.036970
    25  C   -0.000776  -0.000196  -0.001712  -0.004730   0.000591  -0.007173
    26  H    0.000000   0.000000   0.000008   0.000004   0.000000  -0.000049
    27  H    0.000000   0.000000   0.000159   0.000815   0.000005   0.000069
    28  H    0.000000   0.000000   0.000033   0.000052   0.000000   0.000582
    29  C    0.002059   0.000009   0.000552   0.000102   0.000014   0.001726
    30  C   -0.002174  -0.000139  -0.001065  -0.001639  -0.000030  -0.002151
    31  H    0.000000   0.000000   0.000006   0.000002   0.000000   0.000002
    32  H    0.000000   0.000000  -0.000030  -0.000009   0.000000  -0.000025
    33  H    0.000002   0.000000  -0.000057  -0.000036   0.000000   0.000017
    34  C   -0.001332   0.000046  -0.000468  -0.000024   0.000000  -0.000474
    35  H    0.000000   0.000000   0.000001   0.000000   0.000000   0.000004
    36  H    0.000000   0.000000   0.000000   0.000000   0.000000   0.000005
    37  H   -0.000002   0.000000  -0.000010   0.000000   0.000000  -0.000039
    38  C    0.000095  -0.000004  -0.000288   0.000027  -0.000001  -0.000087
    39  H    0.000000   0.000000   0.000000   0.000000   0.000000   0.000000
    40  H    0.000000   0.000000   0.000000   0.000000   0.000000   0.000000
    41  H    0.000000   0.000000   0.000000   0.000000   0.000000   0.000000
    42  C    0.000104   0.000039  -0.000112   0.000447  -0.000005   0.001431
    43  H    0.000000   0.000000   0.000001   0.000000   0.000000  -0.000033
    44  H    0.000000   0.000000  -0.000001   0.000000   0.000000   0.000019
    45  H   -0.000004   0.000001  -0.000028   0.000001   0.000000   0.000047
    46  H   -0.000018  -0.036275   0.453145   0.000767  -0.000071  -0.000100
    47  H    0.000004  -0.033491   0.386749   0.000394  -0.000319   0.000395
             19         20         21         22         23         24
     1  H    0.004642   0.000005   0.000003  -0.000008  -0.073677   0.099796
     2  C   -0.121433  -0.019366  -0.007430   0.025549   0.162233  -0.795083
     3  C   -0.037443   0.000364   0.003732  -0.003822   0.004611  -0.098961
     4  C    0.077518  -0.047691   0.018771   0.002342   0.071205  -0.112498
     5  C   -0.155500  -0.003771  -0.002582   0.000331   0.016491   0.044531
     6  C   -0.007851   0.064902  -0.004876  -0.056506  -0.087899   0.485881
     7  C   -0.040981  -0.001792   0.003093  -0.001172  -0.020278  -0.054953
     8  H   -0.000054   0.000001   0.000000   0.000000  -0.000698  -0.000587
     9  H    0.014515   0.002373  -0.000008  -0.000348  -0.000974   0.003358
    10  H   -0.004691  -0.001566  -0.000075   0.011341   0.003881  -0.005580
    11  H    0.000175   0.000000  -0.000001   0.000001  -0.002727  -0.014787
    12  H    0.001087   0.000000   0.000000   0.000000  -0.000236   0.003882
    13  H    0.004978   0.000013  -0.000003  -0.000010  -0.001424   0.012043
    14  O   -0.008082   0.003099   0.000065  -0.000196  -0.000622   0.001783
    15  C    0.018016   0.009242  -0.001983   0.001815   0.016055  -0.013773
    16  O    0.004087  -0.000502   0.000061   0.000044  -0.001851   0.010136
    17  H   -0.001029   0.000029   0.000000  -0.000003   0.000148  -0.001750
    18  O    0.005394  -0.058707  -0.072629  -0.045683  -0.001941   0.036970
    19  C    5.154334   0.407779   0.430722   0.415743  -0.010525   0.015886
    20  H    0.407779   0.569415  -0.029868  -0.044905  -0.000423   0.000788
    21  H    0.430722  -0.029868   0.524332  -0.026061  -0.000401  -0.002520
    22  H    0.415743  -0.044905  -0.026061   0.567983   0.002275   0.005814
    23  O   -0.010525  -0.000423  -0.000401   0.002275   8.343000  -0.053124
    24  Si   0.015886   0.000788  -0.002520   0.005814  -0.053124  13.327368
    25  C   -0.002933  -0.000318   0.000080   0.000253  -0.035032   0.187905
    26  H   -0.000088   0.000000   0.000000   0.000000   0.008286  -0.039828
    27  H    0.000160   0.000000   0.000000  -0.000005  -0.004822  -0.033618
    28  H    0.000862   0.000000   0.000000   0.000021  -0.004775  -0.006761
    29  C   -0.000884   0.000169  -0.000014  -0.002026  -0.088223   0.528728
    30  C   -0.000560  -0.000005   0.000001  -0.000052  -0.037816   0.219374
    31  H   -0.000003   0.000000   0.000000   0.000000   0.008798  -0.041215
    32  H   -0.000015   0.000000   0.000000   0.000000  -0.003534  -0.024518
    33  H    0.000006   0.000000   0.000000   0.000000  -0.007103  -0.009781
    34  C   -0.003156   0.000000   0.000108  -0.000106   0.044110  -0.170133
    35  H    0.000011   0.000000   0.000000   0.000000  -0.002315   0.009160
    36  H    0.000007   0.000000   0.000000   0.000000  -0.000621   0.015475
    37  H   -0.000069   0.000000   0.000000   0.000000   0.006064  -0.032066
    38  C    0.001732  -0.000001  -0.000014  -0.000048   0.012924  -0.124546
    39  H    0.000000   0.000000   0.000000   0.000000   0.000641  -0.010128
    40  H    0.000025   0.000000   0.000000   0.000000   0.000509  -0.015417
    41  H    0.000002   0.000000   0.000000   0.000000  -0.000563   0.016168
    42  C    0.003178   0.000023   0.000038   0.000193   0.027475  -0.170556
    43  H   -0.000191   0.000000   0.000000   0.000000  -0.000569   0.013583
    44  H   -0.000017   0.000000   0.000000  -0.000007  -0.002989   0.004226
    45  H   -0.000092   0.000001   0.000010  -0.000008   0.005367  -0.021196
    46  H   -0.000347   0.000001   0.000000   0.000000  -0.000007  -0.000026
    47  H    0.002181  -0.000006   0.000000   0.000000  -0.000008   0.000138
             25         26         27         28         29         30
     1  H   -0.014738  -0.000013   0.000534   0.000035   0.004150  -0.018537
     2  C    0.165162   0.009304  -0.002570  -0.024270  -0.305222   0.063185
     3  C    0.003276  -0.000003  -0.000906  -0.000441   0.001955   0.014208
     4  C   -0.008292   0.000981   0.002982  -0.003174  -0.017138   0.003902
     5  C   -0.001045   0.000043   0.001804   0.000475   0.003502  -0.010627
     6  C   -0.111546  -0.004198  -0.004399   0.015088   0.163712  -0.050313
     7  C   -0.002821  -0.000449   0.002446  -0.000295   0.074261  -0.000421
     8  H    0.000037   0.000000   0.000000   0.000000  -0.000046   0.000021
     9  H   -0.000659   0.000000   0.000000   0.000000  -0.000031  -0.000056
    10  H    0.002637   0.000073   0.000150   0.000105  -0.006884   0.000036
    11  H    0.000486   0.000000   0.000000   0.000000  -0.002118   0.003596
    12  H   -0.000146   0.000000   0.000000   0.000000  -0.000002  -0.000998
    13  H   -0.000776   0.000000   0.000000   0.000000   0.002059  -0.002174
    14  O   -0.000196   0.000000   0.000000   0.000000   0.000009  -0.000139
    15  C   -0.001712   0.000008   0.000159   0.000033   0.000552  -0.001065
    16  O   -0.004730   0.000004   0.000815   0.000052   0.000102  -0.001639
    17  H    0.000591   0.000000   0.000005   0.000000   0.000014  -0.000030
    18  O   -0.007173  -0.000049   0.000069   0.000582   0.001726  -0.002151
    19  C   -0.002933  -0.000088   0.000160   0.000862  -0.000884  -0.000560
    20  H   -0.000318   0.000000   0.000000   0.000000   0.000169  -0.000005
    21  H    0.000080   0.000000   0.000000   0.000000  -0.000014   0.000001
    22  H    0.000253   0.000000  -0.000005   0.000021  -0.002026  -0.000052
    23  O   -0.035032   0.008286  -0.004822  -0.004775  -0.088223  -0.037816
    24  Si   0.187905  -0.039828  -0.033618  -0.006761   0.528728   0.219374
    25  C    5.459915   0.406242   0.390182   0.394079  -0.146549  -0.004220
    26  H    0.406242   0.489661  -0.021644  -0.021804  -0.028213  -0.005600
    27  H    0.390182  -0.021644   0.496867  -0.023064   0.019932  -0.012537
    28  H    0.394079  -0.021804  -0.023064   0.492100  -0.022072   0.006812
    29  C   -0.146549  -0.028213   0.019932  -0.022072   8.232096  -0.140383
    30  C   -0.004220  -0.005600  -0.012537   0.006812  -0.140383   5.451761
    31  H   -0.006248   0.000110   0.000121   0.000025  -0.028579   0.409313
    32  H    0.007837   0.000026  -0.000005  -0.000017  -0.022284   0.405674
    33  H   -0.011051   0.000135   0.000396   0.000002   0.018407   0.383657
    34  C   -0.010699   0.000936  -0.000407  -0.004666  -0.361146  -0.008752
    35  H   -0.000192   0.000001  -0.000001   0.000000  -0.060563  -0.000993
    36  H   -0.001578   0.000000   0.000000   0.000000  -0.159760  -0.000129
    37  H    0.000385   0.000000  -0.000001   0.000001  -0.103800   0.002752
    38  C    0.031199   0.009140  -0.001679   0.003721  -0.446369   0.020010
    39  H   -0.000851   0.000020  -0.000005   0.000017  -0.077739   0.004040
    40  H    0.005068   0.000066   0.000000   0.000014  -0.083103  -0.000030
    41  H    0.000172   0.000014   0.000000  -0.000006  -0.158721   0.000163
    42  C    0.005859   0.009640   0.001531   0.011409  -0.479905   0.000422
    43  H    0.000363  -0.000001   0.000001  -0.000010  -0.162745  -0.001684
    44  H    0.000050   0.000065   0.000001   0.000245  -0.060909   0.000307
    45  H    0.002337   0.000004  -0.000007   0.000034  -0.094159  -0.000091
    46  H   -0.000001   0.000000   0.000000   0.000000   0.000000   0.000001
    47  H   -0.000009   0.000000   0.000000   0.000000  -0.000002  -0.000002
             31         32         33         34         35         36
     1  H   -0.000039  -0.000042   0.001167  -0.002323   0.000001   0.000000
     2  C    0.008704  -0.014486  -0.019007  -0.004071  -0.001747   0.000038
     3  C    0.000256  -0.000193   0.000687   0.021002  -0.000033  -0.000001
     4  C    0.000143  -0.000087  -0.000645   0.001702  -0.000061  -0.000014
     5  C    0.000010  -0.000455   0.000319  -0.007732   0.000056   0.000021
     6  C   -0.002645   0.003727   0.006796   0.037190  -0.000075   0.000232
     7  C    0.000547   0.004923   0.003145  -0.004575   0.000001  -0.000128
     8  H    0.000000   0.000000   0.000000   0.000003   0.000000   0.000000
     9  H    0.000000   0.000000   0.000000   0.000018   0.000000   0.000000
    10  H    0.000000   0.000000   0.000000   0.000060   0.000000   0.000000
    11  H    0.000001  -0.000006  -0.000005   0.002536  -0.000001   0.000000
    12  H    0.000000   0.000000  -0.000001  -0.000016   0.000000   0.000000
    13  H    0.000000   0.000000   0.000002  -0.001332   0.000000   0.000000
    14  O    0.000000   0.000000   0.000000   0.000046   0.000000   0.000000
    15  C    0.000006  -0.000030  -0.000057  -0.000468   0.000001   0.000000
    16  O    0.000002  -0.000009  -0.000036  -0.000024   0.000000   0.000000
    17  H    0.000000   0.000000   0.000000   0.000000   0.000000   0.000000
    18  O    0.000002  -0.000025   0.000017  -0.000474   0.000004   0.000005
    19  C   -0.000003  -0.000015   0.000006  -0.003156   0.000011   0.000007
    20  H    0.000000   0.000000   0.000000   0.000000   0.000000   0.000000
    21  H    0.000000   0.000000   0.000000   0.000108   0.000000   0.000000
    22  H    0.000000   0.000000   0.000000  -0.000106   0.000000   0.000000
    23  O    0.008798  -0.003534  -0.007103   0.044110  -0.002315  -0.000621
    24  Si  -0.041215  -0.024518  -0.009781  -0.170133   0.009160   0.015475
    25  C   -0.006248   0.007837  -0.011051  -0.010699  -0.000192  -0.001578
    26  H    0.000110   0.000026   0.000135   0.000936   0.000001   0.000000
    27  H    0.000121  -0.000005   0.000396  -0.000407  -0.000001   0.000000
    28  H    0.000025  -0.000017   0.000002  -0.004666   0.000000   0.000000
    29  C   -0.028579  -0.022284   0.018407  -0.361146  -0.060563  -0.159760
    30  C    0.409313   0.405674   0.383657  -0.008752  -0.000993  -0.000129
    31  H    0.489635  -0.022095  -0.022255   0.012473   0.000055  -0.000001
    32  H   -0.022095   0.490435  -0.022958   0.011950   0.000122  -0.000007
    33  H   -0.022255  -0.022958   0.497876  -0.000393   0.000007   0.000000
    34  C    0.012473   0.011950  -0.000393   6.023215   0.405478   0.464453
    35  H    0.000055   0.000122   0.000007   0.405478   0.537324  -0.028083
    36  H   -0.000001  -0.000007   0.000000   0.464453  -0.028083   0.544336
    37  H    0.000011   0.000041  -0.000007   0.480920  -0.026096  -0.026778
    38  C    0.007495   0.003605  -0.001091  -0.011060  -0.002021   0.011683
    39  H    0.000189   0.000034  -0.000005  -0.015799   0.002781  -0.000309
    40  H    0.000014   0.000010  -0.000005   0.004248   0.000030  -0.000009
    41  H    0.000010  -0.000005   0.000000   0.010956  -0.000323   0.005344
    42  C   -0.001082  -0.003821  -0.000920  -0.339593   0.004039   0.009298
    43  H    0.000000   0.000000   0.000000   0.015220   0.000046   0.005569
    44  H    0.000001   0.000000  -0.000001   0.002387  -0.000156   0.000045
    45  H    0.000000   0.000002   0.000000  -0.006455   0.000015  -0.000304
    46  H    0.000000   0.000000   0.000000   0.000000   0.000000   0.000000
    47  H    0.000000   0.000000   0.000000   0.000000   0.000000   0.000000
             37         38         39         40         41         42
     1  H    0.000000   0.000911   0.000000   0.000000   0.000000   0.001362
     2  C    0.009701  -0.045596   0.000721  -0.000318  -0.001013   0.140581
     3  C    0.000111   0.001825   0.000008   0.000004  -0.000003  -0.011048
     4  C    0.000762  -0.005088  -0.000018   0.000012  -0.000004   0.015796
     5  C   -0.000377  -0.000222   0.000005  -0.000006   0.000001   0.003628
     6  C   -0.002534   0.019228  -0.000240   0.000307   0.000171  -0.106057
     7  C   -0.001815  -0.006351  -0.000070  -0.000084   0.000107  -0.042362
     8  H    0.000000  -0.000002   0.000000   0.000000   0.000000   0.000019
     9  H    0.000000   0.000002   0.000000   0.000000   0.000000   0.000064
    10  H    0.000000  -0.000254   0.000000   0.000000   0.000000   0.002671
    11  H   -0.000010  -0.000091   0.000000   0.000000   0.000000  -0.000081
    12  H    0.000000   0.000002   0.000000   0.000000   0.000000   0.000004
    13  H   -0.000002   0.000095   0.000000   0.000000   0.000000   0.000104
    14  O    0.000000  -0.000004   0.000000   0.000000   0.000000   0.000039
    15  C   -0.000010  -0.000288   0.000000   0.000000   0.000000  -0.000112
    16  O    0.000000   0.000027   0.000000   0.000000   0.000000   0.000447
    17  H    0.000000  -0.000001   0.000000   0.000000   0.000000  -0.000005
    18  O   -0.000039  -0.000087   0.000000   0.000000   0.000000   0.001431
    19  C   -0.000069   0.001732   0.000000   0.000025   0.000002   0.003178
    20  H    0.000000  -0.000001   0.000000   0.000000   0.000000   0.000023
    21  H    0.000000  -0.000014   0.000000   0.000000   0.000000   0.000038
    22  H    0.000000  -0.000048   0.000000   0.000000   0.000000   0.000193
    23  O    0.006064   0.012924   0.000641   0.000509  -0.000563   0.027475
    24  Si  -0.032066  -0.124546  -0.010128  -0.015417   0.016168  -0.170556
    25  C    0.000385   0.031199  -0.000851   0.005068   0.000172   0.005859
    26  H    0.000000   0.009140   0.000020   0.000066   0.000014   0.009640
    27  H   -0.000001  -0.001679  -0.000005   0.000000   0.000000   0.001531
    28  H    0.000001   0.003721   0.000017   0.000014  -0.000006   0.011409
    29  C   -0.103800  -0.446369  -0.077739  -0.083103  -0.158721  -0.479905
    30  C    0.002752   0.020010   0.004040  -0.000030   0.000163   0.000422
    31  H    0.000011   0.007495   0.000189   0.000014   0.000010  -0.001082
    32  H    0.000041   0.003605   0.000034   0.000010  -0.000005  -0.003821
    33  H   -0.000007  -0.001091  -0.000005  -0.000005   0.000000  -0.000920
    34  C    0.480920  -0.011060  -0.015799   0.004248   0.010956  -0.339593
    35  H   -0.026096  -0.002021   0.002781   0.000030  -0.000323   0.004039
    36  H   -0.026778   0.011683  -0.000309  -0.000009   0.005344   0.009298
    37  H    0.512937  -0.001011   0.000041  -0.000143   0.000019  -0.004591
    38  C   -0.001011   5.649124   0.443027   0.455231   0.460205   0.055502
    39  H    0.000041   0.443027   0.533647  -0.027197  -0.027843   0.008174
    40  H   -0.000143   0.455231  -0.027197   0.532565  -0.027696  -0.014532
    41  H    0.000019   0.460205  -0.027843  -0.027696   0.540039   0.012586
    42  C   -0.004591   0.055502   0.008174  -0.014532   0.012586   6.100727
    43  H   -0.000292   0.005696  -0.000013  -0.000322   0.005259   0.467708
    44  H    0.000018   0.002410   0.000030   0.002815  -0.000323   0.404677
    45  H    0.002951  -0.000324  -0.000142   0.000044   0.000017   0.468065
    46  H    0.000000   0.000000   0.000000   0.000000   0.000000   0.000001
    47  H    0.000000   0.000000   0.000000   0.000000   0.000000   0.000000
             43         44         45         46         47
     1  H    0.000000   0.000000   0.000000   0.000000   0.000000
     2  C    0.000864  -0.004048   0.008342   0.003550  -0.005235
     3  C   -0.000013   0.000043   0.000328   0.064066  -0.030738
     4  C    0.000078   0.000022   0.000417  -0.033704   0.116445
     5  C    0.000027   0.000035  -0.000454  -0.109675  -0.110160
     6  C   -0.000091   0.003213  -0.005930  -0.006568   0.005359
     7  C    0.000110   0.000160  -0.000552   0.002152  -0.000300
     8  H    0.000000   0.000000   0.000000   0.000385   0.000063
     9  H    0.000000   0.000000   0.000000   0.000152   0.001199
    10  H    0.000000  -0.000007  -0.000012   0.000001   0.000000
    11  H    0.000000   0.000000  -0.000001  -0.000001   0.000001
    12  H    0.000000   0.000000   0.000000  -0.000293   0.000267
    13  H    0.000000   0.000000  -0.000004  -0.000018   0.000004
    14  O    0.000000   0.000000   0.000001  -0.036275  -0.033491
    15  C    0.000001  -0.000001  -0.000028   0.453145   0.386749
    16  O    0.000000   0.000000   0.000001   0.000767   0.000394
    17  H    0.000000   0.000000   0.000000  -0.000071  -0.000319
    18  O   -0.000033   0.000019   0.000047  -0.000100   0.000395
    19  C   -0.000191  -0.000017  -0.000092  -0.000347   0.002181
    20  H    0.000000   0.000000   0.000001   0.000001  -0.000006
    21  H    0.000000   0.000000   0.000010   0.000000   0.000000
    22  H    0.000000  -0.000007  -0.000008   0.000000   0.000000
    23  O   -0.000569  -0.002989   0.005367  -0.000007  -0.000008
    24  Si   0.013583   0.004226  -0.021196  -0.000026   0.000138
    25  C    0.000363   0.000050   0.002337  -0.000001  -0.000009
    26  H   -0.000001   0.000065   0.000004   0.000000   0.000000
    27  H    0.000001   0.000001  -0.000007   0.000000   0.000000
    28  H   -0.000010   0.000245   0.000034   0.000000   0.000000
    29  C   -0.162745  -0.060909  -0.094159   0.000000  -0.000002
    30  C   -0.001684   0.000307  -0.000091   0.000001  -0.000002
    31  H    0.000000   0.000001   0.000000   0.000000   0.000000
    32  H    0.000000   0.000000   0.000002   0.000000   0.000000
    33  H    0.000000  -0.000001   0.000000   0.000000   0.000000
    34  C    0.015220   0.002387  -0.006455   0.000000   0.000000
    35  H    0.000046  -0.000156   0.000015   0.000000   0.000000
    36  H    0.005569   0.000045  -0.000304   0.000000   0.000000
    37  H   -0.000292   0.000018   0.002951   0.000000   0.000000
    38  C    0.005696   0.002410  -0.000324   0.000000   0.000000
    39  H   -0.000013   0.000030  -0.000142   0.000000   0.000000
    40  H   -0.000322   0.002815   0.000044   0.000000   0.000000
    41  H    0.005259  -0.000323   0.000017   0.000000   0.000000
    42  C    0.467708   0.404677   0.468065   0.000001   0.000000
    43  H    0.545418  -0.028172  -0.026498   0.000000   0.000000
    44  H   -0.028172   0.540476  -0.025554   0.000000   0.000000
    45  H   -0.026498  -0.025554   0.505917   0.000000   0.000000
    46  H    0.000000   0.000000   0.000000   0.524326  -0.035445
    47  H    0.000000   0.000000   0.000000  -0.035445   0.534368
 Mulliken atomic charges:
              1
     1  H    0.157229
     2  C   -0.389772
     3  C   -0.568522
     4  C    0.261351
     5  C   -0.189760
     6  C   -0.300506
     7  C   -0.144722
     8  H    0.173906
     9  H    0.147347
    10  H    0.145310
    11  H    0.169306
    12  H    0.182516
    13  H    0.195787
    14  O   -0.292401
    15  C    0.071506
    16  O   -0.512483
    17  H    0.387390
    18  O   -0.201358
    19  C   -0.167096
    20  H    0.150718
    21  H    0.167450
    22  H    0.147261
    23  O   -0.288898
    24  Si   0.810409
    25  C   -0.690598
    26  H    0.187130
    27  H    0.187515
    28  H    0.185644
    29  C    0.008216
    30  C   -0.688228
    31  H    0.186242
    32  H    0.186206
    33  H    0.182699
    34  C   -0.585629
    35  H    0.163529
    36  H    0.161217
    37  H    0.182927
    38  C   -0.548644
    39  H    0.166984
    40  H    0.167901
    41  H    0.165267
    42  C   -0.582026
    43  H    0.160693
    44  H    0.160938
    45  H    0.187912
    46  H    0.173984
    47  H    0.168154
 Sum of Mulliken atomic charges =   0.00000
 Mulliken charges with hydrogens summed into heavy atoms:
              1
     2  C   -0.232542
     3  C   -0.212100
     4  C    0.408698
     5  C   -0.189760
     6  C   -0.155195
     7  C    0.220371
    14  O   -0.292401
    15  C    0.413644
    16  O   -0.125092
    18  O   -0.201358
    19  C    0.298332
    23  O   -0.288898
    24  Si   0.810409
    25  C   -0.130309
    29  C    0.008216
    30  C   -0.133081
    34  C   -0.077957
    38  C   -0.048493
    42  C   -0.072483
 Sum of Mulliken charges with hydrogens summed into heavy atoms =   0.00000
 Electronic spatial extent (au):  <R**2>=           6738.1555
 Charge=              0.0000 electrons
 Dipole moment (field-independent basis, Debye):
    X=             -2.2303    Y=             -2.0036    Z=              2.7657  Tot=              4.0790
 Quadrupole moment (field-independent basis, Debye-Ang):
   XX=           -109.9072   YY=           -121.6275   ZZ=           -128.7127
   XY=              6.7311   XZ=             -7.1770   YZ=              5.4848
 Traceless Quadrupole moment (field-independent basis, Debye-Ang):
   XX=             10.1753   YY=             -1.5451   ZZ=             -8.6302
   XY=              6.7311   XZ=             -7.1770   YZ=              5.4848
 Octapole moment (field-independent basis, Debye-Ang**2):
  XXX=           -122.6684  YYY=             19.0598  ZZZ=             -1.7998  XYY=            -22.6577
  XXY=            -42.5212  XXZ=             45.0053  XZZ=            -14.0222  YZZ=             -2.3582
  YYZ=              5.0589  XYZ=            -12.2732
 Hexadecapole moment (field-independent basis, Debye-Ang**3):
 XXXX=          -6186.3010 YYYY=          -1392.5745 ZZZZ=          -1101.7435 XXXY=            174.3698
 XXXZ=           -176.0060 YYYX=            -19.2752 YYYZ=             -5.8641 ZZZX=            -13.1224
 ZZZY=             -2.3252 XXYY=          -1325.0963 XXZZ=          -1262.2946 YYZZ=           -403.6416
 XXYZ=             20.1284 YYXZ=            -16.9634 ZZXY=             22.1412
 N-N= 1.806896459157D+03 E-N=-6.285182078682D+03  KE= 1.131549603054D+03
 1\1\GINC-COMPUTE-8-30\SP\RmPW1PW91\6-31+G(d,p)\C14H28O4Si1\ELUCIANO.IQ
 UIR\06-Dec-2022\0\\# mPW1PW91/6-31+g** scrf=(PCM,solvent=chloroform) n
 mr\\comment\\0,1\H,0,-0.515534,-1.441425,0.56276\C,0,-0.524154,-0.5724
 8,-0.111155\C,0,-2.677663,-1.429218,-1.132178\C,0,-2.731756,0.079353,0
 .942274\C,0,-3.447772,-0.410358,-0.311959\C,0,-1.295078,0.545387,0.617
 218\C,0,-1.239288,-0.958899,-1.41093\H,0,-3.213775,-1.615599,-2.068996
 \H,0,-3.303633,0.919885,1.361189\H,0,-0.785571,0.776844,1.56591\H,0,-0
 .670634,-1.750545,-1.91146\H,0,-2.654997,-2.374114,-0.572307\H,0,-1.24
 6595,-0.086186,-2.071704\O,0,-4.121836,0.626851,-1.047628\C,0,-4.91954
 6,-0.346491,-0.364373\O,0,-2.601069,-0.96968,1.906549\H,0,-3.49387,-1.
 276215,2.130348\O,0,-1.301154,1.679578,-0.22843\C,0,-1.605311,2.90677,
 0.402382\H,0,-2.659513,2.976398,0.706372\H,0,-1.405535,3.692479,-0.330
 903\H,0,-0.969607,3.073475,1.286303\O,0,0.797274,-0.147791,-0.406728\S
 i,0,2.205038,-0.607603,0.382721\C,0,2.071047,-0.257763,2.238698\H,0,2.
 966434,-0.595938,2.774569\H,0,1.213468,-0.782742,2.677481\H,0,1.943026
 ,0.811182,2.443544\C,0,3.559636,0.453579,-0.447321\C,0,2.500406,-2.462
 493,0.145993\H,0,3.427838,-2.786886,0.633792\H,0,2.568285,-2.729919,-0
 .914409\H,0,1.683686,-3.050287,0.583411\C,0,3.629836,0.122747,-1.95406
 3\H,0,3.923032,-0.919487,-2.132145\H,0,4.376832,0.759624,-2.450399\H,0
 ,2.666551,0.290619,-2.447906\C,0,4.933859,0.176736,0.19858\H,0,5.23603
 6,-0.872946,0.093033\H,0,4.943461,0.422535,1.267937\H,0,5.71185,0.7878
 5,-0.281744\C,0,3.208463,1.948297,-0.281634\H,0,3.956803,2.575206,-0.7
 88612\H,0,3.193801,2.250168,0.773253\H,0,2.227231,2.178164,-0.710568\H
 ,0,-5.464787,-1.040499,-1.005125\H,0,-5.486603,0.03214,0.488997\\Versi
 on=EM64L-G09RevC.01\State=1-A\HF=-1140.6211134\RMSD=4.232e-09\Dipole=-
 0.8774845,-0.7882949,1.0881262\Quadrupole=7.5650674,-1.1487245,-6.4163
 429,5.0043906,-5.3359137,4.0778234\PG=C01 [X(C14H28O4Si1)]\\@


 "MATHEMATICS IS THE ART OF GIVING THE SAME NAME
 TO DIFFERENT THINGS."
                    - H. POINCARE
 Job cpu time:  0 days  1 hours  5 minutes 29.1 seconds.
 File lengths (MBytes):  RWF=    304 Int=      0 D2E=      0 Chk=     16 Scr=      1
 Normal termination of Gaussian 09 at Tue Dec  6 21:05:39 2022.
