 Entering Gaussian System, Link 0=g09
 Input=/home/eluciano.iquir/todos_optB3L_MPW_B_PCM/02_epoxido28_024_optB3L_nmr_MPW_B_PCM.gjc
 Output=/home/eluciano.iquir/todos_optB3L_MPW_B_PCM/02_epoxido28_024_optB3L_nmr_MPW_B_PCM.log
 Initial command:
 /share/apps/Gaussian09/EM64T.SSE4.2-enabled/g09/l1.exe /tmp/Gau-44386.inp -scrdir=/tmp/
 Entering Link 1 = /share/apps/Gaussian09/EM64T.SSE4.2-enabled/g09/l1.exe PID=     44387.
  
 Copyright (c) 1988,1990,1992,1993,1995,1998,2003,2009,2011,
            Gaussian, Inc.  All Rights Reserved.
  
 This is part of the Gaussian(R) 09 program.  It is based on
 the Gaussian(R) 03 system (copyright 2003, Gaussian, Inc.),
 the Gaussian(R) 98 system (copyright 1998, Gaussian, Inc.),
 the Gaussian(R) 94 system (copyright 1995, Gaussian, Inc.),
 the Gaussian 92(TM) system (copyright 1992, Gaussian, Inc.),
 the Gaussian 90(TM) system (copyright 1990, Gaussian, Inc.),
 the Gaussian 88(TM) system (copyright 1988, Gaussian, Inc.),
 the Gaussian 86(TM) system (copyright 1986, Carnegie Mellon
 University), and the Gaussian 82(TM) system (copyright 1983,
 Carnegie Mellon University). Gaussian is a federally registered
 trademark of Gaussian, Inc.
  
 This software contains proprietary and confidential information,
 including trade secrets, belonging to Gaussian, Inc.
  
 This software is provided under written license and may be
 used, copied, transmitted, or stored only in accord with that
 written license.
  
 The following legend is applicable only to US Government
 contracts under FAR:
  
                    RESTRICTED RIGHTS LEGEND
  
 Use, reproduction and disclosure by the US Government is
 subject to restrictions as set forth in subparagraphs (a)
 and (c) of the Commercial Computer Software - Restricted
 Rights clause in FAR 52.227-19.
  
 Gaussian, Inc.
 340 Quinnipiac St., Bldg. 40, Wallingford CT 06492
  
  
 ---------------------------------------------------------------
 Warning -- This program may not be used in any manner that
 competes with the business of Gaussian, Inc. or will provide
 assistance to any competitor of Gaussian, Inc.  The licensee
 of this program is prohibited from giving any competitor of
 Gaussian, Inc. access to this program.  By using this program,
 the user acknowledges that Gaussian, Inc. is engaged in the
 business of creating and licensing software in the field of
 computational chemistry and represents and warrants to the
 licensee that it is not a competitor of Gaussian, Inc. and that
 it will not use this program in any manner prohibited above.
 ---------------------------------------------------------------
  

 Cite this work as:
 Gaussian 09, Revision C.01,
 M. J. Frisch, G. W. Trucks, H. B. Schlegel, G. E. Scuseria, 
 M. A. Robb, J. R. Cheeseman, G. Scalmani, V. Barone, B. Mennucci, 
 G. A. Petersson, H. Nakatsuji, M. Caricato, X. Li, H. P. Hratchian, 
 A. F. Izmaylov, J. Bloino, G. Zheng, J. L. Sonnenberg, M. Hada, 
 M. Ehara, K. Toyota, R. Fukuda, J. Hasegawa, M. Ishida, T. Nakajima, 
 Y. Honda, O. Kitao, H. Nakai, T. Vreven, J. A. Montgomery, Jr., 
 J. E. Peralta, F. Ogliaro, M. Bearpark, J. J. Heyd, E. Brothers, 
 K. N. Kudin, V. N. Staroverov, T. Keith, R. Kobayashi, J. Normand, 
 K. Raghavachari, A. Rendell, J. C. Burant, S. S. Iyengar, J. Tomasi, 
 M. Cossi, N. Rega, J. M. Millam, M. Klene, J. E. Knox, J. B. Cross, 
 V. Bakken, C. Adamo, J. Jaramillo, R. Gomperts, R. E. Stratmann, 
 O. Yazyev, A. J. Austin, R. Cammi, C. Pomelli, J. W. Ochterski, 
 R. L. Martin, K. Morokuma, V. G. Zakrzewski, G. A. Voth, 
 P. Salvador, J. J. Dannenberg, S. Dapprich, A. D. Daniels, 
 O. Farkas, J. B. Foresman, J. V. Ortiz, J. Cioslowski, 
 and D. J. Fox, Gaussian, Inc., Wallingford CT, 2010.
 
 ******************************************
 Gaussian 09:  EM64L-G09RevC.01 23-Sep-2011
                 6-Dec-2022 
 ******************************************
 %nprocshared=4
 Will use up to    4 processors via shared memory.
 %mem=80MW
 -----------------------------------------------------
 # mPW1PW91/6-31+g** scrf=(PCM,solvent=chloroform) nmr
 -----------------------------------------------------
 1/38=1/1;
 2/12=2,17=6,18=5,40=1/2;
 3/5=1,6=6,7=111,11=2,16=1,25=1,30=1,70=2201,72=7,74=-7/1,2,8,3;
 4//1;
 5/5=2,38=5,53=7/2;
 8/6=1,10=90,11=11/1;
 10/13=100,45=16/2;
 6/7=2,8=2,9=2,10=2,28=1/1;
 99/9=1/99;
 -------
 comment
 -------
 Charge =  0 Multiplicity = 1
 Symbolic Z-Matrix:
 1                    -0.90904  -1.76604   1.13546 
 6                    -0.55415  -0.90448   0.55334 
 6                    -2.3763   -1.41948  -1.12396 
 6                    -2.87297   0.05048   0.91014 
 6                    -3.21839  -0.30884  -0.52631 
 6                    -1.35348   0.31258   1.05733 
 6                    -0.86815  -1.17176  -0.92627 
 1                    -2.6107   -1.51467  -2.18957 
 1                    -3.43562   0.95346   1.18497 
 1                    -1.12234   0.46373   2.12846 
 1                    -0.30899  -2.04844  -1.26751 
 1                    -2.66294  -2.36075  -0.63729 
 1                    -0.5507   -0.31462  -1.52803 
 8                    -3.45871   0.83928  -1.36376 
 6                    -4.56484  -0.01449  -1.03167 
 8                    -3.27912  -1.05191   1.72609 
 1                    -2.99168  -0.86929   2.63512 
 8                    -0.92215   1.44081   0.31868 
 6                    -1.43946   2.69373   0.73231 
 1                    -2.47159   2.84303   0.39184 
 1                    -0.80588   3.45804   0.27499 
 1                    -1.39471   2.80628   1.82695 
 8                     0.80902  -0.71714   0.86693 
 14                    2.34116  -0.821     0.20894 
 6                     3.41063  -1.38109   1.66218 
 1                     4.46958  -1.46113   1.3896 
 1                     3.08269  -2.36724   2.01215 
 1                     3.33254  -0.69019   2.5089 
 6                     2.92322   0.89113  -0.43788 
 6                     2.47211  -2.13001  -1.15564 
 1                     3.5267   -2.30527  -1.40229 
 1                     1.961    -1.84814  -2.08197 
 1                     2.05576  -3.08743  -0.81958 
 6                     2.07515   1.34514  -1.64464 
 1                     2.13235   0.63537  -2.47971 
 1                     2.4376    2.31387  -2.02043 
 1                     1.02275   1.47048  -1.36986 
 6                     4.40327   0.80276  -0.87167 
 1                     4.55285   0.08276  -1.68615 
 1                     5.06206   0.51431  -0.04345 
 1                     4.75049   1.78035  -1.23711 
 6                     2.78514   1.94159   0.68475 
 1                     3.11692   2.92838   0.32856 
 1                     3.39579   1.6904    1.56097 
 1                     1.74386   2.03384   1.01055 
 1                    -4.96623  -0.59915  -1.85976 
 1                    -5.31179   0.42012  -0.36666 
 
                          Input orientation:                          
 ---------------------------------------------------------------------
 Center     Atomic      Atomic             Coordinates (Angstroms)
 Number     Number       Type             X           Y           Z
 ---------------------------------------------------------------------
      1          1           0       -0.909041   -1.766044    1.135458
      2          6           0       -0.554150   -0.904479    0.553335
      3          6           0       -2.376301   -1.419481   -1.123962
      4          6           0       -2.872965    0.050479    0.910140
      5          6           0       -3.218386   -0.308835   -0.526312
      6          6           0       -1.353479    0.312582    1.057331
      7          6           0       -0.868151   -1.171760   -0.926266
      8          1           0       -2.610696   -1.514673   -2.189566
      9          1           0       -3.435623    0.953461    1.184966
     10          1           0       -1.122343    0.463734    2.128463
     11          1           0       -0.308986   -2.048444   -1.267509
     12          1           0       -2.662943   -2.360747   -0.637286
     13          1           0       -0.550699   -0.314622   -1.528034
     14          8           0       -3.458713    0.839280   -1.363756
     15          6           0       -4.564843   -0.014486   -1.031670
     16          8           0       -3.279115   -1.051909    1.726091
     17          1           0       -2.991679   -0.869285    2.635123
     18          8           0       -0.922154    1.440809    0.318681
     19          6           0       -1.439456    2.693732    0.732310
     20          1           0       -2.471587    2.843028    0.391836
     21          1           0       -0.805877    3.458044    0.274993
     22          1           0       -1.394708    2.806275    1.826947
     23          8           0        0.809024   -0.717140    0.866934
     24         14           0        2.341157   -0.821001    0.208938
     25          6           0        3.410629   -1.381092    1.662179
     26          1           0        4.469581   -1.461131    1.389604
     27          1           0        3.082691   -2.367236    2.012151
     28          1           0        3.332540   -0.690190    2.508898
     29          6           0        2.923215    0.891126   -0.437875
     30          6           0        2.472108   -2.130005   -1.155636
     31          1           0        3.526697   -2.305270   -1.402285
     32          1           0        1.960996   -1.848135   -2.081969
     33          1           0        2.055758   -3.087425   -0.819581
     34          6           0        2.075154    1.345137   -1.644638
     35          1           0        2.132349    0.635373   -2.479707
     36          1           0        2.437602    2.313865   -2.020427
     37          1           0        1.022751    1.470478   -1.369864
     38          6           0        4.403270    0.802759   -0.871674
     39          1           0        4.552850    0.082763   -1.686148
     40          1           0        5.062059    0.514313   -0.043452
     41          1           0        4.750486    1.780350   -1.237106
     42          6           0        2.785143    1.941592    0.684754
     43          1           0        3.116923    2.928379    0.328559
     44          1           0        3.395785    1.690400    1.560969
     45          1           0        1.743858    2.033842    1.010552
     46          1           0       -4.966226   -0.599145   -1.859762
     47          1           0       -5.311788    0.420121   -0.366656
 ---------------------------------------------------------------------
                    Distance matrix (angstroms):
                    1          2          3          4          5
     1  H    0.000000
     2  C    1.098685   0.000000
     3  C    2.716236   2.529582   0.000000
     4  C    2.684683   2.533014   2.558325   0.000000
     5  C    3.196563   2.935742   1.516518   1.520466   0.000000
     6  C    2.127044   1.540836   2.967195   1.548935   2.524275
     7  C    2.146055   1.535987   1.541092   2.980861   2.535391
     8  H    3.743608   3.482129   1.095223   3.482336   2.142369
     9  H    3.712381   3.486228   3.476229   1.098858   2.137535
    10  H    2.450197   2.162378   3.961966   2.172503   3.469595
    11  H    2.492803   2.164309   2.165639   3.965050   3.469902
    12  H    2.563682   2.825828   1.097724   2.872742   2.128656
    13  H    3.054378   2.163340   2.171822   3.386873   2.849567
    14  O    4.419798   3.892611   2.516171   2.477077   1.441262
    15  C    4.596660   4.403406   2.602354   2.576295   1.467983
    16  O    2.544816   2.970274   3.012140   1.430382   2.372586
    17  H    2.718557   3.205718   3.848652   1.958475   3.218722
    18  O    3.309260   2.385553   3.518099   2.467490   3.007981
    19  C    4.509265   3.709841   4.608899   3.012202   3.710004
    20  H    4.923217   4.212654   4.525009   2.868462   3.366741
    21  H    5.295483   4.378635   5.311644   4.035810   4.544410
    22  H    4.649745   4.012271   5.246752   3.258863   4.309007
    23  O    2.030776   1.411270   3.821419   3.761402   4.281107
    24  Si   3.509321   2.916913   4.938543   5.332751   5.631290
    25  C    4.368658   4.144414   6.422820   6.488337   7.062795
    26  H    5.393249   5.123190   7.292863   7.511846   8.006457
    27  H    4.130853   4.182632   6.366635   6.521473   7.098196
    28  H    4.586372   4.356203   6.805909   6.450807   7.229977
    29  C    4.921597   4.037173   5.821897   6.009953   6.258354
    30  C    4.100457   3.685205   4.900298   6.131211   6.007864
    31  H    5.138743   4.737085   5.975573   7.200871   7.088669
    32  H    4.312272   3.763147   4.462473   5.993716   5.622767
    33  H    3.789229   3.669029   4.745296   6.093495   5.968514
    34  C    5.129698   4.099402   5.265897   5.717247   5.657547
    35  H    5.299649   4.334486   5.136964   6.073412   5.773876
    36  H    6.148600   5.092403   6.157531   6.474045   6.411017
    37  H    4.525874   3.438856   4.468320   4.731957   4.675979
    38  C    6.232814   5.433353   7.138948   7.528903   7.710030
    39  H    6.419642   5.663160   7.112378   7.866669   7.867063
    40  H    6.499530   5.823309   7.761202   8.005566   8.335256
    41  H    7.087751   6.209118   7.812990   8.106795   8.268787
    42  C    5.253256   4.389564   6.419406   5.970033   6.524834
    43  H    6.236752   5.312071   7.154664   6.670780   7.165647
    44  H    5.537110   4.832257   7.084998   6.512307   7.218098
    45  H    4.636012   3.758140   5.784229   5.025820   5.698592
    46  H    5.176268   5.038123   2.814616   3.532154   2.217502
    47  H    5.140024   5.023551   3.546087   2.777535   2.222431
                    6          7          8          9         10
     6  C    0.000000
     7  C    2.524574   0.000000
     8  H    3.932149   2.179445   0.000000
     9  H    2.182279   3.945349   4.261415   0.000000
    10  H    1.106162   3.474309   4.977415   2.545836   0.000000
    11  H    3.474232   1.094389   2.536330   4.980153   4.301769
    12  H    3.425363   2.172206   1.768656   3.860261   4.242701
    13  H    2.778840   1.094343   2.474133   4.158268   3.781876
    14  O    3.251320   3.308578   2.634804   2.551383   4.218442
    15  C    3.844965   3.875039   2.722127   2.669370   4.697440
    16  O    2.452988   3.586378   3.999163   2.082983   2.666598
    17  H    2.563189   4.157446   4.882550   2.371169   2.351183
    18  O    1.415818   2.894534   4.228162   2.702866   2.066413
    19  C    2.404767   4.244914   5.255458   2.686657   2.650037
    20  H    2.845383   4.519615   5.066808   2.264704   3.239965
    21  H    3.287226   4.783512   5.836038   3.743868   3.535731
    22  H    2.610079   4.866437   6.023421   2.830264   2.377518
    23  O    2.402706   2.497031   4.655399   4.572645   2.591543
    24  Si   3.956655   3.422189   5.545706   6.121481   4.163046
    25  C    5.092259   5.005180   7.149135   7.249071   4.916161
    26  H    6.096269   5.825665   7.933703   8.268276   5.959919
    27  H    5.269982   5.066815   7.127127   7.362043   5.070526
    28  H    5.007132   5.447758   7.620852   7.089599   4.617603
    29  C    4.567326   4.343786   6.283348   6.562951   4.809916
    30  C    5.049611   3.482553   5.223269   7.063106   5.516599
    31  H    6.059619   4.563565   6.237984   8.110924   6.461202
    32  H    5.050708   3.130049   4.585100   6.902558   5.707842
    33  H    5.167760   3.497199   5.111380   7.106492   5.603750
    34  C    4.485792   3.938765   5.516580   6.207152   5.023659
    35  H    4.976528   3.831698   5.215684   6.673329   5.644264
    36  H    5.277312   4.926944   6.338109   6.827885   5.771437
    37  H    3.588658   3.279285   4.773361   5.164452   4.225311
    38  C    6.091099   5.629350   7.503536   8.105598   6.296678
    39  H    6.516457   5.615915   7.356740   8.533294   6.848665
    40  H    6.512415   6.228129   8.221542   8.597236   6.554891
    41  H    6.684099   6.354578   8.121044   8.576862   6.895698
    42  C    4.463259   5.063092   7.023002   6.318587   4.420046
    43  H    5.230487   5.853763   7.673805   6.897071   5.223553
    44  H    4.970668   5.706089   7.772826   6.881322   4.715956
    45  H    3.543786   4.566151   6.464894   5.293833   3.453994
    46  H    4.732084   4.241877   2.548624   3.744823   5.640132
    47  H    4.208030   4.753226   3.789766   2.492384   4.876369
                   11         12         13         14         15
    11  H    0.000000
    12  H    2.456792   0.000000
    13  H    1.769869   3.072724   0.000000
    14  O    4.274224   3.376564   3.132894   0.000000
    15  C    4.722809   3.045932   4.055837   1.436218   0.000000
    16  O    4.333173   2.770970   4.310125   3.627121   3.214746
    17  H    4.880348   3.611258   4.857768   4.373597   4.080551
    18  O    3.881605   4.289061   2.574854   3.102670   4.148556
    19  C    5.269295   5.377776   3.866424   3.451070   4.496011
    20  H    5.599711   5.308011   4.164909   2.841043   3.817522
    21  H    5.740002   6.175700   4.189156   4.071973   5.281634
    22  H    5.858562   5.863359   4.659211   4.278992   5.116458
    23  O    2.752846   4.125370   2.783296   5.060830   5.742549
    24  Si   3.272578   5.303577   3.411205   6.234452   7.062748
    25  C    4.781628   6.567765   5.196820   7.827783   8.528340
    26  H    5.499081   7.469303   5.918641   8.702340   9.464469
    27  H    4.728771   6.327074   5.472445   8.029225   8.560669
    28  H    5.419116   6.973883   5.614037   7.966043   8.681063
    29  C    4.447076   6.466808   3.835408   6.448949   7.565959
    30  C    2.784538   5.166302   3.545653   6.635858   7.349113
    31  H    3.846633   6.236982   4.539124   7.660655   8.417723
    32  H    2.419977   4.871416   2.994515   6.091902   6.859444
    33  H    2.621476   4.777806   3.870912   6.791504   7.302075
    34  C    4.164462   6.099008   3.108617   5.564034   6.805429
    35  H    3.825234   5.946938   3.001153   5.704989   6.882696
    36  H    5.209642   7.055539   4.010154   6.113276   7.445340
    37  H    3.763883   5.366498   2.384815   4.525701   5.791433
    38  C    5.521902   7.745584   5.120660   7.877452   9.006694
    39  H    5.324918   7.690157   5.121438   8.053657   9.141670
    40  H    6.075703   8.264034   5.864654   8.628578   9.691927
    41  H    6.344986   8.512779   5.707548   8.263934   9.488888
    42  C    5.413442   7.066792   4.595082   6.663124   7.797092
    43  H    6.249244   7.893957   5.235976   7.104031   8.337878
    44  H    5.975330   7.612641   5.397850   7.500838   8.544004
    45  H    5.105760   6.437987   4.150264   5.842180   6.940175
    46  H    4.913361   3.146872   4.437102   2.141888   1.090262
    47  H    5.650962   3.850045   4.955463   2.145644   1.090437
                   16         17         18         19         20
    16  O    0.000000
    17  H    0.970727   0.000000
    18  O    3.708060   3.871094   0.000000
    19  C    4.289729   4.327261   1.417218   0.000000
    20  H    4.195578   4.368535   2.091008   1.097044   0.000000
    21  H    5.344368   5.392005   2.021056   1.093039   1.779462
    22  H    4.294967   4.088179   2.088701   1.101317   1.794593
    23  O    4.190835   4.194637   2.820337   4.087522   4.864455
    24  Si   5.826022   5.858997   3.972031   5.188478   6.051534
    25  C    6.698143   6.496008   5.342389   6.402513   7.352376
    26  H    7.766787   7.587622   6.216023   7.253388   8.228070
    27  H    6.502653   6.287283   5.779951   6.906606   7.786031
    28  H    6.667654   6.328013   5.238380   6.113848   7.117125
    29  C    6.850331   6.894080   3.957448   4.863293   5.796743
    30  C    6.522515   6.768474   5.142503   6.491002   7.180936
    31  H    7.594520   7.800765   6.065238   7.362689   8.105754
    32  H    6.526412   6.909276   4.989271   6.333387   6.911911
    33  H    6.251771   6.506285   5.537915   6.931570   7.558747
    34  C    6.765785   6.992340   3.584359   4.452086   5.202284
    35  H    7.058300   7.394670   4.220153   5.226058   5.857963
    36  H    7.618772   7.828389   4.185883   4.770056   5.495377
    37  H    5.869704   6.134335   2.575795   3.460917   4.147032
    38  C    8.319087   8.353360   5.494014   6.347125   7.281677
    39  H    8.618035   8.746410   5.986593   6.969493   7.828141
    40  H    8.669459   8.599523   6.066328   6.900824   7.897355
    41  H    9.015360   9.052947   5.891910   6.559592   7.479377
    42  C    6.842562   6.713914   3.758835   4.291295   5.341498
    43  H    7.661925   7.553642   4.304312   4.580247   5.589520
    44  H    7.218159   6.964588   4.500019   5.007285   6.092740
    45  H    5.938359   5.787287   2.817445   3.262876   4.336769
    46  H    3.988694   4.916890   5.026086   5.477224   4.810558
    47  H    3.267755   4.007013   4.558550   4.622985   3.809531
                   21         22         23         24         25
    21  H    0.000000
    22  H    1.783280   0.000000
    23  O    4.515580   4.265268   0.000000
    24  Si   5.312101   5.452685   1.670682   0.000000
    25  C    6.566616   6.375928   2.800285   1.889281   0.000000
    26  H    7.298705   7.265804   3.771788   2.516729   1.096395
    27  H    7.216132   6.844459   3.033793   2.488432   1.096587
    28  H    6.270939   5.919223   3.010798   2.507941   1.095617
    29  C    4.582944   5.238480   2.959535   1.920557   3.132215
    30  C    6.634620   6.943697   2.975370   1.895442   3.062968
    31  H    7.402719   7.795900   3.880368   2.490903   3.202892
    32  H    6.431671   6.942903   3.361877   2.539248   4.042055
    33  H    7.227047   7.324311   3.164953   2.505191   3.302481
    34  C    4.055823   5.121208   3.487702   2.863329   4.488971
    35  H    4.918233   5.974966   3.844540   3.064872   4.780727
    36  H    4.135004   5.452647   4.491783   3.847955   5.306701
    37  H    3.162254   4.224697   3.136019   3.079235   4.798614
    38  C    5.958238   6.701730   4.272172   2.838420   3.489262
    39  H    6.629823   7.425146   4.601555   3.049545   3.828686
    40  H    6.572643   7.102205   4.520352   3.041393   3.037920
    41  H    5.997855   6.942935   5.118551   3.829221   4.493972
    42  C    3.919561   4.418533   3.317694   2.838211   3.519492
    43  H    3.958759   4.755512   4.348109   3.830662   4.520658
    44  H    4.736271   4.925926   3.601287   3.040948   3.073195
    45  H    3.011735   3.333729   2.909028   3.024811   3.855453
    46  H    6.190837   6.159907   6.387668   7.597801   9.120702
    47  H    5.472104   5.084205   6.346609   7.774269   9.134610
                   26         27         28         29         30
    26  H    0.000000
    27  H    1.769761   0.000000
    28  H    1.772013   1.766824   0.000000
    29  C    3.356194   4.079826   3.369210   0.000000
    30  C    3.303867   3.234805   4.030164   3.137819   0.000000
    31  H    3.065330   3.443741   4.235981   3.392820   1.097138
    32  H    4.300534   4.276621   4.929303   3.336534   1.094888
    33  H    3.654021   3.097091   4.296007   4.089872   1.096783
    34  C    4.776510   5.307443   4.793270   1.543247   3.531757
    35  H    4.982926   5.485946   5.299411   2.204531   3.084788
    36  H    5.477942   6.212128   5.508180   2.182768   4.527365
    37  H    5.299965   5.514474   5.004838   2.194542   3.887159
    38  C    3.200465   4.484333   3.847548   1.544847   3.522943
    39  H    3.442498   4.673465   4.436781   2.206206   3.083387
    40  H    2.511386   4.055456   3.310069   2.207309   3.864870
    41  H    4.181592   5.526453   4.706026   2.183669   4.526425
    42  C    3.861692   4.518464   3.248603   1.543645   4.479166
    43  H    4.714159   5.556905   4.230179   2.185256   5.310920
    44  H    3.333849   4.094631   2.563158   2.203982   4.777930
    45  H    4.448380   4.707989   3.491318   2.189663   4.749773
    46  H   10.016779   9.105104   9.378859   8.153892   7.626804
    47  H   10.114284   9.159441   9.177473   8.248769   8.228892
                   31         32         33         34         35
    31  H    0.000000
    32  H    1.767021   0.000000
    33  H    1.764928   1.771565   0.000000
    34  C    3.935884   3.225101   4.508736   0.000000
    35  H    3.428181   2.520986   4.076899   1.097441   0.000000
    36  H    4.785879   4.189652   5.546329   1.100463   1.766763
    37  H    4.530681   3.521447   4.705783   1.094880   1.777740
    38  C    3.272579   3.802204   4.543903   2.512324   2.787628
    39  H    2.614626   3.256186   4.127529   2.781059   2.606519
    40  H    3.486232   4.399239   4.755285   3.489365   3.812243
    41  H    4.268165   4.654133   5.579527   2.740966   3.116034
    42  C    4.789726   4.764032   5.299626   2.507172   3.485134
    43  H    5.527641   5.473746   6.215641   2.735954   3.756810
    44  H    4.976283   5.277390   5.503663   3.484134   4.363074
    45  H    5.275243   4.967955   5.447389   2.762989   3.780020
    46  H    8.674669   7.042425   7.522086   7.308046   7.231745
    47  H    9.306938   7.809012   8.172439   7.553529   7.741220
                   36         37         38         39         40
    36  H    0.000000
    37  H    1.770971   0.000000
    38  C    2.732568   3.481659   0.000000
    39  H    3.092545   3.806230   1.097331   0.000000
    40  H    3.746277   4.357709   1.096885   1.773127   0.000000
    41  H    2.499532   3.742947   1.099902   1.767060   1.767693
    42  C    2.752703   2.747622   2.517488   3.493023   2.784198
    43  H    2.521277   3.065236   2.759259   3.770737   3.122445
    44  H    3.759418   3.777491   2.778612   3.803560   2.594960
    45  H    3.121943   2.550246   3.482932   4.355380   3.798730
    46  H    7.957896   6.355406   9.525183   9.545048  10.252086
    47  H    8.147041   6.498928   9.735698   9.958210  10.379308
                   41         42         43         44         45
    41  H    0.000000
    42  C    2.753565   0.000000
    43  H    2.537283   1.100319   0.000000
    44  H    3.110069   1.097148   1.768952   0.000000
    45  H    3.762451   1.094956   1.774998   1.774760   0.000000
    46  H   10.023183   8.544801   9.086775   9.320228   7.758644
    47  H   10.191038   8.305458   8.821443   9.008395   7.367696
                   46         47
    46  H    0.000000
    47  H    1.840566   0.000000
 Stoichiometry    C14H28O4Si
 Framework group  C1[X(C14H28O4Si)]
 Deg. of freedom   135
 Full point group                 C1      NOp   1
 Largest Abelian subgroup         C1      NOp   1
 Largest concise Abelian subgroup C1      NOp   1
                         Standard orientation:                         
 ---------------------------------------------------------------------
 Center     Atomic      Atomic             Coordinates (Angstroms)
 Number     Number       Type             X           Y           Z
 ---------------------------------------------------------------------
      1          1           0       -0.909041   -1.766044    1.135458
      2          6           0       -0.554150   -0.904479    0.553335
      3          6           0       -2.376301   -1.419481   -1.123962
      4          6           0       -2.872965    0.050479    0.910140
      5          6           0       -3.218386   -0.308835   -0.526312
      6          6           0       -1.353479    0.312582    1.057331
      7          6           0       -0.868151   -1.171760   -0.926266
      8          1           0       -2.610696   -1.514673   -2.189566
      9          1           0       -3.435623    0.953461    1.184966
     10          1           0       -1.122343    0.463734    2.128463
     11          1           0       -0.308986   -2.048444   -1.267509
     12          1           0       -2.662943   -2.360747   -0.637286
     13          1           0       -0.550699   -0.314622   -1.528034
     14          8           0       -3.458713    0.839280   -1.363756
     15          6           0       -4.564843   -0.014486   -1.031670
     16          8           0       -3.279115   -1.051909    1.726091
     17          1           0       -2.991679   -0.869285    2.635123
     18          8           0       -0.922154    1.440809    0.318681
     19          6           0       -1.439456    2.693732    0.732310
     20          1           0       -2.471587    2.843028    0.391836
     21          1           0       -0.805877    3.458044    0.274993
     22          1           0       -1.394708    2.806275    1.826947
     23          8           0        0.809024   -0.717140    0.866934
     24         14           0        2.341157   -0.821001    0.208938
     25          6           0        3.410629   -1.381092    1.662179
     26          1           0        4.469581   -1.461131    1.389604
     27          1           0        3.082691   -2.367236    2.012151
     28          1           0        3.332540   -0.690190    2.508898
     29          6           0        2.923215    0.891126   -0.437875
     30          6           0        2.472108   -2.130005   -1.155636
     31          1           0        3.526697   -2.305270   -1.402285
     32          1           0        1.960996   -1.848135   -2.081969
     33          1           0        2.055758   -3.087425   -0.819581
     34          6           0        2.075154    1.345137   -1.644638
     35          1           0        2.132349    0.635373   -2.479707
     36          1           0        2.437602    2.313865   -2.020427
     37          1           0        1.022751    1.470478   -1.369864
     38          6           0        4.403270    0.802759   -0.871674
     39          1           0        4.552850    0.082763   -1.686148
     40          1           0        5.062059    0.514313   -0.043452
     41          1           0        4.750486    1.780350   -1.237106
     42          6           0        2.785143    1.941592    0.684754
     43          1           0        3.116923    2.928379    0.328559
     44          1           0        3.395785    1.690400    1.560969
     45          1           0        1.743858    2.033842    1.010552
     46          1           0       -4.966226   -0.599145   -1.859762
     47          1           0       -5.311788    0.420121   -0.366656
 ---------------------------------------------------------------------
 Rotational constants (GHZ):      0.6113325      0.2074934      0.1950435
 Standard basis: 6-31+G(d,p) (6D, 7F)
 There are   505 symmetry adapted basis functions of A   symmetry.
 Integral buffers will be    131072 words long.
 Raffenetti 2 integral format.
 Two-electron integral symmetry is turned on.
   505 basis functions,   828 primitive gaussians,   505 cartesian basis functions
    79 alpha electrons       79 beta electrons
       nuclear repulsion energy      1832.0329735805 Hartrees.
 NAtoms=   47 NActive=   47 NUniq=   47 SFac= 1.00D+00 NAtFMM=   60 NAOKFM=F Big=F
 ------------------------------------------------------------------------------
 Polarizable Continuum Model (PCM)
 =================================
 Model                : PCM.
 Atomic radii         : UFF (Universal Force Field).
 Polarization charges : Total charges.
 Charge compensation  : None.
 Solution method      : Matrix inversion.
 Cavity type          : Scaled VdW (van der Waals Surface) (Alpha=1.100).
 Cavity algorithm     : GePol (No added spheres)
                        Default sphere list used, NSphG=   47.
                        Lebedev-Laikov grids with approx.  5.0 points / Ang**2.
                        Smoothing algorithm: Karplus/York (Gamma=1.0000).
                        Polarization charges: spherical gaussians, with
                                              point-specific exponents (IZeta= 3).
                        Self-potential: point-specific (ISelfS= 7).
                        Self-field    : sphere-specific E.n sum rule (ISelfD= 2).
 Solvent              : Chloroform, Eps=   4.711300 Eps(inf)=   2.090627
 ------------------------------------------------------------------------------
 One-electron integrals computed using PRISM.
 NBasis=   505 RedAO= T  NBF=   505
 NBsUse=   505 1.00D-06 NBFU=   505
 Harris functional with IExCor=  908 diagonalized for initial guess.
 ExpMin= 3.31D-02 ExpMax= 1.61D+04 ExpMxC= 2.43D+03 IAcc=3 IRadAn=         5 AccDes= 0.00D+00
 HarFok:  IExCor=  908 AccDes= 0.00D+00 IRadAn=         5 IDoV= 1
 ScaDFX=  1.000000  1.000000  1.000000  1.000000
 FoFCou: FMM=F IPFlag=           0 FMFlag=      100000 FMFlg1=           0
         NFxFlg=           0 DoJE=T BraDBF=F KetDBF=T FulRan=T
         Omega=  0.000000  0.000000  1.000000  0.000000  0.000000 ICntrl=     500 IOpCl=  0
         NMat0=    1 NMatS0=    1 NMatT0=    0 NMatD0=    1 NMtDS0=    0 NMtDT0=    0
         I1Cent=           4 NGrid=           0.
 Petite list used in FoFCou.
 Initial guess orbital symmetries:
       Occupied  (A) (A) (A) (A) (A) (A) (A) (A) (A) (A) (A) (A)
                 (A) (A) (A) (A) (A) (A) (A) (A) (A) (A) (A) (A)
                 (A) (A) (A) (A) (A) (A) (A) (A) (A) (A) (A) (A)
                 (A) (A) (A) (A) (A) (A) (A) (A) (A) (A) (A) (A)
                 (A) (A) (A) (A) (A) (A) (A) (A) (A) (A) (A) (A)
                 (A) (A) (A) (A) (A) (A) (A) (A) (A) (A) (A) (A)
                 (A) (A) (A) (A) (A) (A) (A)
       Virtual   (A) (A) (A) (A) (A) (A) (A) (A) (A) (A) (A) (A)
                 (A) (A) (A) (A) (A) (A) (A) (A) (A) (A) (A) (A)
                 (A) (A) (A) (A) (A) (A) (A) (A) (A) (A) (A) (A)
                 (A) (A) (A) (A) (A) (A) (A) (A) (A) (A) (A) (A)
                 (A) (A) (A) (A) (A) (A) (A) (A) (A) (A) (A) (A)
                 (A) (A) (A) (A) (A) (A) (A) (A) (A) (A) (A) (A)
                 (A) (A) (A) (A) (A) (A) (A) (A) (A) (A) (A) (A)
                 (A) (A) (A) (A) (A) (A) (A) (A) (A) (A) (A) (A)
                 (A) (A) (A) (A) (A) (A) (A) (A) (A) (A) (A) (A)
                 (A) (A) (A) (A) (A) (A) (A) (A) (A) (A) (A) (A)
                 (A) (A) (A) (A) (A) (A) (A) (A) (A) (A) (A) (A)
                 (A) (A) (A) (A) (A) (A) (A) (A) (A) (A) (A) (A)
                 (A) (A) (A) (A) (A) (A) (A) (A) (A) (A) (A) (A)
                 (A) (A) (A) (A) (A) (A) (A) (A) (A) (A) (A) (A)
                 (A) (A) (A) (A) (A) (A) (A) (A) (A) (A) (A) (A)
                 (A) (A) (A) (A) (A) (A) (A) (A) (A) (A) (A) (A)
                 (A) (A) (A) (A) (A) (A) (A) (A) (A) (A) (A) (A)
                 (A) (A) (A) (A) (A) (A) (A) (A) (A) (A) (A) (A)
                 (A) (A) (A) (A) (A) (A) (A) (A) (A) (A) (A) (A)
                 (A) (A) (A) (A) (A) (A) (A) (A) (A) (A) (A) (A)
                 (A) (A) (A) (A) (A) (A) (A) (A) (A) (A) (A) (A)
                 (A) (A) (A) (A) (A) (A) (A) (A) (A) (A) (A) (A)
                 (A) (A) (A) (A) (A) (A) (A) (A) (A) (A) (A) (A)
                 (A) (A) (A) (A) (A) (A) (A) (A) (A) (A) (A) (A)
                 (A) (A) (A) (A) (A) (A) (A) (A) (A) (A) (A) (A)
                 (A) (A) (A) (A) (A) (A) (A) (A) (A) (A) (A) (A)
                 (A) (A) (A) (A) (A) (A) (A) (A) (A) (A) (A) (A)
                 (A) (A) (A) (A) (A) (A) (A) (A) (A) (A) (A) (A)
                 (A) (A) (A) (A) (A) (A) (A) (A) (A) (A) (A) (A)
                 (A) (A) (A) (A) (A) (A) (A) (A) (A) (A) (A) (A)
                 (A) (A) (A) (A) (A) (A) (A) (A) (A) (A) (A) (A)
                 (A) (A) (A) (A) (A) (A) (A) (A) (A) (A) (A) (A)
                 (A) (A) (A) (A) (A) (A) (A) (A) (A) (A) (A) (A)
                 (A) (A) (A) (A) (A) (A) (A) (A) (A) (A) (A) (A)
                 (A) (A) (A) (A) (A) (A) (A) (A) (A) (A) (A) (A)
                 (A) (A) (A) (A) (A) (A)
 The electronic state of the initial guess is 1-A.
 Requested convergence on RMS density matrix=1.00D-08 within 128 cycles.
 Requested convergence on MAX density matrix=1.00D-06.
 Requested convergence on             energy=1.00D-06.
 No special actions if energy rises.
 Error on total polarization charges =  0.01539
 SCF Done:  E(RmPW1PW91) =  -1140.61392763     A.U. after   13 cycles
             Convg  =    0.4518D-08             -V/T =  2.0080
 Range of M.O.s used for correlation:     1   505
 NBasis=   505 NAE=    79 NBE=    79 NFC=     0 NFV=     0
 NROrb=    505 NOA=    79 NOB=    79 NVA=   426 NVB=   426

 **** Warning!!: The largest alpha MO coefficient is  0.73138772D+02

 NEqPCM:  Using equilibrium solvation (IEInf=0, Eps=   4.7113, EpsInf=   2.0906)
          Differentiating once with respect to magnetic field using GIAOs.
          Electric field/nuclear overlap derivatives assumed to be zero.
 FoFCou: FMM=F IPFlag=           0 FMFlag=    10101102 FMFlg1=           0
         NFxFlg=    40000000 DoJE=F BraDBF=F KetDBF=T FulRan=T
         Omega=  0.000000  0.000000  1.000000  0.000000  0.000000 ICntrl=    6100 IOpCl=  0
         NMat0=    1 NMatS0=    1 NMatT0=    0 NMatD0=    1 NMtDS0=    0 NMtDT0=    0
         I1Cent=           7 NGrid=        2941.
 Symmetry not used in FoFCou.
          There are     3 degrees of freedom in the 1st order CPHF.  IDoFFX=0.
      3 vectors produced by pass  0 Test12= 1.12D-12 3.33D-08 XBig12= 1.89D+02 2.50D+00.
 AX will form     3 AO Fock derivatives at one time.
      3 vectors produced by pass  1 Test12= 1.12D-12 3.33D-08 XBig12= 4.86D-01 8.79D-02.
      3 vectors produced by pass  2 Test12= 1.12D-12 3.33D-08 XBig12= 1.48D-03 6.73D-03.
      3 vectors produced by pass  3 Test12= 1.12D-12 3.33D-08 XBig12= 8.06D-06 4.66D-04.
      3 vectors produced by pass  4 Test12= 1.12D-12 3.33D-08 XBig12= 2.50D-08 1.92D-05.
      3 vectors produced by pass  5 Test12= 1.12D-12 3.33D-08 XBig12= 7.31D-11 1.07D-06.
      2 vectors produced by pass  6 Test12= 1.12D-12 3.33D-08 XBig12= 2.99D-13 6.01D-08.
 Inverted reduced A of dimension    20 with in-core refinement.
 Calculating GIAO nuclear magnetic shielding tensors.
 SCF GIAO Magnetic shielding tensor (ppm):
      1  H    Isotropic =    26.9001   Anisotropy =     7.2283
   XX=    31.3593   YX=     2.2258   ZX=    -1.2429
   XY=    -0.3398   YY=    25.7157   ZY=    -3.0760
   XZ=    -0.1728   YZ=    -2.9418   ZZ=    23.6254
   Eigenvalues:    21.4852    27.4961    31.7190
      2  C    Isotropic =   122.8679   Anisotropy =    58.3703
   XX=   157.8019   YX=     2.5781   ZX=     8.6844
   XY=    19.1742   YY=   103.4877   ZY=     9.1019
   XZ=     9.1965   YZ=     4.7119   ZZ=   107.3142
   Eigenvalues:    98.0096   108.8127   161.7814
      3  C    Isotropic =   166.5719   Anisotropy =    21.5855
   XX=   171.1812   YX=   -13.8624   ZX=     3.2488
   XY=    -9.1364   YY=   163.1818   ZY=     7.9279
   XZ=    -1.6421   YZ=    10.2371   ZZ=   165.3527
   Eigenvalues:   150.5918   168.1616   180.9622
      4  C    Isotropic =   121.8023   Anisotropy =    40.7433
   XX=   107.3863   YX=     2.9994   ZX=     0.6881
   XY=     5.8306   YY=   123.7753   ZY=   -15.2616
   XZ=    -3.5853   YZ=   -22.5159   ZZ=   134.2451
   Eigenvalues:   105.3393   111.1029   148.9645
      5  C    Isotropic =   138.2318   Anisotropy =    56.7437
   XX=    99.0376   YX=     7.2259   ZX=   -24.5312
   XY=     6.5371   YY=   154.4610   ZY=    14.7687
   XZ=   -25.7344   YZ=    13.3720   ZZ=   161.1969
   Eigenvalues:    88.2176   150.4169   176.0609
      6  C    Isotropic =   110.4109   Anisotropy =    42.3339
   XX=    99.6391   YX=    20.3689   ZX=   -11.4739
   XY=    -1.1710   YY=   122.2093   ZY=   -20.2256
   XZ=     2.7653   YZ=   -17.8522   ZZ=   109.3842
   Eigenvalues:    94.2166    98.3826   138.6334
      7  C    Isotropic =   166.5814   Anisotropy =    23.6923
   XX=   179.3829   YX=     0.9889   ZX=     3.2438
   XY=     3.1361   YY=   151.6215   ZY=     6.8641
   XZ=     8.1727   YZ=     3.2354   ZZ=   168.7398
   Eigenvalues:   150.2343   167.1337   182.3762
      8  H    Isotropic =    30.5002   Anisotropy =    10.1231
   XX=    30.5137   YX=    -0.2123   ZX=     3.2448
   XY=    -0.4675   YY=    26.8532   ZY=     4.6874
   XZ=     2.0313   YZ=     4.8757   ZZ=    34.1338
   Eigenvalues:    24.1208    30.1310    37.2490
      9  H    Isotropic =    27.8608   Anisotropy =     3.6936
   XX=    27.5650   YX=    -0.9435   ZX=    -2.4382
   XY=    -0.2764   YY=    29.6633   ZY=     1.6469
   XZ=    -0.6421   YZ=     0.2273   ZZ=    26.3540
   Eigenvalues:    25.2592    27.9999    30.3232
     10  H    Isotropic =    28.1806   Anisotropy =     3.7213
   XX=    27.9297   YX=     0.1180   ZX=    -1.0411
   XY=     1.6256   YY=    26.4046   ZY=    -1.9654
   XZ=    -0.1835   YZ=     0.1111   ZZ=    30.2075
   Eigenvalues:    25.9197    27.9606    30.6614
     11  H    Isotropic =    29.8646   Anisotropy =    10.4368
   XX=    34.9247   YX=    -3.2469   ZX=    -0.2665
   XY=    -3.0060   YY=    29.0913   ZY=     4.0203
   XZ=    -1.1444   YZ=     4.3023   ZZ=    25.5779
   Eigenvalues:    22.7020    30.0694    36.8225
     12  H    Isotropic =    29.1970   Anisotropy =     8.2522
   XX=    28.7569   YX=     2.3844   ZX=    -0.2447
   XY=     1.5928   YY=    34.0328   ZY=    -0.3888
   XZ=    -0.5734   YZ=     0.6039   ZZ=    24.8013
   Eigenvalues:    24.7479    28.1445    34.6984
     13  H    Isotropic =    29.2421   Anisotropy =     6.0217
   XX=    31.8393   YX=     2.1573   ZX=    -1.0046
   XY=     1.7636   YY=    27.4866   ZY=    -1.1250
   XZ=    -1.8086   YZ=    -1.4898   ZZ=    28.4005
   Eigenvalues:    26.3912    28.0786    33.2566
     14  O    Isotropic =   298.9631   Anisotropy =   137.6690
   XX=   300.1581   YX=  -109.4620   ZX=    54.3776
   XY=   -68.7202   YY=   247.6609   ZY=    86.5635
   XZ=    36.2334   YZ=    67.4977   ZZ=   349.0702
   Eigenvalues:   142.7196   363.4273   390.7424
     15  C    Isotropic =   146.1791   Anisotropy =    43.3394
   XX=   119.4621   YX=     5.1234   ZX=   -19.6636
   XY=     1.7041   YY=   158.1946   ZY=    13.0379
   XZ=   -13.2483   YZ=    13.9123   ZZ=   160.8807
   Eigenvalues:   112.3656   151.0997   175.0721
     16  O    Isotropic =   299.3430   Anisotropy =    90.9381
   XX=   277.0983   YX=     6.0733   ZX=    22.8240
   XY=    12.9127   YY=   265.4337   ZY=     1.1090
   XZ=    15.6421   YZ=    -3.8251   ZZ=   355.4971
   Eigenvalues:   258.8194   279.2412   359.9684
     17  H    Isotropic =    30.8869   Anisotropy =    18.9188
   XX=    25.0149   YX=     3.2215   ZX=     1.3529
   XY=     2.7095   YY=    24.3503   ZY=    -1.1515
   XZ=     2.4534   YZ=    -0.2323   ZZ=    43.2954
   Eigenvalues:    21.5511    27.6101    43.4994
     18  O    Isotropic =   309.5477   Anisotropy =    55.8886
   XX=   304.0390   YX=    23.8147   ZX=   -17.6943
   XY=     9.7531   YY=   295.8579   ZY=    -4.0001
   XZ=   -28.6615   YZ=    -9.0463   ZZ=   328.7463
   Eigenvalues:   280.2665   301.5700   346.8068
     19  C    Isotropic =   140.3350   Anisotropy =    80.2701
   XX=   117.0428   YX=   -23.0692   ZX=    -3.1325
   XY=   -22.7245   YY=   179.5275   ZY=    22.4907
   XZ=    -4.4441   YZ=    20.8078   ZZ=   124.4348
   Eigenvalues:   108.5548   118.6019   193.8485
     20  H    Isotropic =    27.8472   Anisotropy =     8.9641
   XX=    29.1273   YX=    -2.3044   ZX=     1.8379
   XY=    -4.2604   YY=    31.5289   ZY=     0.5891
   XZ=     1.1056   YZ=     1.5445   ZZ=    22.8855
   Eigenvalues:    22.1761    27.5423    33.8233
     21  H    Isotropic =    27.8276   Anisotropy =     9.7181
   XX=    26.1066   YX=    -0.6152   ZX=    -1.0861
   XY=     1.5272   YY=    34.2653   ZY=    -1.2274
   XZ=    -0.9051   YZ=     0.5054   ZZ=    23.1109
   Eigenvalues:    22.8061    26.3703    34.3063
     22  H    Isotropic =    28.6234   Anisotropy =     9.9794
   XX=    26.3148   YX=    -1.2505   ZX=    -1.0212
   XY=    -0.8780   YY=    30.4163   ZY=     6.8027
   XZ=    -0.2961   YZ=     3.7781   ZZ=    29.1392
   Eigenvalues:    24.4229    26.1709    35.2764
     23  O    Isotropic =   285.5370   Anisotropy =    65.4345
   XX=   267.0971   YX=    -8.5755   ZX=    12.9061
   XY=   -18.1044   YY=   272.4510   ZY=    20.7519
   XZ=    30.3074   YZ=    19.9255   ZZ=   317.0629
   Eigenvalues:   244.1340   283.3169   329.1600
     24  Si   Isotropic =   384.0926   Anisotropy =    32.6529
   XX=   401.8919   YX=    -5.8328   ZX=   -15.9385
   XY=     2.8778   YY=   374.1739   ZY=   -10.7539
   XZ=    -5.6047   YZ=    -4.4806   ZZ=   376.2121
   Eigenvalues:   365.4961   380.9205   405.8612
     25  C    Isotropic =   197.8731   Anisotropy =     9.2369
   XX=   203.1217   YX=     0.7830   ZX=     0.6700
   XY=    -1.6930   YY=   190.3304   ZY=    -2.9294
   XZ=     2.8461   YZ=    -0.3157   ZZ=   200.1672
   Eigenvalues:   190.0673   199.5209   204.0310
     26  H    Isotropic =    31.7110   Anisotropy =    10.5263
   XX=    38.3994   YX=    -1.8886   ZX=    -0.0263
   XY=    -1.8131   YY=    28.1973   ZY=    -1.6089
   XZ=    -0.1353   YZ=    -1.5330   ZZ=    28.5363
   Eigenvalues:    26.6067    29.7978    38.7285
     27  H    Isotropic =    31.5519   Anisotropy =     9.8365
   XX=    28.8423   YX=     1.1568   ZX=     0.7535
   XY=     1.1650   YY=    35.4601   ZY=    -4.3306
   XZ=     0.4384   YZ=    -4.6110   ZZ=    30.3533
   Eigenvalues:    27.0627    29.4834    38.1096
     28  H    Isotropic =    31.3546   Anisotropy =     8.6405
   XX=    27.7174   YX=    -0.5838   ZX=     1.8246
   XY=    -0.7127   YY=    30.7430   ZY=     2.4256
   XZ=     1.4449   YZ=     3.3728   ZZ=    35.6034
   Eigenvalues:    26.9124    30.0365    37.1149
     29  C    Isotropic =   172.3925   Anisotropy =     9.5491
   XX=   176.9929   YX=    -2.4713   ZX=    -2.0327
   XY=    -3.0421   YY=   171.0218   ZY=    -0.1816
   XZ=    -3.0324   YZ=     1.3224   ZZ=   169.1628
   Eigenvalues:   168.3848   170.0342   178.7586
     30  C    Isotropic =   196.8436   Anisotropy =     6.9550
   XX=   201.3455   YX=     0.4038   ZX=    -1.5924
   XY=     0.5708   YY=   192.5491   ZY=     5.3683
   XZ=     0.0243   YZ=     3.1556   ZZ=   196.6362
   Eigenvalues:   189.8063   199.2442   201.4803
     31  H    Isotropic =    31.5598   Anisotropy =    10.7772
   XX=    36.4356   YX=    -2.7204   ZX=    -3.3619
   XY=    -2.4975   YY=    29.9051   ZY=     2.1110
   XZ=    -3.1306   YZ=     2.2864   ZZ=    28.3386
   Eigenvalues:    26.5865    29.3483    38.7446
     32  H    Isotropic =    31.2210   Anisotropy =     6.7769
   XX=    30.1516   YX=    -1.3802   ZX=     2.5851
   XY=    -0.7770   YY=    29.1137   ZY=     0.6875
   XZ=     2.8771   YZ=    -0.0303   ZZ=    34.3978
   Eigenvalues:    27.8396    30.0846    35.7389
     33  H    Isotropic =    31.4311   Anisotropy =     9.0408
   XX=    29.7267   YX=     2.0067   ZX=    -0.7751
   XY=     2.0369   YY=    36.8696   ZY=    -0.7296
   XZ=    -0.4962   YZ=    -0.4640   ZZ=    27.6969
   Eigenvalues:    27.5142    29.3207    37.4583
     34  C    Isotropic =   170.8694   Anisotropy =    37.2082
   XX=   171.3919   YX=    -1.3108   ZX=    16.5130
   XY=    -4.5374   YY=   161.6129   ZY=    -9.2368
   XZ=    19.5912   YZ=    -5.3241   ZZ=   179.6034
   Eigenvalues:   155.8082   161.1251   195.6749
     35  H    Isotropic =    30.5617   Anisotropy =     7.5352
   XX=    27.4967   YX=     1.3201   ZX=     1.4426
   XY=     0.3174   YY=    29.4556   ZY=     1.1880
   XZ=     0.9072   YZ=     2.6346   ZZ=    34.7329
   Eigenvalues:    27.1637    28.9363    35.5852
     36  H    Isotropic =    31.0884   Anisotropy =     8.7529
   XX=    28.8452   YX=     0.6873   ZX=     0.0445
   XY=     0.9901   YY=    33.2948   ZY=    -4.2919
   XZ=    -0.3972   YZ=    -4.7320   ZZ=    31.1253
   Eigenvalues:    27.4600    28.8816    36.9237
     37  H    Isotropic =    29.6819   Anisotropy =    11.2498
   XX=    37.0495   YX=    -0.2734   ZX=    -1.8392
   XY=    -0.9287   YY=    25.5419   ZY=    -1.6868
   XZ=    -0.3993   YZ=    -1.8127   ZZ=    26.4542
   Eigenvalues:    24.0854    27.7784    37.1817
     38  C    Isotropic =   169.5427   Anisotropy =    40.6975
   XX=   193.5639   YX=    -6.3939   ZX=    -9.5406
   XY=    -2.7043   YY=   157.1614   ZY=    -0.2989
   XZ=   -10.4320   YZ=     0.7835   ZZ=   157.9027
   Eigenvalues:   154.8418   157.1119   196.6743
     39  H    Isotropic =    30.7633   Anisotropy =     8.9827
   XX=    31.6591   YX=    -1.5524   ZX=    -5.0604
   XY=    -0.7193   YY=    30.2213   ZY=     2.9400
   XZ=    -3.7587   YZ=     3.0540   ZZ=    30.4094
   Eigenvalues:    25.9167    29.6213    36.7517
     40  H    Isotropic =    30.7262   Anisotropy =     9.3518
   XX=    35.8879   YX=    -0.8597   ZX=     3.4158
   XY=    -0.7624   YY=    27.5667   ZY=    -2.4875
   XZ=     1.7149   YZ=    -2.2264   ZZ=    28.7240
   Eigenvalues:    25.6190    29.5988    36.9607
     41  H    Isotropic =    30.9592   Anisotropy =    10.0350
   XX=    33.0010   YX=     4.4729   ZX=    -2.9014
   XY=     3.1801   YY=    31.6231   ZY=    -2.2970
   XZ=    -2.5473   YZ=    -2.6893   ZZ=    28.2534
   Eigenvalues:    26.7902    28.4381    37.6492
     42  C    Isotropic =   170.8968   Anisotropy =    37.2650
   XX=   157.9120   YX=    -1.7470   ZX=    -2.5507
   XY=    -3.6568   YY=   174.2582   ZY=    19.9010
   XZ=    -5.1394   YZ=    15.0855   ZZ=   180.5201
   Eigenvalues:   157.2668   159.6835   195.7401
     43  H    Isotropic =    31.0874   Anisotropy =     9.0548
   XX=    28.7078   YX=     2.2168   ZX=    -0.1706
   XY=     2.5722   YY=    36.3575   ZY=     0.4831
   XZ=     0.2114   YZ=     1.2484   ZZ=    28.1968
   Eigenvalues:    27.8452    28.2930    37.1239
     44  H    Isotropic =    30.5896   Anisotropy =     8.6725
   XX=    28.2269   YX=     0.5076   ZX=     3.4925
   XY=     0.9283   YY=    29.3489   ZY=     1.8142
   XZ=     4.2504   YZ=     0.5710   ZZ=    34.1928
   Eigenvalues:    26.3176    29.0798    36.3712
     45  H    Isotropic =    30.0809   Anisotropy =     9.3598
   XX=    34.6074   YX=    -0.0907   ZX=    -2.8958
   XY=    -1.3771   YY=    28.3778   ZY=     2.9658
   XZ=    -3.8338   YZ=     2.8072   ZZ=    27.2575
   Eigenvalues:    24.3781    29.5439    36.3208
     46  H    Isotropic =    29.0420   Anisotropy =    11.2580
   XX=    30.5086   YX=     1.3816   ZX=     1.5934
   XY=     4.3411   YY=    27.0972   ZY=     5.2197
   XZ=     5.5204   YZ=     4.0464   ZZ=    29.5202
   Eigenvalues:    23.5182    27.0605    36.5473
     47  H    Isotropic =    28.9623   Anisotropy =    10.9969
   XX=    33.9848   YX=    -0.7087   ZX=    -1.6009
   XY=    -3.0965   YY=    25.0327   ZY=     1.8243
   XZ=    -5.5667   YZ=     2.8010   ZZ=    27.8692
   Eigenvalues:    23.7369    26.8563    36.2935
 End of Minotr Frequency-dependent properties file   721 does not exist.
 End of Minotr Frequency-dependent properties file   722 does not exist.

 **********************************************************************

            Population analysis using the SCF density.

 **********************************************************************

 Orbital symmetries:
       Occupied  (A) (A) (A) (A) (A) (A) (A) (A) (A) (A) (A) (A)
                 (A) (A) (A) (A) (A) (A) (A) (A) (A) (A) (A) (A)
                 (A) (A) (A) (A) (A) (A) (A) (A) (A) (A) (A) (A)
                 (A) (A) (A) (A) (A) (A) (A) (A) (A) (A) (A) (A)
                 (A) (A) (A) (A) (A) (A) (A) (A) (A) (A) (A) (A)
                 (A) (A) (A) (A) (A) (A) (A) (A) (A) (A) (A) (A)
                 (A) (A) (A) (A) (A) (A) (A)
       Virtual   (A) (A) (A) (A) (A) (A) (A) (A) (A) (A) (A) (A)
                 (A) (A) (A) (A) (A) (A) (A) (A) (A) (A) (A) (A)
                 (A) (A) (A) (A) (A) (A) (A) (A) (A) (A) (A) (A)
                 (A) (A) (A) (A) (A) (A) (A) (A) (A) (A) (A) (A)
                 (A) (A) (A) (A) (A) (A) (A) (A) (A) (A) (A) (A)
                 (A) (A) (A) (A) (A) (A) (A) (A) (A) (A) (A) (A)
                 (A) (A) (A) (A) (A) (A) (A) (A) (A) (A) (A) (A)
                 (A) (A) (A) (A) (A) (A) (A) (A) (A) (A) (A) (A)
                 (A) (A) (A) (A) (A) (A) (A) (A) (A) (A) (A) (A)
                 (A) (A) (A) (A) (A) (A) (A) (A) (A) (A) (A) (A)
                 (A) (A) (A) (A) (A) (A) (A) (A) (A) (A) (A) (A)
                 (A) (A) (A) (A) (A) (A) (A) (A) (A) (A) (A) (A)
                 (A) (A) (A) (A) (A) (A) (A) (A) (A) (A) (A) (A)
                 (A) (A) (A) (A) (A) (A) (A) (A) (A) (A) (A) (A)
                 (A) (A) (A) (A) (A) (A) (A) (A) (A) (A) (A) (A)
                 (A) (A) (A) (A) (A) (A) (A) (A) (A) (A) (A) (A)
                 (A) (A) (A) (A) (A) (A) (A) (A) (A) (A) (A) (A)
                 (A) (A) (A) (A) (A) (A) (A) (A) (A) (A) (A) (A)
                 (A) (A) (A) (A) (A) (A) (A) (A) (A) (A) (A) (A)
                 (A) (A) (A) (A) (A) (A) (A) (A) (A) (A) (A) (A)
                 (A) (A) (A) (A) (A) (A) (A) (A) (A) (A) (A) (A)
                 (A) (A) (A) (A) (A) (A) (A) (A) (A) (A) (A) (A)
                 (A) (A) (A) (A) (A) (A) (A) (A) (A) (A) (A) (A)
                 (A) (A) (A) (A) (A) (A) (A) (A) (A) (A) (A) (A)
                 (A) (A) (A) (A) (A) (A) (A) (A) (A) (A) (A) (A)
                 (A) (A) (A) (A) (A) (A) (A) (A) (A) (A) (A) (A)
                 (A) (A) (A) (A) (A) (A) (A) (A) (A) (A) (A) (A)
                 (A) (A) (A) (A) (A) (A) (A) (A) (A) (A) (A) (A)
                 (A) (A) (A) (A) (A) (A) (A) (A) (A) (A) (A) (A)
                 (A) (A) (A) (A) (A) (A) (A) (A) (A) (A) (A) (A)
                 (A) (A) (A) (A) (A) (A) (A) (A) (A) (A) (A) (A)
                 (A) (A) (A) (A) (A) (A) (A) (A) (A) (A) (A) (A)
                 (A) (A) (A) (A) (A) (A) (A) (A) (A) (A) (A) (A)
                 (A) (A) (A) (A) (A) (A) (A) (A) (A) (A) (A) (A)
                 (A) (A) (A) (A) (A) (A) (A) (A) (A) (A) (A) (A)
                 (A) (A) (A) (A) (A) (A)
 The electronic state is 1-A.
 Alpha  occ. eigenvalues --  -66.30312 -19.26452 -19.26390 -19.25347 -19.22904
 Alpha  occ. eigenvalues --  -10.31510 -10.31123 -10.30630 -10.30471 -10.30041
 Alpha  occ. eigenvalues --  -10.28663 -10.25363 -10.24564 -10.24197 -10.23278
 Alpha  occ. eigenvalues --  -10.22752 -10.22644 -10.22206 -10.21862  -5.33609
 Alpha  occ. eigenvalues --   -3.67539  -3.67254  -3.67191  -1.11135  -1.07623
 Alpha  occ. eigenvalues --   -1.06434  -1.02800  -0.84292  -0.81715  -0.77461
 Alpha  occ. eigenvalues --   -0.75513  -0.72023  -0.70418  -0.69959  -0.69768
 Alpha  occ. eigenvalues --   -0.69051  -0.68547  -0.64974  -0.62469  -0.57477
 Alpha  occ. eigenvalues --   -0.56529  -0.54346  -0.53378  -0.52336  -0.51088
 Alpha  occ. eigenvalues --   -0.49181  -0.48379  -0.47221  -0.45901  -0.44823
 Alpha  occ. eigenvalues --   -0.44113  -0.43849  -0.43624  -0.43039  -0.42776
 Alpha  occ. eigenvalues --   -0.42194  -0.41009  -0.40829  -0.40233  -0.39733
 Alpha  occ. eigenvalues --   -0.39578  -0.39220  -0.38651  -0.38385  -0.38164
 Alpha  occ. eigenvalues --   -0.36799  -0.36425  -0.35379  -0.34417  -0.33412
 Alpha  occ. eigenvalues --   -0.32966  -0.32480  -0.31733  -0.31496  -0.29812
 Alpha  occ. eigenvalues --   -0.29170  -0.28380  -0.26770  -0.25639
 Alpha virt. eigenvalues --   -0.00211   0.00485   0.01345   0.01473   0.02605
 Alpha virt. eigenvalues --    0.02843   0.02989   0.03919   0.03968   0.04696
 Alpha virt. eigenvalues --    0.04843   0.05231   0.05543   0.06039   0.06378
 Alpha virt. eigenvalues --    0.07249   0.07437   0.07624   0.07820   0.08132
 Alpha virt. eigenvalues --    0.08431   0.09049   0.09238   0.09654   0.10115
 Alpha virt. eigenvalues --    0.10238   0.10708   0.11227   0.11328   0.11668
 Alpha virt. eigenvalues --    0.12048   0.12574   0.12746   0.12904   0.13210
 Alpha virt. eigenvalues --    0.13523   0.13746   0.14021   0.14574   0.14671
 Alpha virt. eigenvalues --    0.15137   0.15776   0.16020   0.16344   0.16545
 Alpha virt. eigenvalues --    0.16729   0.17041   0.17218   0.17773   0.17841
 Alpha virt. eigenvalues --    0.18399   0.18935   0.19233   0.19568   0.19769
 Alpha virt. eigenvalues --    0.19924   0.20526   0.21023   0.21306   0.21799
 Alpha virt. eigenvalues --    0.21849   0.22060   0.22551   0.22645   0.23147
 Alpha virt. eigenvalues --    0.23443   0.23755   0.24124   0.24155   0.24505
 Alpha virt. eigenvalues --    0.24789   0.25058   0.25213   0.26128   0.26139
 Alpha virt. eigenvalues --    0.26531   0.26986   0.27381   0.27607   0.28216
 Alpha virt. eigenvalues --    0.28643   0.29006   0.29298   0.29619   0.29845
 Alpha virt. eigenvalues --    0.30016   0.30441   0.30743   0.31290   0.31491
 Alpha virt. eigenvalues --    0.31744   0.32247   0.32651   0.33321   0.34198
 Alpha virt. eigenvalues --    0.34531   0.34835   0.35194   0.35546   0.35945
 Alpha virt. eigenvalues --    0.36580   0.37205   0.37584   0.38277   0.38935
 Alpha virt. eigenvalues --    0.39104   0.39841   0.40265   0.40925   0.41864
 Alpha virt. eigenvalues --    0.42452   0.43209   0.43922   0.44104   0.44630
 Alpha virt. eigenvalues --    0.45971   0.46689   0.46808   0.47806   0.49040
 Alpha virt. eigenvalues --    0.50703   0.51988   0.52726   0.53409   0.55794
 Alpha virt. eigenvalues --    0.56640   0.58877   0.62355   0.66300   0.67497
 Alpha virt. eigenvalues --    0.67714   0.69224   0.70321   0.70728   0.71683
 Alpha virt. eigenvalues --    0.72617   0.73956   0.74352   0.75205   0.75537
 Alpha virt. eigenvalues --    0.76182   0.76878   0.78190   0.78365   0.79127
 Alpha virt. eigenvalues --    0.79432   0.79700   0.80662   0.81772   0.82074
 Alpha virt. eigenvalues --    0.82744   0.84138   0.84646   0.85207   0.86141
 Alpha virt. eigenvalues --    0.86616   0.86972   0.87325   0.88912   0.89520
 Alpha virt. eigenvalues --    0.91392   0.91965   0.92793   0.93447   0.93768
 Alpha virt. eigenvalues --    0.94363   0.95715   0.97132   0.98421   0.98543
 Alpha virt. eigenvalues --    0.99076   1.00536   1.01464   1.01793   1.02653
 Alpha virt. eigenvalues --    1.03420   1.03950   1.04307   1.05491   1.06176
 Alpha virt. eigenvalues --    1.06278   1.07378   1.07692   1.08179   1.09312
 Alpha virt. eigenvalues --    1.10154   1.10715   1.10949   1.11927   1.12531
 Alpha virt. eigenvalues --    1.12757   1.14295   1.15074   1.16587   1.17308
 Alpha virt. eigenvalues --    1.17971   1.18699   1.19660   1.21379   1.22059
 Alpha virt. eigenvalues --    1.23184   1.24077   1.24805   1.26973   1.27158
 Alpha virt. eigenvalues --    1.28888   1.29976   1.31235   1.31875   1.33917
 Alpha virt. eigenvalues --    1.34842   1.35657   1.36899   1.37599   1.37739
 Alpha virt. eigenvalues --    1.38422   1.40328   1.41297   1.43181   1.44583
 Alpha virt. eigenvalues --    1.46979   1.47165   1.48162   1.48988   1.50322
 Alpha virt. eigenvalues --    1.51052   1.51395   1.53745   1.54231   1.55928
 Alpha virt. eigenvalues --    1.57993   1.60096   1.60961   1.62221   1.63112
 Alpha virt. eigenvalues --    1.63639   1.66032   1.66731   1.69505   1.69822
 Alpha virt. eigenvalues --    1.70379   1.71940   1.72944   1.74859   1.75668
 Alpha virt. eigenvalues --    1.78431   1.79535   1.80934   1.81667   1.82570
 Alpha virt. eigenvalues --    1.82930   1.83495   1.84791   1.86125   1.88616
 Alpha virt. eigenvalues --    1.89216   1.91375   1.91786   1.92445   1.93508
 Alpha virt. eigenvalues --    1.94409   1.94701   1.95478   1.96922   1.97836
 Alpha virt. eigenvalues --    1.98538   1.99371   1.99945   2.01041   2.02845
 Alpha virt. eigenvalues --    2.03957   2.04860   2.05591   2.06642   2.06770
 Alpha virt. eigenvalues --    2.07241   2.07504   2.08197   2.08804   2.10055
 Alpha virt. eigenvalues --    2.10429   2.10977   2.12424   2.12569   2.13534
 Alpha virt. eigenvalues --    2.14227   2.14581   2.15372   2.15706   2.16156
 Alpha virt. eigenvalues --    2.16686   2.17051   2.17965   2.18395   2.18856
 Alpha virt. eigenvalues --    2.19196   2.19460   2.20027   2.20696   2.21754
 Alpha virt. eigenvalues --    2.22398   2.23124   2.23851   2.25956   2.26919
 Alpha virt. eigenvalues --    2.28459   2.29690   2.31988   2.32635   2.35978
 Alpha virt. eigenvalues --    2.36676   2.37148   2.38485   2.38855   2.39334
 Alpha virt. eigenvalues --    2.40147   2.41332   2.42304   2.43398   2.44503
 Alpha virt. eigenvalues --    2.45717   2.46684   2.47772   2.49259   2.51572
 Alpha virt. eigenvalues --    2.54927   2.56899   2.58350   2.58452   2.59688
 Alpha virt. eigenvalues --    2.60617   2.62246   2.62844   2.63445   2.65119
 Alpha virt. eigenvalues --    2.67695   2.68372   2.68756   2.69382   2.69825
 Alpha virt. eigenvalues --    2.72163   2.73610   2.73847   2.74850   2.75160
 Alpha virt. eigenvalues --    2.77156   2.77603   2.78131   2.79367   2.79770
 Alpha virt. eigenvalues --    2.81196   2.81903   2.84968   2.85276   2.85578
 Alpha virt. eigenvalues --    2.86315   2.86789   2.87167   2.87657   2.88620
 Alpha virt. eigenvalues --    2.89093   2.89247   2.89787   2.89854   2.91040
 Alpha virt. eigenvalues --    2.92500   2.95527   2.95747   2.96326   2.98930
 Alpha virt. eigenvalues --    2.99441   2.99785   3.03116   3.04926   3.05470
 Alpha virt. eigenvalues --    3.08542   3.17549   3.19517   3.24697   3.27598
 Alpha virt. eigenvalues --    3.28160   3.28268   3.29599   3.30972   3.32969
 Alpha virt. eigenvalues --    3.33356   3.36218   3.39359   3.39886   3.46585
 Alpha virt. eigenvalues --    3.47822   3.48509   3.48789   3.49086   3.49610
 Alpha virt. eigenvalues --    3.50025   3.50738   3.51203   3.51615   3.52146
 Alpha virt. eigenvalues --    3.52453   3.53589   3.54740   3.57119   3.57655
 Alpha virt. eigenvalues --    3.58064   3.60769   3.63853   4.36615   4.44964
 Alpha virt. eigenvalues --    4.47229   4.48458   4.55218   4.57426   4.59275
 Alpha virt. eigenvalues --    4.63238   4.65694   4.65894   4.68281   4.68972
 Alpha virt. eigenvalues --    4.74562   4.76531   4.81122   4.85376   4.96794
 Alpha virt. eigenvalues --    5.07540
          Condensed to atoms (all electrons):
              1          2          3          4          5          6
     1  H    0.573036   0.442957  -0.038719   0.004076   0.001775  -0.119415
     2  C    0.442957  11.014053  -0.926183   1.123523   0.197622  -4.611200
     3  C   -0.038719  -0.926183  10.098257  -3.548162  -0.086491   2.148316
     4  C    0.004076   1.123523  -3.548162  15.078108  -3.883263  -5.130433
     5  C    0.001775   0.197622  -0.086491  -3.883263  13.105530   0.744857
     6  C   -0.119415  -4.611200   2.148316  -5.130433   0.744857  14.261663
     7  C    0.004792  -0.337638  -0.816738   1.075633  -0.508479  -1.015694
     8  H   -0.000065   0.052171   0.379601   0.052458  -0.040651  -0.019336
     9  H   -0.000171   0.000445   0.059320   0.019935   0.090856   0.245490
    10  H   -0.003135   0.153069  -0.051349   0.074257  -0.002030   0.077173
    11  H   -0.005646  -0.088527   0.042902  -0.018763   0.064783   0.091405
    12  H    0.002559  -0.009296   0.352183   0.084659  -0.107179  -0.017796
    13  H    0.004657  -0.048311  -0.052210   0.025663  -0.020011  -0.052021
    14  O    0.000081  -0.002678  -0.105510  -0.192090   0.312420   0.057388
    15  C    0.003401  -0.088521  -0.699276   0.933579  -3.493312  -0.750270
    16  O    0.003609  -0.119385   0.047176  -0.029048  -0.203804   0.325107
    17  H   -0.000015  -0.032118   0.019988   0.117905  -0.005986  -0.074891
    18  O    0.012599  -0.089896  -0.154603   0.172728   0.000698  -0.000996
    19  C    0.001566  -0.027321  -0.035766   0.088026  -0.170390  -0.001628
    20  H    0.000002  -0.006685   0.007514  -0.062604   0.010069   0.060640
    21  H    0.000003  -0.008763   0.002008   0.006685   0.000201  -0.001884
    22  H   -0.000001   0.011889  -0.002237   0.014654  -0.003257  -0.036915
    23  O   -0.057016   0.050513   0.029438   0.062208  -0.000947  -0.126168
    24  Si   0.002064  -0.366059  -0.010384  -0.344620   0.086607   0.268494
    25  C    0.005425  -0.021789  -0.009738   0.009968  -0.001550  -0.038487
    26  H   -0.000002   0.004284   0.000146   0.000075  -0.000017   0.000382
    27  H    0.000019  -0.004724  -0.000159  -0.000098   0.000009   0.002022
    28  H    0.000001  -0.002373   0.000102  -0.000165   0.000209   0.002307
    29  C    0.000231   0.199294  -0.005601  -0.010539   0.009519  -0.121998
    30  C   -0.001802   0.095285  -0.018181   0.034597  -0.018662  -0.052168
    31  H    0.000000   0.001267   0.000967   0.000070  -0.000177   0.000003
    32  H    0.000030  -0.015920   0.000207  -0.000591  -0.001370   0.001979
    33  H    0.000006  -0.008843  -0.002084   0.000031  -0.001067   0.005806
    34  C   -0.000335  -0.190403   0.001235   0.010237  -0.014501   0.086019
    35  H    0.000000  -0.008590  -0.002359   0.000307   0.000521   0.001138
    36  H    0.000000  -0.005251   0.000604   0.000380  -0.000248   0.004365
    37  H    0.000000   0.026121   0.003604  -0.001690   0.003608  -0.019661
    38  C    0.000973   0.041671  -0.008490   0.002541  -0.002274  -0.044308
    39  H    0.000000   0.000590  -0.000129   0.000002   0.000030  -0.000284
    40  H    0.000000   0.000389  -0.000015   0.000022  -0.000011  -0.000070
    41  H    0.000000  -0.001060   0.000009  -0.000006   0.000004   0.000556
    42  C   -0.002384  -0.042501   0.017484   0.033477   0.005435   0.068000
    43  H    0.000000  -0.001795   0.000022   0.000374  -0.000169   0.001786
    44  H    0.000000  -0.003163   0.000032  -0.000046   0.000038   0.002689
    45  H    0.000001   0.012055   0.000307  -0.002075   0.000553  -0.008531
    46  H    0.000000   0.002250   0.079152  -0.045320  -0.102522  -0.001987
    47  H    0.000000  -0.005264  -0.040202   0.117596  -0.129842   0.002394
              7          8          9         10         11         12
     1  H    0.004792  -0.000065  -0.000171  -0.003135  -0.005646   0.002559
     2  C   -0.337638   0.052171   0.000445   0.153069  -0.088527  -0.009296
     3  C   -0.816738   0.379601   0.059320  -0.051349   0.042902   0.352183
     4  C    1.075633   0.052458   0.019935   0.074257  -0.018763   0.084659
     5  C   -0.508479  -0.040651   0.090856  -0.002030   0.064783  -0.107179
     6  C   -1.015694  -0.019336   0.245490   0.077173   0.091405  -0.017796
     7  C    7.459969  -0.027782  -0.035256   0.036568   0.248164   0.009607
     8  H   -0.027782   0.524779  -0.000096   0.000011  -0.001993  -0.021870
     9  H   -0.035256  -0.000096   0.596815  -0.006867   0.000014  -0.000046
    10  H    0.036568   0.000011  -0.006867   0.607772  -0.000112  -0.000018
    11  H    0.248164  -0.001993   0.000014  -0.000112   0.543217  -0.005229
    12  H    0.009607  -0.021870  -0.000046  -0.000018  -0.005229   0.519131
    13  H    0.455297  -0.003871  -0.000077  -0.000012  -0.030185   0.004269
    14  O    0.062858   0.000619   0.004812   0.000235  -0.000337   0.011750
    15  C   -0.466441  -0.066125  -0.080474   0.011922   0.011434  -0.016831
    16  O   -0.047657   0.000355  -0.029516  -0.018237   0.000395   0.002425
    17  H    0.013689   0.000009  -0.004945   0.006546  -0.000008   0.000058
    18  O    0.095486   0.000822  -0.016723  -0.035238  -0.001550   0.001128
    19  C   -0.022420   0.000354   0.007972   0.007821   0.000129   0.001089
    20  H   -0.001319   0.000001  -0.000394  -0.001293  -0.000001  -0.000001
    21  H    0.002576   0.000000   0.000117  -0.000033   0.000000   0.000000
    22  H   -0.002546   0.000000  -0.000961   0.010037   0.000000   0.000000
    23  O   -0.035444  -0.001139  -0.001562  -0.010387  -0.002963  -0.000709
    24  Si  -0.101561  -0.003453   0.002129   0.005537  -0.008776  -0.001016
    25  C    0.015743  -0.000011  -0.000050  -0.001307  -0.000696   0.000077
    26  H   -0.000629   0.000000   0.000000   0.000000   0.000000   0.000000
    27  H    0.000221   0.000000   0.000000   0.000000   0.000002   0.000000
    28  H    0.001117   0.000000   0.000000  -0.000003   0.000000   0.000000
    29  C   -0.088114  -0.000173   0.000072  -0.004165   0.000743  -0.000271
    30  C    0.018741   0.000962  -0.000062   0.000062  -0.008907   0.000055
    31  H    0.000327   0.000000   0.000000   0.000000   0.000151   0.000000
    32  H    0.006025  -0.000001   0.000000   0.000000  -0.001189   0.000002
    33  H    0.005322   0.000000   0.000000   0.000000  -0.000294   0.000002
    34  C    0.096920   0.000289  -0.000125   0.000566  -0.000425   0.000148
    35  H    0.007267   0.000001   0.000000   0.000000  -0.000030   0.000000
    36  H    0.001838   0.000000   0.000000   0.000000   0.000000   0.000000
    37  H   -0.012547   0.000000  -0.000001   0.000031   0.000015  -0.000001
    38  C   -0.020732  -0.000009  -0.000002  -0.000331  -0.000135  -0.000016
    39  H   -0.000299   0.000000   0.000000   0.000000   0.000000   0.000000
    40  H   -0.000356   0.000000   0.000000   0.000000   0.000000   0.000000
    41  H    0.000130   0.000000   0.000000   0.000000   0.000000   0.000000
    42  C    0.033902   0.000088  -0.000072   0.001407   0.000374   0.000022
    43  H   -0.000263   0.000000   0.000000   0.000000   0.000000   0.000000
    44  H   -0.000323   0.000000   0.000000  -0.000006   0.000000   0.000000
    45  H   -0.000438   0.000000   0.000000   0.000193   0.000000   0.000000
    46  H   -0.000217   0.000354   0.000121   0.000001  -0.000001  -0.000293
    47  H   -0.000352   0.000056   0.001318   0.000001   0.000001   0.000264
             13         14         15         16         17         18
     1  H    0.004657   0.000081   0.003401   0.003609  -0.000015   0.012599
     2  C   -0.048311  -0.002678  -0.088521  -0.119385  -0.032118  -0.089896
     3  C   -0.052210  -0.105510  -0.699276   0.047176   0.019988  -0.154603
     4  C    0.025663  -0.192090   0.933579  -0.029048   0.117905   0.172728
     5  C   -0.020011   0.312420  -3.493312  -0.203804  -0.005986   0.000698
     6  C   -0.052021   0.057388  -0.750270   0.325107  -0.074891  -0.000996
     7  C    0.455297   0.062858  -0.466441  -0.047657   0.013689   0.095486
     8  H   -0.003871   0.000619  -0.066125   0.000355   0.000009   0.000822
     9  H   -0.000077   0.004812  -0.080474  -0.029516  -0.004945  -0.016723
    10  H   -0.000012   0.000235   0.011922  -0.018237   0.006546  -0.035238
    11  H   -0.030185  -0.000337   0.011434   0.000395  -0.000008  -0.001550
    12  H    0.004269   0.011750  -0.016831   0.002425   0.000058   0.001128
    13  H    0.506625   0.004945  -0.007194   0.000284   0.000003   0.012643
    14  O    0.004945   8.204069   0.020928   0.019160  -0.000351  -0.005506
    15  C   -0.007194   0.020928   9.852918   0.053783  -0.025464   0.015913
    16  O    0.000284   0.019160   0.053783   8.257676   0.217693   0.010234
    17  H    0.000003  -0.000351  -0.025464   0.217693   0.388068   0.001435
    18  O    0.012643  -0.005506   0.015913   0.010234   0.001435   8.354123
    19  C    0.003083  -0.016939  -0.008561   0.001398   0.002812  -0.013643
    20  H    0.000005  -0.000341   0.010199  -0.000271   0.000000  -0.065354
    21  H    0.000000   0.000478  -0.001425   0.000095   0.000000  -0.071059
    22  H   -0.000004   0.000147   0.000178  -0.000264   0.000030  -0.050243
    23  O   -0.003790  -0.001522   0.013278  -0.007132  -0.000646   0.008441
    24  Si   0.011655  -0.001672  -0.017935   0.009585  -0.000663   0.028638
    25  C    0.001098   0.000017  -0.000298  -0.000231   0.000021   0.000796
    26  H    0.000000   0.000000   0.000000   0.000000   0.000000   0.000001
    27  H    0.000000   0.000000   0.000004   0.000001   0.000000   0.000029
    28  H    0.000000   0.000000   0.000005   0.000001   0.000000  -0.000005
    29  C   -0.004879  -0.001802  -0.009789  -0.000362  -0.000073   0.016531
    30  C   -0.005641   0.000410  -0.003863  -0.000397   0.000029  -0.002346
    31  H   -0.000001   0.000000  -0.000004   0.000000   0.000000  -0.000007
    32  H    0.000131   0.000004  -0.000107   0.000001   0.000000   0.000131
    33  H    0.000066   0.000001   0.000003   0.000001   0.000000   0.000033
    34  C    0.001318   0.000885   0.004802  -0.000087   0.000026  -0.017477
    35  H   -0.000056  -0.000009  -0.000091   0.000000   0.000000   0.000471
    36  H    0.000033   0.000006   0.000078   0.000000   0.000000   0.001339
    37  H    0.000597  -0.000025   0.000566  -0.000008   0.000000  -0.007235
    38  C    0.000065  -0.000110  -0.001479  -0.000019  -0.000002  -0.000202
    39  H    0.000000   0.000000   0.000000   0.000000   0.000000  -0.000004
    40  H    0.000000   0.000000   0.000000   0.000000   0.000000  -0.000002
    41  H    0.000000   0.000000   0.000001   0.000000   0.000000   0.000032
    42  C    0.000140   0.000470   0.007511  -0.000230   0.000018  -0.011824
    43  H    0.000001   0.000001   0.000003   0.000000   0.000000   0.000981
    44  H    0.000000   0.000000  -0.000001   0.000000   0.000000   0.000000
    45  H    0.000000  -0.000006  -0.000016   0.000005   0.000000  -0.001713
    46  H   -0.000018  -0.037961   0.444975   0.000463  -0.000005  -0.000143
    47  H    0.000003  -0.031005   0.416138   0.000724   0.000001   0.000433
             19         20         21         22         23         24
     1  H    0.001566   0.000002   0.000003  -0.000001  -0.057016   0.002064
     2  C   -0.027321  -0.006685  -0.008763   0.011889   0.050513  -0.366059
     3  C   -0.035766   0.007514   0.002008  -0.002237   0.029438  -0.010384
     4  C    0.088026  -0.062604   0.006685   0.014654   0.062208  -0.344620
     5  C   -0.170390   0.010069   0.000201  -0.003257  -0.000947   0.086607
     6  C   -0.001628   0.060640  -0.001884  -0.036915  -0.126168   0.268494
     7  C   -0.022420  -0.001319   0.002576  -0.002546  -0.035444  -0.101561
     8  H    0.000354   0.000001   0.000000   0.000000  -0.001139  -0.003453
     9  H    0.007972  -0.000394   0.000117  -0.000961  -0.001562   0.002129
    10  H    0.007821  -0.001293  -0.000033   0.010037  -0.010387   0.005537
    11  H    0.000129  -0.000001   0.000000   0.000000  -0.002963  -0.008776
    12  H    0.001089  -0.000001   0.000000   0.000000  -0.000709  -0.001016
    13  H    0.003083   0.000005   0.000000  -0.000004  -0.003790   0.011655
    14  O   -0.016939  -0.000341   0.000478   0.000147  -0.001522  -0.001672
    15  C   -0.008561   0.010199  -0.001425   0.000178   0.013278  -0.017935
    16  O    0.001398  -0.000271   0.000095  -0.000264  -0.007132   0.009585
    17  H    0.002812   0.000000   0.000000   0.000030  -0.000646  -0.000663
    18  O   -0.013643  -0.065354  -0.071059  -0.050243   0.008441   0.028638
    19  C    5.149631   0.405161   0.436512   0.412447  -0.004162   0.012623
    20  H    0.405161   0.551873  -0.030120  -0.041840  -0.000515   0.001979
    21  H    0.436512  -0.030120   0.524922  -0.025872  -0.000035  -0.005069
    22  H    0.412447  -0.041840  -0.025872   0.565307   0.000722   0.002602
    23  O   -0.004162  -0.000515  -0.000035   0.000722   8.428605   0.075618
    24  Si   0.012623   0.001979  -0.005069   0.002602   0.075618  13.299970
    25  C   -0.000846  -0.000016   0.000074  -0.000110  -0.052426   0.304624
    26  H    0.000018   0.000000   0.000000   0.000000   0.011152  -0.038479
    27  H   -0.000018   0.000000   0.000000   0.000000  -0.006456  -0.021616
    28  H   -0.000087   0.000000   0.000000   0.000000  -0.006714  -0.027368
    29  C    0.019418  -0.000861   0.001776   0.000607   0.015189   0.425046
    30  C   -0.001191   0.000000   0.000101  -0.000081  -0.066112   0.203643
    31  H    0.000000   0.000000   0.000000   0.000000   0.009085  -0.029881
    32  H    0.000034   0.000000   0.000000   0.000000  -0.005770  -0.006758
    33  H   -0.000036   0.000000   0.000000   0.000000  -0.001521  -0.048461
    34  C   -0.016962   0.000121   0.002061  -0.001163  -0.030137  -0.054906
    35  H    0.000252   0.000000  -0.000001   0.000000  -0.001434  -0.005481
    36  H   -0.000930   0.000000  -0.000017   0.000000  -0.000665   0.008285
    37  H   -0.002171  -0.000019   0.000222   0.000000   0.010495  -0.002238
    38  C    0.001850  -0.000014   0.000301  -0.000035   0.049692  -0.106499
    39  H    0.000000   0.000000   0.000000   0.000000   0.000556  -0.011623
    40  H   -0.000003   0.000000   0.000000   0.000000   0.000074  -0.003833
    41  H   -0.000011   0.000000   0.000000   0.000000  -0.000740   0.010771
    42  C   -0.008986   0.000033  -0.001579  -0.000443  -0.056515  -0.351637
    43  H    0.000028   0.000000  -0.000006   0.000001  -0.000493   0.016084
    44  H   -0.000168   0.000000  -0.000001   0.000000  -0.002703   0.004669
    45  H    0.000270   0.000014   0.000066   0.000082   0.011346  -0.035745
    46  H   -0.000753   0.000005   0.000000   0.000000  -0.000009   0.000184
    47  H    0.002882  -0.000014   0.000000  -0.000002  -0.000003  -0.000138
             25         26         27         28         29         30
     1  H    0.005425  -0.000002   0.000019   0.000001   0.000231  -0.001802
     2  C   -0.021789   0.004284  -0.004724  -0.002373   0.199294   0.095285
     3  C   -0.009738   0.000146  -0.000159   0.000102  -0.005601  -0.018181
     4  C    0.009968   0.000075  -0.000098  -0.000165  -0.010539   0.034597
     5  C   -0.001550  -0.000017   0.000009   0.000209   0.009519  -0.018662
     6  C   -0.038487   0.000382   0.002022   0.002307  -0.121998  -0.052168
     7  C    0.015743  -0.000629   0.000221   0.001117  -0.088114   0.018741
     8  H   -0.000011   0.000000   0.000000   0.000000  -0.000173   0.000962
     9  H   -0.000050   0.000000   0.000000   0.000000   0.000072  -0.000062
    10  H   -0.001307   0.000000   0.000000  -0.000003  -0.004165   0.000062
    11  H   -0.000696   0.000000   0.000002   0.000000   0.000743  -0.008907
    12  H    0.000077   0.000000   0.000000   0.000000  -0.000271   0.000055
    13  H    0.001098   0.000000   0.000000   0.000000  -0.004879  -0.005641
    14  O    0.000017   0.000000   0.000000   0.000000  -0.001802   0.000410
    15  C   -0.000298   0.000000   0.000004   0.000005  -0.009789  -0.003863
    16  O   -0.000231   0.000000   0.000001   0.000001  -0.000362  -0.000397
    17  H    0.000021   0.000000   0.000000   0.000000  -0.000073   0.000029
    18  O    0.000796   0.000001   0.000029  -0.000005   0.016531  -0.002346
    19  C   -0.000846   0.000018  -0.000018  -0.000087   0.019418  -0.001191
    20  H   -0.000016   0.000000   0.000000   0.000000  -0.000861   0.000000
    21  H    0.000074   0.000000   0.000000   0.000000   0.001776   0.000101
    22  H   -0.000110   0.000000   0.000000   0.000000   0.000607  -0.000081
    23  O   -0.052426   0.011152  -0.006456  -0.006714   0.015189  -0.066112
    24  Si   0.304624  -0.038479  -0.021616  -0.027368   0.425046   0.203643
    25  C    5.478584   0.394830   0.389788   0.398607  -0.152188  -0.028903
    26  H    0.394830   0.498150  -0.021331  -0.022168  -0.012494  -0.005698
    27  H    0.389788  -0.021331   0.493028  -0.022637   0.014743  -0.006293
    28  H    0.398607  -0.022168  -0.022637   0.491588  -0.023380   0.007743
    29  C   -0.152188  -0.012494   0.014743  -0.023380   8.502833  -0.077618
    30  C   -0.028903  -0.005698  -0.006293   0.007743  -0.077618   5.470428
    31  H   -0.003620   0.000065   0.000146   0.000032  -0.028450   0.394566
    32  H    0.006816   0.000008   0.000011  -0.000017  -0.021092   0.389947
    33  H   -0.007409   0.000096   0.000389   0.000001   0.017058   0.402499
    34  C   -0.004901   0.000435  -0.001100  -0.003010  -0.559609  -0.040229
    35  H   -0.000148   0.000001  -0.000001   0.000000  -0.062421   0.003664
    36  H   -0.001631   0.000000   0.000000   0.000000  -0.165825   0.000819
    37  H   -0.000042  -0.000001  -0.000001   0.000002  -0.098421  -0.003169
    38  C    0.089657   0.000345  -0.000365  -0.001454  -0.465928   0.030143
    39  H   -0.000962  -0.000022  -0.000007   0.000015  -0.093248   0.006166
    40  H    0.004350   0.000262   0.000004   0.000037  -0.099425  -0.001484
    41  H   -0.000352   0.000036   0.000000  -0.000008  -0.152974   0.000915
    42  C   -0.073296   0.008965   0.000652   0.023066  -0.588731   0.012749
    43  H   -0.000359   0.000000   0.000000  -0.000004  -0.162714  -0.001278
    44  H    0.001456   0.000042  -0.000001   0.000129  -0.064964  -0.000192
    45  H    0.002934   0.000003  -0.000004   0.000047  -0.098501  -0.000261
    46  H    0.000000   0.000000   0.000000   0.000000  -0.000022  -0.000014
    47  H    0.000000   0.000000   0.000000   0.000000  -0.000001   0.000002
             31         32         33         34         35         36
     1  H    0.000000   0.000030   0.000006  -0.000335   0.000000   0.000000
     2  C    0.001267  -0.015920  -0.008843  -0.190403  -0.008590  -0.005251
     3  C    0.000967   0.000207  -0.002084   0.001235  -0.002359   0.000604
     4  C    0.000070  -0.000591   0.000031   0.010237   0.000307   0.000380
     5  C   -0.000177  -0.001370  -0.001067  -0.014501   0.000521  -0.000248
     6  C    0.000003   0.001979   0.005806   0.086019   0.001138   0.004365
     7  C    0.000327   0.006025   0.005322   0.096920   0.007267   0.001838
     8  H    0.000000  -0.000001   0.000000   0.000289   0.000001   0.000000
     9  H    0.000000   0.000000   0.000000  -0.000125   0.000000   0.000000
    10  H    0.000000   0.000000   0.000000   0.000566   0.000000   0.000000
    11  H    0.000151  -0.001189  -0.000294  -0.000425  -0.000030   0.000000
    12  H    0.000000   0.000002   0.000002   0.000148   0.000000   0.000000
    13  H   -0.000001   0.000131   0.000066   0.001318  -0.000056   0.000033
    14  O    0.000000   0.000004   0.000001   0.000885  -0.000009   0.000006
    15  C   -0.000004  -0.000107   0.000003   0.004802  -0.000091   0.000078
    16  O    0.000000   0.000001   0.000001  -0.000087   0.000000   0.000000
    17  H    0.000000   0.000000   0.000000   0.000026   0.000000   0.000000
    18  O   -0.000007   0.000131   0.000033  -0.017477   0.000471   0.001339
    19  C    0.000000   0.000034  -0.000036  -0.016962   0.000252  -0.000930
    20  H    0.000000   0.000000   0.000000   0.000121   0.000000   0.000000
    21  H    0.000000   0.000000   0.000000   0.002061  -0.000001  -0.000017
    22  H    0.000000   0.000000   0.000000  -0.001163   0.000000   0.000000
    23  O    0.009085  -0.005770  -0.001521  -0.030137  -0.001434  -0.000665
    24  Si  -0.029881  -0.006758  -0.048461  -0.054906  -0.005481   0.008285
    25  C   -0.003620   0.006816  -0.007409  -0.004901  -0.000148  -0.001631
    26  H    0.000065   0.000008   0.000096   0.000435   0.000001   0.000000
    27  H    0.000146   0.000011   0.000389  -0.001100  -0.000001   0.000000
    28  H    0.000032  -0.000017   0.000001  -0.003010   0.000000   0.000000
    29  C   -0.028450  -0.021092   0.017058  -0.559609  -0.062421  -0.165825
    30  C    0.394566   0.389947   0.402499  -0.040229   0.003664   0.000819
    31  H    0.491680  -0.022054  -0.021286   0.007756   0.000076  -0.000001
    32  H   -0.022054   0.491531  -0.023116   0.011063   0.000212  -0.000008
    33  H   -0.021286  -0.023116   0.497743   0.001778  -0.000002   0.000001
    34  C    0.007756   0.011063   0.001778   6.064636   0.418672   0.478460
    35  H    0.000076   0.000212  -0.000002   0.418672   0.543681  -0.028242
    36  H   -0.000001  -0.000008   0.000001   0.478460  -0.028242   0.552699
    37  H    0.000005   0.000010  -0.000005   0.460311  -0.026339  -0.027697
    38  C    0.010048   0.005646  -0.001518  -0.176959  -0.005491  -0.023746
    39  H    0.000163   0.000009   0.000002  -0.012851   0.002742  -0.000376
    40  H    0.000019   0.000014  -0.000006   0.004964   0.000008   0.000015
    41  H    0.000019  -0.000005   0.000000   0.018442  -0.000329   0.005771
    42  C    0.001433  -0.005325  -0.000413   0.042965   0.002986   0.038453
    43  H    0.000000   0.000000   0.000000   0.020426   0.000025   0.005543
    44  H    0.000002   0.000000  -0.000001   0.005814  -0.000156   0.000008
    45  H    0.000000   0.000001   0.000000  -0.012705   0.000040  -0.000353
    46  H    0.000000   0.000000   0.000000   0.000021   0.000000   0.000000
    47  H    0.000000   0.000000   0.000000   0.000002   0.000000   0.000000
             37         38         39         40         41         42
     1  H    0.000000   0.000973   0.000000   0.000000   0.000000  -0.002384
     2  C    0.026121   0.041671   0.000590   0.000389  -0.001060  -0.042501
     3  C    0.003604  -0.008490  -0.000129  -0.000015   0.000009   0.017484
     4  C   -0.001690   0.002541   0.000002   0.000022  -0.000006   0.033477
     5  C    0.003608  -0.002274   0.000030  -0.000011   0.000004   0.005435
     6  C   -0.019661  -0.044308  -0.000284  -0.000070   0.000556   0.068000
     7  C   -0.012547  -0.020732  -0.000299  -0.000356   0.000130   0.033902
     8  H    0.000000  -0.000009   0.000000   0.000000   0.000000   0.000088
     9  H   -0.000001  -0.000002   0.000000   0.000000   0.000000  -0.000072
    10  H    0.000031  -0.000331   0.000000   0.000000   0.000000   0.001407
    11  H    0.000015  -0.000135   0.000000   0.000000   0.000000   0.000374
    12  H   -0.000001  -0.000016   0.000000   0.000000   0.000000   0.000022
    13  H    0.000597   0.000065   0.000000   0.000000   0.000000   0.000140
    14  O   -0.000025  -0.000110   0.000000   0.000000   0.000000   0.000470
    15  C    0.000566  -0.001479   0.000000   0.000000   0.000001   0.007511
    16  O   -0.000008  -0.000019   0.000000   0.000000   0.000000  -0.000230
    17  H    0.000000  -0.000002   0.000000   0.000000   0.000000   0.000018
    18  O   -0.007235  -0.000202  -0.000004  -0.000002   0.000032  -0.011824
    19  C   -0.002171   0.001850   0.000000  -0.000003  -0.000011  -0.008986
    20  H   -0.000019  -0.000014   0.000000   0.000000   0.000000   0.000033
    21  H    0.000222   0.000301   0.000000   0.000000   0.000000  -0.001579
    22  H    0.000000  -0.000035   0.000000   0.000000   0.000000  -0.000443
    23  O    0.010495   0.049692   0.000556   0.000074  -0.000740  -0.056515
    24  Si  -0.002238  -0.106499  -0.011623  -0.003833   0.010771  -0.351637
    25  C   -0.000042   0.089657  -0.000962   0.004350  -0.000352  -0.073296
    26  H   -0.000001   0.000345  -0.000022   0.000262   0.000036   0.008965
    27  H   -0.000001  -0.000365  -0.000007   0.000004   0.000000   0.000652
    28  H    0.000002  -0.001454   0.000015   0.000037  -0.000008   0.023066
    29  C   -0.098421  -0.465928  -0.093248  -0.099425  -0.152974  -0.588731
    30  C   -0.003169   0.030143   0.006166  -0.001484   0.000915   0.012749
    31  H    0.000005   0.010048   0.000163   0.000019   0.000019   0.001433
    32  H    0.000010   0.005646   0.000009   0.000014  -0.000005  -0.005325
    33  H   -0.000005  -0.001518   0.000002  -0.000006   0.000000  -0.000413
    34  C    0.460311  -0.176959  -0.012851   0.004964   0.018442   0.042965
    35  H   -0.026339  -0.005491   0.002742   0.000008  -0.000329   0.002986
    36  H   -0.027697  -0.023746  -0.000376   0.000015   0.005771   0.038453
    37  H    0.507876   0.004452   0.000040  -0.000148   0.000017  -0.011225
    38  C    0.004452   6.119777   0.462251   0.467439   0.439211  -0.350939
    39  H    0.000040   0.462251   0.535440  -0.027692  -0.028064   0.001370
    40  H   -0.000148   0.467439  -0.027692   0.536164  -0.027894  -0.020654
    41  H    0.000017   0.439211  -0.028064  -0.027894   0.542544   0.024160
    42  C   -0.011225  -0.350939   0.001370  -0.020654   0.024160   6.442387
    43  H   -0.000547  -0.013054  -0.000005  -0.000304   0.005350   0.479036
    44  H    0.000050  -0.001240   0.000029   0.002734  -0.000333   0.408707
    45  H    0.003687   0.006566  -0.000146   0.000037   0.000014   0.478319
    46  H    0.000000   0.000000   0.000000   0.000000   0.000000   0.000001
    47  H    0.000000   0.000000   0.000000   0.000000   0.000000   0.000002
             43         44         45         46         47
     1  H    0.000000   0.000000   0.000001   0.000000   0.000000
     2  C   -0.001795  -0.003163   0.012055   0.002250  -0.005264
     3  C    0.000022   0.000032   0.000307   0.079152  -0.040202
     4  C    0.000374  -0.000046  -0.002075  -0.045320   0.117596
     5  C   -0.000169   0.000038   0.000553  -0.102522  -0.129842
     6  C    0.001786   0.002689  -0.008531  -0.001987   0.002394
     7  C   -0.000263  -0.000323  -0.000438  -0.000217  -0.000352
     8  H    0.000000   0.000000   0.000000   0.000354   0.000056
     9  H    0.000000   0.000000   0.000000   0.000121   0.001318
    10  H    0.000000  -0.000006   0.000193   0.000001   0.000001
    11  H    0.000000   0.000000   0.000000  -0.000001   0.000001
    12  H    0.000000   0.000000   0.000000  -0.000293   0.000264
    13  H    0.000001   0.000000   0.000000  -0.000018   0.000003
    14  O    0.000001   0.000000  -0.000006  -0.037961  -0.031005
    15  C    0.000003  -0.000001  -0.000016   0.444975   0.416138
    16  O    0.000000   0.000000   0.000005   0.000463   0.000724
    17  H    0.000000   0.000000   0.000000  -0.000005   0.000001
    18  O    0.000981   0.000000  -0.001713  -0.000143   0.000433
    19  C    0.000028  -0.000168   0.000270  -0.000753   0.002882
    20  H    0.000000   0.000000   0.000014   0.000005  -0.000014
    21  H   -0.000006  -0.000001   0.000066   0.000000   0.000000
    22  H    0.000001   0.000000   0.000082   0.000000  -0.000002
    23  O   -0.000493  -0.002703   0.011346  -0.000009  -0.000003
    24  Si   0.016084   0.004669  -0.035745   0.000184  -0.000138
    25  C   -0.000359   0.001456   0.002934   0.000000   0.000000
    26  H    0.000000   0.000042   0.000003   0.000000   0.000000
    27  H    0.000000  -0.000001  -0.000004   0.000000   0.000000
    28  H   -0.000004   0.000129   0.000047   0.000000   0.000000
    29  C   -0.162714  -0.064964  -0.098501  -0.000022  -0.000001
    30  C   -0.001278  -0.000192  -0.000261  -0.000014   0.000002
    31  H    0.000000   0.000002   0.000000   0.000000   0.000000
    32  H    0.000000   0.000000   0.000001   0.000000   0.000000
    33  H    0.000000  -0.000001   0.000000   0.000000   0.000000
    34  C    0.020426   0.005814  -0.012705   0.000021   0.000002
    35  H    0.000025  -0.000156   0.000040   0.000000   0.000000
    36  H    0.005543   0.000008  -0.000353   0.000000   0.000000
    37  H   -0.000547   0.000050   0.003687   0.000000   0.000000
    38  C   -0.013054  -0.001240   0.006566   0.000000   0.000000
    39  H   -0.000005   0.000029  -0.000146   0.000000   0.000000
    40  H   -0.000304   0.002734   0.000037   0.000000   0.000000
    41  H    0.005350  -0.000333   0.000014   0.000000   0.000000
    42  C    0.479036   0.408707   0.478319   0.000001   0.000002
    43  H    0.551198  -0.028462  -0.027877   0.000000   0.000000
    44  H   -0.028462   0.540585  -0.026220   0.000000   0.000000
    45  H   -0.027877  -0.026220   0.513553   0.000000   0.000000
    46  H    0.000000   0.000000   0.000000   0.525320  -0.035181
    47  H    0.000000   0.000000   0.000000  -0.035181   0.530435
 Mulliken atomic charges:
              1
     1  H    0.164842
     2  C   -0.355196
     3  C   -0.675986
     4  C    0.125740
     5  C    0.162861
     6  C   -0.213840
     7  C   -0.108948
     8  H    0.173646
     9  H    0.147985
    10  H    0.141314
    11  H    0.172036
    12  H    0.191145
    13  H    0.195698
    14  O   -0.303818
    15  C   -0.064141
    16  O   -0.493520
    17  H    0.376840
    18  O   -0.189896
    19  C   -0.222384
    20  H    0.164043
    21  H    0.167670
    22  H    0.147270
    23  O   -0.290580
    24  Si   0.825066
    25  C   -0.703499
    26  H    0.181546
    27  H    0.183741
    28  H    0.184386
    29  C   -0.046428
    30  C   -0.728975
    31  H    0.187603
    32  H    0.189512
    33  H    0.185223
    34  C   -0.602488
    35  H    0.159116
    36  H    0.156291
    37  H    0.191480
    38  C   -0.507279
    39  H    0.166310
    40  H    0.165363
    41  H    0.163795
    42  C   -0.606855
    43  H    0.156468
    44  H    0.160996
    45  H    0.184496
    46  H    0.171600
    47  H    0.169752
 Sum of Mulliken atomic charges =   0.00000
 Mulliken charges with hydrogens summed into heavy atoms:
              1
     2  C   -0.190354
     3  C   -0.311196
     4  C    0.273725
     5  C    0.162861
     6  C   -0.072526
     7  C    0.258786
    14  O   -0.303818
    15  C    0.277211
    16  O   -0.116680
    18  O   -0.189896
    19  C    0.256598
    23  O   -0.290580
    24  Si   0.825066
    25  C   -0.153826
    29  C   -0.046428
    30  C   -0.166637
    34  C   -0.095602
    38  C   -0.011810
    42  C   -0.104895
 Sum of Mulliken charges with hydrogens summed into heavy atoms =   0.00000
 Electronic spatial extent (au):  <R**2>=           6270.0633
 Charge=              0.0000 electrons
 Dipole moment (field-independent basis, Debye):
    X=             -1.3032    Y=             -0.6009    Z=              1.6129  Tot=              2.1589
 Quadrupole moment (field-independent basis, Debye-Ang):
   XX=           -121.5833   YY=           -124.4354   ZZ=           -122.7287
   XY=             -1.4394   XZ=             -5.3404   YZ=              7.1162
 Traceless Quadrupole moment (field-independent basis, Debye-Ang):
   XX=              1.3325   YY=             -1.5196   ZZ=              0.1871
   XY=             -1.4394   XZ=             -5.3404   YZ=              7.1162
 Octapole moment (field-independent basis, Debye-Ang**2):
  XXX=            -66.3550  YYY=             12.0731  ZZZ=             30.9853  XYY=             -9.9381
  XXY=              1.6839  XXZ=             -1.0596  XZZ=            -28.8356  YZZ=             -4.4467
  YYZ=              5.4896  XYZ=            -19.1465
 Hexadecapole moment (field-independent basis, Debye-Ang**3):
 XXXX=          -5644.7812 YYYY=          -1513.2247 ZZZZ=          -1034.3068 XXXY=            -60.8317
 XXXZ=             64.1469 YYYX=            -24.2786 YYYZ=             -8.5862 ZZZX=            -67.4401
 ZZZY=              0.4294 XXYY=          -1274.9400 XXZZ=          -1144.2649 YYZZ=           -453.4932
 XXYZ=             76.8186 YYXZ=             -7.8553 ZZXY=             24.4806
 N-N= 1.832032973581D+03 E-N=-6.335231277432D+03  KE= 1.131536441114D+03
 1\1\GINC-COMPUTE-8-12\SP\RmPW1PW91\6-31+G(d,p)\C14H28O4Si1\ELUCIANO.IQ
 UIR\06-Dec-2022\0\\# mPW1PW91/6-31+g** scrf=(PCM,solvent=chloroform) n
 mr\\comment\\0,1\H,0,-0.909041,-1.766044,1.135458\C,0,-0.55415,-0.9044
 79,0.553335\C,0,-2.376301,-1.419481,-1.123962\C,0,-2.872965,0.050479,0
 .91014\C,0,-3.218386,-0.308835,-0.526312\C,0,-1.353479,0.312582,1.0573
 31\C,0,-0.868151,-1.17176,-0.926266\H,0,-2.610696,-1.514673,-2.189566\
 H,0,-3.435623,0.953461,1.184966\H,0,-1.122343,0.463734,2.128463\H,0,-0
 .308986,-2.048444,-1.267509\H,0,-2.662943,-2.360747,-0.637286\H,0,-0.5
 50699,-0.314622,-1.528034\O,0,-3.458713,0.83928,-1.363756\C,0,-4.56484
 3,-0.014486,-1.03167\O,0,-3.279115,-1.051909,1.726091\H,0,-2.991679,-0
 .869285,2.635123\O,0,-0.922154,1.440809,0.318681\C,0,-1.439456,2.69373
 2,0.73231\H,0,-2.471587,2.843028,0.391836\H,0,-0.805877,3.458044,0.274
 993\H,0,-1.394708,2.806275,1.826947\O,0,0.809024,-0.71714,0.866934\Si,
 0,2.341157,-0.821001,0.208938\C,0,3.410629,-1.381092,1.662179\H,0,4.46
 9581,-1.461131,1.389604\H,0,3.082691,-2.367236,2.012151\H,0,3.33254,-0
 .69019,2.508898\C,0,2.923215,0.891126,-0.437875\C,0,2.472108,-2.130005
 ,-1.155636\H,0,3.526697,-2.30527,-1.402285\H,0,1.960996,-1.848135,-2.0
 81969\H,0,2.055758,-3.087425,-0.819581\C,0,2.075154,1.345137,-1.644638
 \H,0,2.132349,0.635373,-2.479707\H,0,2.437602,2.313865,-2.020427\H,0,1
 .022751,1.470478,-1.369864\C,0,4.40327,0.802759,-0.871674\H,0,4.55285,
 0.082763,-1.686148\H,0,5.062059,0.514313,-0.043452\H,0,4.750486,1.7803
 5,-1.237106\C,0,2.785143,1.941592,0.684754\H,0,3.116923,2.928379,0.328
 559\H,0,3.395785,1.6904,1.560969\H,0,1.743858,2.033842,1.010552\H,0,-4
 .966226,-0.599145,-1.859762\H,0,-5.311788,0.420121,-0.366656\\Version=
 EM64L-G09RevC.01\State=1-A\HF=-1140.6139276\RMSD=4.518e-09\Dipole=-0.5
 127302,-0.2364092,0.6345584\Quadrupole=0.9906958,-1.1297927,0.1390969,
 -1.0701466,-3.9704566,5.2907008\PG=C01 [X(C14H28O4Si1)]\\@


 TO BEHOLD HARMS OF OUR OWN HANDS DOING,
 WHERE NONE BESIDE US WROUGHT,
 CAUSES SHARP RUING...

                                         SOPHOCLES
 Job cpu time:  0 days  3 hours 52 minutes 55.5 seconds.
 File lengths (MBytes):  RWF=    289 Int=      0 D2E=      0 Chk=     16 Scr=      1
 Normal termination of Gaussian 09 at Tue Dec  6 21:59:00 2022.
