 Entering Gaussian System, Link 0=g09
 Input=/home/fbruno.iquir/2_val_run/2a_008_MPW_A_SMD.gjc
 Output=/home/fbruno.iquir/2_val_run/2a_008_MPW_A_SMD.log
 Initial command:
 /share/apps/Gaussian09/EM64T.SSE4.2-enabled/g09/l1.exe /tmp/Gau-38351.inp -scrdir=/tmp/
 Entering Link 1 = /share/apps/Gaussian09/EM64T.SSE4.2-enabled/g09/l1.exe PID=     38352.
  
 Copyright (c) 1988,1990,1992,1993,1995,1998,2003,2009,2011,
            Gaussian, Inc.  All Rights Reserved.
  
 This is part of the Gaussian(R) 09 program.  It is based on
 the Gaussian(R) 03 system (copyright 2003, Gaussian, Inc.),
 the Gaussian(R) 98 system (copyright 1998, Gaussian, Inc.),
 the Gaussian(R) 94 system (copyright 1995, Gaussian, Inc.),
 the Gaussian 92(TM) system (copyright 1992, Gaussian, Inc.),
 the Gaussian 90(TM) system (copyright 1990, Gaussian, Inc.),
 the Gaussian 88(TM) system (copyright 1988, Gaussian, Inc.),
 the Gaussian 86(TM) system (copyright 1986, Carnegie Mellon
 University), and the Gaussian 82(TM) system (copyright 1983,
 Carnegie Mellon University). Gaussian is a federally registered
 trademark of Gaussian, Inc.
  
 This software contains proprietary and confidential information,
 including trade secrets, belonging to Gaussian, Inc.
  
 This software is provided under written license and may be
 used, copied, transmitted, or stored only in accord with that
 written license.
  
 The following legend is applicable only to US Government
 contracts under FAR:
  
                    RESTRICTED RIGHTS LEGEND
  
 Use, reproduction and disclosure by the US Government is
 subject to restrictions as set forth in subparagraphs (a)
 and (c) of the Commercial Computer Software - Restricted
 Rights clause in FAR 52.227-19.
  
 Gaussian, Inc.
 340 Quinnipiac St., Bldg. 40, Wallingford CT 06492
  
  
 ---------------------------------------------------------------
 Warning -- This program may not be used in any manner that
 competes with the business of Gaussian, Inc. or will provide
 assistance to any competitor of Gaussian, Inc.  The licensee
 of this program is prohibited from giving any competitor of
 Gaussian, Inc. access to this program.  By using this program,
 the user acknowledges that Gaussian, Inc. is engaged in the
 business of creating and licensing software in the field of
 computational chemistry and represents and warrants to the
 licensee that it is not a competitor of Gaussian, Inc. and that
 it will not use this program in any manner prohibited above.
 ---------------------------------------------------------------
  

 Cite this work as:
 Gaussian 09, Revision C.01,
 M. J. Frisch, G. W. Trucks, H. B. Schlegel, G. E. Scuseria, 
 M. A. Robb, J. R. Cheeseman, G. Scalmani, V. Barone, B. Mennucci, 
 G. A. Petersson, H. Nakatsuji, M. Caricato, X. Li, H. P. Hratchian, 
 A. F. Izmaylov, J. Bloino, G. Zheng, J. L. Sonnenberg, M. Hada, 
 M. Ehara, K. Toyota, R. Fukuda, J. Hasegawa, M. Ishida, T. Nakajima, 
 Y. Honda, O. Kitao, H. Nakai, T. Vreven, J. A. Montgomery, Jr., 
 J. E. Peralta, F. Ogliaro, M. Bearpark, J. J. Heyd, E. Brothers, 
 K. N. Kudin, V. N. Staroverov, T. Keith, R. Kobayashi, J. Normand, 
 K. Raghavachari, A. Rendell, J. C. Burant, S. S. Iyengar, J. Tomasi, 
 M. Cossi, N. Rega, J. M. Millam, M. Klene, J. E. Knox, J. B. Cross, 
 V. Bakken, C. Adamo, J. Jaramillo, R. Gomperts, R. E. Stratmann, 
 O. Yazyev, A. J. Austin, R. Cammi, C. Pomelli, J. W. Ochterski, 
 R. L. Martin, K. Morokuma, V. G. Zakrzewski, G. A. Voth, 
 P. Salvador, J. J. Dannenberg, S. Dapprich, A. D. Daniels, 
 O. Farkas, J. B. Foresman, J. V. Ortiz, J. Cioslowski, 
 and D. J. Fox, Gaussian, Inc., Wallingford CT, 2010.
 
 ******************************************
 Gaussian 09:  EM64L-G09RevC.01 23-Sep-2011
                21-Dec-2021 
 ******************************************
 %nprocshared=4
 Will use up to    4 processors via shared memory.
 -----------------------------------------------------------------
 # mPW1PW91/6-31g** scrf=(pcm,solvent=chloroform,smd,dovacuum) nmr
 -----------------------------------------------------------------
 1/38=1/1;
 2/12=2,17=6,18=5,40=1/2;
 3/5=1,6=6,7=101,11=2,16=1,25=1,30=1,70=32101,72=7,74=-7/1,2,8,3;
 4//1;
 5/5=2,38=5,53=7/2;
 8/6=1,10=90,11=11/1;
 10/13=100,45=16/2;
 6/7=2,8=2,9=2,10=2,28=1/1;
 99/9=1/99;
 -------
 comment
 -------
 Charge =  0 Multiplicity = 1
 Symbolic Z-Matrix:
 6                    -1.31592   0.5356    1.98833 
 1                    -2.39475   0.48473   1.79723 
 6                    -0.55977  -0.54313   1.19461 
 1                     0.50663  -0.48546   1.42814 
 6                    -0.82252  -0.36917  -0.29585 
 8                    -1.96531  -0.43479  -0.75038 
 8                    -1.10784   0.33699   3.38955 
 1                    -1.72404  -0.35877   3.67857 
 6                    -1.00269  -1.95725   1.58781 
 1                    -0.52418  -2.70609   0.94667 
 1                    -2.08672  -2.08001   1.48629 
 1                    -0.72991  -2.18398   2.62342 
 6                     0.3162   -0.14992  -1.23616 
 6                     2.37633   0.22622  -3.09794 
 6                     0.13177  -0.49868  -2.58176 
 6                     1.53624   0.40544  -0.83418 
 6                     2.5634    0.58878  -1.76485 
 6                     1.15986  -0.31467  -3.50802 
 1                    -0.81634  -0.9177   -2.91481 
 1                     1.71251   0.72578   0.18774 
 1                     3.50995   1.0226   -1.45028 
 1                     1.00831  -0.59058  -4.54871 
 1                     3.1767    0.37254  -3.81937 
 6                    -0.83049   1.94697   1.67241 
 1                    -1.34738   2.67609   2.30639 
 1                    -1.0087    2.2171    0.62777 
 1                     0.23865   2.05137   1.88738 
 
                          Input orientation:                          
 ---------------------------------------------------------------------
 Center     Atomic      Atomic             Coordinates (Angstroms)
 Number     Number       Type             X           Y           Z
 ---------------------------------------------------------------------
      1          6           0       -1.315920    0.535599    1.988333
      2          1           0       -2.394752    0.484730    1.797234
      3          6           0       -0.559768   -0.543134    1.194609
      4          1           0        0.506628   -0.485464    1.428139
      5          6           0       -0.822519   -0.369167   -0.295849
      6          8           0       -1.965307   -0.434785   -0.750383
      7          8           0       -1.107839    0.336988    3.389552
      8          1           0       -1.724038   -0.358769    3.678568
      9          6           0       -1.002691   -1.957254    1.587814
     10          1           0       -0.524175   -2.706093    0.946666
     11          1           0       -2.086716   -2.080012    1.486290
     12          1           0       -0.729914   -2.183984    2.623423
     13          6           0        0.316196   -0.149921   -1.236165
     14          6           0        2.376335    0.226219   -3.097943
     15          6           0        0.131770   -0.498675   -2.581755
     16          6           0        1.536237    0.405438   -0.834177
     17          6           0        2.563399    0.588783   -1.764849
     18          6           0        1.159865   -0.314671   -3.508024
     19          1           0       -0.816342   -0.917702   -2.914813
     20          1           0        1.712513    0.725778    0.187742
     21          1           0        3.509949    1.022600   -1.450281
     22          1           0        1.008312   -0.590576   -4.548706
     23          1           0        3.176705    0.372539   -3.819373
     24          6           0       -0.830492    1.946969    1.672405
     25          1           0       -1.347385    2.676095    2.306391
     26          1           0       -1.008700    2.217104    0.627771
     27          1           0        0.238651    2.051367    1.887383
 ---------------------------------------------------------------------
                    Distance matrix (angstroms):
                    1          2          3          4          5
     1  C    0.000000
     2  H    1.096807   0.000000
     3  C    1.537995   2.187882   0.000000
     4  H    2.162884   3.081479   1.093189   0.000000
     5  C    2.505900   2.753554   1.523407   2.179975   0.000000
     6  O    2.977233   2.742314   2.402139   3.295298   1.231613
     7  O    1.430440   2.052669   2.427503   2.670219   3.763276
     8  H    1.955338   2.168125   2.749467   3.171175   4.075394
     9  C    2.544178   2.818684   1.533142   2.114168   2.470358
    10  H    3.495783   3.795244   2.177414   2.495109   2.663471
    11  H    2.772651   2.601821   2.186010   3.044897   2.775105
    12  H    2.853572   3.252124   2.182395   2.417170   3.438646
    13  C    3.678469   4.117467   2.613540   2.692094   1.492961
    14  C    6.292747   6.840531   5.257244   4.948506   4.294051
    15  C    4.904206   5.150335   3.839418   4.027399   2.480485
    16  C    4.014761   4.731098   3.067409   2.640431   2.540381
    17  C    5.397992   6.105942   4.449022   3.947086   3.813144
    18  C    6.087891   6.435846   5.012394   4.982128   3.775034
    19  H    5.138337   5.163486   4.134426   4.560516   2.675799
    20  H    3.528414   4.417940   2.790552   2.111836   2.803417
    21  H    5.945608   6.760263   5.099958   4.424873   4.694679
    22  H    7.028742   7.280666   5.953721   5.998785   4.635489
    23  H    7.344367   7.912016   6.319787   5.949946   5.381369
    24  C    1.525587   2.144909   2.549940   2.786446   3.039503
    25  H    2.164226   2.481592   3.495688   3.768838   4.039896
    26  H    2.184713   2.507968   2.853377   3.200107   2.752551
    27  H    2.173576   3.065500   2.801579   2.591954   3.428056
                    6          7          8          9         10
     6  O    0.000000
     7  O    4.297668   0.000000
     8  H    4.436169   0.973297   0.000000
     9  C    2.951560   2.919051   2.728873   0.000000
    10  H    3.180515   3.945719   3.796432   1.095814   0.000000
    11  H    2.779247   3.228389   2.810746   1.095667   1.767684
    12  H    3.996056   2.661781   2.330885   1.094669   1.768175
    13  C    2.349976   4.864383   5.325483   3.602884   3.464821
    14  C    4.979741   7.364736   7.942063   6.175896   5.776701
    15  C    2.784913   6.155605   6.531098   4.560676   4.213397
    16  C    3.601917   4.983544   5.619455   4.230190   4.135012
    17  C    4.752474   6.333185   6.993622   5.517214   5.267033
    18  C    4.169618   7.289973   7.743768   5.774279   5.329086
    19  H    2.497616   6.434612   6.678996   4.624829   4.265527
    20  H    3.969048   4.284522   5.017169   4.065857   4.166110
    21  H    5.708963   6.724434   7.457070   6.202699   5.993552
    22  H    4.826380   8.267673   8.672227   6.600669   6.084657
    23  H    6.042413   8.386130   8.987280   7.220316   6.774187
    24  C    3.581964   2.370138   3.184264   3.908934   4.719271
    25  H    4.404914   2.588831   3.351885   4.701392   5.611994
    26  H    3.137981   3.342469   4.056376   4.283338   4.957250
    27  H    4.242191   2.647384   3.587373   4.207102   4.909203
                   11         12         13         14         15
    11  H    0.000000
    12  H    1.773356   0.000000
    13  C    4.112298   4.486444   0.000000
    14  C    6.800935   6.942038   2.802119   0.000000
    15  C    4.896049   5.538651   1.402232   2.414537   0.000000
    16  C    4.968683   4.878068   1.399470   2.421264   2.417432
    17  C    6.270242   6.147445   2.423863   1.394126   2.786166
    18  C    6.212881   6.682832   2.429046   1.393028   1.395998
    19  H    4.725942   5.681813   2.165638   3.396362   1.088773
    20  H    4.898247   4.512727   2.178086   3.389092   3.415867
    21  H    7.040761   6.697290   3.408916   2.152695   3.873836
    22  H    6.943976   7.549823   3.412643   2.154844   2.155381
    23  H    7.865664   7.956576   3.889529   1.087411   3.400344
    24  C    4.222477   4.240204   3.764522   6.000079   5.000501
    25  H    4.882594   4.909394   4.827377   7.005341   6.013405
    26  H    4.512691   4.840447   3.291264   5.413228   4.356282
    27  H    4.757782   4.406594   3.822072   5.723140   5.146584
                   16         17         18         19         20
    16  C    0.000000
    17  C    1.398151   0.000000
    18  C    2.794579   2.413462   0.000000
    19  H    3.407986   3.874862   2.149637   0.000000
    20  H    1.085361   2.134335   3.879000   4.326889   0.000000
    21  H    2.157780   1.087708   3.397867   4.962501   2.449898
    22  H    3.881813   3.399860   1.087249   2.471028   4.966148
    23  H    3.406408   2.154989   2.153332   4.292711   4.280842
    24  C    3.776331   5.017756   5.992778   5.408245   3.187853
    25  H    4.830561   6.018811   7.002742   6.360688   4.201831
    26  H    3.449077   4.597385   5.312002   4.734333   3.134116
    27  H    3.435069   4.569726   5.962984   5.743645   2.611175
                   21         22         23         24         25
    21  H    0.000000
    22  H    4.296599   0.000000
    23  H    2.479159   2.482226   0.000000
    24  C    5.426330   6.965814   6.978258   0.000000
    25  H    6.359270   7.950648   7.956050   1.095783   0.000000
    26  H    5.115011   6.224735   6.379430   1.093614   1.772891
    27  H    4.785369   6.999677   6.634583   1.095527   1.755381
                   26         27
    26  H    0.000000
    27  H    1.780442   0.000000
 Stoichiometry    C11H14O2
 Framework group  C1[X(C11H14O2)]
 Deg. of freedom    75
 Full point group                 C1      NOp   1
 Largest Abelian subgroup         C1      NOp   1
 Largest concise Abelian subgroup C1      NOp   1
                         Standard orientation:                         
 ---------------------------------------------------------------------
 Center     Atomic      Atomic             Coordinates (Angstroms)
 Number     Number       Type             X           Y           Z
 ---------------------------------------------------------------------
      1          6           0       -2.508989    0.340800   -0.401052
      2          1           0       -2.875069   -0.422638   -1.098284
      3          6           0       -1.434566   -0.233661    0.537586
      4          1           0       -1.111590    0.541430    1.237573
      5          6           0       -0.270114   -0.778257   -0.279870
      6          8           0       -0.438571   -1.681112   -1.100447
      7          8           0       -3.622597    0.803914    0.368080
      8          1           0       -4.171180    0.028440    0.580224
      9          6           0       -1.980935   -1.379053    1.397868
     10          1           0       -1.179605   -1.836993    1.988605
     11          1           0       -2.426740   -2.166403    0.779949
     12          1           0       -2.744412   -1.020689    2.095706
     13          6           0        1.107610   -0.243177   -0.068915
     14          6           0        3.739988    0.655614    0.269655
     15          6           0        2.190045   -1.062758   -0.419450
     16          6           0        1.354969    1.038080    0.436763
     17          6           0        2.669581    1.482400    0.607650
     18          6           0        3.501283   -0.615898   -0.246875
     19          1           0        2.015662   -2.056535   -0.828626
     20          1           0        0.550228    1.722263    0.686355
     21          1           0        2.859121    2.479462    0.998866
     22          1           0        4.334100   -1.259638   -0.519136
     23          1           0        4.761041    1.005571    0.401730
     24          6           0       -2.008796    1.536621   -1.205560
     25          1           0       -2.822650    1.954525   -1.808666
     26          1           0       -1.191209    1.264150   -1.878838
     27          1           0       -1.668803    2.340370   -0.543312
 ---------------------------------------------------------------------
 Rotational constants (GHZ):      1.5939666      0.4538117      0.4111061
 Standard basis: 6-31G(d,p) (6D, 7F)
 There are   265 symmetry adapted basis functions of A   symmetry.
 Integral buffers will be    131072 words long.
 Raffenetti 2 integral format.
 Two-electron integral symmetry is turned on.
   265 basis functions,   462 primitive gaussians,   265 cartesian basis functions
    48 alpha electrons       48 beta electrons
       nuclear repulsion energy       779.0935246621 Hartrees.
 NAtoms=   27 NActive=   27 NUniq=   27 SFac= 1.00D+00 NAtFMM=   60 NAOKFM=F Big=F
 ------------------------------------------------------------------------------
 Polarizable Continuum Model (PCM)
 =================================
 Model                : C-PCM.
 Atomic radii         : SMD-Coulomb.
 Polarization charges : Total charges.
 Charge compensation  : None.
 Solution method      : Matrix inversion.
 Cavity type          : VdW (van der Waals Surface) (Alpha=1.000).
 Cavity algorithm     : GePol (No added spheres)
                        Default sphere list used, NSphG=   27.
                        Lebedev-Laikov grids with approx.  5.0 points / Ang**2.
                        Smoothing algorithm: Karplus/York (Gamma=1.0000).
                        Polarization charges: spherical gaussians, with
                                              point-specific exponents (IZeta= 3).
                        Self-potential: point-specific (ISelfS= 7).
                        Self-field    : sphere-specific E.n sum rule (ISelfD= 2).
 Solvent              : Chloroform, Eps=   4.711300 Eps(inf)=   2.090627
 ------------------------------------------------------------------------------
 ------------------------------------------------------------------------------
 Atomic radii for non-electrostatic terms: SMD-CDS.
 ------------------------------------------------------------------------------
 Nuclear repulsion after PCM non-electrostatic terms =      779.0869497099 Hartrees.
 One-electron integrals computed using PRISM.
 NBasis=   265 RedAO= T  NBF=   265
 NBsUse=   265 1.00D-06 NBFU=   265
 Harris functional with IExCor=  908 diagonalized for initial guess.
 ExpMin= 1.61D-01 ExpMax= 5.48D+03 ExpMxC= 8.25D+02 IAcc=1 IRadAn=         1 AccDes= 0.00D+00
 HarFok:  IExCor=  908 AccDes= 0.00D+00 IRadAn=         1 IDoV= 1
 ScaDFX=  1.000000  1.000000  1.000000  1.000000
 FoFCou: FMM=F IPFlag=           0 FMFlag=      100000 FMFlg1=           0
         NFxFlg=           0 DoJE=T BraDBF=F KetDBF=T FulRan=T
         Omega=  0.000000  0.000000  1.000000  0.000000  0.000000 ICntrl=     500 IOpCl=  0
         NMat0=    1 NMatS0=    1 NMatT0=    0 NMatD0=    1 NMtDS0=    0 NMtDT0=    0
         I1Cent=           4 NGrid=           0.
 Petite list used in FoFCou.
 Initial guess orbital symmetries:
       Occupied  (A) (A) (A) (A) (A) (A) (A) (A) (A) (A) (A) (A)
                 (A) (A) (A) (A) (A) (A) (A) (A) (A) (A) (A) (A)
                 (A) (A) (A) (A) (A) (A) (A) (A) (A) (A) (A) (A)
                 (A) (A) (A) (A) (A) (A) (A) (A) (A) (A) (A) (A)
       Virtual   (A) (A) (A) (A) (A) (A) (A) (A) (A) (A) (A) (A)
                 (A) (A) (A) (A) (A) (A) (A) (A) (A) (A) (A) (A)
                 (A) (A) (A) (A) (A) (A) (A) (A) (A) (A) (A) (A)
                 (A) (A) (A) (A) (A) (A) (A) (A) (A) (A) (A) (A)
                 (A) (A) (A) (A) (A) (A) (A) (A) (A) (A) (A) (A)
                 (A) (A) (A) (A) (A) (A) (A) (A) (A) (A) (A) (A)
                 (A) (A) (A) (A) (A) (A) (A) (A) (A) (A) (A) (A)
                 (A) (A) (A) (A) (A) (A) (A) (A) (A) (A) (A) (A)
                 (A) (A) (A) (A) (A) (A) (A) (A) (A) (A) (A) (A)
                 (A) (A) (A) (A) (A) (A) (A) (A) (A) (A) (A) (A)
                 (A) (A) (A) (A) (A) (A) (A) (A) (A) (A) (A) (A)
                 (A) (A) (A) (A) (A) (A) (A) (A) (A) (A) (A) (A)
                 (A) (A) (A) (A) (A) (A) (A) (A) (A) (A) (A) (A)
                 (A) (A) (A) (A) (A) (A) (A) (A) (A) (A) (A) (A)
                 (A) (A) (A) (A) (A) (A) (A) (A) (A) (A) (A) (A)
                 (A) (A) (A) (A) (A) (A) (A) (A) (A) (A) (A) (A)
                 (A) (A) (A) (A) (A) (A) (A) (A) (A) (A) (A) (A)
                 (A) (A) (A) (A) (A) (A) (A) (A) (A) (A) (A) (A)
                 (A)
 The electronic state of the initial guess is 1-A.
 Requested convergence on RMS density matrix=1.00D-08 within 128 cycles.
 Requested convergence on MAX density matrix=1.00D-06.
 Requested convergence on             energy=1.00D-06.
 No special actions if energy rises.
 Error on total polarization charges =  0.02731
 SCF Done:  E(RmPW1PW91) =  -577.946528171     A.U. after   12 cycles
             Convg  =    0.6592D-08             -V/T =  2.0093
 SMD-CDS (non-electrostatic) energy       (kcal/mol) =      -4.13
 (included in total energy above)
 Range of M.O.s used for correlation:     1   265
 NBasis=   265 NAE=    48 NBE=    48 NFC=     0 NFV=     0
 NROrb=    265 NOA=    48 NOB=    48 NVA=   217 NVB=   217
 NEqPCM:  Using equilibrium solvation (IEInf=0, Eps=   4.7113, EpsInf=   2.0906)
          Differentiating once with respect to magnetic field using GIAOs.
          Electric field/nuclear overlap derivatives assumed to be zero.
 FoFCou: FMM=F IPFlag=           0 FMFlag=    10101102 FMFlg1=           0
         NFxFlg=    40000000 DoJE=F BraDBF=F KetDBF=T FulRan=T
         Omega=  0.000000  0.000000  1.000000  0.000000  0.000000 ICntrl=    6100 IOpCl=  0
         NMat0=    1 NMatS0=    1 NMatT0=    0 NMatD0=    1 NMtDS0=    0 NMtDT0=    0
         I1Cent=           7 NGrid=        2055.
 Symmetry not used in FoFCou.
          There are     3 degrees of freedom in the 1st order CPHF.  IDoFFX=0.
      3 vectors produced by pass  0 Test12= 3.47D-13 3.33D-08 XBig12= 2.67D+01 1.37D+00.
 AX will form     3 AO Fock derivatives at one time.
      3 vectors produced by pass  1 Test12= 3.47D-13 3.33D-08 XBig12= 1.61D-01 2.41D-01.
      3 vectors produced by pass  2 Test12= 3.47D-13 3.33D-08 XBig12= 7.83D-04 8.55D-03.
      3 vectors produced by pass  3 Test12= 3.47D-13 3.33D-08 XBig12= 3.16D-06 3.74D-04.
      3 vectors produced by pass  4 Test12= 3.47D-13 3.33D-08 XBig12= 1.09D-08 3.07D-05.
      3 vectors produced by pass  5 Test12= 3.47D-13 3.33D-08 XBig12= 1.98D-11 2.25D-06.
      2 vectors produced by pass  6 Test12= 3.47D-13 3.33D-08 XBig12= 9.36D-14 8.53D-08.
 Inverted reduced A of dimension    20 with in-core refinement.
 Calculating GIAO nuclear magnetic shielding tensors.
 SCF GIAO Magnetic shielding tensor (ppm):
      1  C    Isotropic =   124.6226   Anisotropy =    43.6934
   XX=   132.7160   YX=   -22.3076   ZX=   -11.1383
   XY=   -19.9460   YY=   116.5131   ZY=     2.0841
   XZ=   -16.3076   YZ=     6.2936   ZZ=   124.6388
   Eigenvalues:   101.0321   119.0843   153.7515
      2  H    Isotropic =    27.5612   Anisotropy =     5.4675
   XX=    26.6971   YX=     0.0655   ZX=    -1.2334
   XY=    -0.1063   YY=    28.0908   ZY=     2.7995
   XZ=     1.3679   YZ=     3.6230   ZZ=    27.8956
   Eigenvalues:    24.7784    26.6989    31.2062
      3  C    Isotropic =   145.5366   Anisotropy =    35.2431
   XX=   154.2366   YX=   -20.8160   ZX=    -2.0463
   XY=   -19.1022   YY=   140.6722   ZY=    -5.0110
   XZ=    -1.5461   YZ=   -12.3097   ZZ=   141.7010
   Eigenvalues:   122.8527   144.7251   169.0320
      4  H    Isotropic =    28.0297   Anisotropy =     8.1269
   XX=    30.0119   YX=     2.8436   ZX=     0.4980
   XY=     5.0631   YY=    28.8382   ZY=    -0.3037
   XZ=     0.2389   YZ=     0.8598   ZZ=    25.2389
   Eigenvalues:    25.2090    25.4325    33.4476
      5  C    Isotropic =    -9.2335   Anisotropy =   176.1458
   XX=   -78.6364   YX=   -31.0779   ZX=    10.9222
   XY=   -28.4716   YY=    32.0100   ZY=   -67.2347
   XZ=    13.2231   YZ=   -87.9390   ZZ=    18.9257
   Eigenvalues:   -87.0519   -48.8457   108.1970
      6  O    Isotropic =  -232.6818   Anisotropy =   943.0007
   XX=  -305.0746   YX=  -124.2318   ZX=    52.6979
   XY=  -117.5105   YY=  -195.0398   ZY=  -540.4030
   XZ=    35.7040   YZ=  -605.4816   ZZ=  -197.9309
   Eigenvalues:  -775.7997  -318.2310   395.9854
      7  O    Isotropic =   291.2722   Anisotropy =    34.7103
   XX=   287.7673   YX=    14.4742   ZX=   -12.0399
   XY=     5.5387   YY=   295.8510   ZY=    -5.7338
   XZ=   -30.0386   YZ=     0.3205   ZZ=   290.1984
   Eigenvalues:   266.8295   292.5747   314.4125
      8  H    Isotropic =    29.5449   Anisotropy =    17.9972
   XX=    34.6385   YX=     6.1989   ZX=    -5.1149
   XY=     6.4464   YY=    31.8221   ZY=    -2.9362
   XZ=    -4.4259   YZ=    -4.2250   ZZ=    22.1741
   Eigenvalues:    20.3340    26.7577    41.5430
      9  C    Isotropic =   178.7164   Anisotropy =    24.4004
   XX=   169.0463   YX=     8.1273   ZX=    -5.4461
   XY=     7.6315   YY=   187.0300   ZY=    -8.7046
   XZ=    -5.1111   YZ=    -5.6294   ZZ=   180.0730
   Eigenvalues:   165.5740   175.5919   194.9833
     10  H    Isotropic =    30.6527   Anisotropy =     8.8003
   XX=    30.3583   YX=    -1.3979   ZX=     2.6519
   XY=    -1.1485   YY=    30.3485   ZY=    -5.0291
   XZ=     1.5003   YZ=    -4.5036   ZZ=    31.2512
   Eigenvalues:    25.9577    29.4808    36.5195
     11  H    Isotropic =    30.5345   Anisotropy =     9.0129
   XX=    28.6872   YX=     3.0255   ZX=     1.1953
   XY=     3.9034   YY=    34.4579   ZY=     2.3561
   XZ=    -0.2712   YZ=     1.4748   ZZ=    28.4585
   Eigenvalues:    26.9258    28.1346    36.5431
     12  H    Isotropic =    30.2879   Anisotropy =     8.9846
   XX=    30.4315   YX=    -1.5683   ZX=    -4.1952
   XY=    -0.2643   YY=    28.0164   ZY=    -0.9190
   XZ=    -5.3035   YZ=    -0.9059   ZZ=    32.4158
   Eigenvalues:    25.8182    28.7679    36.2776
     13  C    Isotropic =    61.8505   Anisotropy =   161.2537
   XX=    -6.2035   YX=   -18.0267   ZX=    -6.7689
   XY=   -11.0592   YY=    36.7752   ZY=   -56.1501
   XZ=   -15.8786   YZ=   -30.3970   ZZ=   154.9798
   Eigenvalues:   -14.5133    30.7118   169.3529
     14  C    Isotropic =    66.3477   Anisotropy =   181.6769
   XX=   -24.8865   YX=   -24.9162   ZX=    -8.3481
   XY=   -27.9893   YY=    56.8825   ZY=   -52.9046
   XZ=    -4.1351   YZ=   -50.1526   ZZ=   167.0472
   Eigenvalues:   -35.0593    46.6368   187.4657
     15  C    Isotropic =    69.2601   Anisotropy =   180.3452
   XX=    46.5784   YX=    -7.9814   ZX=    -2.0117
   XY=     6.5765   YY=     3.3192   ZY=   -74.9798
   XZ=    -7.9396   YZ=   -78.0664   ZZ=   157.8828
   Eigenvalues:   -28.2433    46.5334   189.4903
     16  C    Isotropic =    70.0459   Anisotropy =   176.3757
   XX=    11.1027   YX=    38.6846   ZX=    14.7793
   XY=    23.5188   YY=    36.1965   ZY=   -55.8488
   XZ=     3.3646   YZ=   -66.5170   ZZ=   162.8385
   Eigenvalues:   -20.9760    43.4840   187.6297
     17  C    Isotropic =    70.2117   Anisotropy =   173.6530
   XX=    51.1176   YX=   -13.0351   ZX=    -4.7734
   XY=   -14.4942   YY=     2.2924   ZY=   -72.7889
   XZ=    -2.7153   YZ=   -72.5111   ZZ=   157.2252
   Eigenvalues:   -28.9546    53.6094   185.9804
     18  C    Isotropic =    69.8305   Anisotropy =   174.3585
   XX=     6.1968   YX=    36.6538   ZX=    16.6545
   XY=    37.1140   YY=    41.6034   ZY=   -59.2409
   XZ=    15.8513   YZ=   -59.4317   ZZ=   161.6913
   Eigenvalues:   -28.9578    52.3798   186.0695
     19  H    Isotropic =    23.3231   Anisotropy =     7.1520
   XX=    27.9695   YX=    -0.3742   ZX=    -0.3891
   XY=    -1.2540   YY=    22.2071   ZY=     1.8140
   XZ=     0.3113   YZ=     1.4548   ZZ=    19.7928
   Eigenvalues:    18.9557    22.9226    28.0911
     20  H    Isotropic =    23.2375   Anisotropy =     8.9120
   XX=    27.1227   YX=     3.6131   ZX=     1.6914
   XY=     2.6558   YY=    22.7807   ZY=     1.6057
   XZ=     1.1849   YZ=     1.3712   ZZ=    19.8090
   Eigenvalues:    19.1885    21.3451    29.1788
     21  H    Isotropic =    23.7508   Anisotropy =     5.3892
   XX=    27.3427   YX=     0.0732   ZX=     0.0268
   XY=    -0.0461   YY=    23.3461   ZY=     1.4138
   XZ=    -0.1789   YZ=     1.0653   ZZ=    20.5635
   Eigenvalues:    20.0906    23.8181    27.3436
     22  H    Isotropic =    23.7401   Anisotropy =     4.7265
   XX=    25.7671   YX=     1.1904   ZX=     0.4282
   XY=     1.3742   YY=    24.5277   ZY=     1.8891
   XZ=     0.2407   YZ=     1.9445   ZZ=    20.9256
   Eigenvalues:    20.0888    24.2404    26.8911
     23  H    Isotropic =    23.6791   Anisotropy =     4.5146
   XX=    24.4578   YX=    -0.8423   ZX=    -0.3598
   XY=    -1.1499   YY=    25.3550   ZY=     2.0969
   XZ=    -0.1147   YZ=     2.0892   ZZ=    21.2245
   Eigenvalues:    20.3424    24.0062    26.6888
     24  C    Isotropic =   174.2172   Anisotropy =    29.0027
   XX=   170.2706   YX=     3.2569   ZX=    -7.9680
   XY=     5.0660   YY=   180.7203   ZY=   -16.0139
   XZ=    -3.7005   YZ=   -13.3303   ZZ=   171.6606
   Eigenvalues:   160.2553   168.8438   193.5523
     25  H    Isotropic =    30.3409   Anisotropy =    10.5284
   XX=    30.3468   YX=    -1.5800   ZX=     3.1396
   XY=    -3.2033   YY=    29.6382   ZY=    -3.9734
   XZ=     4.6592   YZ=    -4.0792   ZZ=    31.0378
   Eigenvalues:    26.0088    27.6540    37.3599
     26  H    Isotropic =    30.7145   Anisotropy =     5.9567
   XX=    31.8136   YX=    -1.3507   ZX=    -3.8094
   XY=    -1.2529   YY=    28.1632   ZY=    -1.5912
   XZ=    -1.5020   YZ=    -2.0409   ZZ=    32.1668
   Eigenvalues:    26.4637    30.9942    34.6856
     27  H    Isotropic =    30.3943   Anisotropy =     7.1139
   XX=    29.2575   YX=     1.8380   ZX=     1.5519
   XY=     1.8558   YY=    34.1067   ZY=     2.0756
   XZ=     2.6169   YZ=     0.0563   ZZ=    27.8187
   Eigenvalues:    26.3269    29.7191    35.1369
 End of Minotr Frequency-dependent properties file   721 does not exist.
 End of Minotr Frequency-dependent properties file   722 does not exist.

 **********************************************************************

            Population analysis using the SCF density.

 **********************************************************************

 Orbital symmetries:
       Occupied  (A) (A) (A) (A) (A) (A) (A) (A) (A) (A) (A) (A)
                 (A) (A) (A) (A) (A) (A) (A) (A) (A) (A) (A) (A)
                 (A) (A) (A) (A) (A) (A) (A) (A) (A) (A) (A) (A)
                 (A) (A) (A) (A) (A) (A) (A) (A) (A) (A) (A) (A)
       Virtual   (A) (A) (A) (A) (A) (A) (A) (A) (A) (A) (A) (A)
                 (A) (A) (A) (A) (A) (A) (A) (A) (A) (A) (A) (A)
                 (A) (A) (A) (A) (A) (A) (A) (A) (A) (A) (A) (A)
                 (A) (A) (A) (A) (A) (A) (A) (A) (A) (A) (A) (A)
                 (A) (A) (A) (A) (A) (A) (A) (A) (A) (A) (A) (A)
                 (A) (A) (A) (A) (A) (A) (A) (A) (A) (A) (A) (A)
                 (A) (A) (A) (A) (A) (A) (A) (A) (A) (A) (A) (A)
                 (A) (A) (A) (A) (A) (A) (A) (A) (A) (A) (A) (A)
                 (A) (A) (A) (A) (A) (A) (A) (A) (A) (A) (A) (A)
                 (A) (A) (A) (A) (A) (A) (A) (A) (A) (A) (A) (A)
                 (A) (A) (A) (A) (A) (A) (A) (A) (A) (A) (A) (A)
                 (A) (A) (A) (A) (A) (A) (A) (A) (A) (A) (A) (A)
                 (A) (A) (A) (A) (A) (A) (A) (A) (A) (A) (A) (A)
                 (A) (A) (A) (A) (A) (A) (A) (A) (A) (A) (A) (A)
                 (A) (A) (A) (A) (A) (A) (A) (A) (A) (A) (A) (A)
                 (A) (A) (A) (A) (A) (A) (A) (A) (A) (A) (A) (A)
                 (A) (A) (A) (A) (A) (A) (A) (A) (A) (A) (A) (A)
                 (A) (A) (A) (A) (A) (A) (A) (A) (A) (A) (A) (A)
                 (A)
 The electronic state is 1-A.
 Alpha  occ. eigenvalues --  -19.22900 -19.22744 -10.33550 -10.29332 -10.26276
 Alpha  occ. eigenvalues --  -10.26096 -10.25831 -10.25780 -10.25581 -10.25492
 Alpha  occ. eigenvalues --  -10.24996 -10.23433 -10.22716  -1.06196  -1.03790
 Alpha  occ. eigenvalues --   -0.88619  -0.82183  -0.78256  -0.77173  -0.75089
 Alpha  occ. eigenvalues --   -0.67402  -0.64341  -0.62653  -0.60015  -0.55506
 Alpha  occ. eigenvalues --   -0.53971  -0.51813  -0.48563  -0.47189  -0.46311
 Alpha  occ. eigenvalues --   -0.45463  -0.43923  -0.43411  -0.42779  -0.40429
 Alpha  occ. eigenvalues --   -0.39384  -0.38998  -0.38440  -0.36691  -0.36620
 Alpha  occ. eigenvalues --   -0.35745  -0.35578  -0.35079  -0.32382  -0.28487
 Alpha  occ. eigenvalues --   -0.26891  -0.26676  -0.25447
 Alpha virt. eigenvalues --   -0.04945  -0.00339   0.04300   0.09717   0.10737
 Alpha virt. eigenvalues --    0.13193   0.14481   0.16045   0.16580   0.17222
 Alpha virt. eigenvalues --    0.17983   0.18462   0.18584   0.19905   0.20484
 Alpha virt. eigenvalues --    0.20678   0.21342   0.22352   0.24070   0.25615
 Alpha virt. eigenvalues --    0.26446   0.27461   0.29322   0.29831   0.31379
 Alpha virt. eigenvalues --    0.32627   0.34413   0.38479   0.41723   0.48359
 Alpha virt. eigenvalues --    0.52422   0.53102   0.54356   0.55056   0.56198
 Alpha virt. eigenvalues --    0.56429   0.57827   0.59001   0.59980   0.60773
 Alpha virt. eigenvalues --    0.61209   0.61839   0.62350   0.62865   0.63659
 Alpha virt. eigenvalues --    0.64374   0.65630   0.67021   0.68771   0.70333
 Alpha virt. eigenvalues --    0.72745   0.74244   0.76774   0.77639   0.78779
 Alpha virt. eigenvalues --    0.80815   0.81933   0.83353   0.83618   0.84410
 Alpha virt. eigenvalues --    0.84788   0.85119   0.86737   0.88249   0.89603
 Alpha virt. eigenvalues --    0.90571   0.91390   0.93005   0.93798   0.95065
 Alpha virt. eigenvalues --    0.96052   0.96617   0.96902   0.98077   1.00465
 Alpha virt. eigenvalues --    1.01075   1.03127   1.05121   1.07658   1.08771
 Alpha virt. eigenvalues --    1.10081   1.11086   1.12987   1.15170   1.16631
 Alpha virt. eigenvalues --    1.19848   1.23004   1.24593   1.26202   1.29585
 Alpha virt. eigenvalues --    1.33953   1.35598   1.37449   1.40566   1.42085
 Alpha virt. eigenvalues --    1.42295   1.44074   1.45330   1.45961   1.46906
 Alpha virt. eigenvalues --    1.49311   1.56205   1.56781   1.59358   1.60309
 Alpha virt. eigenvalues --    1.65520   1.69929   1.72451   1.75502   1.76807
 Alpha virt. eigenvalues --    1.77296   1.79356   1.82384   1.83333   1.84543
 Alpha virt. eigenvalues --    1.85722   1.87870   1.89883   1.91798   1.92802
 Alpha virt. eigenvalues --    1.95111   1.97335   1.97774   1.98733   1.99708
 Alpha virt. eigenvalues --    2.01348   2.02853   2.04079   2.05380   2.06582
 Alpha virt. eigenvalues --    2.07366   2.07852   2.09398   2.10057   2.12329
 Alpha virt. eigenvalues --    2.12946   2.14314   2.16039   2.16629   2.19545
 Alpha virt. eigenvalues --    2.23247   2.27433   2.29144   2.31325   2.32803
 Alpha virt. eigenvalues --    2.33679   2.35507   2.38544   2.39412   2.40235
 Alpha virt. eigenvalues --    2.41666   2.42674   2.43144   2.43899   2.46410
 Alpha virt. eigenvalues --    2.46774   2.48443   2.51230   2.52072   2.54768
 Alpha virt. eigenvalues --    2.56280   2.60153   2.60698   2.61840   2.64036
 Alpha virt. eigenvalues --    2.65300   2.68150   2.68706   2.69254   2.72337
 Alpha virt. eigenvalues --    2.72987   2.74827   2.76217   2.78482   2.79732
 Alpha virt. eigenvalues --    2.81630   2.84252   2.87045   2.88203   2.89627
 Alpha virt. eigenvalues --    2.92983   2.93640   2.97679   2.99780   3.02294
 Alpha virt. eigenvalues --    3.05153   3.06472   3.11444   3.21316   3.22934
 Alpha virt. eigenvalues --    3.23967   3.26135   3.27797   3.34898   3.39520
 Alpha virt. eigenvalues --    3.43652   3.45612   3.47834   3.48469   3.50296
 Alpha virt. eigenvalues --    3.52469   3.54965   3.57778   3.91577   4.03010
 Alpha virt. eigenvalues --    4.13430   4.16246   4.18651   4.24143   4.36281
 Alpha virt. eigenvalues --    4.43770   4.46103   4.51167   4.57336   4.65254
 Alpha virt. eigenvalues --    4.81906   4.87194
          Condensed to atoms (all electrons):
              1          2          3          4          5          6
     1  C    4.784305   0.396814   0.306709  -0.032363  -0.023985  -0.000245
     2  H    0.396814   0.601756  -0.058155   0.005598  -0.001733   0.007359
     3  C    0.306709  -0.058155   5.374073   0.378456   0.267799  -0.087398
     4  H   -0.032363   0.005598   0.378456   0.569748  -0.031676   0.003245
     5  C   -0.023985  -0.001733   0.267799  -0.031676   4.650972   0.517359
     6  O   -0.000245   0.007359  -0.087398   0.003245   0.517359   8.151060
     7  O    0.215127  -0.034667  -0.056736   0.001819   0.002953   0.000022
     8  H   -0.020549  -0.008386  -0.003930  -0.000398  -0.000091   0.000006
     9  C   -0.035202  -0.005967   0.328709  -0.043952  -0.033343  -0.002070
    10  H    0.004527  -0.000006  -0.032550  -0.002260  -0.004058  -0.000127
    11  H   -0.004897   0.004739  -0.036125   0.005149  -0.006239   0.005958
    12  H   -0.006214   0.000447  -0.032375  -0.003724   0.005618   0.000135
    13  C    0.001048   0.000510  -0.098504  -0.000266   0.313498  -0.090305
    14  C    0.000000   0.000000  -0.000034   0.000004   0.000232  -0.000015
    15  C   -0.000123  -0.000002   0.007973  -0.000100  -0.037692   0.001128
    16  C   -0.000233  -0.000040  -0.004617   0.000710  -0.036670   0.003005
    17  C    0.000006   0.000000   0.000093   0.000236   0.004077  -0.000075
    18  C    0.000002   0.000000  -0.000083  -0.000023   0.005701   0.000890
    19  H   -0.000007  -0.000001   0.000577  -0.000019  -0.007803   0.012023
    20  H   -0.000645  -0.000005   0.002658   0.002373  -0.006560   0.000025
    21  H    0.000000   0.000000   0.000013  -0.000003  -0.000122   0.000000
    22  H    0.000000   0.000000   0.000002   0.000000  -0.000133   0.000004
    23  H    0.000000   0.000000   0.000000   0.000000   0.000005   0.000000
    24  C    0.368115  -0.045373  -0.062996  -0.007513  -0.002641  -0.001228
    25  H   -0.026420  -0.005036   0.005925  -0.000021  -0.000116  -0.000013
    26  H   -0.028920  -0.000985  -0.002862   0.000130   0.004819   0.000675
    27  H   -0.030528   0.005378  -0.008208   0.003713  -0.000281   0.000030
              7          8          9         10         11         12
     1  C    0.215127  -0.020549  -0.035202   0.004527  -0.004897  -0.006214
     2  H   -0.034667  -0.008386  -0.005967  -0.000006   0.004739   0.000447
     3  C   -0.056736  -0.003930   0.328709  -0.032550  -0.036125  -0.032375
     4  H    0.001819  -0.000398  -0.043952  -0.002260   0.005149  -0.003724
     5  C    0.002953  -0.000091  -0.033343  -0.004058  -0.006239   0.005618
     6  O    0.000022   0.000006  -0.002070  -0.000127   0.005958   0.000135
     7  O    8.222506   0.289939  -0.003320   0.000219  -0.000516   0.008302
     8  H    0.289939   0.383758   0.004843  -0.000055   0.000216   0.000485
     9  C   -0.003320   0.004843   5.052786   0.385421   0.384622   0.380225
    10  H    0.000219  -0.000055   0.385421   0.551181  -0.026946  -0.026642
    11  H   -0.000516   0.000216   0.384622  -0.026946   0.553086  -0.028542
    12  H    0.008302   0.000485   0.380225  -0.026642  -0.028542   0.556485
    13  C   -0.000052   0.000001   0.002883   0.001201   0.000408  -0.000188
    14  C    0.000000   0.000000   0.000001  -0.000001   0.000000   0.000000
    15  C    0.000000   0.000000  -0.000421  -0.000012  -0.000004   0.000006
    16  C    0.000000   0.000000  -0.000056   0.000117  -0.000017  -0.000004
    17  C    0.000000   0.000000  -0.000006   0.000000   0.000000   0.000000
    18  C    0.000000   0.000000   0.000003   0.000000   0.000000   0.000000
    19  H    0.000000   0.000000  -0.000034  -0.000012  -0.000004   0.000001
    20  H   -0.000004   0.000000  -0.000025  -0.000013  -0.000001   0.000008
    21  H    0.000000   0.000000   0.000000   0.000000   0.000000   0.000000
    22  H    0.000000   0.000000   0.000000   0.000000   0.000000   0.000000
    23  H    0.000000   0.000000   0.000000   0.000000   0.000000   0.000000
    24  C   -0.059376   0.006449   0.005228  -0.000128   0.000026   0.000031
    25  H    0.002802  -0.000001  -0.000159   0.000002   0.000000  -0.000006
    26  H    0.003095  -0.000260   0.000023  -0.000002   0.000004  -0.000008
    27  H    0.000589  -0.000148  -0.000032  -0.000001   0.000006   0.000019
             13         14         15         16         17         18
     1  C    0.001048   0.000000  -0.000123  -0.000233   0.000006   0.000002
     2  H    0.000510   0.000000  -0.000002  -0.000040   0.000000   0.000000
     3  C   -0.098504  -0.000034   0.007973  -0.004617   0.000093  -0.000083
     4  H   -0.000266   0.000004  -0.000100   0.000710   0.000236  -0.000023
     5  C    0.313498   0.000232  -0.037692  -0.036670   0.004077   0.005701
     6  O   -0.090305  -0.000015   0.001128   0.003005  -0.000075   0.000890
     7  O   -0.000052   0.000000   0.000000   0.000000   0.000000   0.000000
     8  H    0.000001   0.000000   0.000000   0.000000   0.000000   0.000000
     9  C    0.002883   0.000001  -0.000421  -0.000056  -0.000006   0.000003
    10  H    0.001201  -0.000001  -0.000012   0.000117   0.000000   0.000000
    11  H    0.000408   0.000000  -0.000004  -0.000017   0.000000   0.000000
    12  H   -0.000188   0.000000   0.000006  -0.000004   0.000000   0.000000
    13  C    5.024268  -0.031405   0.503977   0.521169  -0.030654  -0.035186
    14  C   -0.031405   4.862794  -0.046225  -0.049639   0.545114   0.535447
    15  C    0.503977  -0.046225   4.943004  -0.062639  -0.037634   0.510963
    16  C    0.521169  -0.049639  -0.062639   4.940069   0.523107  -0.037493
    17  C   -0.030654   0.545114  -0.037634   0.523107   4.885198  -0.041338
    18  C   -0.035186   0.535447   0.510963  -0.037493  -0.041338   4.902918
    19  H   -0.043991   0.004102   0.380445   0.004657   0.000172  -0.035464
    20  H   -0.036682   0.003958   0.004332   0.378133  -0.035055   0.000231
    21  H    0.002981  -0.036895   0.000648  -0.033275   0.380999   0.003890
    22  H    0.003302  -0.037495  -0.034214   0.000611   0.003918   0.381847
    23  H    0.000453   0.381952   0.003987   0.004222  -0.036749  -0.036879
    24  C   -0.000229   0.000000  -0.000001  -0.000345  -0.000013   0.000000
    25  H    0.000013   0.000000   0.000000   0.000026   0.000000   0.000000
    26  H    0.000193   0.000000  -0.000037   0.000451   0.000024  -0.000002
    27  H    0.000114   0.000000   0.000009  -0.000656  -0.000008  -0.000001
             19         20         21         22         23         24
     1  C   -0.000007  -0.000645   0.000000   0.000000   0.000000   0.368115
     2  H   -0.000001  -0.000005   0.000000   0.000000   0.000000  -0.045373
     3  C    0.000577   0.002658   0.000013   0.000002   0.000000  -0.062996
     4  H   -0.000019   0.002373  -0.000003   0.000000   0.000000  -0.007513
     5  C   -0.007803  -0.006560  -0.000122  -0.000133   0.000005  -0.002641
     6  O    0.012023   0.000025   0.000000   0.000004   0.000000  -0.001228
     7  O    0.000000  -0.000004   0.000000   0.000000   0.000000  -0.059376
     8  H    0.000000   0.000000   0.000000   0.000000   0.000000   0.006449
     9  C   -0.000034  -0.000025   0.000000   0.000000   0.000000   0.005228
    10  H   -0.000012  -0.000013   0.000000   0.000000   0.000000  -0.000128
    11  H   -0.000004  -0.000001   0.000000   0.000000   0.000000   0.000026
    12  H    0.000001   0.000008   0.000000   0.000000   0.000000   0.000031
    13  C   -0.043991  -0.036682   0.002981   0.003302   0.000453  -0.000229
    14  C    0.004102   0.003958  -0.036895  -0.037495   0.381952   0.000000
    15  C    0.380445   0.004332   0.000648  -0.034214   0.003987  -0.000001
    16  C    0.004657   0.378133  -0.033275   0.000611   0.004222  -0.000345
    17  C    0.000172  -0.035055   0.380999   0.003918  -0.036749  -0.000013
    18  C   -0.035464   0.000231   0.003890   0.381847  -0.036879   0.000000
    19  H    0.526430  -0.000110   0.000014  -0.004251  -0.000138   0.000000
    20  H   -0.000110   0.521921  -0.004265   0.000013  -0.000143   0.000963
    21  H    0.000014  -0.004265   0.531099  -0.000145  -0.004504   0.000000
    22  H   -0.004251   0.000013  -0.000145   0.531229  -0.004463   0.000000
    23  H   -0.000138  -0.000143  -0.004504  -0.004463   0.531951   0.000000
    24  C    0.000000   0.000963   0.000000   0.000000   0.000000   5.080740
    25  H    0.000000  -0.000019   0.000000   0.000000   0.000000   0.377391
    26  H   -0.000002  -0.000057   0.000000   0.000000   0.000000   0.376872
    27  H    0.000000   0.001816  -0.000001   0.000000   0.000000   0.380965
             25         26         27
     1  C   -0.026420  -0.028920  -0.030528
     2  H   -0.005036  -0.000985   0.005378
     3  C    0.005925  -0.002862  -0.008208
     4  H   -0.000021   0.000130   0.003713
     5  C   -0.000116   0.004819  -0.000281
     6  O   -0.000013   0.000675   0.000030
     7  O    0.002802   0.003095   0.000589
     8  H   -0.000001  -0.000260  -0.000148
     9  C   -0.000159   0.000023  -0.000032
    10  H    0.000002  -0.000002  -0.000001
    11  H    0.000000   0.000004   0.000006
    12  H   -0.000006  -0.000008   0.000019
    13  C    0.000013   0.000193   0.000114
    14  C    0.000000   0.000000   0.000000
    15  C    0.000000  -0.000037   0.000009
    16  C    0.000026   0.000451  -0.000656
    17  C    0.000000   0.000024  -0.000008
    18  C    0.000000  -0.000002  -0.000001
    19  H    0.000000  -0.000002   0.000000
    20  H   -0.000019  -0.000057   0.001816
    21  H    0.000000   0.000000  -0.000001
    22  H    0.000000   0.000000   0.000000
    23  H    0.000000   0.000000   0.000000
    24  C    0.377391   0.376872   0.380965
    25  H    0.553602  -0.023754  -0.030315
    26  H   -0.023754   0.548342  -0.026632
    27  H   -0.030315  -0.026632   0.560435
 Mulliken atomic charges:
              1
     1  C    0.133678
     2  H    0.137755
     3  C   -0.188414
     4  H    0.151135
     5  C    0.420110
     6  O   -0.521446
     7  O   -0.592700
     8  H    0.348122
     9  C   -0.420160
    10  H    0.150145
    11  H    0.149078
    12  H    0.145945
    13  C   -0.008558
    14  C   -0.131896
    15  C   -0.137369
    16  C   -0.150592
    17  C   -0.161416
    18  C   -0.155423
    19  H    0.163415
    20  H    0.167153
    21  H    0.159565
    22  H    0.159775
    23  H    0.160306
    24  C   -0.416937
    25  H    0.146099
    26  H    0.148894
    27  H    0.143738
 Sum of Mulliken atomic charges =   0.00000
 Mulliken charges with hydrogens summed into heavy atoms:
              1
     1  C    0.271433
     3  C   -0.037279
     5  C    0.420110
     6  O   -0.521446
     7  O   -0.244578
     9  C    0.025007
    13  C   -0.008558
    14  C    0.028410
    15  C    0.026047
    16  C    0.016561
    17  C   -0.001851
    18  C    0.004352
    24  C    0.021794
 Sum of Mulliken charges with hydrogens summed into heavy atoms =   0.00000
 Electronic spatial extent (au):  <R**2>=           2833.9491
 Charge=              0.0000 electrons
 Dipole moment (field-independent basis, Debye):
    X=              1.2857    Y=              0.8753    Z=              1.8370  Tot=              2.4070
 Quadrupole moment (field-independent basis, Debye-Ang):
   XX=            -64.4029   YY=            -77.4632   ZZ=            -79.3958
   XY=              6.2561   XZ=             -0.6331   YZ=             -2.1911
 Traceless Quadrupole moment (field-independent basis, Debye-Ang):
   XX=              9.3511   YY=             -3.7092   ZZ=             -5.6418
   XY=              6.2561   XZ=             -0.6331   YZ=             -2.1911
 Octapole moment (field-independent basis, Debye-Ang**2):
  XXX=             11.5953  YYY=              8.0927  ZZZ=              0.2118  XYY=             11.8779
  XXY=            -27.9576  XXZ=              1.5480  XZZ=            -14.9359  YZZ=              3.1938
  YYZ=              7.6365  XYZ=             14.5262
 Hexadecapole moment (field-independent basis, Debye-Ang**3):
 XXXX=          -2310.0818 YYYY=           -647.3774 ZZZZ=           -366.6683 XXXY=            117.6486
 XXXZ=            -22.4651 YYYX=              0.3397 YYYZ=             12.3982 ZZZX=             -8.6744
 ZZZY=             -0.5616 XXYY=           -545.2006 XXZZ=           -514.4672 YYZZ=           -174.5860
 XXYZ=             11.9805 YYXZ=              5.6339 ZZXY=             -4.6885
 N-N= 7.790869497099D+02 E-N=-2.902703195673D+03  KE= 5.726155295684D+02
 1\1\GINC-COMPUTE-8-13\SP\RmPW1PW91\6-31G(d,p)\C11H14O2\FBRUNO.IQUIR\21
 -Dec-2021\0\\# mPW1PW91/6-31g** scrf=(pcm,solvent=chloroform,smd,dovac
 uum) nmr\\comment\\0,1\C,0,-1.315920243,0.535598841,1.988333125\H,0,-2
 .394752314,0.484730128,1.797234311\C,0,-0.559768181,-0.543134432,1.194
 60898\H,0,0.50662782,-0.485463778,1.428138858\C,0,-0.822518742,-0.3691
 67088,-0.29584943\O,0,-1.965307014,-0.434785321,-0.750382916\O,0,-1.10
 7838803,0.336987511,3.389552355\H,0,-1.724037875,-0.358768586,3.678567
 924\C,0,-1.002691393,-1.957254024,1.587814175\H,0,-0.52417549,-2.70609
 3194,0.946665554\H,0,-2.086715941,-2.080011693,1.486290189\H,0,-0.7299
 14171,-2.183984351,2.62342313\C,0,0.31619635,-0.149921431,-1.23616497\
 C,0,2.376334603,0.226218533,-3.097943415\C,0,0.131770172,-0.498675229,
 -2.581755333\C,0,1.536236555,0.405437924,-0.834177219\C,0,2.563398667,
 0.588783277,-1.764848918\C,0,1.159864658,-0.314670707,-3.508024244\H,0
 ,-0.816341634,-0.91770158,-2.914812994\H,0,1.712512658,0.725777562,0.1
 87741583\H,0,3.509949127,1.022600306,-1.450281207\H,0,1.008312086,-0.5
 90576028,-4.548706477\H,0,3.176704986,0.37253877,-3.819373033\C,0,-0.8
 30491526,1.946969045,1.672405412\H,0,-1.347384763,2.676094621,2.306390
 656\H,0,-1.008700315,2.217104286,0.627771339\H,0,0.238650723,2.0513666
 36,1.887382565\\Version=EM64L-G09RevC.01\State=1-A\HF=-577.9465282\RMS
 D=6.592e-09\Dipole=0.9063413,-0.2669755,-0.0639318\Quadrupole=0.366467
 1,-1.9090471,1.5425799,2.3330592,-6.7172125,-2.7627294\PG=C01 [X(C11H1
 4O2)]\\@


 EXPERIENCE IS THE FRUIT OF THE TREE OF ERRORS.
 Job cpu time:  0 days  0 hours 22 minutes 31.7 seconds.
 File lengths (MBytes):  RWF=     81 Int=      0 D2E=      0 Chk=      5 Scr=      1
 Normal termination of Gaussian 09 at Tue Dec 21 07:59:33 2021.
