 Entering Gaussian System, Link 0=g09
 Input=/home/fbruno.iquir/2_val_run/2a_004_MPW_A_SMD.gjc
 Output=/home/fbruno.iquir/2_val_run/2a_004_MPW_A_SMD.log
 Initial command:
 /share/apps/Gaussian09/EM64T.SSE4.2-enabled/g09/l1.exe /tmp/Gau-50338.inp -scrdir=/tmp/
 Entering Link 1 = /share/apps/Gaussian09/EM64T.SSE4.2-enabled/g09/l1.exe PID=     50339.
  
 Copyright (c) 1988,1990,1992,1993,1995,1998,2003,2009,2011,
            Gaussian, Inc.  All Rights Reserved.
  
 This is part of the Gaussian(R) 09 program.  It is based on
 the Gaussian(R) 03 system (copyright 2003, Gaussian, Inc.),
 the Gaussian(R) 98 system (copyright 1998, Gaussian, Inc.),
 the Gaussian(R) 94 system (copyright 1995, Gaussian, Inc.),
 the Gaussian 92(TM) system (copyright 1992, Gaussian, Inc.),
 the Gaussian 90(TM) system (copyright 1990, Gaussian, Inc.),
 the Gaussian 88(TM) system (copyright 1988, Gaussian, Inc.),
 the Gaussian 86(TM) system (copyright 1986, Carnegie Mellon
 University), and the Gaussian 82(TM) system (copyright 1983,
 Carnegie Mellon University). Gaussian is a federally registered
 trademark of Gaussian, Inc.
  
 This software contains proprietary and confidential information,
 including trade secrets, belonging to Gaussian, Inc.
  
 This software is provided under written license and may be
 used, copied, transmitted, or stored only in accord with that
 written license.
  
 The following legend is applicable only to US Government
 contracts under FAR:
  
                    RESTRICTED RIGHTS LEGEND
  
 Use, reproduction and disclosure by the US Government is
 subject to restrictions as set forth in subparagraphs (a)
 and (c) of the Commercial Computer Software - Restricted
 Rights clause in FAR 52.227-19.
  
 Gaussian, Inc.
 340 Quinnipiac St., Bldg. 40, Wallingford CT 06492
  
  
 ---------------------------------------------------------------
 Warning -- This program may not be used in any manner that
 competes with the business of Gaussian, Inc. or will provide
 assistance to any competitor of Gaussian, Inc.  The licensee
 of this program is prohibited from giving any competitor of
 Gaussian, Inc. access to this program.  By using this program,
 the user acknowledges that Gaussian, Inc. is engaged in the
 business of creating and licensing software in the field of
 computational chemistry and represents and warrants to the
 licensee that it is not a competitor of Gaussian, Inc. and that
 it will not use this program in any manner prohibited above.
 ---------------------------------------------------------------
  

 Cite this work as:
 Gaussian 09, Revision C.01,
 M. J. Frisch, G. W. Trucks, H. B. Schlegel, G. E. Scuseria, 
 M. A. Robb, J. R. Cheeseman, G. Scalmani, V. Barone, B. Mennucci, 
 G. A. Petersson, H. Nakatsuji, M. Caricato, X. Li, H. P. Hratchian, 
 A. F. Izmaylov, J. Bloino, G. Zheng, J. L. Sonnenberg, M. Hada, 
 M. Ehara, K. Toyota, R. Fukuda, J. Hasegawa, M. Ishida, T. Nakajima, 
 Y. Honda, O. Kitao, H. Nakai, T. Vreven, J. A. Montgomery, Jr., 
 J. E. Peralta, F. Ogliaro, M. Bearpark, J. J. Heyd, E. Brothers, 
 K. N. Kudin, V. N. Staroverov, T. Keith, R. Kobayashi, J. Normand, 
 K. Raghavachari, A. Rendell, J. C. Burant, S. S. Iyengar, J. Tomasi, 
 M. Cossi, N. Rega, J. M. Millam, M. Klene, J. E. Knox, J. B. Cross, 
 V. Bakken, C. Adamo, J. Jaramillo, R. Gomperts, R. E. Stratmann, 
 O. Yazyev, A. J. Austin, R. Cammi, C. Pomelli, J. W. Ochterski, 
 R. L. Martin, K. Morokuma, V. G. Zakrzewski, G. A. Voth, 
 P. Salvador, J. J. Dannenberg, S. Dapprich, A. D. Daniels, 
 O. Farkas, J. B. Foresman, J. V. Ortiz, J. Cioslowski, 
 and D. J. Fox, Gaussian, Inc., Wallingford CT, 2010.
 
 ******************************************
 Gaussian 09:  EM64L-G09RevC.01 23-Sep-2011
                21-Dec-2021 
 ******************************************
 %nprocshared=4
 Will use up to    4 processors via shared memory.
 -----------------------------------------------------------------
 # mPW1PW91/6-31g** scrf=(pcm,solvent=chloroform,smd,dovacuum) nmr
 -----------------------------------------------------------------
 1/38=1/1;
 2/12=2,17=6,18=5,40=1/2;
 3/5=1,6=6,7=101,11=2,16=1,25=1,30=1,70=32101,72=7,74=-7/1,2,8,3;
 4//1;
 5/5=2,38=5,53=7/2;
 8/6=1,10=90,11=11/1;
 10/13=100,45=16/2;
 6/7=2,8=2,9=2,10=2,28=1/1;
 99/9=1/99;
 -------
 comment
 -------
 Charge =  0 Multiplicity = 1
 Symbolic Z-Matrix:
 6                    -1.36473   0.48851   1.99695 
 1                    -2.44048   0.36421   1.82429 
 6                    -0.56488  -0.53353   1.17297 
 1                     0.49474  -0.44504   1.4265 
 6                    -0.81141  -0.31621  -0.31408 
 8                    -1.95207  -0.2899   -0.77731 
 8                    -1.11642   0.25062   3.38615 
 1                    -1.72823   0.81612   3.88951 
 6                    -0.97021  -1.97175   1.51333 
 1                    -0.43146  -2.68603   0.88067 
 1                    -2.04202  -2.13366   1.35325 
 1                    -0.74221  -2.21168   2.5568 
 6                     0.34496  -0.16999  -1.24471 
 6                     2.44117   0.07556  -3.0853 
 6                     0.16457  -0.55188  -2.58139 
 6                     1.57768   0.35471  -0.84072 
 6                     2.62336   0.47226  -1.76104 
 6                     1.21127  -0.43331  -3.49723 
 1                    -0.79425  -0.94588  -2.91412 
 1                     1.74821   0.7006    0.17393 
 1                     3.58074   0.88105  -1.44594 
 1                     1.06417  -0.73523  -4.53129 
 1                     3.25621   0.17032  -3.79888 
 6                    -0.9649    1.9311    1.70022 
 1                    -1.50729   2.61983   2.35739 
 1                    -1.17811   2.21055   0.66463 
 1                     0.10158   2.08864   1.89542 
 
                          Input orientation:                          
 ---------------------------------------------------------------------
 Center     Atomic      Atomic             Coordinates (Angstroms)
 Number     Number       Type             X           Y           Z
 ---------------------------------------------------------------------
      1          6           0       -1.364732    0.488509    1.996949
      2          1           0       -2.440476    0.364214    1.824291
      3          6           0       -0.564884   -0.533525    1.172974
      4          1           0        0.494738   -0.445040    1.426502
      5          6           0       -0.811407   -0.316212   -0.314080
      6          8           0       -1.952071   -0.289898   -0.777313
      7          8           0       -1.116416    0.250619    3.386149
      8          1           0       -1.728232    0.816119    3.889509
      9          6           0       -0.970207   -1.971755    1.513331
     10          1           0       -0.431462   -2.686030    0.880675
     11          1           0       -2.042017   -2.133663    1.353249
     12          1           0       -0.742205   -2.211681    2.556797
     13          6           0        0.344958   -0.169987   -1.244707
     14          6           0        2.441169    0.075559   -3.085303
     15          6           0        0.164568   -0.551877   -2.581390
     16          6           0        1.577683    0.354710   -0.840725
     17          6           0        2.623361    0.472263   -1.761045
     18          6           0        1.211273   -0.433307   -3.497232
     19          1           0       -0.794247   -0.945884   -2.914117
     20          1           0        1.748212    0.700600    0.173929
     21          1           0        3.580739    0.881047   -1.445938
     22          1           0        1.064165   -0.735228   -4.531288
     23          1           0        3.256214    0.170321   -3.798879
     24          6           0       -0.964902    1.931101    1.700218
     25          1           0       -1.507291    2.619831    2.357392
     26          1           0       -1.178106    2.210550    0.664634
     27          1           0        0.101576    2.088643    1.895418
 ---------------------------------------------------------------------
                    Distance matrix (angstroms):
                    1          2          3          4          5
     1  C    0.000000
     2  H    1.096579   0.000000
     3  C    1.537286   2.178990   0.000000
     4  H    2.157442   3.070605   1.093118   0.000000
     5  C    2.508905   2.772990   1.522934   2.179963   0.000000
     6  O    2.940649   2.726673   2.405673   3.296626   1.231419
     7  O    1.431128   2.050717   2.411890   2.630585   3.755798
     8  H    1.954800   2.230838   3.248767   3.549440   4.448922
     9  C    2.538195   2.777613   1.532525   2.117655   2.470925
    10  H    3.492100   3.772338   2.176353   2.485520   2.681014
    11  H    2.783676   2.572944   2.185145   3.048268   2.756359
    12  H    2.827012   3.171108   2.182342   2.434875   3.440861
    13  C    3.723573   4.178848   2.608669   2.689507   1.491520
    14  C    6.362759   6.929495   5.247881   4.941255   4.290969
    15  C    4.937849   5.199567   3.824615   4.022887   2.479669
    16  C    4.090001   4.821618   3.071569   2.636794   2.536778
    17  C    5.479751   6.205542   4.448031   3.941184   3.809598
    18  C    6.137718   6.503070   4.997559   4.975612   3.773248
    19  H    5.147962   5.184490   4.114238   4.555579   2.675252
    20  H    3.613697   4.514639   2.805632   2.110125   2.797090
    21  H    6.038646   6.871430   5.103519   4.419595   4.691000
    22  H    7.072126   7.340618   5.935746   5.991971   4.634457
    23  H    7.419300   8.006866   6.309953   5.942139   5.378297
    24  C    1.526101   2.155887   2.551937   2.802056   3.021816
    25  H    2.166281   2.498568   3.497804   3.777316   4.030058
    26  H    2.185250   2.519393   2.857342   3.229708   2.734388
    27  H    2.172740   3.072580   2.800333   2.606532   3.390981
                    6          7          8          9         10
     6  O    0.000000
     7  O    4.280758   0.000000
     8  H    4.801313   0.973386   0.000000
     9  C    3.006618   2.909942   3.740730   0.000000
    10  H    3.286734   3.920518   4.795804   1.095759   0.000000
    11  H    2.819016   3.267142   3.902857   1.095727   1.767009
    12  H    4.034020   2.625029   3.451948   1.094701   1.769449
    13  C    2.347165   4.874151   5.624118   3.547225   3.383866
    14  C    4.976036   7.386931   8.159678   6.080824   5.622043
    15  C    2.793472   6.156008   6.879436   4.480012   4.110444
    16  C    3.588691   5.013528   5.789394   4.176812   4.030630
    17  C    4.741645   6.366212   7.140263   5.441369   5.126933
    18  C    4.174359   7.298412   8.047714   5.677272   5.190319
    19  H    2.517302   6.420962   7.089874   4.548150   4.190485
    20  H    3.946903   4.327463   5.089651   4.040456   4.088977
    21  H    5.694748   6.768291   7.527043   6.132444   5.851062
    22  H    4.836148   8.271193   9.006330   6.496545   5.944062
    23  H    6.038865   8.411359   9.185481   7.118336   6.607263
    24  C    3.470662   2.385234   2.572713   3.907331   4.719545
    25  H    4.300085   2.612334   2.376884   4.699315   5.611618
    26  H    2.988390   3.354367   3.556248   4.272609   4.957887
    27  H    4.125339   2.661600   2.990638   4.216816   4.910329
                   11         12         13         14         15
    11  H    0.000000
    12  H    1.773168   0.000000
    13  C    4.037704   4.449930   0.000000
    14  C    6.684337   6.870126   2.800390   0.000000
    15  C    4.780423   5.475230   1.401820   2.414647   0.000000
    16  C    4.909964   4.848855   1.399328   2.421087   2.418410
    17  C    6.185097   6.097077   2.422851   1.394356   2.787022
    18  C    6.082949   6.605297   2.427696   1.393296   1.395857
    19  H    4.601973   5.615679   2.164887   3.397141   1.088703
    20  H    4.877466   4.512385   2.177056   3.390200   3.415905
    21  H    6.967016   6.653924   3.408143   2.152893   3.874628
    22  H    6.799394   7.462160   3.411505   2.155084   2.155226
    23  H    7.741060   7.877557   3.887803   1.087414   3.400312
    24  C    4.219345   4.236268   3.847452   6.159997   5.076716
    25  H    4.887734   4.895777   4.918234   7.189338   6.102983
    26  H    4.482491   4.829743   3.410611   5.631995   4.468830
    27  H    4.766215   4.431950   3.875698   5.859504   5.197896
                   16         17         18         19         20
    16  C    0.000000
    17  C    1.397945   0.000000
    18  C    2.795042   2.414207   0.000000
    19  H    3.408306   3.875662   2.150550   0.000000
    20  H    1.085469   2.135918   3.879623   4.325625   0.000000
    21  H    2.157672   1.087644   3.398485   4.963237   2.452485
    22  H    3.882257   3.400496   1.087230   2.472512   4.966748
    23  H    3.406191   2.155096   2.153402   4.293594   4.282344
    24  C    3.925065   5.194630   6.110618   5.440427   3.347339
    25  H    4.987564   6.215775   7.140649   6.404027   4.364546
    26  H    3.647551   4.832878   5.479073   4.787263   3.329276
    27  H    3.559761   4.726712   6.055769   5.756951   2.757100
                   21         22         23         24         25
    21  H    0.000000
    22  H    4.297077   0.000000
    23  H    2.479270   2.482240   0.000000
    24  C    5.627056   7.075174   7.152498   0.000000
    25  H    6.586102   8.082247   8.160315   1.095634   0.000000
    26  H    5.372960   6.379890   6.614278   1.093610   1.772372
    27  H    4.972678   7.085434   6.786510   1.095582   1.756142
                   26         27
    26  H    0.000000
    27  H    1.779685   0.000000
 Stoichiometry    C11H14O2
 Framework group  C1[X(C11H14O2)]
 Deg. of freedom    75
 Full point group                 C1      NOp   1
 Largest Abelian subgroup         C1      NOp   1
 Largest concise Abelian subgroup C1      NOp   1
                         Standard orientation:                         
 ---------------------------------------------------------------------
 Center     Atomic      Atomic             Coordinates (Angstroms)
 Number     Number       Type             X           Y           Z
 ---------------------------------------------------------------------
      1          6           0       -2.564995    0.247045   -0.337694
      2          1           0       -2.954561   -0.587157   -0.933372
      3          6           0       -1.406486   -0.223798    0.556404
      4          1           0       -1.093214    0.603091    1.199071
      5          6           0       -0.258967   -0.740629   -0.301157
      6          8           0       -0.437440   -1.612255   -1.152512
      7          8           0       -3.626391    0.717455    0.499134
      8          1           0       -4.393841    0.885655   -0.075505
      9          6           0       -1.842543   -1.355603    1.493157
     10          1           0       -0.994175   -1.717054    2.085031
     11          1           0       -2.239332   -2.208828    0.931748
     12          1           0       -2.616172   -1.017741    2.190090
     13          6           0        1.121189   -0.216606   -0.088547
     14          6           0        3.756283    0.667427    0.253430
     15          6           0        2.198430   -1.051356   -0.416941
     16          6           0        1.373453    1.072399    0.394096
     17          6           0        2.690018    1.509266    0.567461
     18          6           0        3.511612   -0.611603   -0.242042
     19          1           0        2.017560   -2.050581   -0.809511
     20          1           0        0.570299    1.766068    0.622154
     21          1           0        2.884709    2.511702    0.941876
     22          1           0        4.341425   -1.266671   -0.495743
     23          1           0        4.779092    1.011378    0.387693
     24          6           0       -2.169500    1.393230   -1.264424
     25          1           0       -3.039734    1.743171   -1.830680
     26          1           0       -1.396890    1.094705   -1.978524
     27          1           0       -1.805480    2.252035   -0.689757
 ---------------------------------------------------------------------
 Rotational constants (GHZ):      1.6131144      0.4455479      0.4108223
 Standard basis: 6-31G(d,p) (6D, 7F)
 There are   265 symmetry adapted basis functions of A   symmetry.
 Integral buffers will be    131072 words long.
 Raffenetti 2 integral format.
 Two-electron integral symmetry is turned on.
   265 basis functions,   462 primitive gaussians,   265 cartesian basis functions
    48 alpha electrons       48 beta electrons
       nuclear repulsion energy       778.0333722504 Hartrees.
 NAtoms=   27 NActive=   27 NUniq=   27 SFac= 1.00D+00 NAtFMM=   60 NAOKFM=F Big=F
 ------------------------------------------------------------------------------
 Polarizable Continuum Model (PCM)
 =================================
 Model                : C-PCM.
 Atomic radii         : SMD-Coulomb.
 Polarization charges : Total charges.
 Charge compensation  : None.
 Solution method      : Matrix inversion.
 Cavity type          : VdW (van der Waals Surface) (Alpha=1.000).
 Cavity algorithm     : GePol (No added spheres)
                        Default sphere list used, NSphG=   27.
                        Lebedev-Laikov grids with approx.  5.0 points / Ang**2.
                        Smoothing algorithm: Karplus/York (Gamma=1.0000).
                        Polarization charges: spherical gaussians, with
                                              point-specific exponents (IZeta= 3).
                        Self-potential: point-specific (ISelfS= 7).
                        Self-field    : sphere-specific E.n sum rule (ISelfD= 2).
 Solvent              : Chloroform, Eps=   4.711300 Eps(inf)=   2.090627
 ------------------------------------------------------------------------------
 ------------------------------------------------------------------------------
 Atomic radii for non-electrostatic terms: SMD-CDS.
 ------------------------------------------------------------------------------
 Nuclear repulsion after PCM non-electrostatic terms =      778.0267715825 Hartrees.
 One-electron integrals computed using PRISM.
 NBasis=   265 RedAO= T  NBF=   265
 NBsUse=   265 1.00D-06 NBFU=   265
 Harris functional with IExCor=  908 diagonalized for initial guess.
 ExpMin= 1.61D-01 ExpMax= 5.48D+03 ExpMxC= 8.25D+02 IAcc=1 IRadAn=         1 AccDes= 0.00D+00
 HarFok:  IExCor=  908 AccDes= 0.00D+00 IRadAn=         1 IDoV= 1
 ScaDFX=  1.000000  1.000000  1.000000  1.000000
 FoFCou: FMM=F IPFlag=           0 FMFlag=      100000 FMFlg1=           0
         NFxFlg=           0 DoJE=T BraDBF=F KetDBF=T FulRan=T
         Omega=  0.000000  0.000000  1.000000  0.000000  0.000000 ICntrl=     500 IOpCl=  0
         NMat0=    1 NMatS0=    1 NMatT0=    0 NMatD0=    1 NMtDS0=    0 NMtDT0=    0
         I1Cent=           4 NGrid=           0.
 Petite list used in FoFCou.
 Initial guess orbital symmetries:
       Occupied  (A) (A) (A) (A) (A) (A) (A) (A) (A) (A) (A) (A)
                 (A) (A) (A) (A) (A) (A) (A) (A) (A) (A) (A) (A)
                 (A) (A) (A) (A) (A) (A) (A) (A) (A) (A) (A) (A)
                 (A) (A) (A) (A) (A) (A) (A) (A) (A) (A) (A) (A)
       Virtual   (A) (A) (A) (A) (A) (A) (A) (A) (A) (A) (A) (A)
                 (A) (A) (A) (A) (A) (A) (A) (A) (A) (A) (A) (A)
                 (A) (A) (A) (A) (A) (A) (A) (A) (A) (A) (A) (A)
                 (A) (A) (A) (A) (A) (A) (A) (A) (A) (A) (A) (A)
                 (A) (A) (A) (A) (A) (A) (A) (A) (A) (A) (A) (A)
                 (A) (A) (A) (A) (A) (A) (A) (A) (A) (A) (A) (A)
                 (A) (A) (A) (A) (A) (A) (A) (A) (A) (A) (A) (A)
                 (A) (A) (A) (A) (A) (A) (A) (A) (A) (A) (A) (A)
                 (A) (A) (A) (A) (A) (A) (A) (A) (A) (A) (A) (A)
                 (A) (A) (A) (A) (A) (A) (A) (A) (A) (A) (A) (A)
                 (A) (A) (A) (A) (A) (A) (A) (A) (A) (A) (A) (A)
                 (A) (A) (A) (A) (A) (A) (A) (A) (A) (A) (A) (A)
                 (A) (A) (A) (A) (A) (A) (A) (A) (A) (A) (A) (A)
                 (A) (A) (A) (A) (A) (A) (A) (A) (A) (A) (A) (A)
                 (A) (A) (A) (A) (A) (A) (A) (A) (A) (A) (A) (A)
                 (A) (A) (A) (A) (A) (A) (A) (A) (A) (A) (A) (A)
                 (A) (A) (A) (A) (A) (A) (A) (A) (A) (A) (A) (A)
                 (A) (A) (A) (A) (A) (A) (A) (A) (A) (A) (A) (A)
                 (A)
 The electronic state of the initial guess is 1-A.
 Requested convergence on RMS density matrix=1.00D-08 within 128 cycles.
 Requested convergence on MAX density matrix=1.00D-06.
 Requested convergence on             energy=1.00D-06.
 No special actions if energy rises.
 Error on total polarization charges =  0.02757
 SCF Done:  E(RmPW1PW91) =  -577.945393176     A.U. after   12 cycles
             Convg  =    0.6042D-08             -V/T =  2.0093
 SMD-CDS (non-electrostatic) energy       (kcal/mol) =      -4.14
 (included in total energy above)
 Range of M.O.s used for correlation:     1   265
 NBasis=   265 NAE=    48 NBE=    48 NFC=     0 NFV=     0
 NROrb=    265 NOA=    48 NOB=    48 NVA=   217 NVB=   217
 NEqPCM:  Using equilibrium solvation (IEInf=0, Eps=   4.7113, EpsInf=   2.0906)
          Differentiating once with respect to magnetic field using GIAOs.
          Electric field/nuclear overlap derivatives assumed to be zero.
 FoFCou: FMM=F IPFlag=           0 FMFlag=    10101102 FMFlg1=           0
         NFxFlg=    40000000 DoJE=F BraDBF=F KetDBF=T FulRan=T
         Omega=  0.000000  0.000000  1.000000  0.000000  0.000000 ICntrl=    6100 IOpCl=  0
         NMat0=    1 NMatS0=    1 NMatT0=    0 NMatD0=    1 NMtDS0=    0 NMtDT0=    0
         I1Cent=           7 NGrid=        2049.
 Symmetry not used in FoFCou.
          There are     3 degrees of freedom in the 1st order CPHF.  IDoFFX=0.
      3 vectors produced by pass  0 Test12= 3.47D-13 3.33D-08 XBig12= 2.54D+01 1.12D+00.
 AX will form     3 AO Fock derivatives at one time.
      3 vectors produced by pass  1 Test12= 3.47D-13 3.33D-08 XBig12= 1.63D-01 2.42D-01.
      3 vectors produced by pass  2 Test12= 3.47D-13 3.33D-08 XBig12= 7.64D-04 8.55D-03.
      3 vectors produced by pass  3 Test12= 3.47D-13 3.33D-08 XBig12= 2.99D-06 3.88D-04.
      3 vectors produced by pass  4 Test12= 3.47D-13 3.33D-08 XBig12= 1.06D-08 2.35D-05.
      3 vectors produced by pass  5 Test12= 3.47D-13 3.33D-08 XBig12= 1.93D-11 1.48D-06.
      2 vectors produced by pass  6 Test12= 3.47D-13 3.33D-08 XBig12= 8.19D-14 9.73D-08.
 Inverted reduced A of dimension    20 with in-core refinement.
 Calculating GIAO nuclear magnetic shielding tensors.
 SCF GIAO Magnetic shielding tensor (ppm):
      1  C    Isotropic =   125.0994   Anisotropy =    42.4300
   XX=   131.8605   YX=   -17.8012   ZX=   -14.0729
   XY=   -16.9660   YY=   120.2578   ZY=     2.9978
   XZ=   -17.9798   YZ=     8.4721   ZZ=   123.1800
   Eigenvalues:   105.6420   116.2702   153.3861
      2  H    Isotropic =    27.4093   Anisotropy =     5.5239
   XX=    26.5864   YX=    -0.3782   ZX=    -0.7439
   XY=     0.1902   YY=    28.6606   ZY=     2.5904
   XZ=     0.9118   YZ=     3.7324   ZZ=    26.9808
   Eigenvalues:    24.5422    26.5938    31.0919
      3  C    Isotropic =   147.6539   Anisotropy =    31.9711
   XX=   156.9266   YX=   -18.3766   ZX=    -1.5063
   XY=   -16.3749   YY=   142.7289   ZY=    -7.3526
   XZ=    -2.2578   YZ=    -8.9546   ZZ=   143.3062
   Eigenvalues:   127.2095   146.7843   168.9679
      4  H    Isotropic =    27.9891   Anisotropy =     7.7622
   XX=    29.9395   YX=     2.5448   ZX=     0.5274
   XY=     4.6422   YY=    29.0804   ZY=    -0.1122
   XZ=     0.3640   YZ=     0.7215   ZZ=    24.9473
   Eigenvalues:    24.9078    25.8955    33.1639
      5  C    Isotropic =    -9.6077   Anisotropy =   176.3807
   XX=   -79.6104   YX=   -30.8622   ZX=    11.0583
   XY=   -26.7240   YY=    38.2403   ZY=   -65.0906
   XZ=    15.5669   YZ=   -87.9456   ZZ=    12.5470
   Eigenvalues:   -86.6102   -50.1924   107.9794
      6  O    Isotropic =  -239.3328   Anisotropy =   947.7001
   XX=  -308.8051   YX=  -131.9858   ZX=    44.5958
   XY=  -120.6261   YY=  -150.3825   ZY=  -532.7936
   XZ=    31.8411   YZ=  -615.5873   ZZ=  -258.8108
   Eigenvalues:  -788.2329  -322.2328   392.4672
      7  O    Isotropic =   280.8984   Anisotropy =    66.3090
   XX=   309.3870   YX=   -19.4301   ZX=    10.3988
   XY=   -26.9480   YY=   255.9840   ZY=    -2.8585
   XZ=    20.1585   YZ=   -19.8654   ZZ=   277.3243
   Eigenvalues:   246.2581   271.3327   325.1044
      8  H    Isotropic =    30.5362   Anisotropy =    18.7173
   XX=    39.8763   YX=    -4.0008   ZX=     5.8902
   XY=    -4.6707   YY=    23.0451   ZY=    -1.6145
   XZ=     4.8992   YZ=    -0.2871   ZZ=    28.6872
   Eigenvalues:    21.9704    26.6238    43.0144
      9  C    Isotropic =   178.1164   Anisotropy =    25.0894
   XX=   167.2131   YX=     7.6782   ZX=    -3.6592
   XY=     7.4238   YY=   186.2005   ZY=    -9.1592
   XZ=    -3.6247   YZ=    -7.6469   ZZ=   180.9356
   Eigenvalues:   164.5419   174.9646   194.8427
     10  H    Isotropic =    30.7236   Anisotropy =     8.6015
   XX=    30.8134   YX=    -1.2090   ZX=     2.9371
   XY=    -1.0364   YY=    29.7816   ZY=    -4.8354
   XZ=     1.8675   YZ=    -4.1902   ZZ=    31.5758
   Eigenvalues:    25.9733    29.7396    36.4579
     11  H    Isotropic =    30.5514   Anisotropy =     9.0187
   XX=    28.2775   YX=     2.6690   ZX=     1.0403
   XY=     3.7429   YY=    35.0711   ZY=     1.8920
   XZ=    -0.4984   YZ=     0.7841   ZZ=    28.3055
   Eigenvalues:    26.9529    28.1373    36.5639
     12  H    Isotropic =    29.9894   Anisotropy =     9.2104
   XX=    30.0250   YX=    -1.6873   ZX=    -4.1917
   XY=    -0.4101   YY=    27.6025   ZY=    -1.1689
   XZ=    -5.4129   YZ=    -1.0939   ZZ=    32.3407
   Eigenvalues:    25.2526    28.5860    36.1297
     13  C    Isotropic =    61.3034   Anisotropy =   160.8074
   XX=    -6.4635   YX=   -17.7969   ZX=    -7.6409
   XY=   -10.1009   YY=    34.5235   ZY=   -53.8870
   XZ=   -17.7445   YZ=   -27.1193   ZZ=   155.8504
   Eigenvalues:   -14.6784    30.0804   168.5083
     14  C    Isotropic =    66.3419   Anisotropy =   181.6984
   XX=   -25.1992   YX=   -23.9859   ZX=    -9.8957
   XY=   -26.8128   YY=    55.4659   ZY=   -51.0217
   XZ=    -5.8075   YZ=   -48.3504   ZZ=   168.7590
   Eigenvalues:   -35.0209    46.5724   187.4742
     15  C    Isotropic =    69.1299   Anisotropy =   179.3826
   XX=    47.2705   YX=    -7.7597   ZX=    -3.2319
   XY=     5.8801   YY=     0.1811   ZY=   -71.8252
   XZ=    -9.5088   YZ=   -74.8453   ZZ=   159.9382
   Eigenvalues:   -28.5120    47.1835   188.7183
     16  C    Isotropic =    70.3759   Anisotropy =   175.7657
   XX=    11.7263   YX=    39.7023   ZX=    12.0642
   XY=    24.9440   YY=    33.9280   ZY=   -52.6577
   XZ=     1.6474   YZ=   -63.3762   ZZ=   165.4733
   Eigenvalues:   -20.8588    44.4334   187.5530
     17  C    Isotropic =    70.2572   Anisotropy =   173.8859
   XX=    50.7437   YX=   -12.7302   ZX=    -6.0259
   XY=   -14.4958   YY=     0.1242   ZY=   -69.9624
   XZ=    -3.7915   YZ=   -69.8810   ZZ=   159.9037
   Eigenvalues:   -28.7856    53.3760   186.1811
     18  C    Isotropic =    69.8290   Anisotropy =   174.6283
   XX=     6.5292   YX=    37.4447   ZX=    14.1492
   XY=    38.2408   YY=    38.6322   ZY=   -56.9589
   XZ=    13.2516   YZ=   -56.8021   ZZ=   164.3257
   Eigenvalues:   -28.9391    52.1784   186.2479
     19  H    Isotropic =    23.3597   Anisotropy =     7.0945
   XX=    27.9361   YX=    -0.4474   ZX=    -0.3078
   XY=    -1.4131   YY=    22.1801   ZY=     1.7165
   XZ=     0.3340   YZ=     1.3744   ZZ=    19.9630
   Eigenvalues:    19.1475    22.8423    28.0894
     20  H    Isotropic =    23.2950   Anisotropy =     8.7270
   XX=    26.9988   YX=     3.6201   ZX=     1.4219
   XY=     2.7948   YY=    23.0903   ZY=     1.6129
   XZ=     0.8960   YZ=     1.2092   ZZ=    19.7961
   Eigenvalues:    19.2742    21.4979    29.1130
     21  H    Isotropic =    23.7540   Anisotropy =     5.3180
   XX=    27.2989   YX=     0.0421   ZX=     0.0642
   XY=    -0.0613   YY=    23.4358   ZY=     1.3701
   XZ=    -0.1573   YZ=     0.9764   ZZ=    20.5273
   Eigenvalues:    20.1128    23.8499    27.2993
     22  H    Isotropic =    23.7413   Anisotropy =     4.7082
   XX=    25.7846   YX=     1.1725   ZX=     0.4583
   XY=     1.3706   YY=    24.5326   ZY=     1.8296
   XZ=     0.2328   YZ=     1.8895   ZZ=    20.9065
   Eigenvalues:    20.1167    24.2271    26.8801
     23  H    Isotropic =    23.6720   Anisotropy =     4.4980
   XX=    24.4297   YX=    -0.8499   ZX=    -0.3052
   XY=    -1.1387   YY=    25.4340   ZY=     2.0244
   XZ=    -0.0608   YZ=     1.9979   ZZ=    21.1523
   Eigenvalues:    20.3460    23.9994    26.6706
     24  C    Isotropic =   171.3970   Anisotropy =    33.9121
   XX=   165.5191   YX=     2.2274   ZX=    -7.9556
   XY=     4.9869   YY=   175.9022   ZY=   -19.3109
   XZ=    -6.7414   YZ=   -15.7751   ZZ=   172.7697
   Eigenvalues:   155.6444   164.5414   194.0051
     25  H    Isotropic =    30.6153   Anisotropy =     9.7831
   XX=    31.1252   YX=    -1.3265   ZX=     3.0386
   XY=    -2.9777   YY=    29.2910   ZY=    -3.3142
   XZ=     4.6527   YZ=    -3.5205   ZZ=    31.4298
   Eigenvalues:    26.6234    28.0852    37.1374
     26  H    Isotropic =    30.6583   Anisotropy =     6.2848
   XX=    31.0817   YX=    -1.7254   ZX=    -3.5276
   XY=    -1.3869   YY=    27.8742   ZY=    -1.6994
   XZ=    -1.6622   YZ=    -1.4688   ZZ=    33.0189
   Eigenvalues:    26.2721    30.8547    34.8481
     27  H    Isotropic =    30.4273   Anisotropy =     6.7267
   XX=    29.4906   YX=     1.8041   ZX=     1.4653
   XY=     1.6787   YY=    34.1963   ZY=     1.5030
   XZ=     2.4645   YZ=    -0.7346   ZZ=    27.5951
   Eigenvalues:    26.3115    30.0587    34.9118
 End of Minotr Frequency-dependent properties file   721 does not exist.
 End of Minotr Frequency-dependent properties file   722 does not exist.

 **********************************************************************

            Population analysis using the SCF density.

 **********************************************************************

 Orbital symmetries:
       Occupied  (A) (A) (A) (A) (A) (A) (A) (A) (A) (A) (A) (A)
                 (A) (A) (A) (A) (A) (A) (A) (A) (A) (A) (A) (A)
                 (A) (A) (A) (A) (A) (A) (A) (A) (A) (A) (A) (A)
                 (A) (A) (A) (A) (A) (A) (A) (A) (A) (A) (A) (A)
       Virtual   (A) (A) (A) (A) (A) (A) (A) (A) (A) (A) (A) (A)
                 (A) (A) (A) (A) (A) (A) (A) (A) (A) (A) (A) (A)
                 (A) (A) (A) (A) (A) (A) (A) (A) (A) (A) (A) (A)
                 (A) (A) (A) (A) (A) (A) (A) (A) (A) (A) (A) (A)
                 (A) (A) (A) (A) (A) (A) (A) (A) (A) (A) (A) (A)
                 (A) (A) (A) (A) (A) (A) (A) (A) (A) (A) (A) (A)
                 (A) (A) (A) (A) (A) (A) (A) (A) (A) (A) (A) (A)
                 (A) (A) (A) (A) (A) (A) (A) (A) (A) (A) (A) (A)
                 (A) (A) (A) (A) (A) (A) (A) (A) (A) (A) (A) (A)
                 (A) (A) (A) (A) (A) (A) (A) (A) (A) (A) (A) (A)
                 (A) (A) (A) (A) (A) (A) (A) (A) (A) (A) (A) (A)
                 (A) (A) (A) (A) (A) (A) (A) (A) (A) (A) (A) (A)
                 (A) (A) (A) (A) (A) (A) (A) (A) (A) (A) (A) (A)
                 (A) (A) (A) (A) (A) (A) (A) (A) (A) (A) (A) (A)
                 (A) (A) (A) (A) (A) (A) (A) (A) (A) (A) (A) (A)
                 (A) (A) (A) (A) (A) (A) (A) (A) (A) (A) (A) (A)
                 (A) (A) (A) (A) (A) (A) (A) (A) (A) (A) (A) (A)
                 (A) (A) (A) (A) (A) (A) (A) (A) (A) (A) (A) (A)
                 (A)
 The electronic state is 1-A.
 Alpha  occ. eigenvalues --  -19.22869 -19.22612 -10.33719 -10.29194 -10.26312
 Alpha  occ. eigenvalues --  -10.26126 -10.25842 -10.25818 -10.25601 -10.25512
 Alpha  occ. eigenvalues --  -10.25265 -10.23174 -10.22607  -1.06310  -1.03590
 Alpha  occ. eigenvalues --   -0.88655  -0.82304  -0.78303  -0.77208  -0.74604
 Alpha  occ. eigenvalues --   -0.67293  -0.64730  -0.62764  -0.60296  -0.55395
 Alpha  occ. eigenvalues --   -0.54143  -0.50741  -0.47333  -0.47143  -0.46600
 Alpha  occ. eigenvalues --   -0.45672  -0.44388  -0.43454  -0.43167  -0.41153
 Alpha  occ. eigenvalues --   -0.39934  -0.38929  -0.37913  -0.36735  -0.36582
 Alpha  occ. eigenvalues --   -0.35782  -0.35610  -0.34799  -0.32118  -0.27449
 Alpha  occ. eigenvalues --   -0.26942  -0.26837  -0.25773
 Alpha virt. eigenvalues --   -0.04914  -0.00356   0.04106   0.09731   0.11029
 Alpha virt. eigenvalues --    0.13150   0.14416   0.15999   0.16432   0.17226
 Alpha virt. eigenvalues --    0.17860   0.18404   0.19377   0.19892   0.20386
 Alpha virt. eigenvalues --    0.20818   0.20907   0.22240   0.25167   0.25399
 Alpha virt. eigenvalues --    0.26416   0.27284   0.28678   0.29865   0.31303
 Alpha virt. eigenvalues --    0.32512   0.34468   0.38625   0.41660   0.48256
 Alpha virt. eigenvalues --    0.51872   0.53033   0.54288   0.54841   0.56047
 Alpha virt. eigenvalues --    0.56618   0.57609   0.58846   0.60146   0.60900
 Alpha virt. eigenvalues --    0.61185   0.61767   0.62184   0.62796   0.63393
 Alpha virt. eigenvalues --    0.64145   0.65052   0.66867   0.68705   0.70090
 Alpha virt. eigenvalues --    0.73413   0.74087   0.76790   0.77550   0.79218
 Alpha virt. eigenvalues --    0.80186   0.82029   0.82627   0.83576   0.84503
 Alpha virt. eigenvalues --    0.84930   0.85260   0.86903   0.88294   0.89453
 Alpha virt. eigenvalues --    0.90944   0.91921   0.92849   0.93685   0.94331
 Alpha virt. eigenvalues --    0.96057   0.96986   0.97542   0.97991   0.99625
 Alpha virt. eigenvalues --    1.00943   1.03140   1.04890   1.05852   1.08389
 Alpha virt. eigenvalues --    1.09930   1.11091   1.13216   1.15846   1.19527
 Alpha virt. eigenvalues --    1.20911   1.23276   1.24159   1.26551   1.29443
 Alpha virt. eigenvalues --    1.33547   1.34850   1.36840   1.39761   1.40616
 Alpha virt. eigenvalues --    1.42179   1.43256   1.44851   1.45694   1.47851
 Alpha virt. eigenvalues --    1.52928   1.53693   1.56375   1.59076   1.61777
 Alpha virt. eigenvalues --    1.64889   1.69892   1.71323   1.75609   1.77159
 Alpha virt. eigenvalues --    1.77713   1.79558   1.82935   1.83729   1.84514
 Alpha virt. eigenvalues --    1.87353   1.88385   1.89867   1.91929   1.92886
 Alpha virt. eigenvalues --    1.95038   1.96994   1.97306   1.99003   1.99333
 Alpha virt. eigenvalues --    2.00095   2.02909   2.03734   2.05188   2.07130
 Alpha virt. eigenvalues --    2.07792   2.08044   2.09344   2.10056   2.11674
 Alpha virt. eigenvalues --    2.12654   2.14144   2.14702   2.16889   2.21580
 Alpha virt. eigenvalues --    2.26858   2.27881   2.28603   2.30088   2.31275
 Alpha virt. eigenvalues --    2.33348   2.34642   2.37475   2.38565   2.39720
 Alpha virt. eigenvalues --    2.40572   2.41867   2.42718   2.45061   2.46378
 Alpha virt. eigenvalues --    2.46795   2.50775   2.51308   2.52026   2.55659
 Alpha virt. eigenvalues --    2.56075   2.58883   2.60414   2.61447   2.63673
 Alpha virt. eigenvalues --    2.65975   2.67760   2.68645   2.70162   2.70832
 Alpha virt. eigenvalues --    2.72290   2.74905   2.76485   2.77930   2.81132
 Alpha virt. eigenvalues --    2.81935   2.83223   2.88166   2.88667   2.90173
 Alpha virt. eigenvalues --    2.93088   2.93323   2.95423   2.98340   3.02970
 Alpha virt. eigenvalues --    3.06473   3.08093   3.11630   3.21299   3.22864
 Alpha virt. eigenvalues --    3.24203   3.26104   3.27688   3.34676   3.39017
 Alpha virt. eigenvalues --    3.43038   3.45417   3.47666   3.49671   3.49814
 Alpha virt. eigenvalues --    3.52937   3.54884   3.58758   3.91561   4.04940
 Alpha virt. eigenvalues --    4.13262   4.16263   4.18610   4.24216   4.35367
 Alpha virt. eigenvalues --    4.44042   4.46167   4.50984   4.57283   4.65299
 Alpha virt. eigenvalues --    4.81543   4.87066
          Condensed to atoms (all electrons):
              1          2          3          4          5          6
     1  C    4.767190   0.391604   0.332375  -0.035022  -0.028669   0.000961
     2  H    0.391604   0.611432  -0.046044   0.005978  -0.004505   0.007472
     3  C    0.332375  -0.046044   5.304250   0.377080   0.290996  -0.085700
     4  H   -0.035022   0.005978   0.377080   0.569682  -0.031790   0.003224
     5  C   -0.028669  -0.004505   0.290996  -0.031790   4.628895   0.514679
     6  O    0.000961   0.007472  -0.085700   0.003224   0.514679   8.148800
     7  O    0.210435  -0.036782  -0.049813   0.002544   0.001654   0.000037
     8  H   -0.024327  -0.006042   0.006696  -0.000125  -0.000200   0.000007
     9  C   -0.038145  -0.007670   0.331252  -0.042134  -0.032370  -0.002615
    10  H    0.004770  -0.000056  -0.034332  -0.002944  -0.004206  -0.000097
    11  H   -0.005633   0.005054  -0.035637   0.005112  -0.005993   0.005446
    12  H   -0.006464   0.000111  -0.030341  -0.003719   0.004676   0.000087
    13  C    0.002888   0.000414  -0.102550  -0.000565   0.321109  -0.090372
    14  C    0.000000   0.000000  -0.000036   0.000004   0.000258  -0.000014
    15  C   -0.000155   0.000001   0.007785   0.000001  -0.037100   0.001511
    16  C   -0.000129  -0.000036  -0.004118   0.000676  -0.037740   0.002689
    17  C    0.000004   0.000000   0.000115   0.000223   0.004068  -0.000077
    18  C    0.000002   0.000000  -0.000085  -0.000022   0.005607   0.000830
    19  H   -0.000009  -0.000001   0.000585  -0.000017  -0.007426   0.011212
    20  H   -0.000571  -0.000007   0.002557   0.002446  -0.006336   0.000022
    21  H    0.000000   0.000000   0.000013  -0.000002  -0.000124   0.000000
    22  H    0.000000   0.000000   0.000002   0.000000  -0.000134   0.000003
    23  H    0.000000   0.000000   0.000000   0.000000   0.000005   0.000000
    24  C    0.361056  -0.055634  -0.062874  -0.008388   0.000284  -0.002258
    25  H   -0.027549  -0.004748   0.005205  -0.000041  -0.000037  -0.000005
    26  H   -0.025816   0.001408  -0.003928   0.000426   0.004538   0.001607
    27  H   -0.030729   0.005439  -0.007564   0.003922  -0.000391   0.000050
              7          8          9         10         11         12
     1  C    0.210435  -0.024327  -0.038145   0.004770  -0.005633  -0.006464
     2  H   -0.036782  -0.006042  -0.007670  -0.000056   0.005054   0.000111
     3  C   -0.049813   0.006696   0.331252  -0.034332  -0.035637  -0.030341
     4  H    0.002544  -0.000125  -0.042134  -0.002944   0.005112  -0.003719
     5  C    0.001654  -0.000200  -0.032370  -0.004206  -0.005993   0.004676
     6  O    0.000037   0.000007  -0.002615  -0.000097   0.005446   0.000087
     7  O    8.226921   0.291776  -0.000192   0.000130  -0.000319   0.007639
     8  H    0.291776   0.386338   0.000052   0.000006  -0.000023  -0.000325
     9  C   -0.000192   0.000052   5.031029   0.384203   0.385501   0.387787
    10  H    0.000130   0.000006   0.384203   0.563222  -0.028531  -0.028126
    11  H   -0.000319  -0.000023   0.385501  -0.028531   0.554116  -0.026366
    12  H    0.007639  -0.000325   0.387787  -0.028126  -0.026366   0.539667
    13  C   -0.000030   0.000004   0.002126   0.001676   0.000426  -0.000181
    14  C    0.000000   0.000000   0.000002  -0.000001   0.000000   0.000000
    15  C    0.000000   0.000000  -0.000483  -0.000022  -0.000001   0.000007
    16  C   -0.000004   0.000000  -0.000075   0.000184  -0.000018  -0.000002
    17  C    0.000000   0.000000  -0.000009  -0.000001   0.000001   0.000000
    18  C    0.000000   0.000000   0.000004   0.000000   0.000000   0.000000
    19  H    0.000000   0.000000  -0.000034  -0.000015  -0.000004   0.000001
    20  H   -0.000012  -0.000001  -0.000023  -0.000015  -0.000001   0.000008
    21  H    0.000000   0.000000   0.000000   0.000000   0.000000   0.000000
    22  H    0.000000   0.000000   0.000000   0.000000   0.000000   0.000000
    23  H    0.000000   0.000000   0.000000   0.000000   0.000000   0.000000
    24  C   -0.057630  -0.002644   0.005779  -0.000120   0.000003   0.000170
    25  H   -0.001584   0.004121  -0.000152   0.000002   0.000000  -0.000003
    26  H    0.004305  -0.000149  -0.000096  -0.000005   0.000007  -0.000015
    27  H    0.001673  -0.000607  -0.000037  -0.000001   0.000006   0.000007
             13         14         15         16         17         18
     1  C    0.002888   0.000000  -0.000155  -0.000129   0.000004   0.000002
     2  H    0.000414   0.000000   0.000001  -0.000036   0.000000   0.000000
     3  C   -0.102550  -0.000036   0.007785  -0.004118   0.000115  -0.000085
     4  H   -0.000565   0.000004   0.000001   0.000676   0.000223  -0.000022
     5  C    0.321109   0.000258  -0.037100  -0.037740   0.004068   0.005607
     6  O   -0.090372  -0.000014   0.001511   0.002689  -0.000077   0.000830
     7  O   -0.000030   0.000000   0.000000  -0.000004   0.000000   0.000000
     8  H    0.000004   0.000000   0.000000   0.000000   0.000000   0.000000
     9  C    0.002126   0.000002  -0.000483  -0.000075  -0.000009   0.000004
    10  H    0.001676  -0.000001  -0.000022   0.000184  -0.000001   0.000000
    11  H    0.000426   0.000000  -0.000001  -0.000018   0.000001   0.000000
    12  H   -0.000181   0.000000   0.000007  -0.000002   0.000000   0.000000
    13  C    5.018081  -0.031232   0.504855   0.522781  -0.031329  -0.035258
    14  C   -0.031232   4.862152  -0.046550  -0.049813   0.545387   0.535881
    15  C    0.504855  -0.046550   4.936189  -0.060351  -0.037739   0.512674
    16  C    0.522781  -0.049813  -0.060351   4.936316   0.522976  -0.037703
    17  C   -0.031329   0.545387  -0.037739   0.522976   4.884615  -0.041170
    18  C   -0.035258   0.535881   0.512674  -0.037703  -0.041170   4.901296
    19  H   -0.044294   0.004091   0.380874   0.004634   0.000175  -0.035284
    20  H   -0.037103   0.003922   0.004297   0.378366  -0.034650   0.000230
    21  H    0.003015  -0.036833   0.000658  -0.033353   0.380947   0.003872
    22  H    0.003340  -0.037433  -0.034090   0.000615   0.003903   0.381690
    23  H    0.000446   0.382035   0.004000   0.004234  -0.036788  -0.036871
    24  C   -0.000354   0.000000  -0.000006   0.000117  -0.000002   0.000000
    25  H    0.000004   0.000000   0.000000   0.000012   0.000000   0.000000
    26  H    0.000084   0.000000  -0.000008   0.000139   0.000014  -0.000001
    27  H    0.000081   0.000000   0.000007  -0.000403  -0.000003   0.000000
             19         20         21         22         23         24
     1  C   -0.000009  -0.000571   0.000000   0.000000   0.000000   0.361056
     2  H   -0.000001  -0.000007   0.000000   0.000000   0.000000  -0.055634
     3  C    0.000585   0.002557   0.000013   0.000002   0.000000  -0.062874
     4  H   -0.000017   0.002446  -0.000002   0.000000   0.000000  -0.008388
     5  C   -0.007426  -0.006336  -0.000124  -0.000134   0.000005   0.000284
     6  O    0.011212   0.000022   0.000000   0.000003   0.000000  -0.002258
     7  O    0.000000  -0.000012   0.000000   0.000000   0.000000  -0.057630
     8  H    0.000000  -0.000001   0.000000   0.000000   0.000000  -0.002644
     9  C   -0.000034  -0.000023   0.000000   0.000000   0.000000   0.005779
    10  H   -0.000015  -0.000015   0.000000   0.000000   0.000000  -0.000120
    11  H   -0.000004  -0.000001   0.000000   0.000000   0.000000   0.000003
    12  H    0.000001   0.000008   0.000000   0.000000   0.000000   0.000170
    13  C   -0.044294  -0.037103   0.003015   0.003340   0.000446  -0.000354
    14  C    0.004091   0.003922  -0.036833  -0.037433   0.382035   0.000000
    15  C    0.380874   0.004297   0.000658  -0.034090   0.004000  -0.000006
    16  C    0.004634   0.378366  -0.033353   0.000615   0.004234   0.000117
    17  C    0.000175  -0.034650   0.380947   0.003903  -0.036788  -0.000002
    18  C   -0.035284   0.000230   0.003872   0.381690  -0.036871   0.000000
    19  H    0.526126  -0.000110   0.000014  -0.004257  -0.000138   0.000000
    20  H   -0.000110   0.521262  -0.004233   0.000013  -0.000142   0.000799
    21  H    0.000014  -0.004233   0.530935  -0.000144  -0.004511   0.000000
    22  H   -0.004257   0.000013  -0.000144   0.530857  -0.004464   0.000000
    23  H   -0.000138  -0.000142  -0.004511  -0.004464   0.531756   0.000000
    24  C    0.000000   0.000799   0.000000   0.000000   0.000000   5.131499
    25  H    0.000000  -0.000011   0.000000   0.000000   0.000000   0.380925
    26  H   -0.000001  -0.000052   0.000000   0.000000   0.000000   0.355725
    27  H    0.000000   0.001333  -0.000001   0.000000   0.000000   0.379315
             25         26         27
     1  C   -0.027549  -0.025816  -0.030729
     2  H   -0.004748   0.001408   0.005439
     3  C    0.005205  -0.003928  -0.007564
     4  H   -0.000041   0.000426   0.003922
     5  C   -0.000037   0.004538  -0.000391
     6  O   -0.000005   0.001607   0.000050
     7  O   -0.001584   0.004305   0.001673
     8  H    0.004121  -0.000149  -0.000607
     9  C   -0.000152  -0.000096  -0.000037
    10  H    0.000002  -0.000005  -0.000001
    11  H    0.000000   0.000007   0.000006
    12  H   -0.000003  -0.000015   0.000007
    13  C    0.000004   0.000084   0.000081
    14  C    0.000000   0.000000   0.000000
    15  C    0.000000  -0.000008   0.000007
    16  C    0.000012   0.000139  -0.000403
    17  C    0.000000   0.000014  -0.000003
    18  C    0.000000  -0.000001   0.000000
    19  H    0.000000  -0.000001   0.000000
    20  H   -0.000011  -0.000052   0.001333
    21  H    0.000000   0.000000  -0.000001
    22  H    0.000000   0.000000   0.000000
    23  H    0.000000   0.000000   0.000000
    24  C    0.380925   0.355725   0.379315
    25  H    0.560502  -0.024057  -0.031146
    26  H   -0.024057   0.568510  -0.025083
    27  H   -0.031146  -0.025083   0.561350
 Mulliken atomic charges:
              1
     1  C    0.151934
     2  H    0.132609
     3  C   -0.195890
     4  H    0.153452
     5  C    0.420253
     6  O   -0.517499
     7  O   -0.600747
     8  H    0.345443
     9  C   -0.403698
    10  H    0.144279
    11  H    0.146854
    12  H    0.155382
    13  C   -0.008062
    14  C   -0.131820
    15  C   -0.136352
    16  C   -0.149995
    17  C   -0.160661
    18  C   -0.155691
    19  H    0.163880
    20  H    0.168009
    21  H    0.159748
    22  H    0.160101
    23  H    0.160438
    24  C   -0.425762
    25  H    0.138564
    26  H    0.142450
    27  H    0.142782
 Sum of Mulliken atomic charges =   0.00000
 Mulliken charges with hydrogens summed into heavy atoms:
              1
     1  C    0.284543
     3  C   -0.042438
     5  C    0.420253
     6  O   -0.517499
     7  O   -0.255304
     9  C    0.042817
    13  C   -0.008062
    14  C    0.028618
    15  C    0.027528
    16  C    0.018014
    17  C   -0.000913
    18  C    0.004409
    24  C   -0.001967
 Sum of Mulliken charges with hydrogens summed into heavy atoms =   0.00000
 Electronic spatial extent (au):  <R**2>=           2852.4560
 Charge=              0.0000 electrons
 Dipole moment (field-independent basis, Debye):
    X=              0.9660    Y=              2.3480    Z=              0.5716  Tot=              2.6025
 Quadrupole moment (field-independent basis, Debye-Ang):
   XX=            -60.6431   YY=            -75.5456   ZZ=            -80.8832
   XY=             -1.3869   XZ=              5.6574   YZ=             -2.3477
 Traceless Quadrupole moment (field-independent basis, Debye-Ang):
   XX=             11.7142   YY=             -3.1883   ZZ=             -8.5259
   XY=             -1.3869   XZ=              5.6574   YZ=             -2.3477
 Octapole moment (field-independent basis, Debye-Ang**2):
  XXX=            -12.7122  YYY=              8.5274  ZZZ=              0.7363  XYY=              5.2378
  XXY=              7.8859  XXZ=            -26.0832  XZZ=            -10.9846  YZZ=              2.9333
  YYZ=              7.2327  XYZ=             15.2654
 Hexadecapole moment (field-independent basis, Debye-Ang**3):
 XXXX=          -2193.8801 YYYY=           -612.9609 ZZZZ=           -389.3812 XXXY=            -47.9700
 XXXZ=            101.7838 YYYX=             -5.4416 YYYZ=             14.3727 ZZZX=             -6.9070
 ZZZY=             -0.1190 XXYY=           -512.1913 XXZZ=           -541.4940 YYZZ=           -175.5694
 XXYZ=              6.2044 YYXZ=              5.9038 ZZXY=             -4.7590
 N-N= 7.780267715825D+02 E-N=-2.900721230250D+03  KE= 5.726124213836D+02
 1\1\GINC-COMPUTE-8-2\SP\RmPW1PW91\6-31G(d,p)\C11H14O2\FBRUNO.IQUIR\21-
 Dec-2021\0\\# mPW1PW91/6-31g** scrf=(pcm,solvent=chloroform,smd,dovacu
 um) nmr\\comment\\0,1\C,0,-1.364732346,0.488509372,1.996949457\H,0,-2.
 440476446,0.364213575,1.82429083\C,0,-0.564884135,-0.533525429,1.17297
 35\H,0,0.494738407,-0.445040415,1.426501568\C,0,-0.81140739,-0.3162119
 05,-0.314080003\O,0,-1.952071374,-0.289897835,-0.777313\O,0,-1.1164161
 6,0.250618606,3.386148644\H,0,-1.728231639,0.8161189,3.889509338\C,0,-
 0.970207197,-1.971754745,1.51333136\H,0,-0.431462483,-2.686029675,0.88
 0674936\H,0,-2.042016751,-2.133663208,1.353248565\H,0,-0.742205106,-2.
 21168123,2.55679658\C,0,0.344958379,-0.169986553,-1.244707298\C,0,2.44
 116892,0.075559423,-3.085303065\C,0,0.164567757,-0.551876625,-2.581389
 5\C,0,1.577683081,0.354709634,-0.840724767\C,0,2.623360962,0.472262994
 ,-1.761044883\C,0,1.211272878,-0.433307123,-3.497231956\H,0,-0.7942466
 57,-0.945883836,-2.914117032\H,0,1.748212282,0.700599856,0.173929171\H
 ,0,3.580738815,0.881047225,-1.445938108\H,0,1.064165489,-0.735227676,-
 4.531287894\H,0,3.256213561,0.170321348,-3.798878965\C,0,-0.96490234,1
 .931100665,1.700217872\H,0,-1.507290503,2.619831235,2.357392248\H,0,-1
 .178106284,2.210550323,0.664633985\H,0,0.101576282,2.088643099,1.89541
 8418\\Version=EM64L-G09RevC.01\State=1-A\HF=-577.9453932\RMSD=6.042e-0
 9\Dipole=0.9142939,0.4551832,0.0724085\Quadrupole=-0.3685933,-2.37293,
 2.7415233,-0.4371202,-7.3530349,4.6611699\PG=C01 [X(C11H14O2)]\\@


 SUCCESS-- IF YOU HAVE TRIED TO DO SOMETHING AND FAILED
           YOU ARE BETTER OFF THAN IF YOU HAD TRIED TO DO
           NOTHING AND SUCCEEDED.

                   -- FROM THE BACK OF A SUGAR PACKET
 Job cpu time:  0 days  0 hours 21 minutes  0.2 seconds.
 File lengths (MBytes):  RWF=     81 Int=      0 D2E=      0 Chk=      5 Scr=      1
 Normal termination of Gaussian 09 at Tue Dec 21 08:47:20 2021.
