 Entering Gaussian System, Link 0=g09
 Input=/home/fbruno.iquir/2_val_run/2b_004_MPW_A_SMD.gjc
 Output=/home/fbruno.iquir/2_val_run/2b_004_MPW_A_SMD.log
 Initial command:
 /share/apps/Gaussian09/EM64T.SSE4.2-enabled/g09/l1.exe /tmp/Gau-18234.inp -scrdir=/tmp/
 Entering Link 1 = /share/apps/Gaussian09/EM64T.SSE4.2-enabled/g09/l1.exe PID=     18235.
  
 Copyright (c) 1988,1990,1992,1993,1995,1998,2003,2009,2011,
            Gaussian, Inc.  All Rights Reserved.
  
 This is part of the Gaussian(R) 09 program.  It is based on
 the Gaussian(R) 03 system (copyright 2003, Gaussian, Inc.),
 the Gaussian(R) 98 system (copyright 1998, Gaussian, Inc.),
 the Gaussian(R) 94 system (copyright 1995, Gaussian, Inc.),
 the Gaussian 92(TM) system (copyright 1992, Gaussian, Inc.),
 the Gaussian 90(TM) system (copyright 1990, Gaussian, Inc.),
 the Gaussian 88(TM) system (copyright 1988, Gaussian, Inc.),
 the Gaussian 86(TM) system (copyright 1986, Carnegie Mellon
 University), and the Gaussian 82(TM) system (copyright 1983,
 Carnegie Mellon University). Gaussian is a federally registered
 trademark of Gaussian, Inc.
  
 This software contains proprietary and confidential information,
 including trade secrets, belonging to Gaussian, Inc.
  
 This software is provided under written license and may be
 used, copied, transmitted, or stored only in accord with that
 written license.
  
 The following legend is applicable only to US Government
 contracts under FAR:
  
                    RESTRICTED RIGHTS LEGEND
  
 Use, reproduction and disclosure by the US Government is
 subject to restrictions as set forth in subparagraphs (a)
 and (c) of the Commercial Computer Software - Restricted
 Rights clause in FAR 52.227-19.
  
 Gaussian, Inc.
 340 Quinnipiac St., Bldg. 40, Wallingford CT 06492
  
  
 ---------------------------------------------------------------
 Warning -- This program may not be used in any manner that
 competes with the business of Gaussian, Inc. or will provide
 assistance to any competitor of Gaussian, Inc.  The licensee
 of this program is prohibited from giving any competitor of
 Gaussian, Inc. access to this program.  By using this program,
 the user acknowledges that Gaussian, Inc. is engaged in the
 business of creating and licensing software in the field of
 computational chemistry and represents and warrants to the
 licensee that it is not a competitor of Gaussian, Inc. and that
 it will not use this program in any manner prohibited above.
 ---------------------------------------------------------------
  

 Cite this work as:
 Gaussian 09, Revision C.01,
 M. J. Frisch, G. W. Trucks, H. B. Schlegel, G. E. Scuseria, 
 M. A. Robb, J. R. Cheeseman, G. Scalmani, V. Barone, B. Mennucci, 
 G. A. Petersson, H. Nakatsuji, M. Caricato, X. Li, H. P. Hratchian, 
 A. F. Izmaylov, J. Bloino, G. Zheng, J. L. Sonnenberg, M. Hada, 
 M. Ehara, K. Toyota, R. Fukuda, J. Hasegawa, M. Ishida, T. Nakajima, 
 Y. Honda, O. Kitao, H. Nakai, T. Vreven, J. A. Montgomery, Jr., 
 J. E. Peralta, F. Ogliaro, M. Bearpark, J. J. Heyd, E. Brothers, 
 K. N. Kudin, V. N. Staroverov, T. Keith, R. Kobayashi, J. Normand, 
 K. Raghavachari, A. Rendell, J. C. Burant, S. S. Iyengar, J. Tomasi, 
 M. Cossi, N. Rega, J. M. Millam, M. Klene, J. E. Knox, J. B. Cross, 
 V. Bakken, C. Adamo, J. Jaramillo, R. Gomperts, R. E. Stratmann, 
 O. Yazyev, A. J. Austin, R. Cammi, C. Pomelli, J. W. Ochterski, 
 R. L. Martin, K. Morokuma, V. G. Zakrzewski, G. A. Voth, 
 P. Salvador, J. J. Dannenberg, S. Dapprich, A. D. Daniels, 
 O. Farkas, J. B. Foresman, J. V. Ortiz, J. Cioslowski, 
 and D. J. Fox, Gaussian, Inc., Wallingford CT, 2010.
 
 ******************************************
 Gaussian 09:  EM64L-G09RevC.01 23-Sep-2011
                21-Dec-2021 
 ******************************************
 %nprocshared=4
 Will use up to    4 processors via shared memory.
 -----------------------------------------------------------------
 # mPW1PW91/6-31g** scrf=(pcm,solvent=chloroform,smd,dovacuum) nmr
 -----------------------------------------------------------------
 1/38=1/1;
 2/12=2,17=6,18=5,40=1/2;
 3/5=1,6=6,7=101,11=2,16=1,25=1,30=1,70=32101,72=7,74=-7/1,2,8,3;
 4//1;
 5/5=2,38=5,53=7/2;
 8/6=1,10=90,11=11/1;
 10/13=100,45=16/2;
 6/7=2,8=2,9=2,10=2,28=1/1;
 99/9=1/99;
 -------
 comment
 -------
 Charge =  0 Multiplicity = 1
 Symbolic Z-Matrix:
 6                    -0.86842  -0.04971   1.78891 
 1                    -0.00513  -0.72136   1.71861 
 6                    -0.94221   0.83788   0.53408 
 1                    -0.18411   1.62695   0.60297 
 6                    -0.65855  -0.0043   -0.70508 
 8                    -1.56704  -0.55592  -1.32684 
 8                    -0.63054   0.79618   2.91791 
 1                    -0.6537    0.23945   3.71598 
 6                    -2.26944   1.58757   0.38446 
 1                    -3.11416   0.90927   0.22557 
 1                    -2.23132   2.25726  -0.48225 
 1                    -2.47772   2.19583   1.27057 
 6                     0.75303  -0.19449  -1.17111 
 6                     3.35029  -0.61538  -2.14714 
 6                     0.95907  -0.8336   -2.40302 
 6                     1.8648    0.22666  -0.43035 
 6                     3.15788   0.01652  -0.91994 
 6                     2.25154  -1.04172  -2.88898 
 1                     0.11012  -1.17285  -2.99456 
 1                     1.76274   0.71409   0.53467 
 1                     4.01746   0.34606  -0.34062 
 1                     2.39761  -1.53656  -3.84602 
 1                     4.35705  -0.77695  -2.52483 
 6                    -2.10852  -0.89718   2.05567 
 1                    -1.93684  -1.55135   2.91803 
 1                    -2.36177  -1.52611   1.19772 
 1                    -2.9721   -0.27623   2.31558 
 
                          Input orientation:                          
 ---------------------------------------------------------------------
 Center     Atomic      Atomic             Coordinates (Angstroms)
 Number     Number       Type             X           Y           Z
 ---------------------------------------------------------------------
      1          6           0       -0.868421   -0.049710    1.788908
      2          1           0       -0.005132   -0.721364    1.718614
      3          6           0       -0.942215    0.837878    0.534077
      4          1           0       -0.184111    1.626953    0.602969
      5          6           0       -0.658554   -0.004295   -0.705077
      6          8           0       -1.567044   -0.555919   -1.326838
      7          8           0       -0.630537    0.796179    2.917905
      8          1           0       -0.653704    0.239448    3.715978
      9          6           0       -2.269437    1.587570    0.384459
     10          1           0       -3.114159    0.909267    0.225568
     11          1           0       -2.231324    2.257256   -0.482251
     12          1           0       -2.477725    2.195835    1.270568
     13          6           0        0.753026   -0.194493   -1.171112
     14          6           0        3.350293   -0.615382   -2.147139
     15          6           0        0.959071   -0.833602   -2.403018
     16          6           0        1.864798    0.226662   -0.430350
     17          6           0        3.157883    0.016521   -0.919940
     18          6           0        2.251542   -1.041723   -2.888977
     19          1           0        0.110121   -1.172848   -2.994565
     20          1           0        1.762743    0.714086    0.534666
     21          1           0        4.017463    0.346064   -0.340616
     22          1           0        2.397611   -1.536560   -3.846016
     23          1           0        4.357051   -0.776948   -2.524827
     24          6           0       -2.108522   -0.897179    2.055674
     25          1           0       -1.936844   -1.551348    2.918034
     26          1           0       -2.361773   -1.526112    1.197723
     27          1           0       -2.972102   -0.276233    2.315583
 ---------------------------------------------------------------------
                    Distance matrix (angstroms):
                    1          2          3          4          5
     1  C    0.000000
     2  H    1.096051   0.000000
     3  C    1.538785   2.170826   0.000000
     4  H    2.164702   2.606010   1.096407   0.000000
     5  C    2.503211   2.610636   1.524867   2.144074   0.000000
     6  O    3.232986   3.426619   2.407506   3.225150   1.231353
     7  O    1.430648   2.032823   2.404479   2.499682   3.710464
     8  H    1.960438   2.309387   3.250516   3.440424   4.427771
     9  C    2.572160   3.498316   1.531647   2.097113   2.513179
    10  H    2.899484   3.814995   2.194906   3.040179   2.780411
    11  H    3.512515   4.321101   2.170105   2.401264   2.763670
    12  H    2.810873   3.850261   2.178131   2.455602   3.471761
    13  C    3.378131   3.033630   2.616734   2.709844   1.498640
    14  C    5.797413   5.119976   5.265597   5.008310   4.303932
    15  C    4.639662   4.234399   3.877533   4.049341   2.487462
    16  C    3.531568   3.002238   3.030351   2.688232   2.548749
    17  C    4.853181   4.184627   4.427143   4.010195   3.822537
    18  C    5.709716   5.140535   5.044827   5.024731   3.783429
    19  H    5.010049   4.736156   4.195443   4.568119   2.682934
    20  H    3.013226   2.566638   2.707790   2.151333   2.813488
    21  H    5.344471   4.643393   5.060176   4.492689   4.703267
    22  H    6.680573   6.115785   5.998134   6.038756   4.642573
    23  H    6.814891   6.085928   6.328252   6.015314   5.391176
    24  C    1.525522   2.137468   2.585721   3.490696   3.243669
    25  H    2.161336   2.420536   3.518657   4.305021   4.141779
    26  H    2.181596   2.544151   2.836198   3.877856   2.972798
    27  H    2.180407   3.058991   2.921549   3.785243   3.814557
                    6          7          8          9         10
     6  O    0.000000
     7  O    4.552259   0.000000
     8  H    5.186212   0.973348   0.000000
     9  C    2.831332   3.119397   3.940437   0.000000
    10  H    2.636343   3.664675   4.322668   1.094941   0.000000
    11  H    3.011404   4.032162   4.917882   1.095956   1.759966
    12  H    3.892044   2.843389   3.624160   1.094787   1.775480
    13  C    2.353211   4.428966   5.104002   3.838076   4.257243
    14  C    4.985642   6.595012   7.151144   6.545483   7.052902
    15  C    2.759806   5.787510   6.418302   4.904628   5.151530
    16  C    3.632307   4.214482   4.851294   4.428079   5.068154
    17  C    4.776838   5.448766   6.005799   5.798746   6.437988
    18  C    4.154260   6.738260   7.328525   6.169912   6.503653
    19  H    2.444339   6.275583   6.899956   4.969910   5.010034
    20  H    4.020646   3.378514   4.023089   4.128440   4.890584
    21  H    5.742206   5.694249   6.187659   6.449200   7.176196
    22  H    4.798583   7.769298   8.345567   7.031248   7.275952
    23  H    6.048051   7.548119   8.067736   7.613490   8.137995
    24  C    3.442535   2.407352   2.482948   2.998805   2.761130
    25  H    4.375680   2.686508   2.343099   4.047521   3.832763
    26  H    2.818915   3.368863   3.517998   3.219462   2.728047
    27  H    3.914033   2.644955   2.757173   2.774299   2.407022
                   11         12         13         14         15
    11  H    0.000000
    12  H    1.771118   0.000000
    13  C    3.923257   4.702469   0.000000
    14  C    6.494486   7.317749   2.806345   0.000000
    15  C    4.839564   5.872333   1.403036   2.414754   0.000000
    16  C    4.572113   5.062437   1.400762   2.421384   2.415765
    17  C    5.852864   6.427115   2.427128   1.393678   2.785139
    18  C    6.063966   7.081635   2.431956   1.392603   1.396406
    19  H    4.853834   6.019661   2.166908   3.395234   1.088914
    20  H    4.400917   4.551780   2.180532   3.388197   3.416316
    21  H    6.536058   6.942984   3.411521   2.152446   3.872838
    22  H    6.865494   7.992440   3.414809   2.154613   2.155409
    23  H    7.535595   8.364007   3.893687   1.087342   3.400634
    24  C    4.050507   3.212389   4.369710   6.895049   5.412403
    25  H    5.114111   4.128932   5.079131   7.381452   6.100417
    26  H    4.141643   3.724465   4.133590   6.681709   4.947011
    27  H    3.846452   2.729026   5.102970   7.746199   6.166846
                   16         17         18         19         20
    16  C    0.000000
    17  C    1.398544   0.000000
    18  C    2.793423   2.412143   0.000000
    19  H    3.407744   3.873954   2.148029   0.000000
    20  H    1.085935   2.132813   3.878546   4.329798   0.000000
    21  H    2.157841   1.087702   3.396847   4.961640   2.446491
    22  H    3.880672   3.398822   1.087256   2.467766   4.965767
    23  H    3.406669   2.154822   2.153109   4.291131   4.279499
    24  C    4.819813   6.117527   6.593984   5.522977   4.460531
    25  H    5.368936   6.568448   7.177999   6.268346   4.949705
    26  H    4.856618   6.109895   6.182106   4.879583   4.740229
    27  H    5.584680   6.937653   7.413493   6.204973   5.154722
                   21         22         23         24         25
    21  H    0.000000
    22  H    4.296048   0.000000
    23  H    2.479366   2.482329   0.000000
    24  C    6.694442   7.452784   7.924586   0.000000
    25  H    7.047890   8.033686   8.356886   1.095936   0.000000
    26  H    6.823942   6.934779   7.717592   1.093513   1.772194
    27  H    7.503111   8.269677   8.797544   1.094943   1.749465
                   26         27
    26  H    0.000000
    27  H    1.784464   0.000000
 Stoichiometry    C11H14O2
 Framework group  C1[X(C11H14O2)]
 Deg. of freedom    75
 Full point group                 C1      NOp   1
 Largest Abelian subgroup         C1      NOp   1
 Largest concise Abelian subgroup C1      NOp   1
                         Standard orientation:                         
 ---------------------------------------------------------------------
 Center     Atomic      Atomic             Coordinates (Angstroms)
 Number     Number       Type             X           Y           Z
 ---------------------------------------------------------------------
      1          6           0        2.037882    0.729870   -0.473781
      2          1           0        1.251427    1.169599   -1.097843
      3          6           0        1.403769   -0.082404    0.669010
      4          1           0        1.026823    0.604245    1.436170
      5          6           0        0.234926   -0.898904    0.128309
      6          8           0        0.393125   -2.047204   -0.287154
      7          8           0        2.753988    1.825300    0.104128
      8          1           0        3.209658    2.295098   -0.616332
      9          6           0        2.395063   -0.984816    1.409908
     10          1           0        2.793556   -1.778300    0.769219
     11          1           0        1.901469   -1.476368    2.255993
     12          1           0        3.235853   -0.403763    1.802346
     13          6           0       -1.134950   -0.293852    0.071100
     14          6           0       -3.745932    0.724197   -0.076972
     15          6           0       -2.208993   -1.127774   -0.274611
     16          6           0       -1.383697    1.058861    0.336484
     17          6           0       -2.686142    1.563008    0.262998
     18          6           0       -3.508244   -0.621151   -0.346945
     19          1           0       -2.039166   -2.181838   -0.488711
     20          1           0       -0.587779    1.750749    0.595443
     21          1           0       -2.873435    2.614170    0.470541
     22          1           0       -4.332161   -1.278339   -0.614134
     23          1           0       -4.757319    1.119510   -0.132970
     24          6           0        2.979608   -0.055986   -1.380865
     25          1           0        3.319953    0.578382   -2.207193
     26          1           0        2.490533   -0.935948   -1.807767
     27          1           0        3.883948   -0.368264   -0.848371
 ---------------------------------------------------------------------
 Rotational constants (GHZ):      1.5143200      0.4684810      0.4060519
 Standard basis: 6-31G(d,p) (6D, 7F)
 There are   265 symmetry adapted basis functions of A   symmetry.
 Integral buffers will be    131072 words long.
 Raffenetti 2 integral format.
 Two-electron integral symmetry is turned on.
   265 basis functions,   462 primitive gaussians,   265 cartesian basis functions
    48 alpha electrons       48 beta electrons
       nuclear repulsion energy       778.0387617671 Hartrees.
 NAtoms=   27 NActive=   27 NUniq=   27 SFac= 1.00D+00 NAtFMM=   60 NAOKFM=F Big=F
 ------------------------------------------------------------------------------
 Polarizable Continuum Model (PCM)
 =================================
 Model                : C-PCM.
 Atomic radii         : SMD-Coulomb.
 Polarization charges : Total charges.
 Charge compensation  : None.
 Solution method      : Matrix inversion.
 Cavity type          : VdW (van der Waals Surface) (Alpha=1.000).
 Cavity algorithm     : GePol (No added spheres)
                        Default sphere list used, NSphG=   27.
                        Lebedev-Laikov grids with approx.  5.0 points / Ang**2.
                        Smoothing algorithm: Karplus/York (Gamma=1.0000).
                        Polarization charges: spherical gaussians, with
                                              point-specific exponents (IZeta= 3).
                        Self-potential: point-specific (ISelfS= 7).
                        Self-field    : sphere-specific E.n sum rule (ISelfD= 2).
 Solvent              : Chloroform, Eps=   4.711300 Eps(inf)=   2.090627
 ------------------------------------------------------------------------------
 ------------------------------------------------------------------------------
 Atomic radii for non-electrostatic terms: SMD-CDS.
 ------------------------------------------------------------------------------
 Nuclear repulsion after PCM non-electrostatic terms =      778.0321679555 Hartrees.
 One-electron integrals computed using PRISM.
 NBasis=   265 RedAO= T  NBF=   265
 NBsUse=   265 1.00D-06 NBFU=   265
 Harris functional with IExCor=  908 diagonalized for initial guess.
 ExpMin= 1.61D-01 ExpMax= 5.48D+03 ExpMxC= 8.25D+02 IAcc=1 IRadAn=         1 AccDes= 0.00D+00
 HarFok:  IExCor=  908 AccDes= 0.00D+00 IRadAn=         1 IDoV= 1
 ScaDFX=  1.000000  1.000000  1.000000  1.000000
 FoFCou: FMM=F IPFlag=           0 FMFlag=      100000 FMFlg1=           0
         NFxFlg=           0 DoJE=T BraDBF=F KetDBF=T FulRan=T
         Omega=  0.000000  0.000000  1.000000  0.000000  0.000000 ICntrl=     500 IOpCl=  0
         NMat0=    1 NMatS0=    1 NMatT0=    0 NMatD0=    1 NMtDS0=    0 NMtDT0=    0
         I1Cent=           4 NGrid=           0.
 Petite list used in FoFCou.
 Initial guess orbital symmetries:
       Occupied  (A) (A) (A) (A) (A) (A) (A) (A) (A) (A) (A) (A)
                 (A) (A) (A) (A) (A) (A) (A) (A) (A) (A) (A) (A)
                 (A) (A) (A) (A) (A) (A) (A) (A) (A) (A) (A) (A)
                 (A) (A) (A) (A) (A) (A) (A) (A) (A) (A) (A) (A)
       Virtual   (A) (A) (A) (A) (A) (A) (A) (A) (A) (A) (A) (A)
                 (A) (A) (A) (A) (A) (A) (A) (A) (A) (A) (A) (A)
                 (A) (A) (A) (A) (A) (A) (A) (A) (A) (A) (A) (A)
                 (A) (A) (A) (A) (A) (A) (A) (A) (A) (A) (A) (A)
                 (A) (A) (A) (A) (A) (A) (A) (A) (A) (A) (A) (A)
                 (A) (A) (A) (A) (A) (A) (A) (A) (A) (A) (A) (A)
                 (A) (A) (A) (A) (A) (A) (A) (A) (A) (A) (A) (A)
                 (A) (A) (A) (A) (A) (A) (A) (A) (A) (A) (A) (A)
                 (A) (A) (A) (A) (A) (A) (A) (A) (A) (A) (A) (A)
                 (A) (A) (A) (A) (A) (A) (A) (A) (A) (A) (A) (A)
                 (A) (A) (A) (A) (A) (A) (A) (A) (A) (A) (A) (A)
                 (A) (A) (A) (A) (A) (A) (A) (A) (A) (A) (A) (A)
                 (A) (A) (A) (A) (A) (A) (A) (A) (A) (A) (A) (A)
                 (A) (A) (A) (A) (A) (A) (A) (A) (A) (A) (A) (A)
                 (A) (A) (A) (A) (A) (A) (A) (A) (A) (A) (A) (A)
                 (A) (A) (A) (A) (A) (A) (A) (A) (A) (A) (A) (A)
                 (A) (A) (A) (A) (A) (A) (A) (A) (A) (A) (A) (A)
                 (A) (A) (A) (A) (A) (A) (A) (A) (A) (A) (A) (A)
                 (A)
 The electronic state of the initial guess is 1-A.
 Requested convergence on RMS density matrix=1.00D-08 within 128 cycles.
 Requested convergence on MAX density matrix=1.00D-06.
 Requested convergence on             energy=1.00D-06.
 No special actions if energy rises.
 Error on total polarization charges =  0.02770
 SCF Done:  E(RmPW1PW91) =  -577.944977499     A.U. after   12 cycles
             Convg  =    0.6662D-08             -V/T =  2.0094
 SMD-CDS (non-electrostatic) energy       (kcal/mol) =      -4.14
 (included in total energy above)
 Range of M.O.s used for correlation:     1   265
 NBasis=   265 NAE=    48 NBE=    48 NFC=     0 NFV=     0
 NROrb=    265 NOA=    48 NOB=    48 NVA=   217 NVB=   217
 NEqPCM:  Using equilibrium solvation (IEInf=0, Eps=   4.7113, EpsInf=   2.0906)
          Differentiating once with respect to magnetic field using GIAOs.
          Electric field/nuclear overlap derivatives assumed to be zero.
 FoFCou: FMM=F IPFlag=           0 FMFlag=    10101102 FMFlg1=           0
         NFxFlg=    40000000 DoJE=F BraDBF=F KetDBF=T FulRan=T
         Omega=  0.000000  0.000000  1.000000  0.000000  0.000000 ICntrl=    6100 IOpCl=  0
         NMat0=    1 NMatS0=    1 NMatT0=    0 NMatD0=    1 NMtDS0=    0 NMtDT0=    0
         I1Cent=           7 NGrid=        2046.
 Symmetry not used in FoFCou.
          There are     3 degrees of freedom in the 1st order CPHF.  IDoFFX=0.
      3 vectors produced by pass  0 Test12= 3.47D-13 3.33D-08 XBig12= 2.67D+01 1.39D+00.
 AX will form     3 AO Fock derivatives at one time.
      3 vectors produced by pass  1 Test12= 3.47D-13 3.33D-08 XBig12= 1.22D-01 2.00D-01.
      3 vectors produced by pass  2 Test12= 3.47D-13 3.33D-08 XBig12= 1.20D-03 1.28D-02.
      3 vectors produced by pass  3 Test12= 3.47D-13 3.33D-08 XBig12= 4.31D-06 4.74D-04.
      3 vectors produced by pass  4 Test12= 3.47D-13 3.33D-08 XBig12= 1.74D-08 2.61D-05.
      3 vectors produced by pass  5 Test12= 3.47D-13 3.33D-08 XBig12= 4.60D-11 2.10D-06.
      3 vectors produced by pass  6 Test12= 3.47D-13 3.33D-08 XBig12= 2.01D-13 8.76D-08.
 Inverted reduced A of dimension    21 with in-core refinement.
 Calculating GIAO nuclear magnetic shielding tensors.
 SCF GIAO Magnetic shielding tensor (ppm):
      1  C    Isotropic =   129.2569   Anisotropy =    47.1167
   XX=   125.6085   YX=    19.4593   ZX=     2.1075
   XY=    18.4959   YY=   144.2026   ZY=    15.8373
   XZ=     2.5412   YZ=    14.1137   ZZ=   117.9595
   Eigenvalues:   107.8960   119.2066   160.6680
      2  H    Isotropic =    27.2662   Anisotropy =     5.4881
   XX=    30.5478   YX=    -1.1936   ZX=     2.2873
   XY=     0.1380   YY=    25.9958   ZY=     0.5496
   XZ=     0.1421   YZ=    -2.5776   ZZ=    25.2550
   Eigenvalues:    24.4589    26.4148    30.9249
      3  C    Isotropic =   150.6073   Anisotropy =    24.0160
   XX=   153.0979   YX=    14.2936   ZX=     2.4139
   XY=    20.7442   YY=   143.2449   ZY=    -0.7080
   XZ=     3.7704   YZ=   -12.6038   ZZ=   155.4792
   Eigenvalues:   128.0903   157.1137   166.6180
      4  H    Isotropic =    27.6582   Anisotropy =     8.4640
   XX=    30.2083   YX=    -3.4781   ZX=    -0.6777
   XY=    -5.1522   YY=    26.7100   ZY=     0.0965
   XZ=    -0.3376   YZ=     2.5263   ZZ=    26.0562
   Eigenvalues:    23.5320    26.1417    33.3009
      5  C    Isotropic =    -4.7773   Anisotropy =   167.6027
   XX=   -73.4410   YX=    24.4110   ZX=   -27.2912
   XY=    21.3897   YY=   -19.8373   ZY=   -47.5120
   XZ=   -27.0677   YZ=   -54.4540   ZZ=    78.9463
   Eigenvalues:   -82.4263   -38.8634   106.9578
      6  O    Isotropic =  -239.5193   Anisotropy =   958.7860
   XX=  -316.2441   YX=   137.2387   ZX=  -102.9785
   XY=   107.0662   YY=  -639.6363   ZY=  -380.2218
   XZ=  -104.1882   YZ=  -359.2411   ZZ=   237.3225
   Eigenvalues:  -788.4785  -329.7508   399.6713
      7  O    Isotropic =   278.2559   Anisotropy =    71.9765
   XX=   255.2509   YX=    34.2074   ZX=   -40.0394
   XY=    29.1295   YY=   297.4831   ZY=     9.0567
   XZ=   -44.2862   YZ=    -4.9276   ZZ=   282.0335
   Eigenvalues:   215.3461   293.1813   326.2402
      8  H    Isotropic =    30.7200   Anisotropy =    18.2517
   XX=    27.8798   YX=     7.8113   ZX=    -6.2380
   XY=     7.1144   YY=    33.0064   ZY=    -4.9635
   XZ=    -5.1889   YZ=    -4.6177   ZZ=    31.2738
   Eigenvalues:    21.9816    27.2907    42.8878
      9  C    Isotropic =   184.4667   Anisotropy =    12.8975
   XX=   184.9640   YX=    -3.2116   ZX=     4.8204
   XY=    -3.3180   YY=   183.8153   ZY=    -2.5644
   XZ=     6.5799   YZ=    -4.7027   ZZ=   184.6206
   Eigenvalues:   179.0481   181.2869   193.0650
     10  H    Isotropic =    30.0538   Anisotropy =     8.0853
   XX=    28.4224   YX=    -3.4872   ZX=    -1.6861
   XY=    -3.3719   YY=    32.9770   ZY=     1.9621
   XZ=    -0.6329   YZ=     1.4396   ZZ=    28.7621
   Eigenvalues:    26.5550    28.1624    35.4440
     11  H    Isotropic =    30.8897   Anisotropy =    10.2498
   XX=    28.5522   YX=     0.1103   ZX=    -1.7700
   XY=     0.1580   YY=    29.5439   ZY=    -4.9500
   XZ=    -0.3596   YZ=    -4.9680   ZZ=    34.5729
   Eigenvalues:    26.4033    28.5428    37.7229
     12  H    Isotropic =    30.5036   Anisotropy =     9.2199
   XX=    32.6938   YX=     2.3237   ZX=     4.4033
   XY=     1.8673   YY=    28.8719   ZY=     0.1216
   XZ=     5.1370   YZ=    -0.1308   ZZ=    29.9452
   Eigenvalues:    25.7884    29.0723    36.6502
     13  C    Isotropic =    64.4057   Anisotropy =   158.6204
   XX=    -2.5911   YX=    23.5542   ZX=   -19.7101
   XY=    21.0289   YY=    31.1682   ZY=   -29.1523
   XZ=   -14.1805   YZ=   -12.2591   ZZ=   164.6401
   Eigenvalues:   -13.8860    36.9505   170.1527
     14  C    Isotropic =    65.9747   Anisotropy =   182.2671
   XX=   -20.6997   YX=    31.0247   ZX=   -22.9613
   XY=    33.7946   YY=    40.8324   ZY=   -28.3637
   XZ=   -24.5518   YZ=   -27.1352   ZZ=   177.7914
   Eigenvalues:   -35.2137    45.6517   187.4861
     15  C    Isotropic =    69.0628   Anisotropy =   184.4777
   XX=    45.8753   YX=    13.8845   ZX=   -17.9124
   XY=    -0.9256   YY=   -18.0108   ZY=   -46.9149
   XZ=   -15.3637   YZ=   -46.9382   ZZ=   179.3239
   Eigenvalues:   -28.6982    43.8387   192.0479
     16  C    Isotropic =    69.6766   Anisotropy =   176.3945
   XX=    11.3884   YX=   -32.6289   ZX=   -32.6422
   XY=   -17.1975   YY=    23.8578   ZY=   -36.9389
   XZ=   -26.4263   YZ=   -45.2878   ZZ=   173.7836
   Eigenvalues:   -20.4130    42.1699   187.2729
     17  C    Isotropic =    69.9694   Anisotropy =   173.1722
   XX=    54.0464   YX=    17.6378   ZX=   -14.8564
   XY=    18.0089   YY=   -17.8926   ZY=   -42.7682
   XZ=   -15.7843   YZ=   -42.1612   ZZ=   173.7544
   Eigenvalues:   -29.3689    53.8595   185.4175
     18  C    Isotropic =    69.6145   Anisotropy =   174.2120
   XX=     9.5622   YX=   -34.0015   ZX=   -33.1033
   XY=   -33.4475   YY=    27.6794   ZY=   -40.4334
   XZ=   -32.7812   YZ=   -41.8105   ZZ=   171.6019
   Eigenvalues:   -29.4448    52.5324   185.7558
     19  H    Isotropic =    23.0607   Anisotropy =     7.3459
   XX=    27.7914   YX=     0.1968   ZX=     1.3773
   XY=     0.3632   YY=    22.8194   ZY=     1.2866
   XZ=     0.8416   YZ=     1.0852   ZZ=    18.5713
   Eigenvalues:    18.1575    23.0666    27.9579
     20  H    Isotropic =    23.0862   Anisotropy =     9.4916
   XX=    27.2887   YX=    -4.1764   ZX=    -0.0566
   XY=    -3.0379   YY=    23.2406   ZY=     0.9279
   XZ=     0.1845   YZ=     0.7620   ZZ=    18.7292
   Eigenvalues:    18.4963    21.3483    29.4139
     21  H    Isotropic =    23.7158   Anisotropy =     5.4228
   XX=    27.2047   YX=    -0.2158   ZX=     0.9004
   XY=    -0.1079   YY=    23.5897   ZY=     0.8639
   XZ=     0.9717   YZ=     0.7810   ZZ=    20.3531
   Eigenvalues:    20.0308    23.7857    27.3310
     22  H    Isotropic =    23.7021   Anisotropy =     4.8397
   XX=    25.6105   YX=    -1.4346   ZX=     0.4478
   XY=    -1.5495   YY=    25.2051   ZY=     0.9898
   XZ=     0.4536   YZ=     0.9768   ZZ=    20.2907
   Eigenvalues:    20.0013    24.1764    26.9286
     23  H    Isotropic =    23.6833   Anisotropy =     4.5486
   XX=    24.3940   YX=     0.7600   ZX=     0.7183
   XY=     1.0565   YY=    25.8754   ZY=     1.4263
   XZ=     0.6027   YZ=     1.3960   ZZ=    20.7806
   Eigenvalues:    20.3715    23.9627    26.7157
     24  C    Isotropic =   176.3442   Anisotropy =    29.3095
   XX=   175.2523   YX=    -8.0444   ZX=   -10.5403
   XY=    -1.2434   YY=   178.5890   ZY=    12.0180
   XZ=    -9.7112   YZ=    15.3919   ZZ=   175.1912
   Eigenvalues:   161.1564   171.9922   195.8839
     25  H    Isotropic =    30.7709   Anisotropy =     9.7326
   XX=    28.7569   YX=     1.2655   ZX=    -3.5598
   XY=     0.4312   YY=    29.2427   ZY=    -2.2225
   XZ=    -4.3489   YZ=    -2.9152   ZZ=    34.3130
   Eigenvalues:    26.6046    28.4487    37.2593
     26  H    Isotropic =    30.6254   Anisotropy =     8.9790
   XX=    27.9673   YX=     1.7153   ZX=    -0.6478
   XY=     2.8240   YY=    32.7697   ZY=     4.0408
   XZ=    -1.9041   YZ=     4.9118   ZZ=    31.1392
   Eigenvalues:    25.2022    30.0626    36.6114
     27  H    Isotropic =    30.4188   Anisotropy =     6.6944
   XX=    33.8899   YX=    -2.5570   ZX=     0.4383
   XY=    -2.5775   YY=    28.2066   ZY=    -1.6192
   XZ=    -1.1665   YZ=    -1.0908   ZZ=    29.1600
   Eigenvalues:    26.4890    29.8857    34.8818
 End of Minotr Frequency-dependent properties file   721 does not exist.
 End of Minotr Frequency-dependent properties file   722 does not exist.

 **********************************************************************

            Population analysis using the SCF density.

 **********************************************************************

 Orbital symmetries:
       Occupied  (A) (A) (A) (A) (A) (A) (A) (A) (A) (A) (A) (A)
                 (A) (A) (A) (A) (A) (A) (A) (A) (A) (A) (A) (A)
                 (A) (A) (A) (A) (A) (A) (A) (A) (A) (A) (A) (A)
                 (A) (A) (A) (A) (A) (A) (A) (A) (A) (A) (A) (A)
       Virtual   (A) (A) (A) (A) (A) (A) (A) (A) (A) (A) (A) (A)
                 (A) (A) (A) (A) (A) (A) (A) (A) (A) (A) (A) (A)
                 (A) (A) (A) (A) (A) (A) (A) (A) (A) (A) (A) (A)
                 (A) (A) (A) (A) (A) (A) (A) (A) (A) (A) (A) (A)
                 (A) (A) (A) (A) (A) (A) (A) (A) (A) (A) (A) (A)
                 (A) (A) (A) (A) (A) (A) (A) (A) (A) (A) (A) (A)
                 (A) (A) (A) (A) (A) (A) (A) (A) (A) (A) (A) (A)
                 (A) (A) (A) (A) (A) (A) (A) (A) (A) (A) (A) (A)
                 (A) (A) (A) (A) (A) (A) (A) (A) (A) (A) (A) (A)
                 (A) (A) (A) (A) (A) (A) (A) (A) (A) (A) (A) (A)
                 (A) (A) (A) (A) (A) (A) (A) (A) (A) (A) (A) (A)
                 (A) (A) (A) (A) (A) (A) (A) (A) (A) (A) (A) (A)
                 (A) (A) (A) (A) (A) (A) (A) (A) (A) (A) (A) (A)
                 (A) (A) (A) (A) (A) (A) (A) (A) (A) (A) (A) (A)
                 (A) (A) (A) (A) (A) (A) (A) (A) (A) (A) (A) (A)
                 (A) (A) (A) (A) (A) (A) (A) (A) (A) (A) (A) (A)
                 (A) (A) (A) (A) (A) (A) (A) (A) (A) (A) (A) (A)
                 (A) (A) (A) (A) (A) (A) (A) (A) (A) (A) (A) (A)
                 (A)
 The electronic state is 1-A.
 Alpha  occ. eigenvalues --  -19.22948 -19.22734 -10.33696 -10.29646 -10.26350
 Alpha  occ. eigenvalues --  -10.26139 -10.25866 -10.25753 -10.25582 -10.25485
 Alpha  occ. eigenvalues --  -10.25280 -10.22744 -10.22742  -1.06295  -1.03724
 Alpha  occ. eigenvalues --   -0.88603  -0.82299  -0.78278  -0.77148  -0.74082
 Alpha  occ. eigenvalues --   -0.68367  -0.64734  -0.62589  -0.59991  -0.55409
 Alpha  occ. eigenvalues --   -0.53076  -0.50732  -0.48469  -0.47213  -0.46867
 Alpha  occ. eigenvalues --   -0.45504  -0.44487  -0.43358  -0.43200  -0.40827
 Alpha  occ. eigenvalues --   -0.39597  -0.38408  -0.38229  -0.36844  -0.36358
 Alpha  occ. eigenvalues --   -0.36281  -0.35342  -0.34334  -0.32460  -0.27576
 Alpha  occ. eigenvalues --   -0.26745  -0.26703  -0.26133
 Alpha virt. eigenvalues --   -0.05235  -0.00322   0.04604   0.09723   0.11551
 Alpha virt. eigenvalues --    0.13025   0.14729   0.16218   0.17128   0.17453
 Alpha virt. eigenvalues --    0.17885   0.18245   0.19157   0.19579   0.20069
 Alpha virt. eigenvalues --    0.20649   0.21217   0.21779   0.23157   0.25236
 Alpha virt. eigenvalues --    0.26378   0.27381   0.29805   0.30489   0.31608
 Alpha virt. eigenvalues --    0.32149   0.33518   0.38259   0.40803   0.49976
 Alpha virt. eigenvalues --    0.51931   0.53210   0.54041   0.54732   0.55867
 Alpha virt. eigenvalues --    0.56403   0.57807   0.59395   0.59973   0.60967
 Alpha virt. eigenvalues --    0.61120   0.62037   0.62525   0.63244   0.64331
 Alpha virt. eigenvalues --    0.64743   0.65655   0.67393   0.68675   0.69414
 Alpha virt. eigenvalues --    0.72300   0.74352   0.76960   0.78140   0.79588
 Alpha virt. eigenvalues --    0.80089   0.81366   0.83425   0.84214   0.84405
 Alpha virt. eigenvalues --    0.85246   0.85408   0.86876   0.88972   0.89679
 Alpha virt. eigenvalues --    0.91369   0.91510   0.91863   0.93564   0.94679
 Alpha virt. eigenvalues --    0.95881   0.96939   0.97545   0.99323   1.01980
 Alpha virt. eigenvalues --    1.02441   1.03521   1.05684   1.06255   1.07873
 Alpha virt. eigenvalues --    1.08754   1.10355   1.14677   1.16596   1.18412
 Alpha virt. eigenvalues --    1.20589   1.22094   1.25661   1.27314   1.30766
 Alpha virt. eigenvalues --    1.33905   1.35806   1.37982   1.39742   1.40772
 Alpha virt. eigenvalues --    1.41673   1.42432   1.43002   1.45799   1.46868
 Alpha virt. eigenvalues --    1.49592   1.51659   1.54766   1.59587   1.64798
 Alpha virt. eigenvalues --    1.67627   1.71543   1.72633   1.76221   1.77592
 Alpha virt. eigenvalues --    1.78786   1.79870   1.80813   1.84178   1.85810
 Alpha virt. eigenvalues --    1.88059   1.90338   1.91325   1.92356   1.92840
 Alpha virt. eigenvalues --    1.94811   1.95711   1.97699   1.98239   1.98530
 Alpha virt. eigenvalues --    2.00543   2.00971   2.02474   2.05517   2.05870
 Alpha virt. eigenvalues --    2.06662   2.08709   2.08952   2.09899   2.12099
 Alpha virt. eigenvalues --    2.14667   2.14994   2.15826   2.18118   2.21024
 Alpha virt. eigenvalues --    2.22958   2.27578   2.29105   2.30455   2.32660
 Alpha virt. eigenvalues --    2.33781   2.35758   2.38271   2.39472   2.40074
 Alpha virt. eigenvalues --    2.41347   2.42616   2.42743   2.45829   2.46940
 Alpha virt. eigenvalues --    2.48776   2.49597   2.51847   2.51912   2.53443
 Alpha virt. eigenvalues --    2.56639   2.59620   2.60185   2.60603   2.63109
 Alpha virt. eigenvalues --    2.65120   2.66419   2.67178   2.69132   2.71727
 Alpha virt. eigenvalues --    2.73772   2.75832   2.75858   2.78071   2.79381
 Alpha virt. eigenvalues --    2.81788   2.84364   2.85934   2.86530   2.89669
 Alpha virt. eigenvalues --    2.92498   2.93849   2.96052   2.98256   3.02979
 Alpha virt. eigenvalues --    3.06326   3.10206   3.12770   3.21371   3.22953
 Alpha virt. eigenvalues --    3.25633   3.26174   3.27739   3.36048   3.39636
 Alpha virt. eigenvalues --    3.41560   3.45870   3.48894   3.49667   3.51015
 Alpha virt. eigenvalues --    3.52884   3.53336   3.56419   3.91418   4.01308
 Alpha virt. eigenvalues --    4.12619   4.15991   4.18617   4.22142   4.33793
 Alpha virt. eigenvalues --    4.42511   4.46437   4.53140   4.61488   4.69248
 Alpha virt. eigenvalues --    4.78639   4.87682
          Condensed to atoms (all electrons):
              1          2          3          4          5          6
     1  C    4.758104   0.402193   0.331681  -0.033966  -0.022524  -0.001959
     2  H    0.402193   0.627624  -0.065598  -0.003352   0.002533  -0.000139
     3  C    0.331681  -0.065598   5.323388   0.386209   0.279042  -0.091341
     4  H   -0.033966  -0.003352   0.386209   0.557871  -0.032617   0.002803
     5  C   -0.022524   0.002533   0.279042  -0.032617   4.621296   0.528924
     6  O   -0.001959  -0.000139  -0.091341   0.002803   0.528924   8.127479
     7  O    0.219391  -0.041544  -0.048953   0.000233   0.001305  -0.000007
     8  H   -0.026735  -0.003582   0.006897   0.000022  -0.000210   0.000002
     9  C   -0.035479   0.005756   0.325435  -0.047803  -0.032852   0.000724
    10  H   -0.006760  -0.000003  -0.030961   0.004823  -0.007318   0.007643
    11  H    0.004470  -0.000121  -0.031290  -0.003956  -0.003950   0.000582
    12  H   -0.004488   0.000214  -0.033968  -0.002826   0.004923   0.000333
    13  C   -0.006077   0.001813  -0.101116  -0.000699   0.322685  -0.088732
    14  C   -0.000001  -0.000008  -0.000029   0.000006   0.000129  -0.000015
    15  C   -0.000133  -0.000222   0.009176  -0.000245  -0.039336  -0.000232
    16  C   -0.001002   0.003744  -0.004185  -0.000100  -0.037976   0.003875
    17  C    0.000034   0.000015   0.000056   0.000184   0.004566  -0.000068
    18  C    0.000006   0.000005  -0.000068  -0.000023   0.005799   0.001008
    19  H   -0.000007  -0.000005   0.000623  -0.000021  -0.008665   0.014689
    20  H   -0.001484  -0.001226   0.002997   0.002697  -0.008607   0.000027
    21  H   -0.000001   0.000001   0.000016  -0.000006  -0.000120   0.000000
    22  H    0.000000   0.000000   0.000001   0.000000  -0.000130   0.000004
    23  H    0.000000   0.000000   0.000000   0.000000   0.000006   0.000000
    24  C    0.352399  -0.057731  -0.042637   0.005484  -0.003203  -0.001179
    25  H   -0.029011  -0.006908   0.005247  -0.000105   0.000083   0.000030
    26  H   -0.022557   0.002042  -0.005110  -0.000060   0.002103   0.005352
    27  H   -0.029072   0.005471  -0.009598  -0.000085   0.000276  -0.000045
              7          8          9         10         11         12
     1  C    0.219391  -0.026735  -0.035479  -0.006760   0.004470  -0.004488
     2  H   -0.041544  -0.003582   0.005756  -0.000003  -0.000121   0.000214
     3  C   -0.048953   0.006897   0.325435  -0.030961  -0.031290  -0.033968
     4  H    0.000233   0.000022  -0.047803   0.004823  -0.003956  -0.002826
     5  C    0.001305  -0.000210  -0.032852  -0.007318  -0.003950   0.004923
     6  O   -0.000007   0.000002   0.000724   0.007643   0.000582   0.000333
     7  O    8.223482   0.291941  -0.001151   0.000006  -0.000023   0.005798
     8  H    0.291941   0.388209  -0.000106   0.000003   0.000007  -0.000227
     9  C   -0.001151  -0.000106   5.037781   0.386500   0.388570   0.384281
    10  H    0.000006   0.000003   0.386500   0.548876  -0.028001  -0.027988
    11  H   -0.000023   0.000007   0.388570  -0.028001   0.558536  -0.028107
    12  H    0.005798  -0.000227   0.384281  -0.027988  -0.028107   0.557550
    13  C    0.000111  -0.000001   0.005394   0.000324   0.000041  -0.000102
    14  C    0.000000   0.000000   0.000000   0.000000   0.000000   0.000000
    15  C    0.000001   0.000000  -0.000214  -0.000008  -0.000003   0.000001
    16  C   -0.000597   0.000013   0.000075  -0.000010   0.000009   0.000001
    17  C   -0.000002   0.000000  -0.000003   0.000000   0.000000   0.000000
    18  C    0.000000   0.000000   0.000001   0.000000   0.000000   0.000000
    19  H    0.000000   0.000000  -0.000019  -0.000003  -0.000003   0.000000
    20  H    0.001933  -0.000054  -0.000082  -0.000001  -0.000010   0.000000
    21  H    0.000000   0.000000   0.000000   0.000000   0.000000   0.000000
    22  H    0.000000   0.000000   0.000000   0.000000   0.000000   0.000000
    23  H    0.000000   0.000000   0.000000   0.000000   0.000000   0.000000
    24  C   -0.053435  -0.003666  -0.012762   0.003004   0.000176  -0.001217
    25  H   -0.002320   0.004116   0.000153   0.000016  -0.000004  -0.000054
    26  H    0.003851  -0.000007  -0.000139   0.000972  -0.000014   0.000081
    27  H    0.001313  -0.000634   0.003357  -0.000205  -0.000040   0.001362
             13         14         15         16         17         18
     1  C   -0.006077  -0.000001  -0.000133  -0.001002   0.000034   0.000006
     2  H    0.001813  -0.000008  -0.000222   0.003744   0.000015   0.000005
     3  C   -0.101116  -0.000029   0.009176  -0.004185   0.000056  -0.000068
     4  H   -0.000699   0.000006  -0.000245  -0.000100   0.000184  -0.000023
     5  C    0.322685   0.000129  -0.039336  -0.037976   0.004566   0.005799
     6  O   -0.088732  -0.000015  -0.000232   0.003875  -0.000068   0.001008
     7  O    0.000111   0.000000   0.000001  -0.000597  -0.000002   0.000000
     8  H   -0.000001   0.000000   0.000000   0.000013   0.000000   0.000000
     9  C    0.005394   0.000000  -0.000214   0.000075  -0.000003   0.000001
    10  H    0.000324   0.000000  -0.000008  -0.000010   0.000000   0.000000
    11  H    0.000041   0.000000  -0.000003   0.000009   0.000000   0.000000
    12  H   -0.000102   0.000000   0.000001   0.000001   0.000000   0.000000
    13  C    5.030469  -0.032392   0.495442   0.512865  -0.027179  -0.034118
    14  C   -0.032392   4.864397  -0.045016  -0.047554   0.542194   0.533256
    15  C    0.495442  -0.045016   4.963440  -0.068228  -0.039022   0.506072
    16  C    0.512865  -0.047554  -0.068228   4.961432   0.519753  -0.037982
    17  C   -0.027179   0.542194  -0.039022   0.519753   4.890194  -0.040216
    18  C   -0.034118   0.533256   0.506072  -0.037982  -0.040216   4.908264
    19  H   -0.043799   0.004168   0.379572   0.004721   0.000116  -0.035860
    20  H   -0.035718   0.004208   0.004617   0.376298  -0.036393   0.000150
    21  H    0.002980  -0.037045   0.000631  -0.032963   0.381082   0.003923
    22  H    0.003139  -0.037499  -0.034049   0.000598   0.003941   0.382174
    23  H    0.000468   0.381974   0.003933   0.004204  -0.036683  -0.036837
    24  C    0.000496   0.000000   0.000010  -0.000046  -0.000001   0.000000
    25  H    0.000003   0.000000  -0.000001  -0.000001   0.000000   0.000000
    26  H    0.000153   0.000000  -0.000009  -0.000023   0.000001   0.000000
    27  H   -0.000020   0.000000   0.000000   0.000001   0.000000   0.000000
             19         20         21         22         23         24
     1  C   -0.000007  -0.001484  -0.000001   0.000000   0.000000   0.352399
     2  H   -0.000005  -0.001226   0.000001   0.000000   0.000000  -0.057731
     3  C    0.000623   0.002997   0.000016   0.000001   0.000000  -0.042637
     4  H   -0.000021   0.002697  -0.000006   0.000000   0.000000   0.005484
     5  C   -0.008665  -0.008607  -0.000120  -0.000130   0.000006  -0.003203
     6  O    0.014689   0.000027   0.000000   0.000004   0.000000  -0.001179
     7  O    0.000000   0.001933   0.000000   0.000000   0.000000  -0.053435
     8  H    0.000000  -0.000054   0.000000   0.000000   0.000000  -0.003666
     9  C   -0.000019  -0.000082   0.000000   0.000000   0.000000  -0.012762
    10  H   -0.000003  -0.000001   0.000000   0.000000   0.000000   0.003004
    11  H   -0.000003  -0.000010   0.000000   0.000000   0.000000   0.000176
    12  H    0.000000   0.000000   0.000000   0.000000   0.000000  -0.001217
    13  C   -0.043799  -0.035718   0.002980   0.003139   0.000468   0.000496
    14  C    0.004168   0.004208  -0.037045  -0.037499   0.381974   0.000000
    15  C    0.379572   0.004617   0.000631  -0.034049   0.003933   0.000010
    16  C    0.004721   0.376298  -0.032963   0.000598   0.004204  -0.000046
    17  C    0.000116  -0.036393   0.381082   0.003941  -0.036683  -0.000001
    18  C   -0.035860   0.000150   0.003923   0.382174  -0.036837   0.000000
    19  H    0.525050  -0.000105   0.000013  -0.004234  -0.000138   0.000001
    20  H   -0.000105   0.526799  -0.004484   0.000013  -0.000142   0.000113
    21  H    0.000013  -0.004484   0.530806  -0.000145  -0.004485   0.000000
    22  H   -0.004234   0.000013  -0.000145   0.530668  -0.004440   0.000000
    23  H   -0.000138  -0.000142  -0.004485  -0.004440   0.531505   0.000000
    24  C    0.000001   0.000113   0.000000   0.000000   0.000000   5.123293
    25  H    0.000000   0.000000   0.000000   0.000000   0.000000   0.383162
    26  H   -0.000003  -0.000016   0.000000   0.000000   0.000000   0.356372
    27  H    0.000000  -0.000001   0.000000   0.000000   0.000000   0.381994
             25         26         27
     1  C   -0.029011  -0.022557  -0.029072
     2  H   -0.006908   0.002042   0.005471
     3  C    0.005247  -0.005110  -0.009598
     4  H   -0.000105  -0.000060  -0.000085
     5  C    0.000083   0.002103   0.000276
     6  O    0.000030   0.005352  -0.000045
     7  O   -0.002320   0.003851   0.001313
     8  H    0.004116  -0.000007  -0.000634
     9  C    0.000153  -0.000139   0.003357
    10  H    0.000016   0.000972  -0.000205
    11  H   -0.000004  -0.000014  -0.000040
    12  H   -0.000054   0.000081   0.001362
    13  C    0.000003   0.000153  -0.000020
    14  C    0.000000   0.000000   0.000000
    15  C   -0.000001  -0.000009   0.000000
    16  C   -0.000001  -0.000023   0.000001
    17  C    0.000000   0.000001   0.000000
    18  C    0.000000   0.000000   0.000000
    19  H    0.000000  -0.000003   0.000000
    20  H    0.000000  -0.000016  -0.000001
    21  H    0.000000   0.000000   0.000000
    22  H    0.000000   0.000000   0.000000
    23  H    0.000000   0.000000   0.000000
    24  C    0.383162   0.356372   0.381994
    25  H    0.563693  -0.024971  -0.033705
    26  H   -0.024971   0.556145  -0.023014
    27  H   -0.033705  -0.023014   0.553401
 Mulliken atomic charges:
              1
     1  C    0.152977
     2  H    0.129027
     3  C   -0.205912
     4  H    0.165533
     5  C    0.423838
     6  O   -0.509760
     7  O   -0.601334
     8  H    0.344011
     9  C   -0.407419
    10  H    0.149088
    11  H    0.143131
    12  H    0.144432
    13  C   -0.006428
    14  C   -0.130773
    15  C   -0.136179
    16  C   -0.156922
    17  C   -0.162569
    18  C   -0.155554
    19  H    0.163906
    20  H    0.168470
    21  H    0.159797
    22  H    0.159959
    23  H    0.160635
    24  C   -0.430625
    25  H    0.140576
    26  H    0.148851
    27  H    0.149243
 Sum of Mulliken atomic charges =   0.00000
 Mulliken charges with hydrogens summed into heavy atoms:
              1
     1  C    0.282004
     3  C   -0.040379
     5  C    0.423838
     6  O   -0.509760
     7  O   -0.257323
     9  C    0.029232
    13  C   -0.006428
    14  C    0.029862
    15  C    0.027727
    16  C    0.011549
    17  C   -0.002773
    18  C    0.004405
    24  C    0.008046
 Sum of Mulliken charges with hydrogens summed into heavy atoms =   0.00000
 Electronic spatial extent (au):  <R**2>=           2845.9626
 Charge=              0.0000 electrons
 Dipole moment (field-independent basis, Debye):
    X=             -1.1139    Y=              2.9969    Z=             -0.8924  Tot=              3.3194
 Quadrupole moment (field-independent basis, Debye-Ang):
   XX=            -63.7947   YY=            -77.6949   ZZ=            -76.7959
   XY=              1.6312   XZ=             -3.9705   YZ=             -3.5165
 Traceless Quadrupole moment (field-independent basis, Debye-Ang):
   XX=              8.9671   YY=             -4.9331   ZZ=             -4.0341
   XY=              1.6312   XZ=             -3.9705   YZ=             -3.5165
 Octapole moment (field-independent basis, Debye-Ang**2):
  XXX=            -18.7608  YYY=             26.7467  ZZZ=             -0.8588  XYY=             -5.1870
  XXY=             11.2005  XXZ=            -24.1290  XZZ=             17.7798  YZZ=              1.4851
  YYZ=             -4.9326  XYZ=            -17.2464
 Hexadecapole moment (field-independent basis, Debye-Ang**3):
 XXXX=          -2402.5503 YYYY=           -678.4036 ZZZZ=           -329.1806 XXXY=             40.0032
 XXXZ=            -22.4371 YYYX=             42.4662 YYYZ=            -11.9391 ZZZX=             -5.6356
 ZZZY=             -4.1973 XXYY=           -495.8106 XXZZ=           -520.6715 YYZZ=           -166.2527
 XXYZ=            -23.0532 YYXZ=            -26.8596 ZZXY=             18.2828
 N-N= 7.780321679555D+02 E-N=-2.900679651346D+03  KE= 5.725838338229D+02
 1\1\GINC-COMPUTE-8-14\SP\RmPW1PW91\6-31G(d,p)\C11H14O2\FBRUNO.IQUIR\21
 -Dec-2021\0\\# mPW1PW91/6-31g** scrf=(pcm,solvent=chloroform,smd,dovac
 uum) nmr\\comment\\0,1\C,0,-0.868420825,-0.049710326,1.788907797\H,0,-
 0.005132097,-0.721363655,1.718613726\C,0,-0.942214988,0.83787808,0.534
 07669\H,0,-0.184110523,1.6269534,0.602969004\C,0,-0.658554303,-0.00429
 543,-0.705076691\O,0,-1.567043549,-0.555919346,-1.326838458\O,0,-0.630
 53705,0.79617911,2.917905265\H,0,-0.653703618,0.239447826,3.715978041\
 C,0,-2.269437026,1.587569633,0.384459397\H,0,-3.114158523,0.909267097,
 0.225567978\H,0,-2.231323898,2.257256188,-0.482250891\H,0,-2.477724586
 ,2.195834883,1.270567588\C,0,0.753026087,-0.194492767,-1.171111559\C,0
 ,3.350293002,-0.615382177,-2.147139138\C,0,0.959071459,-0.833602445,-2
 .403018374\C,0,1.864797594,0.22666157,-0.430350199\C,0,3.157882607,0.0
 1652062,-0.919940387\C,0,2.251542451,-1.041722843,-2.888976581\H,0,0.1
 10120548,-1.172848274,-2.994564963\H,0,1.762743358,0.714085755,0.53466
 6215\H,0,4.017463249,0.346064143,-0.340615806\H,0,2.397611141,-1.53656
 0322,-3.846016367\H,0,4.357050999,-0.776948432,-2.524826716\C,0,-2.108
 521813,-0.89717947,2.055673592\H,0,-1.936844131,-1.551348421,2.9180343
 08\H,0,-2.361773297,-1.526111891,1.19772308\H,0,-2.972102268,-0.276232
 507,2.315583447\\Version=EM64L-G09RevC.01\State=1-A\HF=-577.9449775\RM
 SD=6.662e-09\Dipole=1.1202787,-0.2371137,0.6279256\Quadrupole=0.625518
 6,-4.4059869,3.7804682,-0.8865744,-5.2348922,-2.2866688\PG=C01 [X(C11H
 14O2)]\\@


 Luck is a matter of preparation meeting opportunity.
                                    -- Oprah Winfrey
 Job cpu time:  0 days  0 hours 17 minutes 59.5 seconds.
 File lengths (MBytes):  RWF=     81 Int=      0 D2E=      0 Chk=      5 Scr=      1
 Normal termination of Gaussian 09 at Tue Dec 21 10:08:54 2021.
