 Entering Gaussian System, Link 0=g09
 Input=/home/fbruno.iquir/2_val_run/2b_002_MPW_A_SMD.gjc
 Output=/home/fbruno.iquir/2_val_run/2b_002_MPW_A_SMD.log
 Initial command:
 /share/apps/Gaussian09/EM64T.SSE4.2-enabled/g09/l1.exe /tmp/Gau-5573.inp -scrdir=/tmp/
 Entering Link 1 = /share/apps/Gaussian09/EM64T.SSE4.2-enabled/g09/l1.exe PID=      5574.
  
 Copyright (c) 1988,1990,1992,1993,1995,1998,2003,2009,2011,
            Gaussian, Inc.  All Rights Reserved.
  
 This is part of the Gaussian(R) 09 program.  It is based on
 the Gaussian(R) 03 system (copyright 2003, Gaussian, Inc.),
 the Gaussian(R) 98 system (copyright 1998, Gaussian, Inc.),
 the Gaussian(R) 94 system (copyright 1995, Gaussian, Inc.),
 the Gaussian 92(TM) system (copyright 1992, Gaussian, Inc.),
 the Gaussian 90(TM) system (copyright 1990, Gaussian, Inc.),
 the Gaussian 88(TM) system (copyright 1988, Gaussian, Inc.),
 the Gaussian 86(TM) system (copyright 1986, Carnegie Mellon
 University), and the Gaussian 82(TM) system (copyright 1983,
 Carnegie Mellon University). Gaussian is a federally registered
 trademark of Gaussian, Inc.
  
 This software contains proprietary and confidential information,
 including trade secrets, belonging to Gaussian, Inc.
  
 This software is provided under written license and may be
 used, copied, transmitted, or stored only in accord with that
 written license.
  
 The following legend is applicable only to US Government
 contracts under FAR:
  
                    RESTRICTED RIGHTS LEGEND
  
 Use, reproduction and disclosure by the US Government is
 subject to restrictions as set forth in subparagraphs (a)
 and (c) of the Commercial Computer Software - Restricted
 Rights clause in FAR 52.227-19.
  
 Gaussian, Inc.
 340 Quinnipiac St., Bldg. 40, Wallingford CT 06492
  
  
 ---------------------------------------------------------------
 Warning -- This program may not be used in any manner that
 competes with the business of Gaussian, Inc. or will provide
 assistance to any competitor of Gaussian, Inc.  The licensee
 of this program is prohibited from giving any competitor of
 Gaussian, Inc. access to this program.  By using this program,
 the user acknowledges that Gaussian, Inc. is engaged in the
 business of creating and licensing software in the field of
 computational chemistry and represents and warrants to the
 licensee that it is not a competitor of Gaussian, Inc. and that
 it will not use this program in any manner prohibited above.
 ---------------------------------------------------------------
  

 Cite this work as:
 Gaussian 09, Revision C.01,
 M. J. Frisch, G. W. Trucks, H. B. Schlegel, G. E. Scuseria, 
 M. A. Robb, J. R. Cheeseman, G. Scalmani, V. Barone, B. Mennucci, 
 G. A. Petersson, H. Nakatsuji, M. Caricato, X. Li, H. P. Hratchian, 
 A. F. Izmaylov, J. Bloino, G. Zheng, J. L. Sonnenberg, M. Hada, 
 M. Ehara, K. Toyota, R. Fukuda, J. Hasegawa, M. Ishida, T. Nakajima, 
 Y. Honda, O. Kitao, H. Nakai, T. Vreven, J. A. Montgomery, Jr., 
 J. E. Peralta, F. Ogliaro, M. Bearpark, J. J. Heyd, E. Brothers, 
 K. N. Kudin, V. N. Staroverov, T. Keith, R. Kobayashi, J. Normand, 
 K. Raghavachari, A. Rendell, J. C. Burant, S. S. Iyengar, J. Tomasi, 
 M. Cossi, N. Rega, J. M. Millam, M. Klene, J. E. Knox, J. B. Cross, 
 V. Bakken, C. Adamo, J. Jaramillo, R. Gomperts, R. E. Stratmann, 
 O. Yazyev, A. J. Austin, R. Cammi, C. Pomelli, J. W. Ochterski, 
 R. L. Martin, K. Morokuma, V. G. Zakrzewski, G. A. Voth, 
 P. Salvador, J. J. Dannenberg, S. Dapprich, A. D. Daniels, 
 O. Farkas, J. B. Foresman, J. V. Ortiz, J. Cioslowski, 
 and D. J. Fox, Gaussian, Inc., Wallingford CT, 2010.
 
 ******************************************
 Gaussian 09:  EM64L-G09RevC.01 23-Sep-2011
                21-Dec-2021 
 ******************************************
 %nprocshared=4
 Will use up to    4 processors via shared memory.
 -----------------------------------------------------------------
 # mPW1PW91/6-31g** scrf=(pcm,solvent=chloroform,smd,dovacuum) nmr
 -----------------------------------------------------------------
 1/38=1/1;
 2/12=2,17=6,18=5,40=1/2;
 3/5=1,6=6,7=101,11=2,16=1,25=1,30=1,70=32101,72=7,74=-7/1,2,8,3;
 4//1;
 5/5=2,38=5,53=7/2;
 8/6=1,10=90,11=11/1;
 10/13=100,45=16/2;
 6/7=2,8=2,9=2,10=2,28=1/1;
 99/9=1/99;
 -------
 comment
 -------
 Charge =  0 Multiplicity = 1
 Symbolic Z-Matrix:
 6                     0.33973  -0.98642   1.88851 
 1                     0.36629  -2.052     1.63078 
 6                    -0.70068  -0.24664   1.03033 
 1                    -0.53305   0.8341    1.07554 
 6                    -0.56501  -0.73219  -0.41229 
 8                    -0.97554  -1.84476  -0.74968 
 8                     1.6315   -0.443     1.59301 
 1                     2.29047  -1.02027   2.01903 
 6                    -2.1452   -0.49753   1.47359 
 1                    -2.35567  -1.56833   1.57136 
 1                    -2.85304  -0.08688   0.7446 
 1                    -2.35148  -0.01879   2.4361 
 6                     0.04454   0.1537   -1.45022 
 6                     1.12203   1.75154  -3.48701 
 6                     0.89965   1.2156   -1.13656 
 6                    -0.25377  -0.10867  -2.7955 
 6                     0.28038   0.68931  -3.80924 
 6                     1.43411   2.01237  -2.15365 
 1                     1.18765   1.43047  -0.11172 
 1                    -0.90742  -0.93813  -3.05965 
 1                     0.04114   0.47806  -4.84839 
 1                     2.10252   2.83278  -1.90343 
 1                     1.54167   2.37138  -4.27546 
 6                     0.12115  -0.83736   3.39036 
 1                     0.95599  -1.28007   3.94504 
 1                    -0.79944  -1.32791   3.71879 
 1                     0.08149   0.21963   3.67577 
 
                          Input orientation:                          
 ---------------------------------------------------------------------
 Center     Atomic      Atomic             Coordinates (Angstroms)
 Number     Number       Type             X           Y           Z
 ---------------------------------------------------------------------
      1          6           0        0.339733   -0.986415    1.888514
      2          1           0        0.366295   -2.052000    1.630778
      3          6           0       -0.700682   -0.246639    1.030327
      4          1           0       -0.533048    0.834103    1.075539
      5          6           0       -0.565011   -0.732193   -0.412294
      6          8           0       -0.975538   -1.844759   -0.749677
      7          8           0        1.631495   -0.442999    1.593010
      8          1           0        2.290467   -1.020270    2.019026
      9          6           0       -2.145200   -0.497526    1.473586
     10          1           0       -2.355674   -1.568332    1.571358
     11          1           0       -2.853039   -0.086882    0.744595
     12          1           0       -2.351478   -0.018791    2.436098
     13          6           0        0.044536    0.153704   -1.450218
     14          6           0        1.122032    1.751536   -3.487007
     15          6           0        0.899646    1.215601   -1.136563
     16          6           0       -0.253772   -0.108671   -2.795499
     17          6           0        0.280379    0.689312   -3.809238
     18          6           0        1.434106    2.012369   -2.153649
     19          1           0        1.187645    1.430468   -0.111721
     20          1           0       -0.907419   -0.938125   -3.059646
     21          1           0        0.041145    0.478057   -4.848391
     22          1           0        2.102519    2.832782   -1.903428
     23          1           0        1.541673    2.371382   -4.275457
     24          6           0        0.121147   -0.837365    3.390357
     25          1           0        0.955985   -1.280072    3.945044
     26          1           0       -0.799438   -1.327905    3.718786
     27          1           0        0.081494    0.219630    3.675771
 ---------------------------------------------------------------------
                    Distance matrix (angstroms):
                    1          2          3          4          5
     1  C    0.000000
     2  H    1.096633   0.000000
     3  C    1.538252   2.181355   0.000000
     4  H    2.176457   3.073549   1.094600   0.000000
     5  C    2.485339   2.604489   1.528177   2.160544   0.000000
     6  O    3.070301   2.740443   2.407893   3.271622   1.232949
     7  O    1.432227   2.047204   2.407118   2.565934   2.988229
     8  H    1.955388   2.217576   3.243918   3.507294   3.761391
     9  C    2.566334   2.957821   1.531684   2.128547   2.471560
    10  H    2.775687   2.765245   2.185998   3.056059   2.800085
    11  H    3.508776   3.874419   2.177110   2.517954   2.643841
    12  H    2.911831   3.488376   2.180191   2.425950   3.437112
    13  C    3.540360   3.802788   2.620826   2.678804   1.494539
    14  C    6.083141   6.421040   5.265102   4.939413   4.297544
    15  C    3.783315   4.315073   3.065063   2.662996   2.542378
    16  C    4.802361   4.873699   3.854311   3.993964   2.483006
    17  C    5.939357   6.092285   5.025920   4.954157   3.778173
    18  C    5.150674   5.655193   4.449510   3.960513   3.815941
    19  H    3.249804   3.979762   2.771776   2.173942   2.799866
    20  H    5.103138   4.986295   4.153165   4.514499   2.677336
    21  H    6.900705   6.963228   5.969491   5.962333   4.638005
    22  H    5.663260   6.274248   5.093888   4.451424   4.695556
    23  H    7.121377   7.472043   6.327206   5.941452   5.384638
    24  C    1.524968   2.152105   2.567898   2.929191   3.865492
    25  H    2.166867   2.509867   3.508290   3.862773   4.647579
    26  H    2.182709   2.498604   2.899431   3.425201   4.180388
    27  H    2.171524   3.069757   2.797781   2.741614   4.246906
                    6          7          8          9         10
     6  O    0.000000
     7  O    3.774882   0.000000
     8  H    4.360309   0.974154   0.000000
     9  C    2.850622   3.778976   4.499546   0.000000
    10  H    2.714478   4.142990   4.699725   1.095666   0.000000
    11  H    2.974558   4.577955   5.380618   1.095944   1.767938
    12  H    3.921292   4.093266   4.767029   1.094608   1.774506
    13  C    2.350566   3.483637   4.296286   3.710482   4.225676
    14  C    4.982581   5.557167   6.274118   6.351423   6.978755
    15  C    3.609958   3.276755   4.109896   4.361052   5.067567
    16  C    2.778549   4.788007   5.521216   4.685488   5.061427
    17  C    4.166503   5.682598   6.397796   5.932979   6.402854
    18  C    4.759722   4.483888   5.228908   5.680479   6.407771
    19  H    3.976614   2.571573   3.429638   4.163919   4.937679
    20  H    2.482455   5.323386   6.002178   4.719791   4.892934
    21  H    4.819603   6.698448   7.380099   6.760123   7.151617
    22  H    5.717077   4.814321   5.501544   6.366969   7.163758
    23  H    6.045107   6.509048   7.189194   7.407777   8.055800
    24  C    4.399710   2.380574   2.572927   2.987613   3.158752
    25  H    5.107843   2.586323   2.357516   4.042008   4.084675
    26  H    4.501701   3.348346   3.539963   2.746184   2.662916
    27  H    4.996359   2.679454   3.026833   3.212802   3.683090
                   11         12         13         14         15
    11  H    0.000000
    12  H    1.765610   0.000000
    13  C    3.642943   4.568817   0.000000
    14  C    6.089945   7.091015   2.804028   0.000000
    15  C    4.395210   4.985723   1.399006   2.421006   0.000000
    16  C    4.391917   5.637203   1.402715   2.414827   2.415809
    17  C    5.581951   6.814124   2.430529   1.393030   2.793503
    18  C    5.584469   6.286655   2.424944   1.394011   1.398196
    19  H    4.400314   4.595337   2.174488   3.391157   1.086008
    20  H    4.356869   5.756186   2.165311   3.396408   3.406210
    21  H    6.322733   7.683442   3.413619   2.154863   3.880549
    22  H    6.331984   6.841129   3.408541   2.153641   2.156446
    23  H    7.110379   8.118775   3.891207   1.087180   3.405977
    24  C    4.050810   2.773905   4.941584   7.416355   5.031276
    25  H    5.116174   3.847994   5.656439   8.028300   5.661651
    26  H    3.821417   2.401645   5.442982   8.068362   5.738530
    27  H    4.158994   2.740983   5.126546   7.398300   4.981956
                   16         17         18         19         20
    16  C    0.000000
    17  C    1.396338   0.000000
    18  C    2.785626   2.412994   0.000000
    19  H    3.413107   3.878669   2.137481   0.000000
    20  H    1.088588   2.149722   3.874143   4.323169   0.000000
    21  H    2.155363   1.087061   3.399425   4.965642   2.470820
    22  H    3.872989   3.398054   1.087412   2.452283   4.961483
    23  H    3.400670   2.153505   2.154652   4.283381   4.292911
    24  C    6.239902   7.361404   6.370310   4.306395   6.532277
    25  H    6.947705   8.028935   6.947145   4.884469   7.256368
    26  H    6.649826   7.868056   7.115592   5.121514   6.790488
    27  H    6.488260   7.502367   6.247048   4.127323   6.905374
                   21         22         23         24         25
    21  H    0.000000
    22  H    4.297302   0.000000
    23  H    2.482845   2.480717   0.000000
    24  C    8.343483   6.739434   8.430816   0.000000
    25  H    9.014014   7.241183   9.014032   1.095729   0.000000
    26  H    8.795715   7.572448   9.114463   1.093605   1.770591
    27  H    8.528174   6.483870   8.365655   1.095569   1.756800
                   26         27
    26  H    0.000000
    27  H    1.781224   0.000000
 Stoichiometry    C11H14O2
 Framework group  C1[X(C11H14O2)]
 Deg. of freedom    75
 Full point group                 C1      NOp   1
 Largest Abelian subgroup         C1      NOp   1
 Largest concise Abelian subgroup C1      NOp   1
                         Standard orientation:                         
 ---------------------------------------------------------------------
 Center     Atomic      Atomic             Coordinates (Angstroms)
 Number     Number       Type             X           Y           Z
 ---------------------------------------------------------------------
      1          6           0       -2.332365   -0.459950   -0.468842
      2          1           0       -2.450238    0.117097   -1.393897
      3          6           0       -1.452994    0.301985    0.537328
      4          1           0       -1.101810   -0.372989    1.324238
      5          6           0       -0.258357    0.885918   -0.215791
      6          8           0       -0.388425    1.867162   -0.950914
      7          8           0       -1.667062   -1.681746   -0.809225
      8          1           0       -2.151907   -2.074224   -1.557464
      9          6           0       -2.180656    1.459370    1.227998
     10          1           0       -2.667901    2.118931    0.501323
     11          1           0       -1.479235    2.068853    1.809058
     12          1           0       -2.943838    1.089027    1.919783
     13          6           0        1.101831    0.290055   -0.047015
     14          6           0        3.704334   -0.714397    0.236937
     15          6           0        1.308045   -1.021249    0.394771
     16          6           0        2.212236    1.088341   -0.359023
     17          6           0        3.508117    0.588832   -0.214314
     18          6           0        2.606668   -1.519356    0.537664
     19          1           0        0.476956   -1.686142    0.610690
     20          1           0        2.071204    2.107065   -0.715863
     21          1           0        4.361520    1.216801   -0.457336
     22          1           0        2.759915   -2.541294    0.876225
     23          1           0        4.712627   -1.105931    0.346504
     24          6           0       -3.709229   -0.832017    0.070916
     25          1           0       -4.239552   -1.473952   -0.641334
     26          1           0       -4.327597    0.051286    0.253589
     27          1           0       -3.622026   -1.403042    1.001828
 ---------------------------------------------------------------------
 Rotational constants (GHZ):      1.5617717      0.4784630      0.4106862
 Standard basis: 6-31G(d,p) (6D, 7F)
 There are   265 symmetry adapted basis functions of A   symmetry.
 Integral buffers will be    131072 words long.
 Raffenetti 2 integral format.
 Two-electron integral symmetry is turned on.
   265 basis functions,   462 primitive gaussians,   265 cartesian basis functions
    48 alpha electrons       48 beta electrons
       nuclear repulsion energy       780.5173722794 Hartrees.
 NAtoms=   27 NActive=   27 NUniq=   27 SFac= 1.00D+00 NAtFMM=   60 NAOKFM=F Big=F
 ------------------------------------------------------------------------------
 Polarizable Continuum Model (PCM)
 =================================
 Model                : C-PCM.
 Atomic radii         : SMD-Coulomb.
 Polarization charges : Total charges.
 Charge compensation  : None.
 Solution method      : Matrix inversion.
 Cavity type          : VdW (van der Waals Surface) (Alpha=1.000).
 Cavity algorithm     : GePol (No added spheres)
                        Default sphere list used, NSphG=   27.
                        Lebedev-Laikov grids with approx.  5.0 points / Ang**2.
                        Smoothing algorithm: Karplus/York (Gamma=1.0000).
                        Polarization charges: spherical gaussians, with
                                              point-specific exponents (IZeta= 3).
                        Self-potential: point-specific (ISelfS= 7).
                        Self-field    : sphere-specific E.n sum rule (ISelfD= 2).
 Solvent              : Chloroform, Eps=   4.711300 Eps(inf)=   2.090627
 ------------------------------------------------------------------------------
 ------------------------------------------------------------------------------
 Atomic radii for non-electrostatic terms: SMD-CDS.
 ------------------------------------------------------------------------------
 Nuclear repulsion after PCM non-electrostatic terms =      780.5105712421 Hartrees.
 One-electron integrals computed using PRISM.
 NBasis=   265 RedAO= T  NBF=   265
 NBsUse=   265 1.00D-06 NBFU=   265
 Harris functional with IExCor=  908 diagonalized for initial guess.
 ExpMin= 1.61D-01 ExpMax= 5.48D+03 ExpMxC= 8.25D+02 IAcc=1 IRadAn=         1 AccDes= 0.00D+00
 HarFok:  IExCor=  908 AccDes= 0.00D+00 IRadAn=         1 IDoV= 1
 ScaDFX=  1.000000  1.000000  1.000000  1.000000
 FoFCou: FMM=F IPFlag=           0 FMFlag=      100000 FMFlg1=           0
         NFxFlg=           0 DoJE=T BraDBF=F KetDBF=T FulRan=T
         Omega=  0.000000  0.000000  1.000000  0.000000  0.000000 ICntrl=     500 IOpCl=  0
         NMat0=    1 NMatS0=    1 NMatT0=    0 NMatD0=    1 NMtDS0=    0 NMtDT0=    0
         I1Cent=           4 NGrid=           0.
 Petite list used in FoFCou.
 Initial guess orbital symmetries:
       Occupied  (A) (A) (A) (A) (A) (A) (A) (A) (A) (A) (A) (A)
                 (A) (A) (A) (A) (A) (A) (A) (A) (A) (A) (A) (A)
                 (A) (A) (A) (A) (A) (A) (A) (A) (A) (A) (A) (A)
                 (A) (A) (A) (A) (A) (A) (A) (A) (A) (A) (A) (A)
       Virtual   (A) (A) (A) (A) (A) (A) (A) (A) (A) (A) (A) (A)
                 (A) (A) (A) (A) (A) (A) (A) (A) (A) (A) (A) (A)
                 (A) (A) (A) (A) (A) (A) (A) (A) (A) (A) (A) (A)
                 (A) (A) (A) (A) (A) (A) (A) (A) (A) (A) (A) (A)
                 (A) (A) (A) (A) (A) (A) (A) (A) (A) (A) (A) (A)
                 (A) (A) (A) (A) (A) (A) (A) (A) (A) (A) (A) (A)
                 (A) (A) (A) (A) (A) (A) (A) (A) (A) (A) (A) (A)
                 (A) (A) (A) (A) (A) (A) (A) (A) (A) (A) (A) (A)
                 (A) (A) (A) (A) (A) (A) (A) (A) (A) (A) (A) (A)
                 (A) (A) (A) (A) (A) (A) (A) (A) (A) (A) (A) (A)
                 (A) (A) (A) (A) (A) (A) (A) (A) (A) (A) (A) (A)
                 (A) (A) (A) (A) (A) (A) (A) (A) (A) (A) (A) (A)
                 (A) (A) (A) (A) (A) (A) (A) (A) (A) (A) (A) (A)
                 (A) (A) (A) (A) (A) (A) (A) (A) (A) (A) (A) (A)
                 (A) (A) (A) (A) (A) (A) (A) (A) (A) (A) (A) (A)
                 (A) (A) (A) (A) (A) (A) (A) (A) (A) (A) (A) (A)
                 (A) (A) (A) (A) (A) (A) (A) (A) (A) (A) (A) (A)
                 (A) (A) (A) (A) (A) (A) (A) (A) (A) (A) (A) (A)
                 (A)
 The electronic state of the initial guess is 1-A.
 Requested convergence on RMS density matrix=1.00D-08 within 128 cycles.
 Requested convergence on MAX density matrix=1.00D-06.
 Requested convergence on             energy=1.00D-06.
 No special actions if energy rises.
 Error on total polarization charges =  0.02886
 SCF Done:  E(RmPW1PW91) =  -577.945527815     A.U. after   12 cycles
             Convg  =    0.6340D-08             -V/T =  2.0093
 SMD-CDS (non-electrostatic) energy       (kcal/mol) =      -4.27
 (included in total energy above)
 Range of M.O.s used for correlation:     1   265
 NBasis=   265 NAE=    48 NBE=    48 NFC=     0 NFV=     0
 NROrb=    265 NOA=    48 NOB=    48 NVA=   217 NVB=   217
 NEqPCM:  Using equilibrium solvation (IEInf=0, Eps=   4.7113, EpsInf=   2.0906)
          Differentiating once with respect to magnetic field using GIAOs.
          Electric field/nuclear overlap derivatives assumed to be zero.
 FoFCou: FMM=F IPFlag=           0 FMFlag=    10101102 FMFlg1=           0
         NFxFlg=    40000000 DoJE=F BraDBF=F KetDBF=T FulRan=T
         Omega=  0.000000  0.000000  1.000000  0.000000  0.000000 ICntrl=    6100 IOpCl=  0
         NMat0=    1 NMatS0=    1 NMatT0=    0 NMatD0=    1 NMtDS0=    0 NMtDT0=    0
         I1Cent=           7 NGrid=        2006.
 Symmetry not used in FoFCou.
          There are     3 degrees of freedom in the 1st order CPHF.  IDoFFX=0.
      3 vectors produced by pass  0 Test12= 3.47D-13 3.33D-08 XBig12= 2.83D+01 1.32D+00.
 AX will form     3 AO Fock derivatives at one time.
      3 vectors produced by pass  1 Test12= 3.47D-13 3.33D-08 XBig12= 1.51D-01 2.11D-01.
      3 vectors produced by pass  2 Test12= 3.47D-13 3.33D-08 XBig12= 9.60D-04 1.04D-02.
      3 vectors produced by pass  3 Test12= 3.47D-13 3.33D-08 XBig12= 3.91D-06 4.04D-04.
      3 vectors produced by pass  4 Test12= 3.47D-13 3.33D-08 XBig12= 1.30D-08 2.33D-05.
      3 vectors produced by pass  5 Test12= 3.47D-13 3.33D-08 XBig12= 2.39D-11 2.25D-06.
      3 vectors produced by pass  6 Test12= 3.47D-13 3.33D-08 XBig12= 1.20D-13 8.96D-08.
 Inverted reduced A of dimension    21 with in-core refinement.
 Calculating GIAO nuclear magnetic shielding tensors.
 SCF GIAO Magnetic shielding tensor (ppm):
      1  C    Isotropic =   123.7676   Anisotropy =    45.6772
   XX=   118.9837   YX=    -8.5539   ZX=    -1.8242
   XY=   -11.7408   YY=   146.8352   ZY=    14.2158
   XZ=    -2.9080   YZ=    13.8645   ZZ=   105.4839
   Eigenvalues:   101.1343   115.9495   154.2191
      2  H    Isotropic =    27.4300   Anisotropy =     4.6951
   XX=    25.8172   YX=    -1.1688   ZX=     0.1895
   XY=     0.3482   YY=    28.7410   ZY=    -2.8423
   XZ=     1.0817   YZ=    -1.4715   ZZ=    27.7319
   Eigenvalues:    25.5785    26.1516    30.5601
      3  C    Isotropic =   148.6491   Anisotropy =    24.8257
   XX=   155.2803   YX=    12.4832   ZX=    -1.2577
   XY=    12.2946   YY=   147.3197   ZY=     4.7952
   XZ=    -3.1445   YZ=    15.0435   ZZ=   143.3474
   Eigenvalues:   130.9819   149.7659   165.1996
      4  H    Isotropic =    28.0258   Anisotropy =     7.9785
   XX=    30.2885   YX=    -3.0115   ZX=     0.7033
   XY=    -5.0060   YY=    27.7917   ZY=    -0.2698
   XZ=     0.2428   YZ=    -1.4184   ZZ=    25.9971
   Eigenvalues:    24.7082    26.0243    33.3447
      5  C    Isotropic =   -11.8365   Anisotropy =   177.5540
   XX=   -80.6797   YX=    37.2871   ZX=    13.7113
   XY=    31.7329   YY=    11.1422   ZY=    69.5496
   XZ=    20.2133   YZ=    83.1715   ZZ=    34.0279
   Eigenvalues:   -93.0799   -48.9625   106.5328
      6  O    Isotropic =  -228.6972   Anisotropy =   933.4573
   XX=  -300.1877   YX=   110.4187   ZX=    80.5518
   XY=   107.3147   YY=  -305.7227   ZY=   525.2075
   XZ=    67.6714   YZ=   579.0804   ZZ=   -80.1812
   Eigenvalues:  -759.6458  -320.0534   393.6077
      7  O    Isotropic =   274.2094   Anisotropy =    78.2089
   XX=   269.0415   YX=    17.6624   ZX=    17.8455
   XY=    -0.2051   YY=   272.0360   ZY=    33.4297
   XZ=    21.1954   YZ=    50.5402   ZZ=   281.5508
   Eigenvalues:   233.1812   263.0984   326.3487
      8  H    Isotropic =    30.4568   Anisotropy =    19.0633
   XX=    27.4106   YX=     0.7031   ZX=     5.2694
   XY=     2.4120   YY=    30.1742   ZY=     9.2004
   XZ=     6.7078   YZ=     8.7149   ZZ=    33.7855
   Eigenvalues:    21.3436    26.8611    43.1657
      9  C    Isotropic =   179.9758   Anisotropy =    17.5413
   XX=   178.3755   YX=    -2.3270   ZX=    -7.1462
   XY=    -2.8297   YY=   185.9716   ZY=     7.3601
   XZ=    -7.4969   YZ=     5.6339   ZZ=   175.5803
   Eigenvalues:   168.7608   179.4966   191.6700
     10  H    Isotropic =    30.3408   Anisotropy =     8.7289
   XX=    29.2942   YX=    -3.4507   ZX=     1.6118
   XY=    -3.4279   YY=    33.3545   ZY=    -2.7811
   XZ=     0.5257   YZ=    -1.8927   ZZ=    28.3736
   Eigenvalues:    27.1899    27.6724    36.1600
     11  H    Isotropic =    30.8025   Anisotropy =     9.5570
   XX=    29.9205   YX=     1.7798   ZX=     2.1577
   XY=     1.7399   YY=    31.9472   ZY=     5.3733
   XZ=     0.6910   YZ=     4.9806   ZZ=    30.5399
   Eigenvalues:    26.0169    29.2168    37.1738
     12  H    Isotropic =    30.6637   Anisotropy =     8.8342
   XX=    31.5007   YX=     1.6100   ZX=    -4.7639
   XY=     0.3730   YY=    28.8230   ZY=     1.0410
   XZ=    -5.1728   YZ=     0.8578   ZZ=    31.6673
   Eigenvalues:    25.9574    29.4805    36.5531
     13  C    Isotropic =    61.4427   Anisotropy =   161.1978
   XX=    -5.5540   YX=    19.7488   ZX=    -3.2293
   XY=    13.6987   YY=    31.9587   ZY=    49.6759
   XZ=   -12.6296   YZ=    27.6847   ZZ=   157.9233
   Eigenvalues:   -14.8804    30.3006   168.9079
     14  C    Isotropic =    66.6518   Anisotropy =   181.2462
   XX=   -22.5541   YX=    27.9715   ZX=    -4.6451
   XY=    31.0599   YY=    50.3569   ZY=    47.0274
   XZ=    -0.2098   YZ=    43.8729   ZZ=   172.1525
   Eigenvalues:   -34.6236    47.0964   187.4825
     15  C    Isotropic =    68.3229   Anisotropy =   180.3816
   XX=     6.4364   YX=   -35.5719   ZX=    15.8531
   XY=   -20.3739   YY=    29.8401   ZY=    50.2176
   XZ=     4.4894   YZ=    62.1469   ZZ=   168.6921
   Eigenvalues:   -21.6199    38.0112   188.5773
     16  C    Isotropic =    69.2379   Anisotropy =   180.0551
   XX=    46.2009   YX=     6.8590   ZX=     1.1387
   XY=    -7.9550   YY=    -3.7690   ZY=    66.5342
   XZ=    -5.0624   YZ=    69.4860   ZZ=   165.2819
   Eigenvalues:   -27.7331    46.1722   189.2746
     17  C    Isotropic =    70.4732   Anisotropy =   172.9540
   XX=     4.6335   YX=   -36.3482   ZX=    17.2134
   XY=   -36.4630   YY=    39.5995   ZY=    51.9951
   XZ=    16.5450   YZ=    52.0086   ZZ=   167.1867
   Eigenvalues:   -27.9729    53.6167   185.7759
     18  C    Isotropic =    70.4184   Anisotropy =   173.1442
   XX=    52.8596   YX=    11.9340   ZX=    -1.3117
   XY=    12.4698   YY=    -5.4877   ZY=    64.4787
   XZ=     0.8346   YZ=    64.8387   ZZ=   163.8834
   Eigenvalues:   -29.0048    54.4122   185.8479
     19  H    Isotropic =    23.0348   Anisotropy =     9.6830
   XX=    27.4344   YX=    -3.5895   ZX=     1.8210
   XY=    -2.8136   YY=    22.5657   ZY=    -1.7001
   XZ=     1.5589   YZ=    -1.3883   ZZ=    19.1043
   Eigenvalues:    18.4845    21.1298    29.4901
     20  H    Isotropic =    23.2483   Anisotropy =     7.2318
   XX=    28.0124   YX=     0.1961   ZX=    -0.5061
   XY=     0.8922   YY=    22.3445   ZY=    -1.7543
   XZ=     0.3826   YZ=    -1.4066   ZZ=    19.3881
   Eigenvalues:    18.6996    22.9759    28.0696
     21  H    Isotropic =    23.7621   Anisotropy =     4.7275
   XX=    25.6983   YX=    -1.2345   ZX=     0.2629
   XY=    -1.3988   YY=    24.8637   ZY=    -1.7197
   XZ=     0.1036   YZ=    -1.8051   ZZ=    20.7244
   Eigenvalues:    20.0607    24.3119    26.9138
     22  H    Isotropic =    23.7672   Anisotropy =     5.5009
   XX=    27.4281   YX=    -0.1614   ZX=    -0.0837
   XY=    -0.0793   YY=    23.4355   ZY=    -1.2618
   XZ=    -0.2491   YZ=    -0.8881   ZZ=    20.4380
   Eigenvalues:    20.0871    23.7800    27.4344
     23  H    Isotropic =    23.7123   Anisotropy =     4.5246
   XX=    24.5677   YX=     0.8899   ZX=    -0.4109
   XY=     1.1868   YY=    25.5123   ZY=    -1.8617
   XZ=    -0.1242   YZ=    -1.9041   ZZ=    21.0569
   Eigenvalues:    20.3650    24.0432    26.7287
     24  C    Isotropic =   171.9606   Anisotropy =    30.8186
   XX=   186.9814   YX=     2.6633   ZX=   -11.5603
   XY=     9.3543   YY=   167.5256   ZY=     0.4130
   XZ=   -11.6334   YZ=     2.4298   ZZ=   161.3749
   Eigenvalues:   155.7976   167.5779   192.5063
     25  H    Isotropic =    30.6176   Anisotropy =     9.2789
   XX=    32.8994   YX=     3.6711   ZX=     2.9755
   XY=     3.0573   YY=    29.5878   ZY=     2.8190
   XZ=     2.5961   YZ=     2.0810   ZZ=    29.3656
   Eigenvalues:    26.9781    28.0712    36.8036
     26  H    Isotropic =    30.3259   Anisotropy =     8.3296
   XX=    34.2692   YX=    -3.0734   ZX=    -0.6195
   XY=    -2.0824   YY=    30.8204   ZY=     1.5687
   XZ=    -0.7137   YZ=     2.3090   ZZ=    25.8882
   Eigenvalues:    25.2115    29.8872    35.8789
     27  H    Isotropic =    30.4754   Anisotropy =     7.2361
   XX=    29.5459   YX=     2.7258   ZX=    -1.9293
   XY=     1.5067   YY=    30.0014   ZY=    -3.1583
   XZ=    -1.0980   YZ=    -3.1201   ZZ=    31.8790
   Eigenvalues:    27.2268    28.8999    35.2995
 End of Minotr Frequency-dependent properties file   721 does not exist.
 End of Minotr Frequency-dependent properties file   722 does not exist.

 **********************************************************************

            Population analysis using the SCF density.

 **********************************************************************

 Orbital symmetries:
       Occupied  (A) (A) (A) (A) (A) (A) (A) (A) (A) (A) (A) (A)
                 (A) (A) (A) (A) (A) (A) (A) (A) (A) (A) (A) (A)
                 (A) (A) (A) (A) (A) (A) (A) (A) (A) (A) (A) (A)
                 (A) (A) (A) (A) (A) (A) (A) (A) (A) (A) (A) (A)
       Virtual   (A) (A) (A) (A) (A) (A) (A) (A) (A) (A) (A) (A)
                 (A) (A) (A) (A) (A) (A) (A) (A) (A) (A) (A) (A)
                 (A) (A) (A) (A) (A) (A) (A) (A) (A) (A) (A) (A)
                 (A) (A) (A) (A) (A) (A) (A) (A) (A) (A) (A) (A)
                 (A) (A) (A) (A) (A) (A) (A) (A) (A) (A) (A) (A)
                 (A) (A) (A) (A) (A) (A) (A) (A) (A) (A) (A) (A)
                 (A) (A) (A) (A) (A) (A) (A) (A) (A) (A) (A) (A)
                 (A) (A) (A) (A) (A) (A) (A) (A) (A) (A) (A) (A)
                 (A) (A) (A) (A) (A) (A) (A) (A) (A) (A) (A) (A)
                 (A) (A) (A) (A) (A) (A) (A) (A) (A) (A) (A) (A)
                 (A) (A) (A) (A) (A) (A) (A) (A) (A) (A) (A) (A)
                 (A) (A) (A) (A) (A) (A) (A) (A) (A) (A) (A) (A)
                 (A) (A) (A) (A) (A) (A) (A) (A) (A) (A) (A) (A)
                 (A) (A) (A) (A) (A) (A) (A) (A) (A) (A) (A) (A)
                 (A) (A) (A) (A) (A) (A) (A) (A) (A) (A) (A) (A)
                 (A) (A) (A) (A) (A) (A) (A) (A) (A) (A) (A) (A)
                 (A) (A) (A) (A) (A) (A) (A) (A) (A) (A) (A) (A)
                 (A) (A) (A) (A) (A) (A) (A) (A) (A) (A) (A) (A)
                 (A)
 The electronic state is 1-A.
 Alpha  occ. eigenvalues --  -19.22957 -19.22584 -10.33346 -10.29587 -10.25958
 Alpha  occ. eigenvalues --  -10.25642 -10.25606 -10.25531 -10.25369 -10.25280
 Alpha  occ. eigenvalues --  -10.25249 -10.23369 -10.22737  -1.05954  -1.03892
 Alpha  occ. eigenvalues --   -0.88316  -0.82344  -0.78164  -0.76879  -0.74072
 Alpha  occ. eigenvalues --   -0.68298  -0.64579  -0.62314  -0.59572  -0.55289
 Alpha  occ. eigenvalues --   -0.53812  -0.50932  -0.48479  -0.47080  -0.46697
 Alpha  occ. eigenvalues --   -0.45052  -0.44248  -0.43128  -0.42373  -0.41079
 Alpha  occ. eigenvalues --   -0.39174  -0.38857  -0.37921  -0.37281  -0.36348
 Alpha  occ. eigenvalues --   -0.35789  -0.35445  -0.34872  -0.32511  -0.27768
 Alpha  occ. eigenvalues --   -0.26648  -0.26479  -0.25571
 Alpha virt. eigenvalues --   -0.04775  -0.00008   0.04643   0.09776   0.11756
 Alpha virt. eigenvalues --    0.12364   0.14849   0.16513   0.17280   0.17300
 Alpha virt. eigenvalues --    0.17713   0.18322   0.19147   0.19374   0.19783
 Alpha virt. eigenvalues --    0.20891   0.21326   0.22649   0.23486   0.24941
 Alpha virt. eigenvalues --    0.26582   0.27924   0.29018   0.30813   0.31535
 Alpha virt. eigenvalues --    0.32478   0.33354   0.38004   0.40988   0.49449
 Alpha virt. eigenvalues --    0.53132   0.54278   0.54679   0.55408   0.56349
 Alpha virt. eigenvalues --    0.57403   0.57767   0.58554   0.59580   0.60450
 Alpha virt. eigenvalues --    0.60949   0.61220   0.61625   0.62381   0.62834
 Alpha virt. eigenvalues --    0.63725   0.66662   0.67234   0.68877   0.70120
 Alpha virt. eigenvalues --    0.71865   0.74127   0.77889   0.78482   0.79357
 Alpha virt. eigenvalues --    0.80126   0.82473   0.83851   0.84421   0.84681
 Alpha virt. eigenvalues --    0.85128   0.85594   0.86441   0.88956   0.89148
 Alpha virt. eigenvalues --    0.89916   0.90927   0.91624   0.93135   0.94553
 Alpha virt. eigenvalues --    0.95505   0.96692   0.97861   0.99702   1.00607
 Alpha virt. eigenvalues --    1.01451   1.03475   1.04148   1.06498   1.08129
 Alpha virt. eigenvalues --    1.09053   1.10897   1.13765   1.17067   1.19947
 Alpha virt. eigenvalues --    1.22922   1.23848   1.25152   1.26288   1.32062
 Alpha virt. eigenvalues --    1.33957   1.36494   1.39411   1.40223   1.41317
 Alpha virt. eigenvalues --    1.42457   1.43805   1.44925   1.45801   1.46862
 Alpha virt. eigenvalues --    1.49850   1.53262   1.53998   1.58894   1.62799
 Alpha virt. eigenvalues --    1.65672   1.69680   1.74330   1.75121   1.76825
 Alpha virt. eigenvalues --    1.77865   1.78956   1.82444   1.83463   1.85944
 Alpha virt. eigenvalues --    1.87761   1.88725   1.89981   1.92034   1.93392
 Alpha virt. eigenvalues --    1.93818   1.95249   1.98154   1.98526   2.00337
 Alpha virt. eigenvalues --    2.02255   2.02445   2.03937   2.05411   2.06671
 Alpha virt. eigenvalues --    2.07132   2.08300   2.08673   2.10458   2.12091
 Alpha virt. eigenvalues --    2.14167   2.15243   2.15952   2.19921   2.22270
 Alpha virt. eigenvalues --    2.24191   2.27718   2.28550   2.30306   2.31778
 Alpha virt. eigenvalues --    2.34586   2.35345   2.37129   2.39269   2.39768
 Alpha virt. eigenvalues --    2.41531   2.43073   2.43628   2.45377   2.46547
 Alpha virt. eigenvalues --    2.47027   2.49587   2.51698   2.52699   2.53903
 Alpha virt. eigenvalues --    2.57047   2.58209   2.60774   2.61154   2.63780
 Alpha virt. eigenvalues --    2.64327   2.67472   2.67880   2.70053   2.71179
 Alpha virt. eigenvalues --    2.74606   2.76295   2.77307   2.77895   2.79267
 Alpha virt. eigenvalues --    2.81657   2.83136   2.85858   2.89059   2.89954
 Alpha virt. eigenvalues --    2.92098   2.93780   2.95930   2.99136   3.03830
 Alpha virt. eigenvalues --    3.06543   3.07078   3.11049   3.21529   3.23248
 Alpha virt. eigenvalues --    3.24608   3.26374   3.28152   3.34613   3.39889
 Alpha virt. eigenvalues --    3.42786   3.45823   3.47639   3.48701   3.49946
 Alpha virt. eigenvalues --    3.53367   3.54270   3.56621   3.91823   4.02087
 Alpha virt. eigenvalues --    4.12825   4.16566   4.18887   4.24819   4.35798
 Alpha virt. eigenvalues --    4.45066   4.46379   4.52456   4.56918   4.62986
 Alpha virt. eigenvalues --    4.82890   4.87665
          Condensed to atoms (all electrons):
              1          2          3          4          5          6
     1  C    4.772070   0.394636   0.342328  -0.029901  -0.028964  -0.004553
     2  H    0.394636   0.605773  -0.055334   0.005311  -0.006933   0.006854
     3  C    0.342328  -0.055334   5.279996   0.379966   0.296426  -0.089597
     4  H   -0.029901   0.005311   0.379966   0.560713  -0.037972   0.003097
     5  C   -0.028964  -0.006933   0.296426  -0.037972   4.625344   0.524631
     6  O   -0.004553   0.006854  -0.089597   0.003097   0.524631   8.142932
     7  O    0.207791  -0.035360  -0.056762  -0.001879   0.007658  -0.000049
     8  H   -0.022018  -0.006791   0.006932   0.000052  -0.000123  -0.000012
     9  C   -0.036625  -0.000169   0.332227  -0.038865  -0.036577  -0.000071
    10  H   -0.004558   0.003556  -0.034688   0.004936  -0.006473   0.006553
    11  H    0.004352  -0.000107  -0.031483  -0.002276  -0.004467   0.000106
    12  H   -0.006155  -0.000112  -0.029837  -0.004187   0.004787   0.000320
    13  C    0.000122   0.002115  -0.098347   0.001916   0.314119  -0.090481
    14  C    0.000000   0.000000  -0.000024   0.000011   0.000092  -0.000015
    15  C    0.000050  -0.000211  -0.005343   0.000183  -0.036840   0.003173
    16  C   -0.000059  -0.000035   0.008573  -0.000231  -0.038619   0.001090
    17  C    0.000001  -0.000001  -0.000084  -0.000033   0.005970   0.000908
    18  C    0.000019   0.000000  -0.000078   0.000069   0.004780  -0.000074
    19  H   -0.001734   0.000213   0.001961   0.003292  -0.008238   0.000039
    20  H   -0.000003  -0.000002   0.000621  -0.000024  -0.008182   0.012609
    21  H    0.000000   0.000000   0.000002   0.000000  -0.000128   0.000003
    22  H    0.000000   0.000000   0.000012  -0.000007  -0.000115   0.000000
    23  H    0.000000   0.000000   0.000000   0.000000   0.000005   0.000000
    24  C    0.359117  -0.055313  -0.054604  -0.005456   0.004504   0.000038
    25  H   -0.028136  -0.004275   0.005037  -0.000088  -0.000098   0.000000
    26  H   -0.023070   0.000943  -0.003616   0.000333  -0.000150  -0.000003
    27  H   -0.030827   0.005334  -0.007170   0.003108   0.000007  -0.000003
              7          8          9         10         11         12
     1  C    0.207791  -0.022018  -0.036625  -0.004558   0.004352  -0.006155
     2  H   -0.035360  -0.006791  -0.000169   0.003556  -0.000107  -0.000112
     3  C   -0.056762   0.006932   0.332227  -0.034688  -0.031483  -0.029837
     4  H   -0.001879   0.000052  -0.038865   0.004936  -0.002276  -0.004187
     5  C    0.007658  -0.000123  -0.036577  -0.006473  -0.004467   0.004787
     6  O   -0.000049  -0.000012  -0.000071   0.006553   0.000106   0.000320
     7  O    8.227584   0.290333   0.002360   0.000007  -0.000044   0.000001
     8  H    0.290333   0.384268  -0.000199   0.000002   0.000003  -0.000003
     9  C    0.002360  -0.000199   5.028998   0.386393   0.387563   0.385545
    10  H    0.000007   0.000002   0.386393   0.547542  -0.027035  -0.028105
    11  H   -0.000044   0.000003   0.387563  -0.027035   0.551503  -0.028203
    12  H    0.000001  -0.000003   0.385545  -0.028105  -0.028203   0.555633
    13  C   -0.002384   0.000012   0.004426   0.000358   0.000595  -0.000105
    14  C    0.000000   0.000000   0.000001   0.000000   0.000000   0.000000
    15  C   -0.002230   0.000162   0.000055  -0.000015   0.000036  -0.000008
    16  C    0.000005  -0.000001  -0.000328  -0.000006  -0.000014   0.000003
    17  C    0.000000   0.000000   0.000002   0.000000   0.000001   0.000000
    18  C    0.000116  -0.000001  -0.000001   0.000000   0.000001   0.000000
    19  H    0.011947  -0.000357   0.000042   0.000000  -0.000015   0.000006
    20  H    0.000000   0.000000  -0.000033  -0.000003  -0.000010   0.000000
    21  H    0.000000   0.000000   0.000000   0.000000   0.000000   0.000000
    22  H   -0.000003   0.000000   0.000000   0.000000   0.000000   0.000000
    23  H    0.000000   0.000000   0.000000   0.000000   0.000000   0.000000
    24  C   -0.059189  -0.003012  -0.004928  -0.001882   0.000155   0.002474
    25  H   -0.001722   0.004241   0.000200  -0.000032  -0.000003  -0.000001
    26  H    0.004212  -0.000150   0.001047   0.001207   0.000048  -0.000248
    27  H    0.001601  -0.000565  -0.000870   0.000187  -0.000046   0.000743
             13         14         15         16         17         18
     1  C    0.000122   0.000000   0.000050  -0.000059   0.000001   0.000019
     2  H    0.002115   0.000000  -0.000211  -0.000035  -0.000001   0.000000
     3  C   -0.098347  -0.000024  -0.005343   0.008573  -0.000084  -0.000078
     4  H    0.001916   0.000011   0.000183  -0.000231  -0.000033   0.000069
     5  C    0.314119   0.000092  -0.036840  -0.038619   0.005970   0.004780
     6  O   -0.090481  -0.000015   0.003173   0.001090   0.000908  -0.000074
     7  O   -0.002384   0.000000  -0.002230   0.000005   0.000000   0.000116
     8  H    0.000012   0.000000   0.000162  -0.000001   0.000000  -0.000001
     9  C    0.004426   0.000001   0.000055  -0.000328   0.000002  -0.000001
    10  H    0.000358   0.000000  -0.000015  -0.000006   0.000000   0.000000
    11  H    0.000595   0.000000   0.000036  -0.000014   0.000001   0.000001
    12  H   -0.000105   0.000000  -0.000008   0.000003   0.000000   0.000000
    13  C    5.032861  -0.032613   0.518514   0.497470  -0.033449  -0.028542
    14  C   -0.032613   4.866216  -0.046925  -0.045040   0.534428   0.541565
    15  C    0.518514  -0.046925   4.956391  -0.062692  -0.038988   0.514758
    16  C    0.497470  -0.045040  -0.062692   4.955354   0.507668  -0.039202
    17  C   -0.033449   0.534428  -0.038988   0.507668   4.907891  -0.040490
    18  C   -0.028542   0.541565   0.514758  -0.039202  -0.040490   4.897761
    19  H   -0.035884   0.004178   0.371642   0.004788   0.000098  -0.036636
    20  H   -0.043961   0.004149   0.004853   0.380052  -0.036154   0.000147
    21  H    0.003247  -0.037661   0.000583  -0.034334   0.381989   0.003945
    22  H    0.003082  -0.037490  -0.033452   0.000621   0.003940   0.381336
    23  H    0.000429   0.381906   0.004203   0.004019  -0.037043  -0.036959
    24  C   -0.000237   0.000000   0.000035   0.000002   0.000000   0.000000
    25  H    0.000002   0.000000   0.000001   0.000000   0.000000   0.000000
    26  H    0.000004   0.000000  -0.000002   0.000000   0.000000   0.000000
    27  H    0.000013   0.000000  -0.000027   0.000000   0.000000   0.000000
             19         20         21         22         23         24
     1  C   -0.001734  -0.000003   0.000000   0.000000   0.000000   0.359117
     2  H    0.000213  -0.000002   0.000000   0.000000   0.000000  -0.055313
     3  C    0.001961   0.000621   0.000002   0.000012   0.000000  -0.054604
     4  H    0.003292  -0.000024   0.000000  -0.000007   0.000000  -0.005456
     5  C   -0.008238  -0.008182  -0.000128  -0.000115   0.000005   0.004504
     6  O    0.000039   0.012609   0.000003   0.000000   0.000000   0.000038
     7  O    0.011947   0.000000   0.000000  -0.000003   0.000000  -0.059189
     8  H   -0.000357   0.000000   0.000000   0.000000   0.000000  -0.003012
     9  C    0.000042  -0.000033   0.000000   0.000000   0.000000  -0.004928
    10  H    0.000000  -0.000003   0.000000   0.000000   0.000000  -0.001882
    11  H   -0.000015  -0.000010   0.000000   0.000000   0.000000   0.000155
    12  H    0.000006   0.000000   0.000000   0.000000   0.000000   0.002474
    13  C   -0.035884  -0.043961   0.003247   0.003082   0.000429  -0.000237
    14  C    0.004178   0.004149  -0.037661  -0.037490   0.381906   0.000000
    15  C    0.371642   0.004853   0.000583  -0.033452   0.004203   0.000035
    16  C    0.004788   0.380052  -0.034334   0.000621   0.004019   0.000002
    17  C    0.000098  -0.036154   0.381989   0.003940  -0.037043   0.000000
    18  C   -0.036636   0.000147   0.003945   0.381336  -0.036959   0.000000
    19  H    0.522453  -0.000103   0.000012  -0.004473  -0.000135   0.000095
    20  H   -0.000103   0.528939  -0.004293   0.000014  -0.000138   0.000000
    21  H    0.000012  -0.004293   0.533289  -0.000146  -0.004482   0.000000
    22  H   -0.004473   0.000014  -0.000146   0.533537  -0.004518   0.000000
    23  H   -0.000135  -0.000138  -0.004482  -0.004518   0.534180   0.000000
    24  C    0.000095   0.000000   0.000000   0.000000   0.000000   5.119643
    25  H   -0.000005   0.000000   0.000000   0.000000   0.000000   0.382362
    26  H   -0.000001   0.000000   0.000000   0.000000   0.000000   0.356150
    27  H    0.000070   0.000000   0.000000   0.000000   0.000000   0.380648
             25         26         27
     1  C   -0.028136  -0.023070  -0.030827
     2  H   -0.004275   0.000943   0.005334
     3  C    0.005037  -0.003616  -0.007170
     4  H   -0.000088   0.000333   0.003108
     5  C   -0.000098  -0.000150   0.000007
     6  O    0.000000  -0.000003  -0.000003
     7  O   -0.001722   0.004212   0.001601
     8  H    0.004241  -0.000150  -0.000565
     9  C    0.000200   0.001047  -0.000870
    10  H   -0.000032   0.001207   0.000187
    11  H   -0.000003   0.000048  -0.000046
    12  H   -0.000001  -0.000248   0.000743
    13  C    0.000002   0.000004   0.000013
    14  C    0.000000   0.000000   0.000000
    15  C    0.000001  -0.000002  -0.000027
    16  C    0.000000   0.000000   0.000000
    17  C    0.000000   0.000000   0.000000
    18  C    0.000000   0.000000   0.000000
    19  H   -0.000005  -0.000001   0.000070
    20  H    0.000000   0.000000   0.000000
    21  H    0.000000   0.000000   0.000000
    22  H    0.000000   0.000000   0.000000
    23  H    0.000000   0.000000   0.000000
    24  C    0.382362   0.356150   0.380648
    25  H    0.560709  -0.025074  -0.031479
    26  H   -0.025074   0.571789  -0.024916
    27  H   -0.031479  -0.024916   0.560461
 Mulliken atomic charges:
              1
     1  C    0.136118
     2  H    0.139908
     3  C   -0.187114
     4  H    0.157933
     5  C    0.425555
     6  O   -0.517496
     7  O   -0.593993
     8  H    0.347226
     9  C   -0.410194
    10  H    0.152057
    11  H    0.149341
    12  H    0.147451
    13  C   -0.013280
    14  C   -0.132779
    15  C   -0.147905
    16  C   -0.139084
    17  C   -0.156654
    18  C   -0.162510
    19  H    0.166745
    20  H    0.161523
    21  H    0.157974
    22  H    0.157663
    23  H    0.158533
    24  C   -0.420604
    25  H    0.138361
    26  H    0.141497
    27  H    0.143730
 Sum of Mulliken atomic charges =   0.00000
 Mulliken charges with hydrogens summed into heavy atoms:
              1
     1  C    0.276026
     3  C   -0.029181
     5  C    0.425555
     6  O   -0.517496
     7  O   -0.246767
     9  C    0.038655
    13  C   -0.013280
    14  C    0.025754
    15  C    0.018841
    16  C    0.022439
    17  C    0.001319
    18  C   -0.004848
    24  C    0.002984
 Sum of Mulliken charges with hydrogens summed into heavy atoms =   0.00000
 Electronic spatial extent (au):  <R**2>=           2817.6224
 Charge=              0.0000 electrons
 Dipole moment (field-independent basis, Debye):
    X=             -0.7921    Y=             -2.3538    Z=              1.1061  Tot=              2.7187
 Quadrupole moment (field-independent basis, Debye-Ang):
   XX=            -59.4875   YY=            -77.1868   ZZ=            -76.3108
   XY=              2.5542   XZ=              2.3574   YZ=              3.7558
 Traceless Quadrupole moment (field-independent basis, Debye-Ang):
   XX=             11.5075   YY=             -6.1918   ZZ=             -5.3158
   XY=              2.5542   XZ=              2.3574   YZ=              3.7558
 Octapole moment (field-independent basis, Debye-Ang**2):
  XXX=             10.9225  YYY=            -18.5149  ZZZ=            -11.2767  XYY=              3.9535
  XXY=            -10.3339  XXZ=            -12.4675  XZZ=            -20.6617  YZZ=            -10.6006
  YYZ=              1.1269  XYZ=            -16.7142
 Hexadecapole moment (field-independent basis, Debye-Ang**3):
 XXXX=          -2451.8639 YYYY=           -696.2038 ZZZZ=           -272.1605 XXXY=             21.0064
 XXXZ=             33.2013 YYYX=             21.8875 YYYZ=             18.2673 ZZZX=             18.7378
 ZZZY=             19.6546 XXYY=           -519.8609 XXZZ=           -502.8904 YYZZ=           -152.9574
 XXYZ=              1.1255 YYXZ=             22.4161 ZZXY=             24.6111
 N-N= 7.805105712421D+02 E-N=-2.905988784690D+03  KE= 5.725974664656D+02
 1\1\GINC-COMPUTE-8-4\SP\RmPW1PW91\6-31G(d,p)\C11H14O2\FBRUNO.IQUIR\21-
 Dec-2021\0\\# mPW1PW91/6-31g** scrf=(pcm,solvent=chloroform,smd,dovacu
 um) nmr\\comment\\0,1\C,0,0.339733225,-0.986415376,1.888514488\H,0,0.3
 66294614,-2.052000018,1.630777873\C,0,-0.70068179,-0.246638769,1.03032
 7434\H,0,-0.533048448,0.834103377,1.075538679\C,0,-0.56501075,-0.73219
 3056,-0.41229382\O,0,-0.975538009,-1.844758615,-0.749677251\O,0,1.6314
 95118,-0.442999146,1.593009676\H,0,2.29046731,-1.020270198,2.019026363
 \C,0,-2.145199999,-0.497526066,1.473585795\H,0,-2.355674303,-1.5683322
 41,1.571357827\H,0,-2.853039326,-0.086881751,0.744595355\H,0,-2.351477
 987,-0.018790708,2.43609759\C,0,0.044536367,0.153704048,-1.450217812\C
 ,0,1.122032279,1.751536226,-3.487007006\C,0,0.899646292,1.215600701,-1
 .13656335\C,0,-0.253771842,-0.108670532,-2.795499002\C,0,0.280378849,0
 .689312044,-3.809237682\C,0,1.434106247,2.012368606,-2.153649482\H,0,1
 .187645426,1.430468237,-0.11172092\H,0,-0.90741876,-0.938125303,-3.059
 646197\H,0,0.041144707,0.478056635,-4.848391118\H,0,2.102519125,2.8327
 82195,-1.90342808\H,0,1.541673434,2.371381983,-4.275456686\C,0,0.12114
 6646,-0.837364669,3.390357123\H,0,0.955985142,-1.280071954,3.945043721
 \H,0,-0.799438043,-1.327905436,3.718785684\H,0,0.081494476,0.219629785
 ,3.675770798\\Version=EM64L-G09RevC.01\State=1-A\HF=-577.9455278\RMSD=
 6.340e-09\Dipole=0.4618723,0.6942908,0.6698449\Quadrupole=-2.3365771,-
 4.5188151,6.8553922,-1.4331216,0.313844,-5.5578116\PG=C01 [X(C11H14O2)
 ]\\@


 TERRY FORSTER, PORTLY ATLANTA BRAVES RELIEVER,
 ANNOUNCING THAT HE WAS GOING TO A FAT FARM:
 "A WAIST IS A TERRIBLE THING TO MIND."
 Job cpu time:  0 days  0 hours 12 minutes 39.9 seconds.
 File lengths (MBytes):  RWF=     80 Int=      0 D2E=      0 Chk=      5 Scr=      1
 Normal termination of Gaussian 09 at Tue Dec 21 08:44:42 2021.
