 Entering Gaussian System, Link 0=g09
 Input=/home/fbruno.iquir/MPW_A_SMD/2_MMFF_002_NMR_MPW_A_SMD.gjc
 Output=/home/fbruno.iquir/MPW_A_SMD/2_MMFF_002_NMR_MPW_A_SMD.log
 Initial command:
 /share/apps/Gaussian09/EM64T.SSE4.2-enabled/g09/l1.exe /tmp/Gau-3707.inp -scrdir=/tmp/
 Entering Link 1 = /share/apps/Gaussian09/EM64T.SSE4.2-enabled/g09/l1.exe PID=      3708.
  
 Copyright (c) 1988,1990,1992,1993,1995,1998,2003,2009,2011,
            Gaussian, Inc.  All Rights Reserved.
  
 This is part of the Gaussian(R) 09 program.  It is based on
 the Gaussian(R) 03 system (copyright 2003, Gaussian, Inc.),
 the Gaussian(R) 98 system (copyright 1998, Gaussian, Inc.),
 the Gaussian(R) 94 system (copyright 1995, Gaussian, Inc.),
 the Gaussian 92(TM) system (copyright 1992, Gaussian, Inc.),
 the Gaussian 90(TM) system (copyright 1990, Gaussian, Inc.),
 the Gaussian 88(TM) system (copyright 1988, Gaussian, Inc.),
 the Gaussian 86(TM) system (copyright 1986, Carnegie Mellon
 University), and the Gaussian 82(TM) system (copyright 1983,
 Carnegie Mellon University). Gaussian is a federally registered
 trademark of Gaussian, Inc.
  
 This software contains proprietary and confidential information,
 including trade secrets, belonging to Gaussian, Inc.
  
 This software is provided under written license and may be
 used, copied, transmitted, or stored only in accord with that
 written license.
  
 The following legend is applicable only to US Government
 contracts under FAR:
  
                    RESTRICTED RIGHTS LEGEND
  
 Use, reproduction and disclosure by the US Government is
 subject to restrictions as set forth in subparagraphs (a)
 and (c) of the Commercial Computer Software - Restricted
 Rights clause in FAR 52.227-19.
  
 Gaussian, Inc.
 340 Quinnipiac St., Bldg. 40, Wallingford CT 06492
  
  
 ---------------------------------------------------------------
 Warning -- This program may not be used in any manner that
 competes with the business of Gaussian, Inc. or will provide
 assistance to any competitor of Gaussian, Inc.  The licensee
 of this program is prohibited from giving any competitor of
 Gaussian, Inc. access to this program.  By using this program,
 the user acknowledges that Gaussian, Inc. is engaged in the
 business of creating and licensing software in the field of
 computational chemistry and represents and warrants to the
 licensee that it is not a competitor of Gaussian, Inc. and that
 it will not use this program in any manner prohibited above.
 ---------------------------------------------------------------
  

 Cite this work as:
 Gaussian 09, Revision C.01,
 M. J. Frisch, G. W. Trucks, H. B. Schlegel, G. E. Scuseria, 
 M. A. Robb, J. R. Cheeseman, G. Scalmani, V. Barone, B. Mennucci, 
 G. A. Petersson, H. Nakatsuji, M. Caricato, X. Li, H. P. Hratchian, 
 A. F. Izmaylov, J. Bloino, G. Zheng, J. L. Sonnenberg, M. Hada, 
 M. Ehara, K. Toyota, R. Fukuda, J. Hasegawa, M. Ishida, T. Nakajima, 
 Y. Honda, O. Kitao, H. Nakai, T. Vreven, J. A. Montgomery, Jr., 
 J. E. Peralta, F. Ogliaro, M. Bearpark, J. J. Heyd, E. Brothers, 
 K. N. Kudin, V. N. Staroverov, T. Keith, R. Kobayashi, J. Normand, 
 K. Raghavachari, A. Rendell, J. C. Burant, S. S. Iyengar, J. Tomasi, 
 M. Cossi, N. Rega, J. M. Millam, M. Klene, J. E. Knox, J. B. Cross, 
 V. Bakken, C. Adamo, J. Jaramillo, R. Gomperts, R. E. Stratmann, 
 O. Yazyev, A. J. Austin, R. Cammi, C. Pomelli, J. W. Ochterski, 
 R. L. Martin, K. Morokuma, V. G. Zakrzewski, G. A. Voth, 
 P. Salvador, J. J. Dannenberg, S. Dapprich, A. D. Daniels, 
 O. Farkas, J. B. Foresman, J. V. Ortiz, J. Cioslowski, 
 and D. J. Fox, Gaussian, Inc., Wallingford CT, 2010.
 
 ******************************************
 Gaussian 09:  EM64L-G09RevC.01 23-Sep-2011
                16-Oct-2021 
 ******************************************
 %nprocshared=4
 Will use up to    4 processors via shared memory.
 -----------------------------------------------------------------
 # mPW1PW91/6-31g** scrf=(pcm,solvent=chloroform,smd,dovacuum) nmr
 -----------------------------------------------------------------
 1/38=1/1;
 2/12=2,17=6,18=5,40=1/2;
 3/5=1,6=6,7=101,11=2,16=1,25=1,30=1,70=32101,72=7,74=-7/1,2,8,3;
 4//1;
 5/5=2,38=5,53=7/2;
 8/6=1,10=90,11=11/1;
 10/13=100,45=16/2;
 6/7=2,8=2,9=2,10=2,28=1/1;
 99/9=1/99;
 -------
 comment
 -------
 Charge =  0 Multiplicity = 1
 Symbolic Z-Matrix:
 1                     1.82252   3.15715  -1.61096 
 6                     1.6031    3.10143  -0.54935 
 6                     1.08428   2.97348   2.23339 
 6                     1.15486   1.92705   0.03695 
 6                     1.7901    4.22117   0.26489 
 6                     1.53573   4.15703   1.64432 
 6                     0.90025   1.87152   1.41992 
 1                     2.14414   5.1528   -0.17118 
 1                     1.68896   5.03896   2.26212 
 1                     0.88122   2.93645   3.29848 
 6                     0.93706   0.57803  -0.60491 
 6                     0.15355  -0.14134   0.53208 
 1                     0.5382   -1.15697   0.68813 
 7                     0.3939    0.60958   1.76361 
 6                    -1.37443  -0.15712   0.36681 
 1                    -1.72771   0.88122   0.48575 
 6                    -1.77305  -0.5928   -1.03889 
 1                    -2.86301  -0.65468  -1.13951 
 6                    -1.25452   0.51915  -1.97088 
 1                    -1.59094   1.50735  -1.63277 
 1                    -1.66387   0.3982   -2.98231 
 6                     0.27383   0.46147  -1.99666 
 1                     0.64356   1.25513  -2.65763 
 7                     0.75868  -0.8332   -2.55371 
 6                     1.93415  -1.26062  -1.78039 
 1                     2.76534  -1.50829  -2.44846 
 1                     1.7329   -2.14732  -1.16731 
 6                     2.28948  -0.09553  -0.87134 
 1                     2.97036   0.58578  -1.39899 
 1                     2.79788  -0.42852   0.04044 
 6                    -0.23499   0.23898   2.94356 
 8                    -0.15048   0.82159   4.01945 
 6                    -2.01017  -0.91253   1.54664 
 1                    -2.84909  -0.28114   1.8723 
 6                    -1.08412  -1.02257   2.7787 
 1                    -0.40758  -1.88079   2.72347 
 1                    -1.69284  -1.17021   3.67819 
 8                    -2.65453  -2.12347   1.15516 
 6                    -1.13653  -1.92291  -1.40145 
 6                    -1.19328  -3.02024  -0.62091 
 6                    -1.85523  -3.20711   0.7139 
 1                    -2.52649  -4.06911   0.62973 
 1                    -1.10984  -3.4714    1.46938 
 1                    -0.65924  -3.91002  -0.95446 
 6                    -0.27154  -1.8826   -2.64584 
 1                     0.1983   -2.85303  -2.85127 
 1                    -0.90885  -1.68998  -3.51822 
 
                          Input orientation:                          
 ---------------------------------------------------------------------
 Center     Atomic      Atomic             Coordinates (Angstroms)
 Number     Number       Type             X           Y           Z
 ---------------------------------------------------------------------
      1          1           0        1.822518    3.157148   -1.610959
      2          6           0        1.603096    3.101427   -0.549351
      3          6           0        1.084278    2.973483    2.233395
      4          6           0        1.154857    1.927053    0.036948
      5          6           0        1.790099    4.221166    0.264888
      6          6           0        1.535733    4.157026    1.644323
      7          6           0        0.900253    1.871520    1.419924
      8          1           0        2.144144    5.152796   -0.171178
      9          1           0        1.688956    5.038964    2.262122
     10          1           0        0.881220    2.936450    3.298479
     11          6           0        0.937060    0.578033   -0.604907
     12          6           0        0.153553   -0.141341    0.532080
     13          1           0        0.538198   -1.156969    0.688125
     14          7           0        0.393904    0.609578    1.763611
     15          6           0       -1.374430   -0.157122    0.366813
     16          1           0       -1.727707    0.881222    0.485750
     17          6           0       -1.773052   -0.592804   -1.038892
     18          1           0       -2.863008   -0.654681   -1.139512
     19          6           0       -1.254518    0.519150   -1.970877
     20          1           0       -1.590942    1.507347   -1.632766
     21          1           0       -1.663872    0.398202   -2.982314
     22          6           0        0.273826    0.461470   -1.996664
     23          1           0        0.643555    1.255128   -2.657628
     24          7           0        0.758683   -0.833198   -2.553710
     25          6           0        1.934148   -1.260625   -1.780386
     26          1           0        2.765339   -1.508288   -2.448455
     27          1           0        1.732902   -2.147319   -1.167305
     28          6           0        2.289477   -0.095532   -0.871342
     29          1           0        2.970357    0.585778   -1.398991
     30          1           0        2.797884   -0.428522    0.040438
     31          6           0       -0.234991    0.238978    2.943557
     32          8           0       -0.150482    0.821591    4.019448
     33          6           0       -2.010167   -0.912529    1.546642
     34          1           0       -2.849094   -0.281142    1.872305
     35          6           0       -1.084121   -1.022572    2.778701
     36          1           0       -0.407580   -1.880794    2.723468
     37          1           0       -1.692842   -1.170211    3.678194
     38          8           0       -2.654532   -2.123466    1.155160
     39          6           0       -1.136525   -1.922912   -1.401447
     40          6           0       -1.193275   -3.020239   -0.620909
     41          6           0       -1.855235   -3.207112    0.713904
     42          1           0       -2.526491   -4.069108    0.629727
     43          1           0       -1.109843   -3.471396    1.469382
     44          1           0       -0.659238   -3.910024   -0.954465
     45          6           0       -0.271542   -1.882599   -2.645836
     46          1           0        0.198300   -2.853026   -2.851273
     47          1           0       -0.908852   -1.689978   -3.518216
 ---------------------------------------------------------------------
                    Distance matrix (angstroms):
                    1          2          3          4          5
     1  H    0.000000
     2  C    1.085477   0.000000
     3  C    3.918901   2.833587   0.000000
     4  C    2.162059   1.387018   2.434004   0.000000
     5  C    2.156846   1.397058   2.435141   2.391327   0.000000
     6  C    3.417435   2.435371   1.396993   2.775158   1.404157
     7  C    3.419015   2.425841   1.381999   1.407314   2.765280
     8  H    2.481738   2.154962   3.413896   3.380447   1.087858
     9  H    4.308111   3.415524   2.152364   3.862726   2.160547
    10  H    5.003732   3.918433   1.084900   3.425105   3.417489
    11  C    2.906546   2.610403   3.716963   1.509724   3.841437
    12  C    4.272949   3.712979   3.669176   2.350749   4.667027
    13  H    5.054392   4.560624   4.443726   3.211774   5.538116
    14  N    4.463045   3.608497   2.507063   2.301338   4.151999
    15  C    5.011631   4.508121   4.396597   3.293917   5.403150
    16  H    4.709578   4.134609   3.916514   3.099091   4.855818
    17  C    5.226617   5.028456   5.620552   4.009958   6.129453
    18  H    6.058585   5.865383   6.334125   4.918602   6.884593
    19  C    4.068996   4.105465   5.400891   3.437825   5.288975
    20  H    3.791309   3.730517   4.924790   3.240912   4.732583
    21  H    4.652668   4.888744   6.433353   4.404380   6.090098
    22  C    3.132714   3.291055   4.986024   2.657014   4.642092
    23  H    2.470456   2.962156   5.202796   2.823766   4.318917
    24  N    4.235964   4.495750   6.124803   3.806238   5.878343
    25  C    4.422430   4.544506   5.895794   3.751171   5.852685
    26  H    4.832868   5.119265   6.695667   4.535686   6.414045
    27  H    5.323743   5.286592   6.181270   4.287758   6.527791
    28  C    3.368236   3.285626   4.528879   2.490623   4.491579
    29  H    2.823901   2.986601   4.738423   2.675253   4.168639
    30  H    4.066384   3.773050   4.395355   2.871983   4.762941
    31  C    5.787286   4.875714   3.118064   3.637259   5.209038
    32  O    6.406952   5.398761   3.057002   4.334313   5.423992
    33  C    6.420451   5.793160   5.014809   4.512181   6.514579
    34  H    6.766012   6.093290   5.118045   4.927097   6.661582
    35  C    6.722181   5.941753   4.579058   4.607659   6.486693
    36  H    7.010096   6.291000   5.101943   4.915109   6.936016
    37  H    7.684980   6.854358   5.193269   5.564270   7.269695
    38  O    7.455218   6.952141   6.412502   5.671732   7.797543
    39  C    5.882758   5.785807   6.489894   4.705490   7.006532
    40  C    6.945165   6.730498   7.018476   5.515632   7.881821
    41  C    7.709388   7.304350   7.010660   5.989873   8.286699
    42  H    8.726588   8.358247   8.075116   7.060996   9.353860
    43  H    7.875585   7.391706   6.850865   6.026938   8.308789
    44  H    7.518977   7.378530   7.783635   6.192359   8.579179
    45  C    5.554738   5.722764   7.016172   4.872924   7.069556
    46  H    6.348123   6.536651   7.783766   5.666214   7.892305
    47  H    5.881551   6.171029   7.668211   5.475491   7.519165
                    6          7          8          9         10
     6  C    0.000000
     7  C    2.382798   0.000000
     8  H    2.158185   3.853004   0.000000
     9  H    1.087643   3.371060   2.478124   0.000000
    10  H    2.157411   2.159492   4.306470   2.479322   0.000000
    11  C    4.269266   2.402999   4.751171   5.355848   4.560885
    12  C    4.650104   2.323239   5.699554   5.673276   4.201817
    13  H    5.490713   3.136616   6.567389   6.495482   4.867001
    14  N    3.728591   1.402500   5.239043   4.641673   2.829776
    15  C    5.358447   3.224688   6.392575   6.322644   4.822117
    16  H    4.766888   2.959653   5.802510   5.667089   4.352231
    17  C    6.380328   4.389217   7.007801   7.389113   6.189797
    18  H    7.088806   5.205241   7.728908   8.044195   6.827241
    19  C    5.838606   4.239042   6.021669   6.856459   6.178255
    20  H    5.247496   3.956968   5.420000   6.196789   5.698342
    21  H    6.765501   5.303311   6.708923   7.764164   7.236613
    22  C    5.339132   3.748830   5.370198   6.410405   5.876478
    23  H    5.265337   4.131860   4.860660   6.293983   6.193428
    24  N    6.567315   4.808879   6.589999   7.651139   6.962283
    25  C    6.421705   4.595787   6.615558   7.489112   6.672253
    26  H    7.096375   5.464980   7.066959   8.137238   7.505522
    27  H    6.905715   4.851611   7.379232   7.962761   6.820067
    28  C    4.998094   3.324024   5.296819   6.045020   5.344484
    29  H    4.906497   3.726224   4.800813   5.905641   5.652997
    30  H    5.019235   3.285450   5.623457   6.004915   5.060778
    31  C    4.491611   2.505081   6.285496   5.215917   2.940792
    32  O    4.428280   2.993980   6.448720   4.925237   2.461064
    33  C    6.187353   4.029582   7.549660   7.043840   5.122860
    34  H    6.243077   4.346976   7.657410   7.003526   5.128559
    35  C    5.914278   3.762948   7.566944   6.685733   4.450460
    36  H    6.433994   4.182046   8.022571   7.245091   5.019710
    37  H    6.552845   4.590865   8.337897   7.210802   4.861547
    38  O    7.565856   5.354111   8.816487   8.449358   6.534379
    39  C    7.306389   5.148428   7.895694   8.358994   7.055069
    40  C    8.005741   5.698874   8.839634   9.031604   7.426122
    41  C    8.160568   5.820969   9.309482   9.108020   7.204968
    42  H    9.230404   6.903481  10.368211  10.168170   8.234840
    43  H    8.076044   5.708737   9.362507   8.993771   6.954884
    44  H    8.754935   6.441738   9.518781   9.795143   8.205775
    45  C    7.625534   5.656582   7.839404   8.708595   7.738668
    46  H    8.434450   6.407590   8.663856   9.521154   8.473716
    47  H    8.174060   6.351564   8.206522   9.243353   8.430631
                   11         12         13         14         15
    11  C    0.000000
    12  C    1.556960   0.000000
    13  H    2.200286   1.097179   0.000000
    14  N    2.430204   1.462298   2.073205   0.000000
    15  C    2.612982   1.536976   2.181990   2.380311   0.000000
    16  H    2.895245   2.141710   3.054424   2.491577   1.103227
    17  C    2.983942   2.526574   2.939855   3.741049   1.524704
    18  H    4.030620   3.486743   3.893681   4.542461   2.175418
    19  C    2.583091   2.946814   3.618494   4.083121   2.436497
    20  H    2.882865   3.232336   4.125331   4.034970   2.610680
    21  H    3.528350   3.993133   4.554096   5.177155   3.407171
    22  C    1.546109   2.602382   3.146002   3.765106   2.947104
    23  H    2.181345   3.516315   4.125940   4.475089   3.900507
    24  N    2.412722   3.219775   3.265416   4.566611   3.679226
    25  C    2.399291   3.125830   2.837775   4.293009   4.095713
    26  H    3.330767   4.192083   3.862864   5.277363   5.185467
    27  H    2.894340   3.066953   2.418829   4.240716   3.996238
    28  C    1.534180   2.556142   2.574017   3.321649   3.867949
    29  H    2.182871   3.491722   3.648098   4.079305   4.748383
    30  H    2.211852   2.704934   2.460958   3.134660   4.193850
    31  C    3.752367   2.472009   2.762872   1.387489   2.845141
    32  O    4.756756   3.630621   3.935313   2.330259   3.974628
    33  C    3.941711   2.511125   2.700179   2.853672   1.538441
    34  H    4.605401   3.291145   3.693657   3.364853   2.111047
    35  C    4.253929   2.712141   2.649620   2.424640   2.578854
    36  H    4.351088   2.853549   2.358185   2.786692   3.075658
    37  H    5.321437   3.790221   3.730714   3.344814   3.477496
    38  O    4.826538   3.493191   3.368347   4.139167   2.475210
    39  C    3.344990   2.928621   2.785260   4.332818   2.510250
    40  C    4.181644   3.381033   2.860655   4.623921   3.034115
    41  C    4.885028   3.669774   3.151550   4.552761   3.107103
    42  H    5.925912   4.755999   4.228035   5.630676   4.086564
    43  H    4.989024   3.682929   2.946688   4.359148   3.502867
    44  H    4.776297   4.131999   3.422172   5.378089   4.042468
    45  C    3.417721   3.648539   3.506781   5.108521   3.642758
    46  H    4.167025   4.336164   3.939477   5.772785   4.483019
    47  H    4.127788   4.464514   4.480107   5.906169   4.202364
                   16         17         18         19         20
    16  H    0.000000
    17  C    2.121165   0.000000
    18  H    2.507864   1.096338   0.000000
    19  C    2.527849   1.540752   2.157843   0.000000
    20  H    2.213334   2.190088   2.556524   1.097284   0.000000
    21  H    3.502121   2.184240   2.437705   1.097818   1.748371
    22  C    3.216318   2.493698   3.438055   1.529649   2.168787
    23  H    3.955189   3.446034   4.271771   2.148481   2.471221
    24  N    4.284821   2.960092   3.892103   2.494297   3.441951
    25  C    4.809580   3.839157   4.877560   3.656703   4.484386
    26  H    5.874248   4.839626   5.841256   4.527454   5.360652
    27  H    4.886765   3.837280   4.832300   4.084173   4.961973
    28  C    4.351266   4.096278   5.189668   3.761211   4.266923
    29  H    5.070636   4.900884   5.969440   4.263926   4.659334
    30  H    4.732305   4.699510   5.786979   4.622276   5.080255
    31  C    2.946438   4.349413   4.937261   5.026888   4.938633
    32  O    3.870170   5.497276   6.012656   6.098718   5.873049
    33  C    2.103050   2.615996   2.830061   3.872164   4.017485
    34  H    2.128646   3.119305   3.034924   4.237120   4.131242
    35  C    3.048977   3.902991   4.318816   4.996442   5.110616
    36  H    3.791946   4.204614   4.738680   5.339842   5.644167
    37  H    3.794903   4.752970   4.984511   5.912535   5.948613
    38  O    3.214851   2.816699   2.732455   4.326150   4.699634
    39  C    3.431351   1.518485   2.158185   2.510347   3.467950
    40  C    4.090442   2.530472   2.941568   3.788594   4.656289
    41  C    4.096681   3.148595   3.311444   4.631840   5.272840
    42  H    5.016429   3.928950   3.860280   5.425235   6.090237
    43  H    4.504950   3.875251   4.220639   5.270747   5.885801
    44  H    5.115846   3.500236   3.935492   4.583125   5.538598
    45  C    4.423342   2.549583   3.239211   2.681457   3.776090
    46  H    5.365616   3.504220   4.139379   3.775891   4.868162
    47  H    4.828389   2.845643   3.247891   2.719189   3.773997
                   21         22         23         24         25
    21  H    0.000000
    22  C    2.174898   0.000000
    23  H    2.482733   1.097026   0.000000
    24  N    2.751149   1.490488   2.094077   0.000000
    25  C    4.140300   2.401886   2.960438   1.470524   0.000000
    26  H    4.851559   3.208068   3.490299   2.119787   1.094775
    27  H    4.616493   3.102019   3.870967   2.144327   1.096629
    28  C    4.508763   2.374753   2.779237   2.391202   1.519889
    29  H    4.900835   2.764769   2.728774   2.870257   2.151370
    30  H    5.452318   3.363442   3.841272   3.324411   2.180329
    31  C    6.097787   4.971336   5.760007   5.688312   5.410139
    32  O    7.175951   6.041798   6.738085   6.838956   6.505335
    33  C    4.727513   4.433905   5.423732   4.948304   5.171838
    34  H    5.043172   5.027228   5.922754   5.736761   6.097618
    35  C    5.961879   5.181747   6.142186   5.645033   5.472832
    36  H    6.271207   5.313206   6.316256   5.505110   5.114000
    37  H    6.842742   6.223678   7.175211   6.705235   6.554336
    38  O    4.945595   5.019080   6.068742   5.202936   5.515243
    39  C    2.857412   2.833487   3.853130   2.471235   3.164056
    40  C    4.181320   4.020869   5.079462   3.511269   3.771128
    41  C    5.166908   5.033743   6.125583   4.810960   4.936570
    42  H    5.809287   5.938505   7.014513   5.603370   5.795992
    43  H    5.924384   5.421757   6.515109   5.161080   4.971356
    44  H    4.866443   4.589852   5.592569   3.746323   3.798304
    45  C    2.693297   2.492691   3.268466   1.473463   2.449678
    46  H    3.749045   3.423733   4.136747   2.117139   2.587607
    47  H    2.284237   2.888352   3.438637   2.108320   3.359620
                   26         27         28         29         30
    26  H    0.000000
    27  H    1.765116   0.000000
    28  C    2.170164   2.146440   0.000000
    29  H    2.351280   3.009118   1.098269   0.000000
    30  H    2.713216   2.355227   1.095766   1.769323   0.000000
    31  C    6.413167   5.144531   4.586751   5.408535   4.251116
    32  O    7.467538   6.266097   5.542052   6.257373   5.107657
    33  C    6.254694   4.785476   5.000107   5.977232   5.061647
    34  H    7.190043   5.806594   5.828118   6.731934   5.938503
    35  C    6.509794   4.977111   5.056023   6.039759   4.787581
    36  H    6.079059   4.448687   4.835693   5.872742   4.425239
    37  H    7.584557   6.014094   6.141015   7.113840   5.826662
    38  O    6.537544   4.964271   5.715107   6.745596   5.817583
    39  C    4.061119   2.887697   3.918905   4.812485   4.448798
    40  C    4.614819   3.102104   4.554799   5.562788   4.804553
    41  C    5.851173   4.187700   5.419739   6.491277   5.461285
    42  H    6.635998   5.006498   6.421531   7.483248   6.476890
    43  H    5.849810   4.097132   5.332056   6.429327   5.154734
    44  H    4.441629   2.979054   4.822051   5.795153   5.006234
    45  C    3.066222   2.504780   3.591832   4.261152   4.330333
    46  H    2.925795   2.385115   3.987095   4.649602   4.582363
    47  H    3.831068   3.565783   4.447191   4.971765   5.291047
                   31         32         33         34         35
    31  C    0.000000
    32  O    1.226426   0.000000
    33  C    2.535466   3.546881   0.000000
    34  H    2.872567   3.620600   1.099320   0.000000
    35  C    1.529610   2.410823   1.545199   2.118113   0.000000
    36  H    2.138143   3.008080   2.211502   3.040454   1.094213
    37  H    2.156579   2.542164   2.170393   2.321336   1.096096
    38  O    3.825400   4.811212   1.426476   1.986532   2.512776
    39  C    4.936151   6.155540   3.236565   4.042987   4.276329
    40  C    4.924045   6.113917   3.131778   4.057155   3.944608
    41  C    4.412717   5.482996   2.445929   3.300144   3.103259
    42  H    5.400406   6.407383   3.327359   3.999595   3.997487
    43  H    4.087227   5.084578   2.713734   3.655826   2.776997
    44  H    5.708658   6.883808   4.131044   5.094593   4.738610
    45  C    5.978607   7.193977   4.641199   5.442613   5.552074
    46  H    6.582422   7.799440   5.290039   6.181698   6.057373
    47  H    6.777129   7.981195   5.241194   5.899752   6.334612
                   36         37         38         39         40
    36  H    0.000000
    37  H    1.751665   0.000000
    38  O    2.750868   2.863432   0.000000
    39  C    4.189040   5.165152   2.980068   0.000000
    40  C    3.619463   4.706852   2.468581   1.347808   0.000000
    41  C    2.809479   3.600327   1.416993   2.576902   1.501612
    42  H    3.696249   4.288558   2.019405   3.265552   2.107529
    43  H    2.143809   3.242559   2.074057   3.261928   2.140051
    44  H    4.208123   5.480551   3.409325   2.091939   1.090033
    45  C    5.371027   6.520808   4.492686   1.516023   2.498829
    46  H    5.691227   7.003016   4.972164   2.179190   2.634192
    47  H    6.264687   7.257625   5.007570   2.141683   3.200763
                   41         42         43         44         45
    41  C    0.000000
    42  H    1.095768   0.000000
    43  H    1.093710   1.751906   0.000000
    44  H    2.169781   2.453896   2.504091   0.000000
    45  C    3.943383   4.538164   4.490216   2.668613   0.000000
    46  H    4.129512   4.584834   4.556499   2.334630   1.097582
    47  H    4.594364   5.048014   5.299998   3.400549   1.097412
                   46         47
    46  H    0.000000
    47  H    1.738758   0.000000
 Stoichiometry    C21H22N2O2
 Framework group  C1[X(C21H22N2O2)]
 Deg. of freedom   135
 Full point group                 C1      NOp   1
 Largest Abelian subgroup         C1      NOp   1
 Largest concise Abelian subgroup C1      NOp   1
                         Standard orientation:                         
 ---------------------------------------------------------------------
 Center     Atomic      Atomic             Coordinates (Angstroms)
 Number     Number       Type             X           Y           Z
 ---------------------------------------------------------------------
      1          1           0        2.830065   -2.774580   -0.580846
      2          6           0        3.014500   -1.715925   -0.427564
      3          6           0        3.537531    1.034289    0.010585
      4          6           0        2.004643   -0.856105   -0.021712
      5          6           0        4.295832   -1.192767   -0.617995
      6          6           0        4.555704    0.169508   -0.398151
      7          6           0        2.272810    0.508393    0.194537
      8          1           0        5.105207   -1.847872   -0.932931
      9          1           0        5.560243    0.557836   -0.550034
     10          1           0        3.745932    2.087204    0.168535
     11          6           0        0.568288   -1.181454    0.310402
     12          6           0       -0.029994    0.254798    0.368376
     13          1           0       -0.679511    0.371250    1.244942
     14          7           0        1.089132    1.182186    0.529077
     15          6           0       -0.750235    0.716930   -0.908331
     16          1           0        0.016479    0.834776   -1.692787
     17          6           0       -1.723066   -0.345252   -1.408427
     18          1           0       -2.274525    0.006480   -2.288276
     19          6           0       -0.842186   -1.539154   -1.823836
     20          1           0       -0.043526   -1.222682   -2.506493
     21          1           0       -1.431251   -2.278818   -2.381603
     22          6           0       -0.242846   -2.165630   -0.563619
     23          1           0        0.387024   -3.013778   -0.859212
     24          7           0       -1.305289   -2.701448    0.333970
     25          6           0       -0.926128   -2.414642    1.725523
     26          1           0       -0.984710   -3.321914    2.335406
     27          1           0       -1.577375   -1.665499    2.191634
     28          6           0        0.495111   -1.878350    1.675206
     29          1           0        1.204101   -2.715501    1.727219
     30          1           0        0.710569   -1.211363    2.517471
     31          6           0        0.866650    2.551620    0.545774
     32          8           0        1.728123    3.421188    0.622156
     33          6           0       -1.302515    2.137626   -0.699986
     34          1           0       -1.026491    2.688569   -1.610358
     35          6           0       -0.620033    2.900475    0.457562
     36          1           0       -1.075401    2.688613    1.429702
     37          1           0       -0.730603    3.979009    0.296423
     38          8           0       -2.727877    2.192525   -0.712841
     39          6           0       -2.690763   -0.760554   -0.314405
     40          6           0       -3.407441    0.109563    0.424416
     41          6           0       -3.440524    1.609606    0.364288
     42          1           0       -4.486709    1.910187    0.238364
     43          1           0       -3.112950    2.031339    1.318771
     44          1           0       -4.036267   -0.294129    1.218004
     45          6           0       -2.667216   -2.241042    0.011056
     46          1           0       -3.352757   -2.492569    0.830478
     47          1           0       -3.045142   -2.803033   -0.852455
 ---------------------------------------------------------------------
 Rotational constants (GHZ):      0.3677409      0.2507988      0.1747460
 Standard basis: 6-31G(d,p) (6D, 7F)
 There are   485 symmetry adapted basis functions of A   symmetry.
 Integral buffers will be    131072 words long.
 Raffenetti 2 integral format.
 Two-electron integral symmetry is turned on.
   485 basis functions,   854 primitive gaussians,   485 cartesian basis functions
    89 alpha electrons       89 beta electrons
       nuclear repulsion energy      2395.6043034067 Hartrees.
 NAtoms=   47 NActive=   47 NUniq=   47 SFac= 1.00D+00 NAtFMM=   60 NAOKFM=F Big=F
 ------------------------------------------------------------------------------
 Polarizable Continuum Model (PCM)
 =================================
 Model                : C-PCM.
 Atomic radii         : SMD-Coulomb.
 Polarization charges : Total charges.
 Charge compensation  : None.
 Solution method      : Matrix inversion.
 Cavity type          : VdW (van der Waals Surface) (Alpha=1.000).
 Cavity algorithm     : GePol (No added spheres)
                        Default sphere list used, NSphG=   47.
                        Lebedev-Laikov grids with approx.  5.0 points / Ang**2.
                        Smoothing algorithm: Karplus/York (Gamma=1.0000).
                        Polarization charges: spherical gaussians, with
                                              point-specific exponents (IZeta= 3).
                        Self-potential: point-specific (ISelfS= 7).
                        Self-field    : sphere-specific E.n sum rule (ISelfD= 2).
 Solvent              : Chloroform, Eps=   4.711300 Eps(inf)=   2.090627
 ------------------------------------------------------------------------------
 ------------------------------------------------------------------------------
 Atomic radii for non-electrostatic terms: SMD-CDS.
 ------------------------------------------------------------------------------
 Nuclear repulsion after PCM non-electrostatic terms =     2395.5925643928 Hartrees.
 One-electron integrals computed using PRISM.
 NBasis=   485 RedAO= T  NBF=   485
 NBsUse=   485 1.00D-06 NBFU=   485
 Harris functional with IExCor=  908 diagonalized for initial guess.
 ExpMin= 1.61D-01 ExpMax= 5.48D+03 ExpMxC= 8.25D+02 IAcc=1 IRadAn=         1 AccDes= 0.00D+00
 HarFok:  IExCor=  908 AccDes= 0.00D+00 IRadAn=         1 IDoV= 1
 ScaDFX=  1.000000  1.000000  1.000000  1.000000
 FoFCou: FMM=F IPFlag=           0 FMFlag=      100000 FMFlg1=           0
         NFxFlg=           0 DoJE=T BraDBF=F KetDBF=T FulRan=T
         Omega=  0.000000  0.000000  1.000000  0.000000  0.000000 ICntrl=     500 IOpCl=  0
         NMat0=    1 NMatS0=    1 NMatT0=    0 NMatD0=    1 NMtDS0=    0 NMtDT0=    0
         I1Cent=           4 NGrid=           0.
 Petite list used in FoFCou.
 Initial guess orbital symmetries:
       Occupied  (A) (A) (A) (A) (A) (A) (A) (A) (A) (A) (A) (A)
                 (A) (A) (A) (A) (A) (A) (A) (A) (A) (A) (A) (A)
                 (A) (A) (A) (A) (A) (A) (A) (A) (A) (A) (A) (A)
                 (A) (A) (A) (A) (A) (A) (A) (A) (A) (A) (A) (A)
                 (A) (A) (A) (A) (A) (A) (A) (A) (A) (A) (A) (A)
                 (A) (A) (A) (A) (A) (A) (A) (A) (A) (A) (A) (A)
                 (A) (A) (A) (A) (A) (A) (A) (A) (A) (A) (A) (A)
                 (A) (A) (A) (A) (A)
       Virtual   (A) (A) (A) (A) (A) (A) (A) (A) (A) (A) (A) (A)
                 (A) (A) (A) (A) (A) (A) (A) (A) (A) (A) (A) (A)
                 (A) (A) (A) (A) (A) (A) (A) (A) (A) (A) (A) (A)
                 (A) (A) (A) (A) (A) (A) (A) (A) (A) (A) (A) (A)
                 (A) (A) (A) (A) (A) (A) (A) (A) (A) (A) (A) (A)
                 (A) (A) (A) (A) (A) (A) (A) (A) (A) (A) (A) (A)
                 (A) (A) (A) (A) (A) (A) (A) (A) (A) (A) (A) (A)
                 (A) (A) (A) (A) (A) (A) (A) (A) (A) (A) (A) (A)
                 (A) (A) (A) (A) (A) (A) (A) (A) (A) (A) (A) (A)
                 (A) (A) (A) (A) (A) (A) (A) (A) (A) (A) (A) (A)
                 (A) (A) (A) (A) (A) (A) (A) (A) (A) (A) (A) (A)
                 (A) (A) (A) (A) (A) (A) (A) (A) (A) (A) (A) (A)
                 (A) (A) (A) (A) (A) (A) (A) (A) (A) (A) (A) (A)
                 (A) (A) (A) (A) (A) (A) (A) (A) (A) (A) (A) (A)
                 (A) (A) (A) (A) (A) (A) (A) (A) (A) (A) (A) (A)
                 (A) (A) (A) (A) (A) (A) (A) (A) (A) (A) (A) (A)
                 (A) (A) (A) (A) (A) (A) (A) (A) (A) (A) (A) (A)
                 (A) (A) (A) (A) (A) (A) (A) (A) (A) (A) (A) (A)
                 (A) (A) (A) (A) (A) (A) (A) (A) (A) (A) (A) (A)
                 (A) (A) (A) (A) (A) (A) (A) (A) (A) (A) (A) (A)
                 (A) (A) (A) (A) (A) (A) (A) (A) (A) (A) (A) (A)
                 (A) (A) (A) (A) (A) (A) (A) (A) (A) (A) (A) (A)
                 (A) (A) (A) (A) (A) (A) (A) (A) (A) (A) (A) (A)
                 (A) (A) (A) (A) (A) (A) (A) (A) (A) (A) (A) (A)
                 (A) (A) (A) (A) (A) (A) (A) (A) (A) (A) (A) (A)
                 (A) (A) (A) (A) (A) (A) (A) (A) (A) (A) (A) (A)
                 (A) (A) (A) (A) (A) (A) (A) (A) (A) (A) (A) (A)
                 (A) (A) (A) (A) (A) (A) (A) (A) (A) (A) (A) (A)
                 (A) (A) (A) (A) (A) (A) (A) (A) (A) (A) (A) (A)
                 (A) (A) (A) (A) (A) (A) (A) (A) (A) (A) (A) (A)
                 (A) (A) (A) (A) (A) (A) (A) (A) (A) (A) (A) (A)
                 (A) (A) (A) (A) (A) (A) (A) (A) (A) (A) (A) (A)
                 (A) (A) (A) (A) (A) (A) (A) (A) (A) (A) (A) (A)
 The electronic state of the initial guess is 1-A.
 Requested convergence on RMS density matrix=1.00D-08 within 128 cycles.
 Requested convergence on MAX density matrix=1.00D-06.
 Requested convergence on             energy=1.00D-06.
 No special actions if energy rises.
 Error on total polarization charges =  0.03606
 SCF Done:  E(RmPW1PW91) =  -1073.24368613     A.U. after   13 cycles
             Convg  =    0.4958D-08             -V/T =  2.0092
 SMD-CDS (non-electrostatic) energy       (kcal/mol) =      -7.37
 (included in total energy above)
 Range of M.O.s used for correlation:     1   485
 NBasis=   485 NAE=    89 NBE=    89 NFC=     0 NFV=     0
 NROrb=    485 NOA=    89 NOB=    89 NVA=   396 NVB=   396
 NEqPCM:  Using equilibrium solvation (IEInf=0, Eps=   4.7113, EpsInf=   2.0906)
          Differentiating once with respect to magnetic field using GIAOs.
          Electric field/nuclear overlap derivatives assumed to be zero.
 FoFCou: FMM=F IPFlag=           0 FMFlag=    10101102 FMFlg1=           0
         NFxFlg=    40000000 DoJE=F BraDBF=F KetDBF=T FulRan=T
         Omega=  0.000000  0.000000  1.000000  0.000000  0.000000 ICntrl=    6100 IOpCl=  0
         NMat0=    1 NMatS0=    1 NMatT0=    0 NMatD0=    1 NMtDS0=    0 NMtDT0=    0
         I1Cent=           7 NGrid=        3037.
 Symmetry not used in FoFCou.
          There are     3 degrees of freedom in the 1st order CPHF.  IDoFFX=0.
      3 vectors produced by pass  0 Test12= 1.17D-12 3.33D-08 XBig12= 8.26D+01 1.74D+00.
 AX will form     3 AO Fock derivatives at one time.
      3 vectors produced by pass  1 Test12= 1.17D-12 3.33D-08 XBig12= 2.46D-01 1.86D-01.
      3 vectors produced by pass  2 Test12= 1.17D-12 3.33D-08 XBig12= 1.23D-03 9.27D-03.
      3 vectors produced by pass  3 Test12= 1.17D-12 3.33D-08 XBig12= 3.01D-06 3.32D-04.
      3 vectors produced by pass  4 Test12= 1.17D-12 3.33D-08 XBig12= 1.49D-08 2.53D-05.
      3 vectors produced by pass  5 Test12= 1.17D-12 3.33D-08 XBig12= 5.14D-11 1.60D-06.
      3 vectors produced by pass  6 Test12= 1.17D-12 3.33D-08 XBig12= 2.76D-13 1.11D-07.
 Inverted reduced A of dimension    21 with in-core refinement.
 Calculating GIAO nuclear magnetic shielding tensors.
 SCF GIAO Magnetic shielding tensor (ppm):
      1  H    Isotropic =    24.0588   Anisotropy =     9.8273
   XX=    29.4884   YX=    -2.3925   ZX=    -2.3430
   XY=    -1.6285   YY=    22.8006   ZY=     1.0305
   XZ=    -2.1337   YZ=     1.2074   ZZ=    19.8873
   Eigenvalues:    19.2515    22.3145    30.6103
      2  C    Isotropic =    75.9381   Anisotropy =   166.3171
   XX=    62.7711   YX=   -20.3158   ZX=    26.2396
   XY=   -20.0310   YY=    -9.4686   ZY=   -33.8871
   XZ=    25.2287   YZ=   -31.0744   ZZ=   174.5119
   Eigenvalues:   -18.1788    59.1770   186.8162
      3  C    Isotropic =    85.2876   Anisotropy =   152.0863
   XX=    61.6383   YX=   -15.2155   ZX=    26.1239
   XY=   -16.3964   YY=    15.8044   ZY=   -31.2533
   XZ=     9.5053   YZ=   -26.4048   ZZ=   178.4201
   Eigenvalues:     7.7844    61.3998   186.6785
      4  C    Isotropic =    64.6401   Anisotropy =   138.0176
   XX=    16.2741   YX=   -21.8742   ZX=    29.1044
   XY=   -24.0508   YY=    31.5669   ZY=   -23.3247
   XZ=    24.5015   YZ=   -19.3587   ZZ=   146.0794
   Eigenvalues:    -0.9683    38.2368   156.6519
      5  C    Isotropic =    74.9937   Anisotropy =   165.6919
   XX=    23.7264   YX=    28.0843   ZX=    43.0675
   XY=    30.3193   YY=    34.3907   ZY=   -37.4103
   XZ=    47.4868   YZ=   -37.6730   ZZ=   166.8641
   Eigenvalues:   -19.2168    58.7430   185.4550
      6  C    Isotropic =    70.3237   Anisotropy =   170.7391
   XX=    -8.3498   YX=   -31.4573   ZX=    38.3377
   XY=   -32.8631   YY=    48.1637   ZY=   -20.5896
   XZ=    34.5017   YZ=   -23.7049   ZZ=   171.1572
   Eigenvalues:   -26.0593    52.8806   184.1498
      7  C    Isotropic =    58.7009   Anisotropy =   115.8911
   XX=    22.7681   YX=    33.0038   ZX=    29.6639
   XY=    41.8057   YY=    28.7881   ZY=   -27.4040
   XZ=    37.5292   YZ=   -18.1982   ZZ=   124.5464
   Eigenvalues:   -22.7267    62.8677   135.9616
      8  H    Isotropic =    24.3282   Anisotropy =     4.4972
   XX=    26.9313   YX=     0.6926   ZX=    -1.1892
   XY=     0.8382   YY=    25.3769   ZY=     0.7980
   XZ=    -0.9648   YZ=     0.7439   ZZ=    20.6762
   Eigenvalues:    20.3381    25.3200    27.3263
      9  H    Isotropic =    24.0909   Anisotropy =     3.9228
   XX=    25.7373   YX=    -0.4280   ZX=    -1.0608
   XY=    -0.4058   YY=    25.7508   ZY=     1.2308
   XZ=    -1.6349   YZ=     1.1524   ZZ=    20.7844
   Eigenvalues:    20.2376    25.3290    26.7060
     10  H    Isotropic =    23.5442   Anisotropy =     8.4616
   XX=    28.9928   YX=    -0.0537   ZX=    -1.6380
   XY=    -0.6452   YY=    24.2705   ZY=     1.5618
   XZ=    -0.8447   YZ=     2.0043   ZZ=    17.3693
   Eigenvalues:    16.8316    24.6158    29.1853
     11  C    Isotropic =   142.6726   Anisotropy =    23.4558
   XX=   151.6539   YX=     7.4183   ZX=    -1.6163
   XY=    15.0043   YY=   136.8924   ZY=     2.4137
   XZ=    -6.4515   YZ=    -1.7116   ZZ=   139.4713
   Eigenvalues:   130.2869   139.4210   158.3098
     12  C    Isotropic =   133.0934   Anisotropy =    32.9236
   XX=   142.4401   YX=     9.8101   ZX=     0.6274
   XY=     3.0779   YY=   151.3928   ZY=     1.3765
   XZ=    12.4581   YZ=     0.0289   ZZ=   105.4474
   Eigenvalues:   104.3209   139.9169   155.0425
     13  H    Isotropic =    27.5480   Anisotropy =     2.9169
   XX=    27.7616   YX=    -0.3068   ZX=    -1.6669
   XY=    -0.0725   YY=    29.4340   ZY=     0.1870
   XZ=    -1.4391   YZ=     0.1056   ZZ=    25.4483
   Eigenvalues:    24.6682    28.4832    29.4926
     14  N    Isotropic =   109.0968   Anisotropy =    85.9449
   XX=    44.7059   YX=   -37.3511   ZX=     3.7589
   XY=   -93.7339   YY=   127.7877   ZY=     1.0805
   XZ=   -11.5204   YZ=     7.0519   ZZ=   154.7968
   Eigenvalues:     8.6345   152.2625   166.3934
     15  C    Isotropic =   143.9692   Anisotropy =    33.6993
   XX=   159.7038   YX=    18.0329   ZX=    -2.1264
   XY=     5.6148   YY=   145.6658   ZY=     2.2470
   XZ=    -6.5234   YZ=    12.5451   ZZ=   126.5379
   Eigenvalues:   122.1617   143.3104   166.4354
     16  H    Isotropic =    29.8608   Anisotropy =     3.1249
   XX=    29.9473   YX=    -0.5554   ZX=    -4.5975
   XY=     0.0800   YY=    30.2629   ZY=    -1.1932
   XZ=     0.5831   YZ=    -1.1985   ZZ=    29.3723
   Eigenvalues:    27.2494    30.3891    31.9441
     17  C    Isotropic =   164.3754   Anisotropy =     7.4386
   XX=   164.9065   YX=     4.5433   ZX=    -1.4838
   XY=     2.1469   YY=   161.3054   ZY=    -1.8078
   XZ=    -2.3507   YZ=    -1.2109   ZZ=   166.9142
   Eigenvalues:   159.2928   164.4989   169.3345
     18  H    Isotropic =    28.4674   Anisotropy =     9.5497
   XX=    26.8714   YX=    -3.1743   ZX=     3.7374
   XY=    -2.8707   YY=    27.0786   ZY=    -0.7626
   XZ=     4.8371   YZ=    -1.3088   ZZ=    31.4522
   Eigenvalues:    23.0746    27.4938    34.8338
     19  C    Isotropic =   167.1550   Anisotropy =    13.7117
   XX=   169.4571   YX=    -2.6839   ZX=   -11.0172
   XY=     0.9919   YY=   176.0179   ZY=     1.9266
   XZ=    -2.1286   YZ=    -0.4367   ZZ=   155.9899
   Eigenvalues:   153.3076   171.8612   176.2961
     20  H    Isotropic =    30.2224   Anisotropy =     7.7339
   XX=    29.8504   YX=     0.5747   ZX=    -3.7931
   XY=    -0.1544   YY=    26.7689   ZY=     0.2688
   XZ=    -1.4890   YZ=     1.4703   ZZ=    34.0477
   Eigenvalues:    26.5551    28.7337    35.3783
     21  H    Isotropic =    29.4051   Anisotropy =    11.4937
   XX=    26.5969   YX=     1.9348   ZX=     2.3586
   XY=     2.3766   YY=    30.1988   ZY=     5.1373
   XZ=     2.7779   YZ=     5.1612   ZZ=    31.4198
   Eigenvalues:    25.4712    25.6766    37.0676
     22  C    Isotropic =   136.2180   Anisotropy =    34.9315
   XX=   142.7235   YX=    17.8683   ZX=   -13.2011
   XY=    19.8852   YY=   126.2242   ZY=     6.5455
   XZ=   -11.2011   YZ=    -2.0479   ZZ=   139.7063
   Eigenvalues:   111.1316   138.0167   159.5056
     23  H    Isotropic =    27.7322   Anisotropy =    10.2761
   XX=    29.4183   YX=    -3.8994   ZX=    -3.2533
   XY=    -3.2069   YY=    29.5526   ZY=     2.0844
   XZ=    -2.5021   YZ=     3.4714   ZZ=    24.2256
   Eigenvalues:    22.6790    25.9346    34.5829
     24  N    Isotropic =   218.4408   Anisotropy =    56.5532
   XX=   244.9040   YX=    21.4350   ZX=    -2.3409
   XY=    36.3202   YY=   163.9336   ZY=   -18.2293
   XZ=     6.5924   YZ=   -18.5176   ZZ=   246.4847
   Eigenvalues:   151.2283   247.9511   256.1429
     25  C    Isotropic =   146.7923   Anisotropy =    56.2973
   XX=   145.3302   YX=    17.9929   ZX=    14.0797
   XY=     9.8908   YY=   117.8293   ZY=     7.1045
   XZ=    14.0113   YZ=     5.2954   ZZ=   177.2173
   Eigenvalues:   111.9963   144.0567   184.3238
     26  H    Isotropic =    28.6711   Anisotropy =    11.9611
   XX=    25.0732   YX=     1.7069   ZX=     0.1160
   XY=     1.9826   YY=    29.6863   ZY=    -4.8729
   XZ=    -0.5506   YZ=    -7.0421   ZZ=    31.2538
   Eigenvalues:    23.4290    25.9391    36.6452
     27  H    Isotropic =    28.9262   Anisotropy =     6.4855
   XX=    29.0138   YX=    -0.4497   ZX=    -1.9703
   XY=    -1.5517   YY=    26.5013   ZY=     0.8382
   XZ=    -3.1201   YZ=     1.4102   ZZ=    31.2635
   Eigenvalues:    26.1337    27.3951    33.2499
     28  C    Isotropic =   152.6749   Anisotropy =    43.6038
   XX=   150.6340   YX=    13.1648   ZX=    -4.5020
   XY=     3.1407   YY=   141.6090   ZY=   -19.9514
   XZ=   -10.4092   YZ=   -22.5590   ZZ=   165.7815
   Eigenvalues:   128.6918   147.5887   181.7441
     29  H    Isotropic =    29.8115   Anisotropy =     9.8043
   XX=    31.7276   YX=    -3.6663   ZX=     1.5515
   XY=    -3.3683   YY=    30.8049   ZY=    -3.7247
   XZ=     0.0718   YZ=    -5.3650   ZZ=    26.9021
   Eigenvalues:    23.6789    29.4080    36.3477
     30  H    Isotropic =    29.7625   Anisotropy =     7.1872
   XX=    27.4239   YX=     1.0983   ZX=     3.1000
   XY=     1.9116   YY=    28.0077   ZY=     0.2830
   XZ=     0.8662   YZ=     0.7901   ZZ=    33.8560
   Eigenvalues:    25.9814    28.7522    34.5540
     31  C    Isotropic =    31.0189   Anisotropy =   100.1893
   XX=     6.1001   YX=    36.7777   ZX=    -6.1239
   XY=    52.3884   YY=   -10.7501   ZY=    -0.7806
   XZ=     0.8854   YZ=     0.0865   ZZ=    97.7067
   Eigenvalues:   -47.7107    42.9557    97.8118
     32  O    Isotropic =   -66.2128   Anisotropy =   593.0431
   XX=  -193.8171   YX=   -66.5000   ZX=   -35.0316
   XY=   -92.3056   YY=  -330.0841   ZY=   -11.4819
   XZ=   -44.0578   YZ=   -48.6948   ZZ=   325.2627
   Eigenvalues:  -369.3573  -158.4304   329.1492
     33  C    Isotropic =   124.1626   Anisotropy =    53.1155
   XX=   158.4855   YX=    -4.5222   ZX=    -5.4277
   XY=    -5.0138   YY=   112.2121   ZY=    11.7880
   XZ=    -4.2170   YZ=     7.9841   ZZ=   101.7902
   Eigenvalues:    95.7801   117.1347   159.5729
     34  H    Isotropic =    27.0910   Anisotropy =     6.4787
   XX=    26.1571   YX=     1.5778   ZX=    -2.4296
   XY=    -0.5164   YY=    27.8312   ZY=    -3.4019
   XZ=     0.1408   YZ=    -3.7599   ZZ=    27.2848
   Eigenvalues:    23.8582    26.0047    31.4101
     35  C    Isotropic =   160.9389   Anisotropy =    40.1437
   XX=   179.3758   YX=   -14.4381   ZX=     7.2994
   XY=   -10.9485   YY=   165.5824   ZY=     6.6868
   XZ=    10.4682   YZ=    -0.7315   ZZ=   137.8583
   Eigenvalues:   134.9547   160.1605   187.7014
     36  H    Isotropic =    28.3813   Anisotropy =     4.9331
   XX=    28.3798   YX=     0.4810   ZX=    -2.2579
   XY=     0.2502   YY=    27.7146   ZY=     2.6541
   XZ=    -2.2145   YZ=     1.9945   ZZ=    29.0495
   Eigenvalues:    25.0427    28.4311    31.6700
     37  H    Isotropic =    29.2731   Anisotropy =     9.7631
   XX=    27.2106   YX=    -1.1972   ZX=     1.4491
   XY=     1.2959   YY=    35.7750   ZY=     0.4284
   XZ=     1.0311   YZ=     0.0890   ZZ=    24.8336
   Eigenvalues:    24.3003    27.7371    35.7818
     38  O    Isotropic =   297.2506   Anisotropy =    56.1101
   XX=   295.0422   YX=   -25.5112   ZX=    37.8717
   XY=    -5.6895   YY=   307.6840   ZY=   -10.8557
   XZ=    16.6067   YZ=   -15.0351   ZZ=   289.0254
   Eigenvalues:   264.6126   292.4818   334.6573
     39  C    Isotropic =    60.6883   Anisotropy =   150.9641
   XX=   113.2479   YX=   -15.6975   ZX=    66.9719
   XY=   -17.8243   YY=    -1.3572   ZY=    42.5228
   XZ=    63.0767   YZ=    47.7736   ZZ=    70.1740
   Eigenvalues:   -37.6101    58.3439   161.3310
     40  C    Isotropic =    71.1719   Anisotropy =   111.7153
   XX=    99.7786   YX=   -36.8112   ZX=    54.8258
   XY=   -32.6648   YY=    38.4670   ZY=    43.6133
   XZ=    58.6522   YZ=    34.3733   ZZ=    75.2699
   Eigenvalues:   -18.4000    86.2669   145.6487
     41  C    Isotropic =   132.7314   Anisotropy =    55.6054
   XX=   125.2804   YX=     4.1179   ZX=   -24.2845
   XY=    10.4929   YY=   139.6321   ZY=   -23.2516
   XZ=   -25.1801   YZ=   -20.0120   ZZ=   133.2817
   Eigenvalues:   101.7844   126.6082   169.8017
     42  H    Isotropic =    27.3747   Anisotropy =     9.9747
   XX=    32.5112   YX=    -2.8144   ZX=    -2.3740
   XY=    -2.0749   YY=    26.4015   ZY=    -0.9536
   XZ=    -3.8416   YZ=    -1.0183   ZZ=    23.2113
   Eigenvalues:    21.6468    26.4527    34.0245
     43  H    Isotropic =    27.1937   Anisotropy =     6.6626
   XX=    26.3579   YX=     0.3418   ZX=    -4.5181
   XY=     0.0574   YY=    26.4021   ZY=     1.1560
   XZ=    -2.4440   YZ=     2.3986   ZZ=    28.8213
   Eigenvalues:    23.3897    26.5560    31.6355
     44  H    Isotropic =    26.3202   Anisotropy =     5.1477
   XX=    27.7424   YX=    -1.3044   ZX=    -1.8129
   XY=    -1.7091   YY=    26.9813   ZY=     1.7037
   XZ=    -1.9711   YZ=     0.4096   ZZ=    24.2368
   Eigenvalues:    23.3659    25.8427    29.7519
     45  C    Isotropic =   142.4838   Anisotropy =    28.3397
   XX=   156.1720   YX=    -5.7513   ZX=     6.6226
   XY=   -13.2160   YY=   137.5650   ZY=    -4.3901
   XZ=     3.6848   YZ=    -1.1089   ZZ=   133.7145
   Eigenvalues:   132.2776   133.7969   161.3770
     46  H    Isotropic =    29.0626   Anisotropy =     9.1650
   XX=    33.6613   YX=     2.0955   ZX=    -2.7587
   XY=     2.1210   YY=    27.6629   ZY=    -1.4942
   XZ=    -1.9459   YZ=    -2.1018   ZZ=    25.8635
   Eigenvalues:    24.6355    27.3797    35.1726
     47  H    Isotropic =    28.1021   Anisotropy =    10.1618
   XX=    30.0547   YX=     4.3354   ZX=     4.0299
   XY=     2.5954   YY=    27.7327   ZY=     2.3416
   XZ=     2.8858   YZ=     3.1481   ZZ=    26.5190
   Eigenvalues:    24.1603    25.2694    34.8766
 End of Minotr Frequency-dependent properties file   721 does not exist.
 End of Minotr Frequency-dependent properties file   722 does not exist.

 **********************************************************************

            Population analysis using the SCF density.

 **********************************************************************

 Orbital symmetries:
       Occupied  (A) (A) (A) (A) (A) (A) (A) (A) (A) (A) (A) (A)
                 (A) (A) (A) (A) (A) (A) (A) (A) (A) (A) (A) (A)
                 (A) (A) (A) (A) (A) (A) (A) (A) (A) (A) (A) (A)
                 (A) (A) (A) (A) (A) (A) (A) (A) (A) (A) (A) (A)
                 (A) (A) (A) (A) (A) (A) (A) (A) (A) (A) (A) (A)
                 (A) (A) (A) (A) (A) (A) (A) (A) (A) (A) (A) (A)
                 (A) (A) (A) (A) (A) (A) (A) (A) (A) (A) (A) (A)
                 (A) (A) (A) (A) (A)
       Virtual   (A) (A) (A) (A) (A) (A) (A) (A) (A) (A) (A) (A)
                 (A) (A) (A) (A) (A) (A) (A) (A) (A) (A) (A) (A)
                 (A) (A) (A) (A) (A) (A) (A) (A) (A) (A) (A) (A)
                 (A) (A) (A) (A) (A) (A) (A) (A) (A) (A) (A) (A)
                 (A) (A) (A) (A) (A) (A) (A) (A) (A) (A) (A) (A)
                 (A) (A) (A) (A) (A) (A) (A) (A) (A) (A) (A) (A)
                 (A) (A) (A) (A) (A) (A) (A) (A) (A) (A) (A) (A)
                 (A) (A) (A) (A) (A) (A) (A) (A) (A) (A) (A) (A)
                 (A) (A) (A) (A) (A) (A) (A) (A) (A) (A) (A) (A)
                 (A) (A) (A) (A) (A) (A) (A) (A) (A) (A) (A) (A)
                 (A) (A) (A) (A) (A) (A) (A) (A) (A) (A) (A) (A)
                 (A) (A) (A) (A) (A) (A) (A) (A) (A) (A) (A) (A)
                 (A) (A) (A) (A) (A) (A) (A) (A) (A) (A) (A) (A)
                 (A) (A) (A) (A) (A) (A) (A) (A) (A) (A) (A) (A)
                 (A) (A) (A) (A) (A) (A) (A) (A) (A) (A) (A) (A)
                 (A) (A) (A) (A) (A) (A) (A) (A) (A) (A) (A) (A)
                 (A) (A) (A) (A) (A) (A) (A) (A) (A) (A) (A) (A)
                 (A) (A) (A) (A) (A) (A) (A) (A) (A) (A) (A) (A)
                 (A) (A) (A) (A) (A) (A) (A) (A) (A) (A) (A) (A)
                 (A) (A) (A) (A) (A) (A) (A) (A) (A) (A) (A) (A)
                 (A) (A) (A) (A) (A) (A) (A) (A) (A) (A) (A) (A)
                 (A) (A) (A) (A) (A) (A) (A) (A) (A) (A) (A) (A)
                 (A) (A) (A) (A) (A) (A) (A) (A) (A) (A) (A) (A)
                 (A) (A) (A) (A) (A) (A) (A) (A) (A) (A) (A) (A)
                 (A) (A) (A) (A) (A) (A) (A) (A) (A) (A) (A) (A)
                 (A) (A) (A) (A) (A) (A) (A) (A) (A) (A) (A) (A)
                 (A) (A) (A) (A) (A) (A) (A) (A) (A) (A) (A) (A)
                 (A) (A) (A) (A) (A) (A) (A) (A) (A) (A) (A) (A)
                 (A) (A) (A) (A) (A) (A) (A) (A) (A) (A) (A) (A)
                 (A) (A) (A) (A) (A) (A) (A) (A) (A) (A) (A) (A)
                 (A) (A) (A) (A) (A) (A) (A) (A) (A) (A) (A) (A)
                 (A) (A) (A) (A) (A) (A) (A) (A) (A) (A) (A) (A)
                 (A) (A) (A) (A) (A) (A) (A) (A) (A) (A) (A) (A)
 The electronic state is 1-A.
 Alpha  occ. eigenvalues --  -19.24104 -19.21311 -14.45357 -14.39880 -10.35565
 Alpha  occ. eigenvalues --  -10.29964 -10.28983 -10.28969 -10.28580 -10.27430
 Alpha  occ. eigenvalues --  -10.26736 -10.26432 -10.25676 -10.25581 -10.25112
 Alpha  occ. eigenvalues --  -10.25026 -10.24981 -10.24952 -10.24934 -10.24842
 Alpha  occ. eigenvalues --  -10.24595 -10.24571 -10.24027 -10.24017 -10.23872
 Alpha  occ. eigenvalues --   -1.06816  -1.05846  -0.99800  -0.95763  -0.88007
 Alpha  occ. eigenvalues --   -0.85430  -0.84019  -0.82192  -0.78905  -0.76880
 Alpha  occ. eigenvalues --   -0.76543  -0.75208  -0.73403  -0.71685  -0.68415
 Alpha  occ. eigenvalues --   -0.66128  -0.64556  -0.63681  -0.62031  -0.59350
 Alpha  occ. eigenvalues --   -0.58381  -0.56863  -0.55866  -0.52869  -0.52400
 Alpha  occ. eigenvalues --   -0.51830  -0.50776  -0.49548  -0.47976  -0.47890
 Alpha  occ. eigenvalues --   -0.47671  -0.46967  -0.46055  -0.45781  -0.45003
 Alpha  occ. eigenvalues --   -0.44342  -0.43932  -0.43423  -0.41970  -0.41768
 Alpha  occ. eigenvalues --   -0.40335  -0.39827  -0.39762  -0.39359  -0.38585
 Alpha  occ. eigenvalues --   -0.38171  -0.37728  -0.37018  -0.36785  -0.35750
 Alpha  occ. eigenvalues --   -0.35130  -0.34284  -0.33682  -0.33398  -0.33035
 Alpha  occ. eigenvalues --   -0.32122  -0.30894  -0.29847  -0.27151  -0.26070
 Alpha  occ. eigenvalues --   -0.25765  -0.24452  -0.21930  -0.21021
 Alpha virt. eigenvalues --   -0.00703   0.00095   0.02499   0.04673   0.09310
 Alpha virt. eigenvalues --    0.09627   0.11193   0.12034   0.12380   0.13221
 Alpha virt. eigenvalues --    0.13726   0.14121   0.14972   0.15338   0.15424
 Alpha virt. eigenvalues --    0.16337   0.16812   0.17678   0.18167   0.18320
 Alpha virt. eigenvalues --    0.18711   0.19386   0.19447   0.19983   0.20426
 Alpha virt. eigenvalues --    0.20927   0.21224   0.21757   0.22221   0.22477
 Alpha virt. eigenvalues --    0.23173   0.23929   0.24323   0.24805   0.25515
 Alpha virt. eigenvalues --    0.26137   0.26715   0.27394   0.27808   0.28380
 Alpha virt. eigenvalues --    0.28883   0.29422   0.31515   0.32527   0.32654
 Alpha virt. eigenvalues --    0.33301   0.33999   0.35878   0.36334   0.37357
 Alpha virt. eigenvalues --    0.37879   0.38411   0.39738   0.41574   0.43116
 Alpha virt. eigenvalues --    0.47983   0.49583   0.51357   0.52187   0.52652
 Alpha virt. eigenvalues --    0.53510   0.54102   0.54489   0.55659   0.56166
 Alpha virt. eigenvalues --    0.56544   0.57068   0.57728   0.58311   0.59215
 Alpha virt. eigenvalues --    0.59597   0.59819   0.60042   0.61617   0.61860
 Alpha virt. eigenvalues --    0.62715   0.62814   0.63071   0.63315   0.64235
 Alpha virt. eigenvalues --    0.64808   0.65036   0.65913   0.66577   0.67206
 Alpha virt. eigenvalues --    0.68089   0.68782   0.69664   0.70267   0.70690
 Alpha virt. eigenvalues --    0.71551   0.71847   0.73687   0.74095   0.74986
 Alpha virt. eigenvalues --    0.75606   0.76301   0.77541   0.78398   0.79331
 Alpha virt. eigenvalues --    0.80793   0.81072   0.82392   0.82816   0.83109
 Alpha virt. eigenvalues --    0.83374   0.84102   0.84570   0.85271   0.85441
 Alpha virt. eigenvalues --    0.85882   0.86482   0.87393   0.87701   0.88088
 Alpha virt. eigenvalues --    0.88573   0.89482   0.89828   0.90350   0.90620
 Alpha virt. eigenvalues --    0.91959   0.92337   0.93206   0.93645   0.94122
 Alpha virt. eigenvalues --    0.94780   0.95342   0.96207   0.96544   0.97321
 Alpha virt. eigenvalues --    0.97710   0.98893   0.99472   1.00566   1.01465
 Alpha virt. eigenvalues --    1.01922   1.02535   1.02995   1.04329   1.04802
 Alpha virt. eigenvalues --    1.07125   1.07531   1.09398   1.09787   1.11991
 Alpha virt. eigenvalues --    1.13070   1.14246   1.15886   1.16577   1.16974
 Alpha virt. eigenvalues --    1.19555   1.20391   1.21701   1.23020   1.23838
 Alpha virt. eigenvalues --    1.25052   1.25286   1.26540   1.29107   1.29926
 Alpha virt. eigenvalues --    1.32380   1.33524   1.34796   1.35443   1.37852
 Alpha virt. eigenvalues --    1.39043   1.39705   1.40896   1.41833   1.43035
 Alpha virt. eigenvalues --    1.43546   1.44415   1.46078   1.48687   1.49792
 Alpha virt. eigenvalues --    1.52059   1.54037   1.56638   1.56737   1.59479
 Alpha virt. eigenvalues --    1.59607   1.60479   1.61863   1.63669   1.65784
 Alpha virt. eigenvalues --    1.67393   1.68836   1.69754   1.69890   1.70822
 Alpha virt. eigenvalues --    1.70873   1.72889   1.73694   1.75357   1.75985
 Alpha virt. eigenvalues --    1.76459   1.77048   1.79063   1.79239   1.80550
 Alpha virt. eigenvalues --    1.80949   1.82669   1.82934   1.83159   1.83823
 Alpha virt. eigenvalues --    1.84290   1.85098   1.85719   1.86832   1.87325
 Alpha virt. eigenvalues --    1.87524   1.88044   1.89445   1.90223   1.90355
 Alpha virt. eigenvalues --    1.91000   1.92526   1.92785   1.93537   1.94599
 Alpha virt. eigenvalues --    1.95148   1.96471   1.97680   1.98030   1.99076
 Alpha virt. eigenvalues --    1.99545   2.00570   2.01211   2.01945   2.02640
 Alpha virt. eigenvalues --    2.02898   2.04068   2.04370   2.05430   2.07638
 Alpha virt. eigenvalues --    2.08270   2.08672   2.09576   2.10123   2.10878
 Alpha virt. eigenvalues --    2.11874   2.13098   2.13813   2.14661   2.16350
 Alpha virt. eigenvalues --    2.17121   2.17587   2.17841   2.20830   2.21083
 Alpha virt. eigenvalues --    2.21769   2.22741   2.24426   2.24767   2.25606
 Alpha virt. eigenvalues --    2.26659   2.27328   2.28071   2.29626   2.30594
 Alpha virt. eigenvalues --    2.30822   2.31802   2.32730   2.33926   2.35807
 Alpha virt. eigenvalues --    2.36569   2.36968   2.38201   2.39085   2.40389
 Alpha virt. eigenvalues --    2.40905   2.41201   2.42203   2.43095   2.43280
 Alpha virt. eigenvalues --    2.44271   2.45312   2.46214   2.46975   2.48674
 Alpha virt. eigenvalues --    2.48878   2.50195   2.50557   2.51562   2.52694
 Alpha virt. eigenvalues --    2.53607   2.53864   2.54679   2.56234   2.57066
 Alpha virt. eigenvalues --    2.57661   2.58179   2.58592   2.59266   2.59843
 Alpha virt. eigenvalues --    2.60776   2.61705   2.62706   2.63322   2.63888
 Alpha virt. eigenvalues --    2.66065   2.66423   2.67102   2.68464   2.68557
 Alpha virt. eigenvalues --    2.71150   2.71786   2.71967   2.72988   2.74364
 Alpha virt. eigenvalues --    2.75936   2.76224   2.78142   2.78420   2.78585
 Alpha virt. eigenvalues --    2.79402   2.79981   2.81221   2.82145   2.84422
 Alpha virt. eigenvalues --    2.84846   2.86135   2.87560   2.88175   2.88757
 Alpha virt. eigenvalues --    2.89391   2.90780   2.91768   2.92509   2.93959
 Alpha virt. eigenvalues --    2.94882   2.95296   2.97613   2.98092   3.00527
 Alpha virt. eigenvalues --    3.01356   3.03070   3.05623   3.05775   3.06286
 Alpha virt. eigenvalues --    3.07834   3.09679   3.13040   3.14070   3.15992
 Alpha virt. eigenvalues --    3.19855   3.24470   3.26901   3.27490   3.29578
 Alpha virt. eigenvalues --    3.31912   3.32396   3.34519   3.34832   3.36243
 Alpha virt. eigenvalues --    3.38409   3.41263   3.42791   3.44267   3.46766
 Alpha virt. eigenvalues --    3.48286   3.49311   3.50796   3.51457   3.51912
 Alpha virt. eigenvalues --    3.53692   3.53912   3.54969   3.55049   3.56485
 Alpha virt. eigenvalues --    3.88691   4.11984   4.16299   4.17168   4.19498
 Alpha virt. eigenvalues --    4.22578   4.25985   4.29617   4.34874   4.41516
 Alpha virt. eigenvalues --    4.46631   4.49534   4.51090   4.54395   4.57703
 Alpha virt. eigenvalues --    4.59358   4.61469   4.68083   4.72894   4.81275
 Alpha virt. eigenvalues --    4.85370   4.86448   4.93307   4.96048   5.02993
 Alpha virt. eigenvalues --    5.10941
          Condensed to atoms (all electrons):
              1          2          3          4          5          6
     1  H    0.535788   0.378901   0.000250  -0.035267  -0.037451   0.003863
     2  C    0.378901   4.976285  -0.051046   0.546297   0.499589  -0.038329
     3  C    0.000250  -0.051046   5.009295  -0.052328  -0.040155   0.493883
     4  C   -0.035267   0.546297  -0.052328   4.920706  -0.028243  -0.037442
     5  C   -0.037451   0.499589  -0.040155  -0.028243   4.924778   0.537652
     6  C    0.003863  -0.038329   0.493883  -0.037442   0.537652   4.916851
     7  C    0.004187  -0.035232   0.530780   0.515174  -0.042875  -0.023210
     8  H   -0.003954  -0.033809   0.003704   0.002857   0.379623  -0.036139
     9  H   -0.000142   0.003728  -0.032544   0.000858  -0.035480   0.380080
    10  H    0.000012   0.000195   0.364725   0.004381   0.003872  -0.034804
    11  C   -0.007396  -0.073546   0.009875   0.304932   0.006715  -0.000209
    12  C    0.000091   0.008534   0.004850  -0.033518  -0.000390  -0.000095
    13  H   -0.000001  -0.000175  -0.000174   0.004426   0.000004   0.000003
    14  N   -0.000096   0.009875  -0.083342  -0.049078  -0.000264   0.005796
    15  C   -0.000010  -0.000261   0.000080  -0.005968   0.000012  -0.000007
    16  H    0.000001  -0.000134  -0.000081   0.003947  -0.000011  -0.000014
    17  C    0.000002   0.000045  -0.000005  -0.000968   0.000001   0.000000
    18  H    0.000000  -0.000001   0.000000  -0.000003   0.000000   0.000000
    19  C   -0.000077  -0.000538   0.000011  -0.001782  -0.000012   0.000000
    20  H    0.000041   0.000874  -0.000012   0.003575  -0.000017  -0.000004
    21  H    0.000001  -0.000013   0.000000  -0.000080   0.000000   0.000000
    22  C    0.001195  -0.003700  -0.000147  -0.033506   0.000146   0.000008
    23  H    0.003401   0.003551  -0.000005  -0.004909  -0.000047   0.000004
    24  N   -0.000089   0.000166   0.000001   0.005767   0.000000   0.000000
    25  C   -0.000049   0.000325   0.000002   0.007609   0.000002   0.000000
    26  H    0.000005  -0.000009   0.000000  -0.000058   0.000000   0.000000
    27  H   -0.000001  -0.000006   0.000000  -0.000424   0.000000   0.000000
    28  C    0.000248  -0.007651   0.000029  -0.066787   0.000044   0.000010
    29  H    0.001056   0.003944  -0.000028  -0.006672  -0.000172   0.000003
    30  H   -0.000013  -0.000388   0.000000  -0.002052   0.000017  -0.000012
    31  C    0.000001  -0.000071  -0.002259   0.005831   0.000007   0.000295
    32  O    0.000000  -0.000003  -0.002273   0.000376   0.000000   0.000404
    33  C    0.000000   0.000008  -0.000047   0.000019   0.000000   0.000000
    34  H    0.000000   0.000000  -0.000008  -0.000004   0.000000   0.000000
    35  C    0.000000   0.000000   0.000512  -0.000478   0.000000   0.000005
    36  H    0.000000   0.000000  -0.000012   0.000006   0.000000   0.000000
    37  H    0.000000   0.000000  -0.000002   0.000003   0.000000   0.000000
    38  O    0.000000   0.000000   0.000000  -0.000001   0.000000   0.000000
    39  C    0.000000   0.000002   0.000000   0.000249   0.000000   0.000000
    40  C    0.000000   0.000000   0.000000  -0.000001   0.000000   0.000000
    41  C    0.000000   0.000000   0.000000  -0.000002   0.000000   0.000000
    42  H    0.000000   0.000000   0.000000   0.000000   0.000000   0.000000
    43  H    0.000000   0.000000   0.000000   0.000001   0.000000   0.000000
    44  H    0.000000   0.000000   0.000000   0.000000   0.000000   0.000000
    45  C    0.000001  -0.000002   0.000000  -0.000205   0.000000   0.000000
    46  H    0.000000   0.000000   0.000000   0.000003   0.000000   0.000000
    47  H    0.000000   0.000000   0.000000   0.000012   0.000000   0.000000
              7          8          9         10         11         12
     1  H    0.004187  -0.003954  -0.000142   0.000012  -0.007396   0.000091
     2  C   -0.035232  -0.033809   0.003728   0.000195  -0.073546   0.008534
     3  C    0.530780   0.003704  -0.032544   0.364725   0.009875   0.004850
     4  C    0.515174   0.002857   0.000858   0.004381   0.304932  -0.033518
     5  C   -0.042875   0.379623  -0.035480   0.003872   0.006715  -0.000390
     6  C   -0.023210  -0.036139   0.380080  -0.034804  -0.000209  -0.000095
     7  C    4.685867   0.000827   0.002468  -0.028002  -0.048982  -0.072127
     8  H    0.000827   0.544569  -0.004269  -0.000125  -0.000154   0.000003
     9  H    0.002468  -0.004269   0.536155  -0.004352   0.000006   0.000003
    10  H   -0.028002  -0.000125  -0.004352   0.517247  -0.000170  -0.000010
    11  C   -0.048982  -0.000154   0.000006  -0.000170   5.255872   0.322067
    12  C   -0.072127   0.000003   0.000003  -0.000010   0.322067   5.064558
    13  H    0.004725   0.000000   0.000000  -0.000003  -0.037307   0.393437
    14  N    0.206658   0.000003  -0.000096  -0.009434  -0.055913   0.248429
    15  C    0.004688   0.000000   0.000000   0.000006  -0.032449   0.323217
    16  H    0.005038   0.000000   0.000000   0.000008  -0.005160  -0.047069
    17  C   -0.000508   0.000000   0.000000   0.000000  -0.013010  -0.039401
    18  H    0.000003   0.000000   0.000000   0.000000   0.000173   0.004866
    19  C    0.000457   0.000000   0.000000   0.000000  -0.031858  -0.019429
    20  H   -0.000092   0.000000   0.000000   0.000000  -0.006749  -0.000580
    21  H    0.000001   0.000000   0.000000   0.000000   0.005497   0.000129
    22  C    0.002850  -0.000001   0.000000   0.000001   0.346941  -0.038110
    23  H   -0.000127   0.000002   0.000000   0.000000  -0.053386   0.004961
    24  N   -0.000219   0.000000   0.000000   0.000000  -0.054125  -0.001270
    25  C   -0.000265   0.000000   0.000000   0.000000  -0.052060  -0.002375
    26  H    0.000000   0.000000   0.000000   0.000000   0.004565   0.000057
    27  H    0.000025   0.000000   0.000000   0.000000  -0.005113   0.001186
    28  C    0.001342   0.000001   0.000000   0.000003   0.367309  -0.052022
    29  H   -0.000158   0.000003   0.000000   0.000000  -0.036828   0.005170
    30  H    0.002697   0.000000   0.000000   0.000001  -0.026552  -0.008082
    31  C   -0.034245   0.000000  -0.000002   0.002116   0.002529  -0.030507
    32  O   -0.002242   0.000000  -0.000003   0.017144  -0.000089   0.002712
    33  C   -0.000958   0.000000   0.000000  -0.000011   0.003835  -0.039435
    34  H    0.000084   0.000000   0.000000   0.000000  -0.000167   0.004897
    35  C    0.006387   0.000000   0.000000   0.000269  -0.000088  -0.000380
    36  H   -0.000151   0.000000   0.000000  -0.000006  -0.000014   0.000868
    37  H   -0.000062   0.000000   0.000000   0.000003   0.000002   0.000059
    38  O    0.000008   0.000000   0.000000   0.000000  -0.000050  -0.000469
    39  C   -0.000037   0.000000   0.000000   0.000000  -0.005241  -0.011417
    40  C   -0.000005   0.000000   0.000000   0.000000  -0.000059  -0.005180
    41  C    0.000002   0.000000   0.000000   0.000000  -0.000063   0.001162
    42  H    0.000000   0.000000   0.000000   0.000000  -0.000001  -0.000017
    43  H   -0.000002   0.000000   0.000000   0.000000   0.000020   0.000624
    44  H    0.000000   0.000000   0.000000   0.000000  -0.000013   0.000003
    45  C    0.000007   0.000000   0.000000   0.000000   0.000740   0.002196
    46  H    0.000000   0.000000   0.000000   0.000000  -0.000115  -0.000059
    47  H    0.000000   0.000000   0.000000   0.000000   0.000031   0.000030
             13         14         15         16         17         18
     1  H   -0.000001  -0.000096  -0.000010   0.000001   0.000002   0.000000
     2  C   -0.000175   0.009875  -0.000261  -0.000134   0.000045  -0.000001
     3  C   -0.000174  -0.083342   0.000080  -0.000081  -0.000005   0.000000
     4  C    0.004426  -0.049078  -0.005968   0.003947  -0.000968  -0.000003
     5  C    0.000004  -0.000264   0.000012  -0.000011   0.000001   0.000000
     6  C    0.000003   0.005796  -0.000007  -0.000014   0.000000   0.000000
     7  C    0.004725   0.206658   0.004688   0.005038  -0.000508   0.000003
     8  H    0.000000   0.000003   0.000000   0.000000   0.000000   0.000000
     9  H    0.000000  -0.000096   0.000000   0.000000   0.000000   0.000000
    10  H   -0.000003  -0.009434   0.000006   0.000008   0.000000   0.000000
    11  C   -0.037307  -0.055913  -0.032449  -0.005160  -0.013010   0.000173
    12  C    0.393437   0.248429   0.323217  -0.047069  -0.039401   0.004866
    13  H    0.556364  -0.039959  -0.046218   0.005385  -0.004150  -0.000021
    14  N   -0.039959   7.397006  -0.076796  -0.007009   0.005663  -0.000111
    15  C   -0.046218  -0.076796   5.267693   0.390271   0.333138  -0.034092
    16  H    0.005385  -0.007009   0.390271   0.583671  -0.042201  -0.002627
    17  C   -0.004150   0.005663   0.333138  -0.042201   5.098755   0.390875
    18  H   -0.000021  -0.000111  -0.034092  -0.002627   0.390875   0.554994
    19  C    0.000641   0.000183  -0.052228  -0.007020   0.336277  -0.037437
    20  H   -0.000008  -0.000178  -0.006950   0.005337  -0.034258  -0.001350
    21  H    0.000016   0.000006   0.005406   0.000304  -0.033070  -0.003883
    22  C    0.000859   0.002128  -0.016795  -0.000870  -0.025870   0.004493
    23  H   -0.000174  -0.000070   0.000054  -0.000106   0.004785  -0.000137
    24  N   -0.000480  -0.000078  -0.000161   0.000074  -0.014536   0.000041
    25  C    0.000784  -0.000055  -0.000038  -0.000010  -0.000382   0.000021
    26  H   -0.000145  -0.000003   0.000004   0.000000  -0.000032   0.000000
    27  H    0.003599   0.000095  -0.000314   0.000005   0.000082   0.000004
    28  C   -0.005739  -0.000339   0.004902  -0.000013   0.000132   0.000004
    29  H    0.000223  -0.000039  -0.000160   0.000002   0.000005   0.000000
    30  H    0.000526   0.001280   0.000274  -0.000001  -0.000002   0.000000
    31  C   -0.004763   0.252964  -0.006970  -0.000111   0.000382  -0.000028
    32  O   -0.000014  -0.087145  -0.000386  -0.000111  -0.000001   0.000000
    33  C   -0.007790  -0.002022   0.303815  -0.036252  -0.033872  -0.003442
    34  H    0.000133   0.000523  -0.049480  -0.009755  -0.001142   0.001278
    35  C    0.002443  -0.122788  -0.070568   0.002517   0.004581   0.000117
    36  H    0.001050   0.000881  -0.004942  -0.000066   0.000013   0.000004
    37  H   -0.000020   0.004508   0.005049  -0.000135  -0.000073  -0.000003
    38  O    0.000866   0.000110  -0.058312   0.003133   0.005280   0.002802
    39  C    0.007022   0.000315  -0.048250   0.006945   0.356494  -0.031732
    40  C    0.002950   0.000193  -0.001682   0.000207  -0.067257  -0.005801
    41  C    0.000404  -0.000001  -0.000351  -0.000189  -0.010761   0.001092
    42  H    0.000072   0.000001  -0.000299   0.000016  -0.000104   0.000112
    43  H   -0.000278  -0.000020  -0.002703  -0.000030   0.001405  -0.000030
    44  H    0.000096   0.000001  -0.000445   0.000008   0.005745  -0.000085
    45  C   -0.000842   0.000003   0.002761  -0.000225  -0.060133   0.002361
    46  H    0.000003   0.000000  -0.000119   0.000004   0.004867  -0.000115
    47  H    0.000019   0.000000   0.000069   0.000012  -0.006644   0.000486
             19         20         21         22         23         24
     1  H   -0.000077   0.000041   0.000001   0.001195   0.003401  -0.000089
     2  C   -0.000538   0.000874  -0.000013  -0.003700   0.003551   0.000166
     3  C    0.000011  -0.000012   0.000000  -0.000147  -0.000005   0.000001
     4  C   -0.001782   0.003575  -0.000080  -0.033506  -0.004909   0.005767
     5  C   -0.000012  -0.000017   0.000000   0.000146  -0.000047   0.000000
     6  C    0.000000  -0.000004   0.000000   0.000008   0.000004   0.000000
     7  C    0.000457  -0.000092   0.000001   0.002850  -0.000127  -0.000219
     8  H    0.000000   0.000000   0.000000  -0.000001   0.000002   0.000000
     9  H    0.000000   0.000000   0.000000   0.000000   0.000000   0.000000
    10  H    0.000000   0.000000   0.000000   0.000001   0.000000   0.000000
    11  C   -0.031858  -0.006749   0.005497   0.346941  -0.053386  -0.054125
    12  C   -0.019429  -0.000580   0.000129  -0.038110   0.004961  -0.001270
    13  H    0.000641  -0.000008   0.000016   0.000859  -0.000174  -0.000480
    14  N    0.000183  -0.000178   0.000006   0.002128  -0.000070  -0.000078
    15  C   -0.052228  -0.006950   0.005406  -0.016795   0.000054  -0.000161
    16  H   -0.007020   0.005337   0.000304  -0.000870  -0.000106   0.000074
    17  C    0.336277  -0.034258  -0.033070  -0.025870   0.004785  -0.014536
    18  H   -0.037437  -0.001350  -0.003883   0.004493  -0.000137   0.000041
    19  C    5.097098   0.386766   0.384233   0.346798  -0.041877  -0.047793
    20  H    0.386766   0.556026  -0.030288  -0.029479  -0.001219   0.004008
    21  H    0.384233  -0.030288   0.566930  -0.031789  -0.005304  -0.003735
    22  C    0.346798  -0.029479  -0.031789   4.935986   0.406278   0.291766
    23  H   -0.041877  -0.001219  -0.005304   0.406278   0.591031  -0.052192
    24  N   -0.047793   0.004008  -0.003735   0.291766  -0.052192   7.070162
    25  C    0.005420  -0.000177  -0.000079  -0.087275   0.002902   0.291502
    26  H   -0.000199   0.000005  -0.000011   0.004225   0.000503  -0.047359
    27  H    0.000003   0.000001   0.000018   0.003298  -0.000434  -0.049925
    28  C    0.006825   0.000040  -0.000141  -0.082053  -0.004972  -0.065040
    29  H   -0.000003  -0.000006   0.000002  -0.000646   0.001144  -0.000506
    30  H   -0.000182   0.000000   0.000003   0.005745  -0.000072   0.003748
    31  C   -0.000025  -0.000004   0.000000  -0.000009   0.000001   0.000003
    32  O    0.000000   0.000000   0.000000   0.000000   0.000000   0.000000
    33  C    0.005112   0.000130  -0.000145   0.000170   0.000010   0.000005
    34  H   -0.000240  -0.000018   0.000001   0.000010   0.000000   0.000000
    35  C   -0.000076  -0.000003   0.000002  -0.000033   0.000000  -0.000002
    36  H   -0.000005   0.000000   0.000000   0.000002   0.000000   0.000000
    37  H    0.000002   0.000000   0.000000   0.000000   0.000000   0.000000
    38  O    0.000387   0.000004   0.000001  -0.000013   0.000000   0.000001
    39  C   -0.050380   0.004777  -0.004601  -0.009622   0.000048  -0.060207
    40  C    0.006234  -0.000110  -0.000238   0.000158   0.000011   0.000007
    41  C   -0.000049  -0.000008   0.000007   0.000007   0.000000  -0.000158
    42  H   -0.000001   0.000000   0.000000   0.000000   0.000000  -0.000002
    43  H    0.000020   0.000000   0.000000  -0.000007   0.000000   0.000020
    44  H   -0.000141   0.000003  -0.000001   0.000015   0.000000   0.000248
    45  C   -0.011352   0.000075   0.002340  -0.048542   0.003311   0.294265
    46  H    0.000067   0.000000  -0.000008   0.004788  -0.000134  -0.030517
    47  H    0.001093   0.000084  -0.000731  -0.004797   0.000562  -0.046041
             25         26         27         28         29         30
     1  H   -0.000049   0.000005  -0.000001   0.000248   0.001056  -0.000013
     2  C    0.000325  -0.000009  -0.000006  -0.007651   0.003944  -0.000388
     3  C    0.000002   0.000000   0.000000   0.000029  -0.000028   0.000000
     4  C    0.007609  -0.000058  -0.000424  -0.066787  -0.006672  -0.002052
     5  C    0.000002   0.000000   0.000000   0.000044  -0.000172   0.000017
     6  C    0.000000   0.000000   0.000000   0.000010   0.000003  -0.000012
     7  C   -0.000265   0.000000   0.000025   0.001342  -0.000158   0.002697
     8  H    0.000000   0.000000   0.000000   0.000001   0.000003   0.000000
     9  H    0.000000   0.000000   0.000000   0.000000   0.000000   0.000000
    10  H    0.000000   0.000000   0.000000   0.000003   0.000000   0.000001
    11  C   -0.052060   0.004565  -0.005113   0.367309  -0.036828  -0.026552
    12  C   -0.002375   0.000057   0.001186  -0.052022   0.005170  -0.008082
    13  H    0.000784  -0.000145   0.003599  -0.005739   0.000223   0.000526
    14  N   -0.000055  -0.000003   0.000095  -0.000339  -0.000039   0.001280
    15  C   -0.000038   0.000004  -0.000314   0.004902  -0.000160   0.000274
    16  H   -0.000010   0.000000   0.000005  -0.000013   0.000002  -0.000001
    17  C   -0.000382  -0.000032   0.000082   0.000132   0.000005  -0.000002
    18  H    0.000021   0.000000   0.000004   0.000004   0.000000   0.000000
    19  C    0.005420  -0.000199   0.000003   0.006825  -0.000003  -0.000182
    20  H   -0.000177   0.000005   0.000001   0.000040  -0.000006   0.000000
    21  H   -0.000079  -0.000011   0.000018  -0.000141   0.000002   0.000003
    22  C   -0.087275   0.004225   0.003298  -0.082053  -0.000646   0.005745
    23  H    0.002902   0.000503  -0.000434  -0.004972   0.001144  -0.000072
    24  N    0.291502  -0.047359  -0.049925  -0.065040  -0.000506   0.003748
    25  C    4.923048   0.399845   0.379430   0.325806  -0.034927  -0.029405
    26  H    0.399845   0.587824  -0.045202  -0.036701  -0.009225   0.002575
    27  H    0.379430  -0.045202   0.612212  -0.028331   0.005132  -0.007469
    28  C    0.325806  -0.036701  -0.028331   5.129715   0.388023   0.385382
    29  H   -0.034927  -0.009225   0.005132   0.388023   0.563906  -0.029577
    30  H   -0.029405   0.002575  -0.007469   0.385382  -0.029577   0.550517
    31  C    0.000010   0.000000  -0.000004  -0.000177   0.000004  -0.000068
    32  O    0.000000   0.000000   0.000000   0.000000   0.000000   0.000000
    33  C    0.000010   0.000000   0.000005  -0.000139   0.000002  -0.000006
    34  H    0.000000   0.000000   0.000000   0.000002   0.000000   0.000000
    35  C   -0.000002   0.000000   0.000007   0.000015   0.000000   0.000002
    36  H   -0.000002   0.000000  -0.000007   0.000004   0.000000   0.000005
    37  H    0.000000   0.000000   0.000000   0.000000   0.000000   0.000000
    38  O    0.000000   0.000000   0.000000   0.000000   0.000000   0.000000
    39  C   -0.004884  -0.000152   0.006563  -0.000236  -0.000029   0.000037
    40  C    0.000170   0.000050   0.003577  -0.000340  -0.000001   0.000004
    41  C   -0.000043  -0.000001   0.000029   0.000019   0.000000   0.000000
    42  H    0.000000   0.000000   0.000005   0.000000   0.000000   0.000000
    43  H    0.000011   0.000000  -0.000076  -0.000002   0.000000   0.000000
    44  H   -0.000140   0.000012   0.000219  -0.000006   0.000000   0.000000
    45  C   -0.046263   0.001352  -0.006579   0.004804  -0.000010  -0.000206
    46  H   -0.007513   0.000919   0.000203   0.000317  -0.000007  -0.000002
    47  H    0.005659   0.000033   0.000032  -0.000462   0.000007   0.000004
             31         32         33         34         35         36
     1  H    0.000001   0.000000   0.000000   0.000000   0.000000   0.000000
     2  C   -0.000071  -0.000003   0.000008   0.000000   0.000000   0.000000
     3  C   -0.002259  -0.002273  -0.000047  -0.000008   0.000512  -0.000012
     4  C    0.005831   0.000376   0.000019  -0.000004  -0.000478   0.000006
     5  C    0.000007   0.000000   0.000000   0.000000   0.000000   0.000000
     6  C    0.000295   0.000404   0.000000   0.000000   0.000005   0.000000
     7  C   -0.034245  -0.002242  -0.000958   0.000084   0.006387  -0.000151
     8  H    0.000000   0.000000   0.000000   0.000000   0.000000   0.000000
     9  H   -0.000002  -0.000003   0.000000   0.000000   0.000000   0.000000
    10  H    0.002116   0.017144  -0.000011   0.000000   0.000269  -0.000006
    11  C    0.002529  -0.000089   0.003835  -0.000167  -0.000088  -0.000014
    12  C   -0.030507   0.002712  -0.039435   0.004897  -0.000380   0.000868
    13  H   -0.004763  -0.000014  -0.007790   0.000133   0.002443   0.001050
    14  N    0.252964  -0.087145  -0.002022   0.000523  -0.122788   0.000881
    15  C   -0.006970  -0.000386   0.303815  -0.049480  -0.070568  -0.004942
    16  H   -0.000111  -0.000111  -0.036252  -0.009755   0.002517  -0.000066
    17  C    0.000382  -0.000001  -0.033872  -0.001142   0.004581   0.000013
    18  H   -0.000028   0.000000  -0.003442   0.001278   0.000117   0.000004
    19  C   -0.000025   0.000000   0.005112  -0.000240  -0.000076  -0.000005
    20  H   -0.000004   0.000000   0.000130  -0.000018  -0.000003   0.000000
    21  H    0.000000   0.000000  -0.000145   0.000001   0.000002   0.000000
    22  C   -0.000009   0.000000   0.000170   0.000010  -0.000033   0.000002
    23  H    0.000001   0.000000   0.000010   0.000000   0.000000   0.000000
    24  N    0.000003   0.000000   0.000005   0.000000  -0.000002   0.000000
    25  C    0.000010   0.000000   0.000010   0.000000  -0.000002  -0.000002
    26  H    0.000000   0.000000   0.000000   0.000000   0.000000   0.000000
    27  H   -0.000004   0.000000   0.000005   0.000000   0.000007  -0.000007
    28  C   -0.000177   0.000000  -0.000139   0.000002   0.000015   0.000004
    29  H    0.000004   0.000000   0.000002   0.000000   0.000000   0.000000
    30  H   -0.000068   0.000000  -0.000006   0.000000   0.000002   0.000005
    31  C    4.395274   0.568934  -0.025544  -0.001984   0.336087  -0.025979
    32  O    0.568934   8.117845   0.001136   0.000332  -0.069408   0.000870
    33  C   -0.025544   0.001136   4.819828   0.413705   0.309011  -0.025960
    34  H   -0.001984   0.000332   0.413705   0.572308  -0.049394   0.004589
    35  C    0.336087  -0.069408   0.309011  -0.049394   5.313253   0.368832
    36  H   -0.025979   0.000870  -0.025960   0.004589   0.368832   0.518469
    37  H   -0.024991   0.002717  -0.026410  -0.007815   0.374544  -0.024215
    38  O    0.001546  -0.000010   0.242385  -0.040728  -0.030897  -0.004774
    39  C   -0.000008   0.000000  -0.005355  -0.000063   0.000232   0.000032
    40  C   -0.000008   0.000000  -0.003497  -0.000365  -0.000727  -0.000604
    41  C    0.000154  -0.000001  -0.039930   0.005454  -0.008294   0.001727
    42  H   -0.000002   0.000000   0.004292  -0.000144   0.000025  -0.000089
    43  H   -0.000383   0.000005  -0.004114  -0.000187   0.004249   0.003856
    44  H   -0.000002   0.000000   0.000004   0.000006  -0.000008   0.000024
    45  C    0.000000   0.000000  -0.000043   0.000005   0.000005   0.000002
    46  H    0.000000   0.000000  -0.000005   0.000000   0.000000   0.000000
    47  H    0.000000   0.000000   0.000001   0.000000   0.000000   0.000000
             37         38         39         40         41         42
     1  H    0.000000   0.000000   0.000000   0.000000   0.000000   0.000000
     2  C    0.000000   0.000000   0.000002   0.000000   0.000000   0.000000
     3  C   -0.000002   0.000000   0.000000   0.000000   0.000000   0.000000
     4  C    0.000003  -0.000001   0.000249  -0.000001  -0.000002   0.000000
     5  C    0.000000   0.000000   0.000000   0.000000   0.000000   0.000000
     6  C    0.000000   0.000000   0.000000   0.000000   0.000000   0.000000
     7  C   -0.000062   0.000008  -0.000037  -0.000005   0.000002   0.000000
     8  H    0.000000   0.000000   0.000000   0.000000   0.000000   0.000000
     9  H    0.000000   0.000000   0.000000   0.000000   0.000000   0.000000
    10  H    0.000003   0.000000   0.000000   0.000000   0.000000   0.000000
    11  C    0.000002  -0.000050  -0.005241  -0.000059  -0.000063  -0.000001
    12  C    0.000059  -0.000469  -0.011417  -0.005180   0.001162  -0.000017
    13  H   -0.000020   0.000866   0.007022   0.002950   0.000404   0.000072
    14  N    0.004508   0.000110   0.000315   0.000193  -0.000001   0.000001
    15  C    0.005049  -0.058312  -0.048250  -0.001682  -0.000351  -0.000299
    16  H   -0.000135   0.003133   0.006945   0.000207  -0.000189   0.000016
    17  C   -0.000073   0.005280   0.356494  -0.067257  -0.010761  -0.000104
    18  H   -0.000003   0.002802  -0.031732  -0.005801   0.001092   0.000112
    19  C    0.000002   0.000387  -0.050380   0.006234  -0.000049  -0.000001
    20  H    0.000000   0.000004   0.004777  -0.000110  -0.000008   0.000000
    21  H    0.000000   0.000001  -0.004601  -0.000238   0.000007   0.000000
    22  C    0.000000  -0.000013  -0.009622   0.000158   0.000007   0.000000
    23  H    0.000000   0.000000   0.000048   0.000011   0.000000   0.000000
    24  N    0.000000   0.000001  -0.060207   0.000007  -0.000158  -0.000002
    25  C    0.000000   0.000000  -0.004884   0.000170  -0.000043   0.000000
    26  H    0.000000   0.000000  -0.000152   0.000050  -0.000001   0.000000
    27  H    0.000000   0.000000   0.006563   0.003577   0.000029   0.000005
    28  C    0.000000   0.000000  -0.000236  -0.000340   0.000019   0.000000
    29  H    0.000000   0.000000  -0.000029  -0.000001   0.000000   0.000000
    30  H    0.000000   0.000000   0.000037   0.000004   0.000000   0.000000
    31  C   -0.024991   0.001546  -0.000008  -0.000008   0.000154  -0.000002
    32  O    0.002717  -0.000010   0.000000   0.000000  -0.000001   0.000000
    33  C   -0.026410   0.242385  -0.005355  -0.003497  -0.039930   0.004292
    34  H   -0.007815  -0.040728  -0.000063  -0.000365   0.005454  -0.000144
    35  C    0.374544  -0.030897   0.000232  -0.000727  -0.008294   0.000025
    36  H   -0.024215  -0.004774   0.000032  -0.000604   0.001727  -0.000089
    37  H    0.519014   0.001965  -0.000012   0.000084   0.000036  -0.000026
    38  O    0.001965   8.280988  -0.007585  -0.042732   0.243064  -0.033432
    39  C   -0.000012  -0.007585   4.919666   0.662102  -0.037363  -0.000615
    40  C    0.000084  -0.042732   0.662102   5.119547   0.310661  -0.049197
    41  C    0.000036   0.243064  -0.037363   0.310661   4.827534   0.399393
    42  H   -0.000026  -0.033432  -0.000615  -0.049197   0.399393   0.558956
    43  H   -0.000067  -0.037455  -0.002667  -0.055188   0.376970  -0.038630
    44  H   -0.000001   0.002840  -0.035747   0.363658  -0.039687   0.000157
    45  C    0.000000  -0.000025   0.355689  -0.037086   0.004570  -0.000166
    46  H    0.000000  -0.000001  -0.036934  -0.006541   0.000089  -0.000013
    47  H    0.000000   0.000004  -0.050994   0.002802  -0.000189   0.000016
             43         44         45         46         47
     1  H    0.000000   0.000000   0.000001   0.000000   0.000000
     2  C    0.000000   0.000000  -0.000002   0.000000   0.000000
     3  C    0.000000   0.000000   0.000000   0.000000   0.000000
     4  C    0.000001   0.000000  -0.000205   0.000003   0.000012
     5  C    0.000000   0.000000   0.000000   0.000000   0.000000
     6  C    0.000000   0.000000   0.000000   0.000000   0.000000
     7  C   -0.000002   0.000000   0.000007   0.000000   0.000000
     8  H    0.000000   0.000000   0.000000   0.000000   0.000000
     9  H    0.000000   0.000000   0.000000   0.000000   0.000000
    10  H    0.000000   0.000000   0.000000   0.000000   0.000000
    11  C    0.000020  -0.000013   0.000740  -0.000115   0.000031
    12  C    0.000624   0.000003   0.002196  -0.000059   0.000030
    13  H   -0.000278   0.000096  -0.000842   0.000003   0.000019
    14  N   -0.000020   0.000001   0.000003   0.000000   0.000000
    15  C   -0.002703  -0.000445   0.002761  -0.000119   0.000069
    16  H   -0.000030   0.000008  -0.000225   0.000004   0.000012
    17  C    0.001405   0.005745  -0.060133   0.004867  -0.006644
    18  H   -0.000030  -0.000085   0.002361  -0.000115   0.000486
    19  C    0.000020  -0.000141  -0.011352   0.000067   0.001093
    20  H    0.000000   0.000003   0.000075   0.000000   0.000084
    21  H    0.000000  -0.000001   0.002340  -0.000008  -0.000731
    22  C   -0.000007   0.000015  -0.048542   0.004788  -0.004797
    23  H    0.000000   0.000000   0.003311  -0.000134   0.000562
    24  N    0.000020   0.000248   0.294265  -0.030517  -0.046041
    25  C    0.000011  -0.000140  -0.046263  -0.007513   0.005659
    26  H    0.000000   0.000012   0.001352   0.000919   0.000033
    27  H   -0.000076   0.000219  -0.006579   0.000203   0.000032
    28  C   -0.000002  -0.000006   0.004804   0.000317  -0.000462
    29  H    0.000000   0.000000  -0.000010  -0.000007   0.000007
    30  H    0.000000   0.000000  -0.000206  -0.000002   0.000004
    31  C   -0.000383  -0.000002   0.000000   0.000000   0.000000
    32  O    0.000005   0.000000   0.000000   0.000000   0.000000
    33  C   -0.004114   0.000004  -0.000043  -0.000005   0.000001
    34  H   -0.000187   0.000006   0.000005   0.000000   0.000000
    35  C    0.004249  -0.000008   0.000005   0.000000   0.000000
    36  H    0.003856   0.000024   0.000002   0.000000   0.000000
    37  H   -0.000067  -0.000001   0.000000   0.000000   0.000000
    38  O   -0.037455   0.002840  -0.000025  -0.000001   0.000004
    39  C   -0.002667  -0.035747   0.355689  -0.036934  -0.050994
    40  C   -0.055188   0.363658  -0.037086  -0.006541   0.002802
    41  C    0.376970  -0.039687   0.004570   0.000089  -0.000189
    42  H   -0.038630   0.000157  -0.000166  -0.000013   0.000016
    43  H    0.611826   0.001883  -0.000091   0.000004  -0.000003
    44  H    0.001883   0.573557  -0.010719   0.005337   0.000358
    45  C   -0.000091  -0.010719   4.926551   0.392850   0.390381
    46  H    0.000004   0.005337   0.392850   0.555577  -0.033844
    47  H   -0.000003   0.000358   0.390381  -0.033844   0.595058
 Mulliken atomic charges:
              1
     1  H    0.155498
     2  C   -0.187403
     3  C   -0.153528
     4  C    0.032747
     5  C   -0.167347
     6  C   -0.168590
     7  C    0.315227
     8  H    0.146858
     9  H    0.153590
    10  H    0.166933
    11  C   -0.084244
    12  C    0.007829
    13  H    0.162209
    14  N   -0.601787
    15  C   -0.124486
    16  H    0.152310
    17  C   -0.160147
    18  H    0.157171
    19  C   -0.274926
    20  H    0.149764
    21  H    0.149217
    22  C    0.055395
    23  H    0.142607
    24  N   -0.487348
    25  C   -0.076610
    26  H    0.137123
    27  H    0.128151
    28  C   -0.263827
    29  H    0.150369
    30  H    0.151270
    31  C    0.592006
    32  O   -0.550792
    33  C    0.151495
    34  H    0.158169
    35  C   -0.369946
    36  H    0.185593
    37  H    0.175847
    38  O   -0.528904
    39  C    0.083960
    40  C   -0.195794
    41  C   -0.035284
    42  H    0.159692
    43  H    0.141039
    44  H    0.132822
    45  C   -0.161779
    46  H    0.150898
    47  H    0.146952
 Sum of Mulliken atomic charges =   0.00000
 Mulliken charges with hydrogens summed into heavy atoms:
              1
     2  C   -0.031905
     3  C    0.013405
     4  C    0.032747
     5  C   -0.020489
     6  C   -0.015001
     7  C    0.315227
    11  C   -0.084244
    12  C    0.170038
    14  N   -0.601787
    15  C    0.027824
    17  C   -0.002976
    19  C    0.024056
    22  C    0.198002
    24  N   -0.487348
    25  C    0.188664
    28  C    0.037812
    31  C    0.592006
    32  O   -0.550792
    33  C    0.309664
    35  C   -0.008507
    38  O   -0.528904
    39  C    0.083960
    40  C   -0.062973
    41  C    0.265447
    45  C    0.136072
 Sum of Mulliken charges with hydrogens summed into heavy atoms =   0.00000
 Electronic spatial extent (au):  <R**2>=           6504.8013
 Charge=              0.0000 electrons
 Dipole moment (field-independent basis, Debye):
    X=             -2.7622    Y=             -3.3076    Z=              0.3894  Tot=              4.3269
 Quadrupole moment (field-independent basis, Debye-Ang):
   XX=           -141.8395   YY=           -156.9260   ZZ=           -139.6659
   XY=             -9.7318   XZ=             -9.3446   YZ=              0.8049
 Traceless Quadrupole moment (field-independent basis, Debye-Ang):
   XX=              4.3043   YY=            -10.7822   ZZ=              6.4779
   XY=             -9.7318   XZ=             -9.3446   YZ=              0.8049
 Octapole moment (field-independent basis, Debye-Ang**2):
  XXX=              2.8817  YYY=            -26.3083  ZZZ=              3.1071  XYY=            -16.9161
  XXY=            -20.4722  XXZ=              6.5606  XZZ=            -19.8666  YZZ=             -0.9832
  YYZ=             -7.4879  XYZ=            -14.1086
 Hexadecapole moment (field-independent basis, Debye-Ang**3):
 XXXX=          -4419.4069 YYYY=          -3266.9813 ZZZZ=           -830.4037 XXXY=             -7.9029
 XXXZ=           -153.2957 YYYX=           -176.8480 YYYZ=            -21.3928 ZZZX=             18.0892
 ZZZY=             -4.5023 XXYY=          -1326.2317 XXZZ=           -966.8974 YYZZ=           -623.3447
 XXYZ=             39.0584 YYXZ=            -53.7015 ZZXY=              6.7003
 N-N= 2.395592564393D+03 E-N=-7.283942978727D+03  KE= 1.063457445941D+03
 1\1\GINC-COMPUTE-8-7\SP\RmPW1PW91\6-31G(d,p)\C21H22N2O2\FBRUNO.IQUIR\1
 6-Oct-2021\0\\# mPW1PW91/6-31g** scrf=(pcm,solvent=chloroform,smd,dova
 cuum) nmr\\comment\\0,1\H,0,1.822517866,3.157148325,-1.610958809\C,0,1
 .603095742,3.101426908,-0.549351349\C,0,1.084278149,2.973483452,2.2333
 94634\C,0,1.154856891,1.927053069,0.036947585\C,0,1.790098703,4.221166
 118,0.264888138\C,0,1.535733229,4.157025636,1.644323073\C,0,0.90025271
 4,1.871520063,1.419924409\H,0,2.144143995,5.152795646,-0.171177628\H,0
 ,1.688955924,5.038963618,2.262121697\H,0,0.881220198,2.936450291,3.298
 479054\C,0,0.937059922,0.578033141,-0.604907198\C,0,0.153553108,-0.141
 341478,0.532080267\H,0,0.538197752,-1.156969104,0.688125156\N,0,0.3939
 04404,0.609577799,1.763611099\C,0,-1.374429871,-0.157121713,0.36681267
 5\H,0,-1.727707319,0.881222229,0.485749832\C,0,-1.773052069,-0.5928041
 9,-1.038891583\H,0,-2.863007643,-0.654680708,-1.139511664\C,0,-1.25451
 8205,0.519150218,-1.970877442\H,0,-1.590941799,1.507346966,-1.63276638
 1\H,0,-1.66387238,0.398201511,-2.98231424\C,0,0.273825582,0.461469977,
 -1.996663899\H,0,0.643555161,1.255127754,-2.657628306\N,0,0.758682519,
 -0.833198368,-2.553710451\C,0,1.934147809,-1.260624536,-1.780386243\H,
 0,2.76533933,-1.508288144,-2.448455128\H,0,1.732901675,-2.147319493,-1
 .167305438\C,0,2.289476621,-0.095531776,-0.871341808\H,0,2.970357488,0
 .585777513,-1.398990507\H,0,2.797883847,-0.428521987,0.04043805\C,0,-0
 .234990705,0.238977538,2.943557037\O,0,-0.150482421,0.821590542,4.0194
 47762\C,0,-2.010166821,-0.912528873,1.546642423\H,0,-2.849094007,-0.28
 1141736,1.872304653\C,0,-1.084120507,-1.022572096,2.778700727\H,0,-0.4
 07579588,-1.880793904,2.723467965\H,0,-1.692841639,-1.1702105,3.678193
 942\O,0,-2.654531541,-2.123466308,1.155160119\C,0,-1.136525387,-1.9229
 11652,-1.401446511\C,0,-1.193275326,-3.020239136,-0.620908828\C,0,-1.8
 5523487,-3.207112017,0.713904311\H,0,-2.526490996,-4.069108379,0.62972
 6904\H,0,-1.109842744,-3.471395516,1.46938209\H,0,-0.659238264,-3.9100
 23634,-0.954464923\C,0,-0.271542305,-1.882598913,-2.645835907\H,0,0.19
 8299929,-2.853026206,-2.851273189\H,0,-0.90885215,-1.689977948,-3.5182
 1617\\Version=EM64L-G09RevC.01\State=1-A\HF=-1073.2436861\RMSD=4.958e-
 09\Dipole=0.1771498,-0.8370384,-1.4716869\Quadrupole=-0.2670286,11.124
 8156,-10.8577869,-1.5798255,0.3006899,-5.1357293\PG=C01 [X(C21H22N2O2)
 ]\\@


 ERWIN WITH HIS PSI CAN DO
 CALCULATIONS QUITE A FEW.
 BUT ONE THING HAS NOT BEEN SEEN
 JUST WHAT DOES PSI REALLY MEAN.
 -- WALTER HUCKEL, TRANS. BY FELIX BLOCH
 Job cpu time:  0 days  2 hours 20 minutes 20.0 seconds.
 File lengths (MBytes):  RWF=    213 Int=      0 D2E=      0 Chk=     15 Scr=      1
 Normal termination of Gaussian 09 at Sat Oct 16 12:09:17 2021.
