 Entering Gaussian System, Link 0=g09
 Input=/home/fbruno.iquir/MPW_A_SMD/62_MMFF_001_NMR_MPW_A_SMD.gjc
 Output=/home/fbruno.iquir/MPW_A_SMD/62_MMFF_001_NMR_MPW_A_SMD.log
 Initial command:
 /share/apps/Gaussian09/EM64T.SSE4.2-enabled/g09/l1.exe /tmp/Gau-17484.inp -scrdir=/tmp/
 Entering Link 1 = /share/apps/Gaussian09/EM64T.SSE4.2-enabled/g09/l1.exe PID=     17485.
  
 Copyright (c) 1988,1990,1992,1993,1995,1998,2003,2009,2011,
            Gaussian, Inc.  All Rights Reserved.
  
 This is part of the Gaussian(R) 09 program.  It is based on
 the Gaussian(R) 03 system (copyright 2003, Gaussian, Inc.),
 the Gaussian(R) 98 system (copyright 1998, Gaussian, Inc.),
 the Gaussian(R) 94 system (copyright 1995, Gaussian, Inc.),
 the Gaussian 92(TM) system (copyright 1992, Gaussian, Inc.),
 the Gaussian 90(TM) system (copyright 1990, Gaussian, Inc.),
 the Gaussian 88(TM) system (copyright 1988, Gaussian, Inc.),
 the Gaussian 86(TM) system (copyright 1986, Carnegie Mellon
 University), and the Gaussian 82(TM) system (copyright 1983,
 Carnegie Mellon University). Gaussian is a federally registered
 trademark of Gaussian, Inc.
  
 This software contains proprietary and confidential information,
 including trade secrets, belonging to Gaussian, Inc.
  
 This software is provided under written license and may be
 used, copied, transmitted, or stored only in accord with that
 written license.
  
 The following legend is applicable only to US Government
 contracts under FAR:
  
                    RESTRICTED RIGHTS LEGEND
  
 Use, reproduction and disclosure by the US Government is
 subject to restrictions as set forth in subparagraphs (a)
 and (c) of the Commercial Computer Software - Restricted
 Rights clause in FAR 52.227-19.
  
 Gaussian, Inc.
 340 Quinnipiac St., Bldg. 40, Wallingford CT 06492
  
  
 ---------------------------------------------------------------
 Warning -- This program may not be used in any manner that
 competes with the business of Gaussian, Inc. or will provide
 assistance to any competitor of Gaussian, Inc.  The licensee
 of this program is prohibited from giving any competitor of
 Gaussian, Inc. access to this program.  By using this program,
 the user acknowledges that Gaussian, Inc. is engaged in the
 business of creating and licensing software in the field of
 computational chemistry and represents and warrants to the
 licensee that it is not a competitor of Gaussian, Inc. and that
 it will not use this program in any manner prohibited above.
 ---------------------------------------------------------------
  

 Cite this work as:
 Gaussian 09, Revision C.01,
 M. J. Frisch, G. W. Trucks, H. B. Schlegel, G. E. Scuseria, 
 M. A. Robb, J. R. Cheeseman, G. Scalmani, V. Barone, B. Mennucci, 
 G. A. Petersson, H. Nakatsuji, M. Caricato, X. Li, H. P. Hratchian, 
 A. F. Izmaylov, J. Bloino, G. Zheng, J. L. Sonnenberg, M. Hada, 
 M. Ehara, K. Toyota, R. Fukuda, J. Hasegawa, M. Ishida, T. Nakajima, 
 Y. Honda, O. Kitao, H. Nakai, T. Vreven, J. A. Montgomery, Jr., 
 J. E. Peralta, F. Ogliaro, M. Bearpark, J. J. Heyd, E. Brothers, 
 K. N. Kudin, V. N. Staroverov, T. Keith, R. Kobayashi, J. Normand, 
 K. Raghavachari, A. Rendell, J. C. Burant, S. S. Iyengar, J. Tomasi, 
 M. Cossi, N. Rega, J. M. Millam, M. Klene, J. E. Knox, J. B. Cross, 
 V. Bakken, C. Adamo, J. Jaramillo, R. Gomperts, R. E. Stratmann, 
 O. Yazyev, A. J. Austin, R. Cammi, C. Pomelli, J. W. Ochterski, 
 R. L. Martin, K. Morokuma, V. G. Zakrzewski, G. A. Voth, 
 P. Salvador, J. J. Dannenberg, S. Dapprich, A. D. Daniels, 
 O. Farkas, J. B. Foresman, J. V. Ortiz, J. Cioslowski, 
 and D. J. Fox, Gaussian, Inc., Wallingford CT, 2010.
 
 ******************************************
 Gaussian 09:  EM64L-G09RevC.01 23-Sep-2011
                16-Oct-2021 
 ******************************************
 %nprocshared=4
 Will use up to    4 processors via shared memory.
 -----------------------------------------------------------------
 # mPW1PW91/6-31g** scrf=(pcm,solvent=chloroform,smd,dovacuum) nmr
 -----------------------------------------------------------------
 1/38=1/1;
 2/12=2,17=6,18=5,40=1/2;
 3/5=1,6=6,7=101,11=2,16=1,25=1,30=1,70=32101,72=7,74=-7/1,2,8,3;
 4//1;
 5/5=2,38=5,53=7/2;
 8/6=1,10=90,11=11/1;
 10/13=100,45=16/2;
 6/7=2,8=2,9=2,10=2,28=1/1;
 99/9=1/99;
 -------
 comment
 -------
 Charge =  0 Multiplicity = 1
 Symbolic Z-Matrix:
 1                     3.23697   0.       -2.20243 
 6                     2.36853   0.       -1.54484 
 6                     0.16334   0.        0.1305 
 6                     1.06138   0.       -2.09712 
 6                     2.57444   0.       -0.16162 
 6                     1.45359   0.        0.64333 
 6                    -0.06308   0.       -1.24238 
 1                     3.5718    0.        0.2662 
 6                     0.84323   0.       -3.48048 
 1                     1.67902   0.       -4.17426 
 6                    -0.46194   0.       -3.97038 
 6                    -0.70757   0.       -5.45002 
 1                    -0.26755  -0.89224  -5.90612 
 1                    -0.26755   0.89224  -5.90612 
 1                    -1.7806    0.       -5.66714 
 7                    -1.54764   0.       -3.1633 
 6                    -1.32978   0.       -1.82833 
 1                    -2.23271   0.       -1.22289 
 6                     1.35052   0.        2.09606 
 8                     2.27812  -0.04322   2.87419 
 6                    -0.12604   0.        2.33797 
 6                    -0.77171   0.        3.5192 
 6                    -2.27745   0.        3.59599 
 1                    -2.7581    0.        2.61303 
 1                    -2.62744   0.88844   4.1322 
 1                    -2.62744  -0.88844   4.1322 
 6                    -0.10437   0.        4.86807 
 1                    -0.40699   0.88733   5.43452 
 1                     0.98488   0.        4.82796 
 1                    -0.40699  -0.88733   5.43452 
 8                    -0.80127   0.        1.11146 
 
                          Input orientation:                          
 ---------------------------------------------------------------------
 Center     Atomic      Atomic             Coordinates (Angstroms)
 Number     Number       Type             X           Y           Z
 ---------------------------------------------------------------------
      1          1           0        3.236975    0.000000   -2.202433
      2          6           0        2.368533    0.000000   -1.544836
      3          6           0        0.163336    0.000000    0.130504
      4          6           0        1.061384    0.000000   -2.097122
      5          6           0        2.574443    0.000000   -0.161617
      6          6           0        1.453587    0.000000    0.643329
      7          6           0       -0.063079    0.000000   -1.242376
      8          1           0        3.571801    0.000000    0.266199
      9          6           0        0.843230    0.000000   -3.480483
     10          1           0        1.679020    0.000000   -4.174263
     11          6           0       -0.461939    0.000000   -3.970381
     12          6           0       -0.707573    0.000000   -5.450021
     13          1           0       -0.267550   -0.892240   -5.906120
     14          1           0       -0.267550    0.892240   -5.906120
     15          1           0       -1.780596    0.000000   -5.667143
     16          7           0       -1.547636    0.000000   -3.163296
     17          6           0       -1.329782    0.000000   -1.828334
     18          1           0       -2.232709    0.000000   -1.222891
     19          6           0        1.350515    0.000000    2.096058
     20          8           0        2.278118   -0.043216    2.874191
     21          6           0       -0.126039    0.000000    2.337973
     22          6           0       -0.771711    0.000000    3.519202
     23          6           0       -2.277448    0.000000    3.595992
     24          1           0       -2.758100    0.000000    2.613030
     25          1           0       -2.627437    0.888436    4.132197
     26          1           0       -2.627437   -0.888436    4.132197
     27          6           0       -0.104368    0.000000    4.868072
     28          1           0       -0.406989    0.887327    5.434522
     29          1           0        0.984881    0.000000    4.827963
     30          1           0       -0.406989   -0.887327    5.434522
     31          8           0       -0.801267    0.000000    1.111457
 ---------------------------------------------------------------------
                    Distance matrix (angstroms):
                    1          2          3          4          5
     1  H    0.000000
     2  C    1.089323   0.000000
     3  C    3.858736   2.769414   0.000000
     4  C    2.178139   1.419034   2.401833   0.000000
     5  C    2.145664   1.398461   2.428738   2.456731   0.000000
     6  C    3.358397   2.371749   1.388430   2.768374   1.379948
     7  C    3.436869   2.450351   1.391425   1.412447   2.850362
     8  H    2.491235   2.174328   3.411164   3.447822   1.085242
     9  C    2.713564   2.464402   3.674436   1.400457   3.743256
    10  H    2.513034   2.718329   4.563805   2.167024   4.111339
    11  C    4.099707   3.727577   4.148279   2.414458   4.870964
    12  C    5.109431   4.971206   5.648074   3.790929   6.224053
    13  H    5.176397   5.173569   6.117399   4.131661   6.470883
    14  H    5.176397   5.173569   6.117399   4.131661   6.470883
    15  H    6.097560   5.848819   6.114865   4.563102   7.019770
    16  N    4.880140   4.237428   3.711677   2.818460   5.099178
    17  C    4.582053   3.709164   2.463016   2.406225   4.245104
    18  H    5.556702   4.612491   2.751856   3.408126   4.922906
    19  C    4.694226   3.780539   2.296258   4.203136   2.568093
    20  O    5.166564   4.420164   3.464389   5.118228   3.050543
    21  C    5.650234   4.615095   2.226356   4.591301   3.679749
    22  C    6.986177   5.958659   3.515336   5.907904   4.974453
    23  C    8.001911   6.929159   4.238754   6.599950   6.136812
    24  H    7.689577   6.600774   3.833761   6.064155   6.011213
    25  H    8.678028   7.614311   4.958960   7.293910   6.803360
    26  H    8.678028   7.614311   4.958960   7.293910   6.803360
    27  C    7.820269   6.873182   4.745126   7.062075   5.698579
    28  H    8.508167   7.563222   5.407886   7.724580   6.402583
    29  H    7.382303   6.521278   4.768759   6.925508   5.236662
    30  H    8.508167   7.563222   5.407886   7.724580   6.402583
    31  O    5.223913   4.135641   1.375765   3.710047   3.607789
                    6          7          8          9         10
     6  C    0.000000
     7  C    2.419951   0.000000
     8  H    2.151524   3.935499   0.000000
     9  C    4.168737   2.414647   4.634946   0.000000
    10  H    4.822864   3.410407   4.827041   1.086221   0.000000
    11  C    4.995554   2.757009   5.849757   1.394082   2.150645
    12  C    6.465255   4.256718   7.140603   2.506804   2.706175
    13  H    6.830350   4.752726   7.323539   2.813119   2.754007
    14  H    6.830350   4.752726   7.323539   2.813119   2.754007
    15  H    7.090980   4.746412   7.990788   3.415545   3.767975
    16  N    4.847447   2.427724   6.161986   2.411815   3.381326
    17  C    3.722400   1.395665   5.330345   2.729758   3.815268
    18  H    4.131774   2.169717   5.992472   3.815511   4.900227
    19  C    1.456381   3.625382   2.877933   5.599567   6.278921
    20  O    2.378752   4.735948   2.911547   6.514803   7.074001
    21  C    2.316687   3.580903   4.238663   5.898637   6.757771
    22  C    3.636289   4.814020   5.426613   7.183567   8.074372
    23  C    4.758029   5.321018   6.730619   7.734024   8.719547
    24  H    4.649519   4.703965   6.750945   7.078169   8.108969
    25  H    5.442083   6.020904   7.359742   8.413545   9.398519
    26  H    5.442083   6.020904   7.359742   8.413545   9.398519
    27  C    4.502852   6.110588   5.889945   8.402162   9.216523
    28  H    5.215805   6.744375   6.582529   9.045868   9.872565
    29  H    4.210801   6.160134   5.244221   8.309654   9.028949
    30  H    5.215805   6.744375   6.582529   9.045868   9.872565
    31  O    2.302936   2.466871   4.454008   4.877529   5.838721
                   11         12         13         14         15
    11  C    0.000000
    12  C    1.499890   0.000000
    13  H    2.140319   1.094412   0.000000
    14  H    2.140319   1.094412   1.784479   0.000000
    15  H    2.148921   1.094770   1.772712   1.772712   0.000000
    16  N    1.352821   2.436147   3.155597   3.155597   2.514660
    17  C    2.311172   3.674746   4.307292   4.307292   3.865189
    18  H    3.268689   4.493848   5.156605   5.156605   4.467190
    19  C    6.331403   7.821703   8.212739   8.212739   8.370851
    20  O    7.372784   8.843570   9.181238   9.189633   9.456713
    21  C    6.317290   7.809676   8.293442   8.293442   8.174316
    22  C    7.495986   8.969452   9.480873   9.480873   9.241579
    23  C    7.781135   9.181223   9.753251   9.753251   9.276450
    24  H    6.972349   8.319702   8.920473   8.920473   8.337672
    25  H    8.433887   9.812955  10.464591  10.311977   9.875906
    26  H    8.433887   9.812955  10.311977  10.464591   9.875906
    27  C    8.845683  10.335710  10.812305  10.812305  10.667732
    28  H    9.446828  10.924787  11.480264  11.341500  11.221458
    29  H    8.916510  10.416399  10.843672  10.843672  10.853346
    30  H    9.446828  10.924787  11.341500  11.480264  11.221458
    31  O    5.093154   6.562147   7.094175   7.094175   6.848978
                   16         17         18         19         20
    16  N    0.000000
    17  C    1.352622   0.000000
    18  H    2.057790   1.087124   0.000000
    19  C    6.005006   4.752352   4.884150   0.000000
    20  O    7.147693   5.927272   6.093891   1.211530   0.000000
    21  C    5.681981   4.336717   4.137368   1.496240   2.463608
    22  C    6.727395   5.376577   4.962052   2.555227   3.117590
    23  C    6.798574   5.506485   4.819090   3.925801   4.612596
    24  H    5.901794   4.665384   3.871734   4.141011   5.043170
    25  H    7.428291   6.164507   5.442618   4.556235   5.149274
    26  H    7.428291   6.164507   5.442618   4.556235   5.134340
    27  C    8.160019   6.807606   6.452106   3.130614   3.107035
    28  H    8.718424   7.374821   6.960011   3.875760   3.825050
    29  H    8.382952   7.047266   6.853154   2.756264   2.343407
    30  H    8.718424   7.374821   6.960011   3.875760   3.804947
    31  O    4.339422   2.986921   2.738285   2.366349   3.548480
                   21         22         23         24         25
    21  C    0.000000
    22  C    1.346177   0.000000
    23  C    2.492222   1.507693   0.000000
    24  H    2.646394   2.183320   1.094185   0.000000
    25  H    3.203989   2.146811   1.095138   1.764727   0.000000
    26  H    3.203989   2.146811   1.095138   1.764727   1.776873
    27  C    2.530192   1.504925   2.518028   3.482458   2.774295
    28  H    3.233403   2.142154   2.768783   3.778345   2.574188
    29  H    2.726572   2.190542   3.487197   4.349234   3.784475
    30  H    3.233403   2.142154   2.768783   3.778345   3.127264
    31  O    1.400099   2.407926   2.889986   2.466559   3.639929
                   26         27         28         29         30
    26  H    0.000000
    27  C    2.774295   0.000000
    28  H    3.127264   1.095352   0.000000
    29  H    3.784475   1.089987   1.758569   0.000000
    30  H    2.574188   1.095352   1.774654   1.758569   0.000000
    31  O    3.639929   3.820710   4.430768   4.123439   4.430768
                   31
    31  O    0.000000
 Stoichiometry    C15H13NO2
 Framework group  C1[X(C15H13NO2)]
 Deg. of freedom    87
 Full point group                 C1      NOp   1
 Largest Abelian subgroup         C1      NOp   1
 Largest concise Abelian subgroup C1      NOp   1
                         Standard orientation:                         
 ---------------------------------------------------------------------
 Center     Atomic      Atomic             Coordinates (Angstroms)
 Number     Number       Type             X           Y           Z
 ---------------------------------------------------------------------
      1          1           0       -2.168425    3.072547    0.009161
      2          6           0       -1.511468    2.203624    0.007384
      3          6           0        0.162249   -0.002800    0.002877
      4          6           0       -2.064714    0.896887    0.003378
      5          6           0       -0.128099    2.408512    0.009134
      6          6           0        0.676023    1.287067    0.006803
      7          6           0       -1.210796   -0.228202    0.001080
      8          1           0        0.300451    3.405551    0.012196
      9          6           0       -3.448236    0.679755    0.001595
     10          1           0       -4.141400    1.516053    0.003252
     11          6           0       -3.939092   -0.625047   -0.002352
     12          6           0       -5.418912   -0.869589   -0.004292
     13          1           0       -5.873915   -0.426823   -0.895734
     14          1           0       -5.875459   -0.431640    0.888738
     15          1           0       -5.636824   -1.942448   -0.007376
     16          7           0       -3.132807   -1.711336   -0.004586
     17          6           0       -1.797685   -1.494467   -0.002845
     18          1           0       -1.192907   -2.397838   -0.004760
     19          6           0        2.128676    1.182924    0.007779
     20          8           0        2.907527    2.110065   -0.032261
     21          6           0        2.369505   -0.293803    0.004001
     22          6           0        3.550257   -0.940345    0.003278
     23          6           0        3.625940   -2.446132   -0.000721
     24          1           0        2.642625   -2.926057   -0.002867
     25          1           0        4.161118   -2.798913    0.887230
     26          1           0        4.162656   -2.794117   -0.889636
     27          6           0        4.899618   -0.273999    0.006244
     28          1           0        5.465077   -0.579432    0.893240
     29          1           0        4.860310    0.815275    0.009150
     30          1           0        5.466613   -0.574642   -0.881408
     31          8           0        1.142492   -0.968124    0.001119
 ---------------------------------------------------------------------
 Rotational constants (GHZ):      1.0190135      0.2417040      0.1960930
 Standard basis: 6-31G(d,p) (6D, 7F)
 There are   335 symmetry adapted basis functions of A   symmetry.
 Integral buffers will be    131072 words long.
 Raffenetti 2 integral format.
 Two-electron integral symmetry is turned on.
   335 basis functions,   595 primitive gaussians,   335 cartesian basis functions
    63 alpha electrons       63 beta electrons
       nuclear repulsion energy      1222.7348589198 Hartrees.
 NAtoms=   31 NActive=   31 NUniq=   31 SFac= 1.00D+00 NAtFMM=   60 NAOKFM=F Big=F
 ------------------------------------------------------------------------------
 Polarizable Continuum Model (PCM)
 =================================
 Model                : C-PCM.
 Atomic radii         : SMD-Coulomb.
 Polarization charges : Total charges.
 Charge compensation  : None.
 Solution method      : Matrix inversion.
 Cavity type          : VdW (van der Waals Surface) (Alpha=1.000).
 Cavity algorithm     : GePol (No added spheres)
                        Default sphere list used, NSphG=   31.
                        Lebedev-Laikov grids with approx.  5.0 points / Ang**2.
                        Smoothing algorithm: Karplus/York (Gamma=1.0000).
                        Polarization charges: spherical gaussians, with
                                              point-specific exponents (IZeta= 3).
                        Self-potential: point-specific (ISelfS= 7).
                        Self-field    : sphere-specific E.n sum rule (ISelfD= 2).
 Solvent              : Chloroform, Eps=   4.711300 Eps(inf)=   2.090627
 ------------------------------------------------------------------------------
 ------------------------------------------------------------------------------
 Atomic radii for non-electrostatic terms: SMD-CDS.
 ------------------------------------------------------------------------------
 Nuclear repulsion after PCM non-electrostatic terms =     1222.7267717100 Hartrees.
 One-electron integrals computed using PRISM.
 NBasis=   335 RedAO= T  NBF=   335
 NBsUse=   335 1.00D-06 NBFU=   335
 Harris functional with IExCor=  908 diagonalized for initial guess.
 ExpMin= 1.61D-01 ExpMax= 5.48D+03 ExpMxC= 8.25D+02 IAcc=1 IRadAn=         1 AccDes= 0.00D+00
 HarFok:  IExCor=  908 AccDes= 0.00D+00 IRadAn=         1 IDoV= 1
 ScaDFX=  1.000000  1.000000  1.000000  1.000000
 FoFCou: FMM=F IPFlag=           0 FMFlag=      100000 FMFlg1=           0
         NFxFlg=           0 DoJE=T BraDBF=F KetDBF=T FulRan=T
         Omega=  0.000000  0.000000  1.000000  0.000000  0.000000 ICntrl=     500 IOpCl=  0
         NMat0=    1 NMatS0=    1 NMatT0=    0 NMatD0=    1 NMtDS0=    0 NMtDT0=    0
         I1Cent=           4 NGrid=           0.
 Petite list used in FoFCou.
 Initial guess orbital symmetries:
       Occupied  (A) (A) (A) (A) (A) (A) (A) (A) (A) (A) (A) (A)
                 (A) (A) (A) (A) (A) (A) (A) (A) (A) (A) (A) (A)
                 (A) (A) (A) (A) (A) (A) (A) (A) (A) (A) (A) (A)
                 (A) (A) (A) (A) (A) (A) (A) (A) (A) (A) (A) (A)
                 (A) (A) (A) (A) (A) (A) (A) (A) (A) (A) (A) (A)
                 (A) (A) (A)
       Virtual   (A) (A) (A) (A) (A) (A) (A) (A) (A) (A) (A) (A)
                 (A) (A) (A) (A) (A) (A) (A) (A) (A) (A) (A) (A)
                 (A) (A) (A) (A) (A) (A) (A) (A) (A) (A) (A) (A)
                 (A) (A) (A) (A) (A) (A) (A) (A) (A) (A) (A) (A)
                 (A) (A) (A) (A) (A) (A) (A) (A) (A) (A) (A) (A)
                 (A) (A) (A) (A) (A) (A) (A) (A) (A) (A) (A) (A)
                 (A) (A) (A) (A) (A) (A) (A) (A) (A) (A) (A) (A)
                 (A) (A) (A) (A) (A) (A) (A) (A) (A) (A) (A) (A)
                 (A) (A) (A) (A) (A) (A) (A) (A) (A) (A) (A) (A)
                 (A) (A) (A) (A) (A) (A) (A) (A) (A) (A) (A) (A)
                 (A) (A) (A) (A) (A) (A) (A) (A) (A) (A) (A) (A)
                 (A) (A) (A) (A) (A) (A) (A) (A) (A) (A) (A) (A)
                 (A) (A) (A) (A) (A) (A) (A) (A) (A) (A) (A) (A)
                 (A) (A) (A) (A) (A) (A) (A) (A) (A) (A) (A) (A)
                 (A) (A) (A) (A) (A) (A) (A) (A) (A) (A) (A) (A)
                 (A) (A) (A) (A) (A) (A) (A) (A) (A) (A) (A) (A)
                 (A) (A) (A) (A) (A) (A) (A) (A) (A) (A) (A) (A)
                 (A) (A) (A) (A) (A) (A) (A) (A) (A) (A) (A) (A)
                 (A) (A) (A) (A) (A) (A) (A) (A) (A) (A) (A) (A)
                 (A) (A) (A) (A) (A) (A) (A) (A) (A) (A) (A) (A)
                 (A) (A) (A) (A) (A) (A) (A) (A) (A) (A) (A) (A)
                 (A) (A) (A) (A) (A) (A) (A) (A) (A) (A) (A) (A)
                 (A) (A) (A) (A) (A) (A) (A) (A)
 The electronic state of the initial guess is 1-A.
 Requested convergence on RMS density matrix=1.00D-08 within 128 cycles.
 Requested convergence on MAX density matrix=1.00D-06.
 Requested convergence on             energy=1.00D-06.
 No special actions if energy rises.
 Error on total polarization charges =  0.03176
 SCF Done:  E(RmPW1PW91) =  -784.484904110     A.U. after   13 cycles
             Convg  =    0.5988D-08             -V/T =  2.0090
 SMD-CDS (non-electrostatic) energy       (kcal/mol) =      -5.07
 (included in total energy above)
 Range of M.O.s used for correlation:     1   335
 NBasis=   335 NAE=    63 NBE=    63 NFC=     0 NFV=     0
 NROrb=    335 NOA=    63 NOB=    63 NVA=   272 NVB=   272
 NEqPCM:  Using equilibrium solvation (IEInf=0, Eps=   4.7113, EpsInf=   2.0906)
          Differentiating once with respect to magnetic field using GIAOs.
          Electric field/nuclear overlap derivatives assumed to be zero.
 FoFCou: FMM=F IPFlag=           0 FMFlag=    10101102 FMFlg1=           0
         NFxFlg=    40000000 DoJE=F BraDBF=F KetDBF=T FulRan=T
         Omega=  0.000000  0.000000  1.000000  0.000000  0.000000 ICntrl=    6100 IOpCl=  0
         NMat0=    1 NMatS0=    1 NMatT0=    0 NMatD0=    1 NMtDS0=    0 NMtDT0=    0
         I1Cent=           7 NGrid=        2460.
 Symmetry not used in FoFCou.
          There are     3 degrees of freedom in the 1st order CPHF.  IDoFFX=0.
      3 vectors produced by pass  0 Test12= 5.71D-13 3.33D-08 XBig12= 5.94D+01 1.42D+00.
 AX will form     3 AO Fock derivatives at one time.
      3 vectors produced by pass  1 Test12= 5.71D-13 3.33D-08 XBig12= 2.00D-01 1.85D-01.
      3 vectors produced by pass  2 Test12= 5.71D-13 3.33D-08 XBig12= 1.23D-03 1.61D-02.
      3 vectors produced by pass  3 Test12= 5.71D-13 3.33D-08 XBig12= 6.95D-06 6.46D-04.
      3 vectors produced by pass  4 Test12= 5.71D-13 3.33D-08 XBig12= 3.22D-08 7.06D-05.
      3 vectors produced by pass  5 Test12= 5.71D-13 3.33D-08 XBig12= 1.20D-10 3.25D-06.
      3 vectors produced by pass  6 Test12= 5.71D-13 3.33D-08 XBig12= 6.10D-13 2.75D-07.
 Inverted reduced A of dimension    21 with in-core refinement.
 Calculating GIAO nuclear magnetic shielding tensors.
 SCF GIAO Magnetic shielding tensor (ppm):
      1  H    Isotropic =    23.7660   Anisotropy =     6.7648
   XX=    27.6732   YX=     1.1008   ZX=     0.0079
   XY=     1.5945   YY=    25.2625   ZY=     0.0107
   XZ=     0.0211   YZ=    -0.0015   ZZ=    18.3623
   Eigenvalues:    18.3623    24.6598    28.2759
      2  C    Isotropic =    74.7112   Anisotropy =   144.0262
   XX=    55.1162   YX=    22.7097   ZX=    -0.0288
   XY=    31.4056   YY=    -1.7086   ZY=    -0.4718
   XZ=    -0.0086   YZ=    -0.8226   ZZ=   170.7261
   Eigenvalues:   -12.5331    65.9381   170.7287
      3  C    Isotropic =    36.9149   Anisotropy =   123.1636
   XX=   -20.8661   YX=    18.0639   ZX=    -0.2785
   XY=    28.5588   YY=    12.5876   ZY=    -0.6633
   XZ=    -0.1917   YZ=     0.3720   ZZ=   119.0233
   Eigenvalues:   -32.8310    24.5517   119.0240
      4  C    Isotropic =    64.0717   Anisotropy =   201.1612
   XX=     0.9603   YX=     9.3348   ZX=    -0.1503
   XY=     6.0510   YY=    -6.9227   ZY=    -0.5359
   XZ=    -0.0524   YZ=    -0.5674   ZZ=   198.1776
   Eigenvalues:   -11.6259     5.6619   198.1792
      5  C    Isotropic =    71.0849   Anisotropy =   177.3854
   XX=    51.2905   YX=    -9.9974   ZX=    -0.1362
   XY=    -9.0809   YY=   -27.3742   ZY=    -0.6221
   XZ=    -0.4965   YZ=    -0.9512   ZZ=   189.3385
   Eigenvalues:   -28.5175    52.4304   189.3419
      6  C    Isotropic =    76.9363   Anisotropy =   138.6181
   XX=    22.0713   YX=    -3.3653   ZX=    -0.4728
   XY=     1.7325   YY=    39.3907   ZY=    -0.3099
   XZ=    -0.4165   YZ=     0.5943   ZZ=   169.3468
   Eigenvalues:    22.0316    39.4289   169.3484
      7  C    Isotropic =    88.8559   Anisotropy =   164.6210
   XX=    19.0487   YX=    20.2763   ZX=    -0.0081
   XY=    -3.4680   YY=    48.9168   ZY=    -0.3891
   XZ=    -0.1227   YZ=    -0.3463   ZZ=   198.6023
   Eigenvalues:    16.8463    51.1182   198.6032
      8  H    Isotropic =    23.0992   Anisotropy =     6.2764
   XX=    27.1200   YX=    -0.5020   ZX=    -0.0065
   XY=    -1.0336   YY=    23.6766   ZY=    -0.0156
   XZ=    -0.0157   YZ=    -0.0259   ZZ=    18.5009
   Eigenvalues:    18.5008    23.5132    27.2835
      9  C    Isotropic =    78.3518   Anisotropy =   135.5808
   XX=    36.4962   YX=    32.3948   ZX=    -0.0293
   XY=    50.0610   YY=    29.8211   ZY=    -0.3311
   XZ=    -0.0145   YZ=    -0.3214   ZZ=   168.7381
   Eigenvalues:    -8.2044    74.5208   168.7390
     10  H    Isotropic =    23.5588   Anisotropy =     9.5349
   XX=    27.5302   YX=     3.5113   ZX=     0.0169
   XY=     3.2617   YY=    25.1073   ZY=     0.0183
   XZ=     0.0168   YZ=     0.0225   ZZ=    18.0390
   Eigenvalues:    18.0390    22.7221    29.9154
     11  C    Isotropic =    38.9102   Anisotropy =   175.4700
   XX=   -52.5309   YX=     4.9248   ZX=    -0.1650
   XY=    24.5336   YY=    13.3724   ZY=    -0.3763
   XZ=    -0.0955   YZ=    -0.3691   ZZ=   155.8891
   Eigenvalues:   -55.6731    16.5134   155.8902
     12  C    Isotropic =   171.3047   Anisotropy =    40.6709
   XX=   195.5674   YX=    12.8701   ZX=     0.0719
   XY=     5.3113   YY=   169.4330   ZY=     0.0632
   XZ=     0.0666   YZ=     0.0866   ZZ=   148.9137
   Eigenvalues:   148.9134   166.5821   198.4187
     13  H    Isotropic =    28.6331   Anisotropy =     7.9575
   XX=    30.5505   YX=    -0.7790   ZX=     3.4560
   XY=     0.2403   YY=    27.7099   ZY=    -1.8319
   XZ=     5.0347   YZ=    -2.4231   ZZ=    27.6388
   Eigenvalues:    23.9134    28.0477    33.9381
     14  H    Isotropic =    28.6334   Anisotropy =     7.9539
   XX=    30.5648   YX=    -0.7648   ZX=    -3.4553
   XY=     0.2637   YY=    27.6877   ZY=     1.8300
   XZ=    -5.0244   YZ=     2.4205   ZZ=    27.6477
   Eigenvalues:    23.9167    28.0475    33.9360
     15  H    Isotropic =    29.1996   Anisotropy =     8.5229
   XX=    29.3795   YX=     3.5670   ZX=     0.0140
   XY=     1.1138   YY=    33.8859   ZY=     0.0256
   XZ=     0.0106   YZ=     0.0313   ZZ=    24.3335
   Eigenvalues:    24.3334    28.3839    34.8816
     16  N    Isotropic =   -52.4585   Anisotropy =   498.3804
   XX=  -274.0989   YX=    71.4691   ZX=    -0.3391
   XY=    65.7821   YY=  -163.0686   ZY=    -1.1508
   XZ=    -0.1940   YZ=    -1.0599   ZZ=   279.7920
   Eigenvalues:  -306.8528  -130.3178   279.7951
     17  C    Isotropic =    46.9382   Anisotropy =   164.9331
   XX=     5.5729   YX=    50.9636   ZX=     0.0106
   XY=    27.3376   YY=   -21.6500   ZY=    -0.4516
   XZ=     0.1209   YZ=    -0.6922   ZZ=   156.8917
   Eigenvalues:   -49.4890    33.4101   156.8936
     18  H    Isotropic =    21.6816   Anisotropy =     9.4777
   XX=    25.9416   YX=     2.5727   ZX=     0.0136
   XY=     3.3013   YY=    23.8093   ZY=     0.0233
   XZ=     0.0376   YZ=     0.0369   ZZ=    15.2939
   Eigenvalues:    15.2938    21.7509    28.0001
     19  C    Isotropic =    20.7947   Anisotropy =   109.0732
   XX=   -11.2780   YX=    28.3189   ZX=     1.5072
   XY=    27.8171   YY=   -19.7718   ZY=     1.5065
   XZ=     1.8131   YZ=     2.2018   ZZ=    93.4339
   Eigenvalues:   -43.9132    12.7871    93.5101
     20  O    Isotropic =  -120.7133   Anisotropy =   782.2993
   XX=  -321.5818   YX=  -176.5718   ZX=    16.4268
   XY=  -178.2280   YY=  -440.2646   ZY=    17.3436
   XZ=    27.8933   YZ=    30.7217   ZZ=   399.7064
   Eigenvalues:  -569.0721  -193.8874   400.8196
     21  C    Isotropic =    53.6794   Anisotropy =    81.9898
   XX=    42.6289   YX=   -48.1690   ZX=    -0.8055
   XY=   -52.1261   YY=    10.0731   ZY=    -0.6783
   XZ=     0.4842   YZ=    -0.3806   ZZ=   108.3361
   Eigenvalues:   -26.3743    79.0732   108.3392
     22  C    Isotropic =    59.4002   Anisotropy =   160.6155
   XX=     3.2646   YX=   -23.9630   ZX=    -0.1715
   XY=   -10.9264   YY=     8.4654   ZY=    -0.5051
   XZ=    -0.2779   YZ=    -1.5375   ZZ=   166.4705
   Eigenvalues:   -11.7763    23.4997   166.4772
     23  C    Isotropic =   174.5314   Anisotropy =    29.6806
   XX=   160.5803   YX=    -0.3120   ZX=    -0.0040
   XY=     6.5954   YY=   194.0259   ZY=     0.0527
   XZ=    -0.0128   YZ=    -0.0370   ZZ=   168.9880
   Eigenvalues:   160.2877   168.9880   194.3185
     24  H    Isotropic =    28.9279   Anisotropy =     8.4157
   XX=    32.9990   YX=     0.9035   ZX=     0.0029
   XY=     3.3760   YY=    31.5641   ZY=     0.0227
   XZ=     0.0075   YZ=     0.0199   ZZ=    22.2206
   Eigenvalues:    22.2206    30.0247    34.5383
     25  H    Isotropic =    29.7594   Anisotropy =     8.6153
   XX=    28.8153   YX=    -0.8277   ZX=     2.5901
   XY=    -1.8507   YY=    30.3923   ZY=    -3.6274
   XZ=     3.6449   YZ=    -3.9033   ZZ=    30.0704
   Eigenvalues:    25.6057    28.1695    35.5029
     26  H    Isotropic =    29.7543   Anisotropy =     8.6180
   XX=    28.8171   YX=    -0.8137   ZX=    -2.6104
   XY=    -1.8373   YY=    30.3541   ZY=     3.6226
   XZ=    -3.6661   YZ=     3.8980   ZZ=    30.0918
   Eigenvalues:    25.5913    28.1720    35.4997
     27  C    Isotropic =   178.6534   Anisotropy =    26.6699
   XX=   185.0027   YX=    18.2577   ZX=     0.0654
   XY=    15.7385   YY=   171.1445   ZY=     0.1725
   XZ=     0.3531   YZ=     0.0799   ZZ=   179.8129
   Eigenvalues:   159.7175   179.8093   196.4333
     28  H    Isotropic =    29.8728   Anisotropy =     8.7662
   XX=    31.2902   YX=    -0.2669   ZX=     4.3730
   XY=     0.8746   YY=    27.8717   ZY=    -0.5339
   XZ=     5.2337   YZ=    -1.3568   ZZ=    30.4564
   Eigenvalues:    25.6780    28.2234    35.7169
     29  H    Isotropic =    27.8964   Anisotropy =    10.3539
   XX=    28.6817   YX=     1.2798   ZX=    -0.0101
   XY=    -0.9449   YY=    34.7942   ZY=    -0.0369
   XZ=     0.0597   YZ=    -0.0619   ZZ=    20.2132
   Eigenvalues:    20.2129    28.6772    34.7990
     30  H    Isotropic =    29.8625   Anisotropy =     8.7833
   XX=    31.2885   YX=    -0.2386   ZX=    -4.4032
   XY=     0.8986   YY=    27.8655   ZY=     0.5291
   XZ=    -5.2362   YZ=     1.3122   ZZ=    30.4333
   Eigenvalues:    25.6523    28.2171    35.7180
     31  O    Isotropic =   167.9240   Anisotropy =   149.1802
   XX=   108.0681   YX=    -9.5529   ZX=    -0.1260
   XY=   -22.9432   YY=   128.3751   ZY=    -0.3355
   XZ=     3.1174   YZ=    -3.7278   ZZ=   267.3287
   Eigenvalues:    99.0613   137.3331   267.3774
 End of Minotr Frequency-dependent properties file   721 does not exist.
 End of Minotr Frequency-dependent properties file   722 does not exist.

 **********************************************************************

            Population analysis using the SCF density.

 **********************************************************************

 Orbital symmetries:
       Occupied  (A) (A) (A) (A) (A) (A) (A) (A) (A) (A) (A) (A)
                 (A) (A) (A) (A) (A) (A) (A) (A) (A) (A) (A) (A)
                 (A) (A) (A) (A) (A) (A) (A) (A) (A) (A) (A) (A)
                 (A) (A) (A) (A) (A) (A) (A) (A) (A) (A) (A) (A)
                 (A) (A) (A) (A) (A) (A) (A) (A) (A) (A) (A) (A)
                 (A) (A) (A)
       Virtual   (A) (A) (A) (A) (A) (A) (A) (A) (A) (A) (A) (A)
                 (A) (A) (A) (A) (A) (A) (A) (A) (A) (A) (A) (A)
                 (A) (A) (A) (A) (A) (A) (A) (A) (A) (A) (A) (A)
                 (A) (A) (A) (A) (A) (A) (A) (A) (A) (A) (A) (A)
                 (A) (A) (A) (A) (A) (A) (A) (A) (A) (A) (A) (A)
                 (A) (A) (A) (A) (A) (A) (A) (A) (A) (A) (A) (A)
                 (A) (A) (A) (A) (A) (A) (A) (A) (A) (A) (A) (A)
                 (A) (A) (A) (A) (A) (A) (A) (A) (A) (A) (A) (A)
                 (A) (A) (A) (A) (A) (A) (A) (A) (A) (A) (A) (A)
                 (A) (A) (A) (A) (A) (A) (A) (A) (A) (A) (A) (A)
                 (A) (A) (A) (A) (A) (A) (A) (A) (A) (A) (A) (A)
                 (A) (A) (A) (A) (A) (A) (A) (A) (A) (A) (A) (A)
                 (A) (A) (A) (A) (A) (A) (A) (A) (A) (A) (A) (A)
                 (A) (A) (A) (A) (A) (A) (A) (A) (A) (A) (A) (A)
                 (A) (A) (A) (A) (A) (A) (A) (A) (A) (A) (A) (A)
                 (A) (A) (A) (A) (A) (A) (A) (A) (A) (A) (A) (A)
                 (A) (A) (A) (A) (A) (A) (A) (A) (A) (A) (A) (A)
                 (A) (A) (A) (A) (A) (A) (A) (A) (A) (A) (A) (A)
                 (A) (A) (A) (A) (A) (A) (A) (A) (A) (A) (A) (A)
                 (A) (A) (A) (A) (A) (A) (A) (A) (A) (A) (A) (A)
                 (A) (A) (A) (A) (A) (A) (A) (A) (A) (A) (A) (A)
                 (A) (A) (A) (A) (A) (A) (A) (A) (A) (A) (A) (A)
                 (A) (A) (A) (A) (A) (A) (A) (A)
 The electronic state is 1-A.
 Alpha  occ. eigenvalues --  -19.30989 -19.22460 -14.41564 -10.33481 -10.33269
 Alpha  occ. eigenvalues --  -10.31094 -10.29523 -10.29454 -10.28736 -10.28098
 Alpha  occ. eigenvalues --  -10.27375 -10.26849 -10.25932 -10.25631 -10.25458
 Alpha  occ. eigenvalues --  -10.24259 -10.24044 -10.23561  -1.13904  -1.06730
 Alpha  occ. eigenvalues --   -0.97273  -0.90139  -0.84948  -0.82774  -0.81879
 Alpha  occ. eigenvalues --   -0.77791  -0.75783  -0.71758  -0.71513  -0.67755
 Alpha  occ. eigenvalues --   -0.66197  -0.63145  -0.60443  -0.57260  -0.54087
 Alpha  occ. eigenvalues --   -0.52743  -0.51142  -0.49723  -0.49003  -0.47995
 Alpha  occ. eigenvalues --   -0.46559  -0.45255  -0.45084  -0.44249  -0.43484
 Alpha  occ. eigenvalues --   -0.42543  -0.42009  -0.40654  -0.40223  -0.40208
 Alpha  occ. eigenvalues --   -0.39762  -0.39364  -0.38675  -0.37720  -0.36847
 Alpha  occ. eigenvalues --   -0.36807  -0.35636  -0.30600  -0.28559  -0.27949
 Alpha  occ. eigenvalues --   -0.26013  -0.25381  -0.22559
 Alpha virt. eigenvalues --   -0.07179  -0.05131   0.00101   0.03171   0.07985
 Alpha virt. eigenvalues --    0.11149   0.12385   0.12953   0.13046   0.14098
 Alpha virt. eigenvalues --    0.15651   0.16634   0.17262   0.17864   0.19029
 Alpha virt. eigenvalues --    0.19173   0.19478   0.19622   0.20379   0.20658
 Alpha virt. eigenvalues --    0.22262   0.22687   0.23667   0.24390   0.25605
 Alpha virt. eigenvalues --    0.26898   0.28041   0.29425   0.31126   0.32238
 Alpha virt. eigenvalues --    0.34453   0.36994   0.37871   0.41188   0.42401
 Alpha virt. eigenvalues --    0.44745   0.46893   0.48130   0.50445   0.50650
 Alpha virt. eigenvalues --    0.51552   0.52850   0.53303   0.54091   0.55253
 Alpha virt. eigenvalues --    0.55840   0.55922   0.56648   0.57201   0.57553
 Alpha virt. eigenvalues --    0.58750   0.58800   0.59723   0.60534   0.61797
 Alpha virt. eigenvalues --    0.61879   0.63235   0.63850   0.64085   0.65251
 Alpha virt. eigenvalues --    0.67357   0.67406   0.70692   0.71779   0.72026
 Alpha virt. eigenvalues --    0.72515   0.73867   0.74003   0.75453   0.76873
 Alpha virt. eigenvalues --    0.77170   0.77698   0.80020   0.81742   0.81978
 Alpha virt. eigenvalues --    0.83466   0.84151   0.85007   0.85812   0.86490
 Alpha virt. eigenvalues --    0.87170   0.87956   0.89858   0.91483   0.91985
 Alpha virt. eigenvalues --    0.92222   0.92343   0.92850   0.94176   0.94417
 Alpha virt. eigenvalues --    0.95857   0.96113   0.97339   0.97599   0.98955
 Alpha virt. eigenvalues --    1.00070   1.02449   1.04493   1.05561   1.06703
 Alpha virt. eigenvalues --    1.08622   1.10630   1.14532   1.17147   1.19224
 Alpha virt. eigenvalues --    1.19919   1.21160   1.21334   1.23877   1.24043
 Alpha virt. eigenvalues --    1.25762   1.28293   1.28523   1.29730   1.31070
 Alpha virt. eigenvalues --    1.31730   1.33017   1.33763   1.34359   1.36130
 Alpha virt. eigenvalues --    1.36700   1.39464   1.40133   1.42474   1.44439
 Alpha virt. eigenvalues --    1.45312   1.47178   1.47621   1.49587   1.51535
 Alpha virt. eigenvalues --    1.52346   1.57117   1.62166   1.67707   1.68504
 Alpha virt. eigenvalues --    1.71261   1.73371   1.74448   1.74805   1.74925
 Alpha virt. eigenvalues --    1.75633   1.77100   1.77700   1.79040   1.80258
 Alpha virt. eigenvalues --    1.80682   1.81381   1.83649   1.83835   1.85455
 Alpha virt. eigenvalues --    1.87015   1.87821   1.88243   1.88559   1.90478
 Alpha virt. eigenvalues --    1.93243   1.94201   1.96514   1.98021   1.99453
 Alpha virt. eigenvalues --    2.00516   2.01423   2.01744   2.03697   2.05064
 Alpha virt. eigenvalues --    2.05608   2.06039   2.07468   2.08065   2.08412
 Alpha virt. eigenvalues --    2.09594   2.11225   2.12521   2.14546   2.15085
 Alpha virt. eigenvalues --    2.15283   2.17454   2.18546   2.19337   2.20824
 Alpha virt. eigenvalues --    2.22479   2.24736   2.25538   2.27311   2.28272
 Alpha virt. eigenvalues --    2.29005   2.30403   2.31958   2.32616   2.33636
 Alpha virt. eigenvalues --    2.36000   2.37845   2.38494   2.38901   2.42869
 Alpha virt. eigenvalues --    2.44261   2.46811   2.48923   2.50446   2.51604
 Alpha virt. eigenvalues --    2.53049   2.53993   2.54235   2.57629   2.58801
 Alpha virt. eigenvalues --    2.59265   2.60355   2.61539   2.63518   2.65995
 Alpha virt. eigenvalues --    2.66977   2.68928   2.68999   2.70376   2.73221
 Alpha virt. eigenvalues --    2.73323   2.73912   2.75021   2.76634   2.77474
 Alpha virt. eigenvalues --    2.81299   2.82020   2.85306   2.85557   2.87926
 Alpha virt. eigenvalues --    2.89002   2.89163   2.92415   2.93349   2.93459
 Alpha virt. eigenvalues --    2.98943   2.99788   3.03156   3.07007   3.08713
 Alpha virt. eigenvalues --    3.14371   3.17934   3.20956   3.21335   3.22994
 Alpha virt. eigenvalues --    3.23744   3.29606   3.33377   3.36947   3.40689
 Alpha virt. eigenvalues --    3.42975   3.45334   3.46260   3.46681   3.47050
 Alpha virt. eigenvalues --    3.50234   3.54818   3.68151   3.80173   4.00421
 Alpha virt. eigenvalues --    4.11620   4.15167   4.17141   4.19442   4.22161
 Alpha virt. eigenvalues --    4.24340   4.34046   4.34140   4.41626   4.50465
 Alpha virt. eigenvalues --    4.52244   4.54016   4.62866   4.63997   4.77639
 Alpha virt. eigenvalues --    4.85142   5.01146
          Condensed to atoms (all electrons):
              1          2          3          4          5          6
     1  H    0.524285   0.377783   0.001006  -0.032731  -0.034180   0.002133
     2  C    0.377783   5.104086  -0.073439   0.456535   0.471141  -0.015845
     3  C    0.001006  -0.073439   4.943922  -0.015738  -0.035089   0.416071
     4  C   -0.032731   0.456535  -0.015738   4.699540  -0.021516  -0.035923
     5  C   -0.034180   0.471141  -0.035089  -0.021516   5.017922   0.440794
     6  C    0.002133  -0.015845   0.416071  -0.035923   0.440794   5.260335
     7  C    0.003999  -0.026800   0.300086   0.505151  -0.046766  -0.034697
     8  H   -0.002590  -0.026540   0.003369   0.001536   0.373735  -0.034928
     9  C   -0.005312  -0.084664   0.018078   0.480127   0.007594  -0.001015
    10  H    0.004339  -0.006188  -0.000094  -0.033510   0.000075   0.000017
    11  C    0.000152   0.006093   0.000345  -0.027753  -0.000323   0.000025
    12  C   -0.000006  -0.000195   0.000018   0.002529   0.000003  -0.000001
    13  H    0.000000   0.000003   0.000000  -0.000010   0.000000   0.000000
    14  H    0.000000   0.000003   0.000000  -0.000012   0.000000   0.000000
    15  H    0.000000   0.000003  -0.000002  -0.000020   0.000000   0.000000
    16  N    0.000003  -0.000442   0.008290  -0.049688   0.000045  -0.000286
    17  C   -0.000135   0.013178  -0.071837  -0.058040  -0.001172   0.011383
    18  H    0.000002  -0.000134  -0.000615   0.001542  -0.000013   0.000228
    19  C   -0.000144   0.007199  -0.016115   0.000402  -0.055145   0.251393
    20  O    0.000002   0.000379   0.004088  -0.000009   0.004788  -0.092780
    21  C    0.000005  -0.000279  -0.064649  -0.000150   0.014243  -0.107573
    22  C    0.000000  -0.000001  -0.002856   0.000009  -0.000250   0.018175
    23  C    0.000000   0.000000   0.000940   0.000000   0.000001  -0.000547
    24  H    0.000000   0.000000   0.000198   0.000000   0.000000   0.000001
    25  H    0.000000   0.000000  -0.000016   0.000000   0.000000   0.000012
    26  H    0.000000   0.000000  -0.000016   0.000000   0.000000   0.000010
    27  C    0.000000   0.000000   0.000047   0.000000   0.000004  -0.000042
    28  H    0.000000   0.000000  -0.000001   0.000000   0.000000   0.000005
    29  H    0.000000   0.000000  -0.000013   0.000000  -0.000008   0.000627
    30  H    0.000000   0.000000   0.000000   0.000000   0.000000   0.000002
    31  O    0.000001  -0.000221   0.287050   0.003236   0.005639  -0.061584
              7          8          9         10         11         12
     1  H    0.003999  -0.002590  -0.005312   0.004339   0.000152  -0.000006
     2  C   -0.026800  -0.026540  -0.084664  -0.006188   0.006093  -0.000195
     3  C    0.300086   0.003369   0.018078  -0.000094   0.000345   0.000018
     4  C    0.505151   0.001536   0.480127  -0.033510  -0.027753   0.002529
     5  C   -0.046766   0.373735   0.007594   0.000075  -0.000323   0.000003
     6  C   -0.034697  -0.034928  -0.001015   0.000017   0.000025  -0.000001
     7  C    5.098283   0.000870  -0.031738   0.005060  -0.027450   0.001127
     8  H    0.000870   0.505757  -0.000150  -0.000007   0.000002   0.000000
     9  C   -0.031738  -0.000150   5.134306   0.373992   0.488802  -0.075244
    10  H    0.005060  -0.000007   0.373992   0.525915  -0.035764  -0.003009
    11  C   -0.027450   0.000002   0.488802  -0.035764   4.701257   0.355973
    12  C    0.001127   0.000000  -0.075244  -0.003009   0.355973   5.111929
    13  H    0.000021   0.000000  -0.002289   0.000872  -0.030509   0.381289
    14  H    0.000022   0.000000  -0.002286   0.000874  -0.030511   0.381294
    15  H   -0.000065   0.000000   0.004509  -0.000097  -0.030691   0.374466
    16  N   -0.000752   0.000000  -0.034239   0.004554   0.431647  -0.075549
    17  C    0.383729   0.000019  -0.064773   0.000003  -0.064940   0.005627
    18  H   -0.056601   0.000000   0.000616   0.000021   0.004059  -0.000208
    19  C    0.013797  -0.004097  -0.000009   0.000000   0.000000   0.000000
    20  O   -0.000094   0.005746   0.000000   0.000000   0.000000   0.000000
    21  C   -0.002421   0.000328   0.000007   0.000000   0.000001   0.000000
    22  C   -0.000717  -0.000002   0.000000   0.000000   0.000000   0.000000
    23  C    0.000057   0.000000   0.000000   0.000000   0.000000   0.000000
    24  H   -0.000004   0.000000   0.000000   0.000000   0.000000   0.000000
    25  H   -0.000001   0.000000   0.000000   0.000000   0.000000   0.000000
    26  H   -0.000001   0.000000   0.000000   0.000000   0.000000   0.000000
    27  C    0.000006   0.000001   0.000000   0.000000   0.000000   0.000000
    28  H    0.000000   0.000000   0.000000   0.000000   0.000000   0.000000
    29  H    0.000001  -0.000002   0.000000   0.000000   0.000000   0.000000
    30  H    0.000000   0.000000   0.000000   0.000000   0.000000   0.000000
    31  O   -0.063306  -0.000060  -0.000048   0.000000   0.000001   0.000000
             13         14         15         16         17         18
     1  H    0.000000   0.000000   0.000000   0.000003  -0.000135   0.000002
     2  C    0.000003   0.000003   0.000003  -0.000442   0.013178  -0.000134
     3  C    0.000000   0.000000  -0.000002   0.008290  -0.071837  -0.000615
     4  C   -0.000010  -0.000012  -0.000020  -0.049688  -0.058040   0.001542
     5  C    0.000000   0.000000   0.000000   0.000045  -0.001172  -0.000013
     6  C    0.000000   0.000000   0.000000  -0.000286   0.011383   0.000228
     7  C    0.000021   0.000022  -0.000065  -0.000752   0.383729  -0.056601
     8  H    0.000000   0.000000   0.000000   0.000000   0.000019   0.000000
     9  C   -0.002289  -0.002286   0.004509  -0.034239  -0.064773   0.000616
    10  H    0.000872   0.000874  -0.000097   0.004554   0.000003   0.000021
    11  C   -0.030509  -0.030511  -0.030691   0.431647  -0.064940   0.004059
    12  C    0.381289   0.381294   0.374466  -0.075549   0.005627  -0.000208
    13  H    0.527796  -0.024251  -0.023308   0.001630  -0.000196   0.000003
    14  H   -0.024251   0.527799  -0.023312   0.001630  -0.000196   0.000003
    15  H   -0.023308  -0.023312   0.533252   0.005592   0.000551  -0.000021
    16  N    0.001630   0.001630   0.005592   6.881520   0.418140  -0.041933
    17  C   -0.000196  -0.000196   0.000551   0.418140   4.951420   0.397756
    18  H    0.000003   0.000003  -0.000021  -0.041933   0.397756   0.513617
    19  C    0.000000   0.000000   0.000000   0.000001  -0.000209   0.000008
    20  O    0.000000   0.000000   0.000000   0.000000   0.000000   0.000000
    21  C    0.000000   0.000000   0.000000   0.000002   0.000093  -0.000002
    22  C    0.000000   0.000000   0.000000   0.000000   0.000007   0.000005
    23  C    0.000000   0.000000   0.000000   0.000000  -0.000010   0.000006
    24  H    0.000000   0.000000   0.000000   0.000000   0.000011   0.000121
    25  H    0.000000   0.000000   0.000000   0.000000   0.000000   0.000000
    26  H    0.000000   0.000000   0.000000   0.000000   0.000000   0.000000
    27  C    0.000000   0.000000   0.000000   0.000000   0.000000   0.000000
    28  H    0.000000   0.000000   0.000000   0.000000   0.000000   0.000000
    29  H    0.000000   0.000000   0.000000   0.000000   0.000000   0.000000
    30  H    0.000000   0.000000   0.000000   0.000000   0.000000   0.000000
    31  O    0.000000   0.000000   0.000000   0.000096  -0.000203   0.003903
             19         20         21         22         23         24
     1  H   -0.000144   0.000002   0.000005   0.000000   0.000000   0.000000
     2  C    0.007199   0.000379  -0.000279  -0.000001   0.000000   0.000000
     3  C   -0.016115   0.004088  -0.064649  -0.002856   0.000940   0.000198
     4  C    0.000402  -0.000009  -0.000150   0.000009   0.000000   0.000000
     5  C   -0.055145   0.004788   0.014243  -0.000250   0.000001   0.000000
     6  C    0.251393  -0.092780  -0.107573   0.018175  -0.000547   0.000001
     7  C    0.013797  -0.000094  -0.002421  -0.000717   0.000057  -0.000004
     8  H   -0.004097   0.005746   0.000328  -0.000002   0.000000   0.000000
     9  C   -0.000009   0.000000   0.000007   0.000000   0.000000   0.000000
    10  H    0.000000   0.000000   0.000000   0.000000   0.000000   0.000000
    11  C    0.000000   0.000000   0.000001   0.000000   0.000000   0.000000
    12  C    0.000000   0.000000   0.000000   0.000000   0.000000   0.000000
    13  H    0.000000   0.000000   0.000000   0.000000   0.000000   0.000000
    14  H    0.000000   0.000000   0.000000   0.000000   0.000000   0.000000
    15  H    0.000000   0.000000   0.000000   0.000000   0.000000   0.000000
    16  N    0.000001   0.000000   0.000002   0.000000   0.000000   0.000000
    17  C   -0.000209   0.000000   0.000093   0.000007  -0.000010   0.000011
    18  H    0.000008   0.000000  -0.000002   0.000005   0.000006   0.000121
    19  C    4.687526   0.580137   0.261722  -0.059730   0.005431   0.000233
    20  O    0.580137   8.099449  -0.081489   0.001423  -0.000008  -0.000002
    21  C    0.261722  -0.081489   4.934918   0.591209  -0.017476  -0.006116
    22  C   -0.059730   0.001423   0.591209   4.985252   0.331071  -0.031241
    23  C    0.005431  -0.000008  -0.017476   0.331071   5.071441   0.385564
    24  H    0.000233  -0.000002  -0.006116  -0.031241   0.385564   0.527244
    25  H   -0.000155   0.000002  -0.001890  -0.029925   0.381204  -0.025061
    26  H   -0.000134   0.000002  -0.001681  -0.030176   0.381319  -0.025134
    27  C   -0.007458  -0.011333  -0.017782   0.358806  -0.076386   0.004077
    28  H    0.000139   0.000281  -0.001283  -0.032803  -0.002835   0.000002
    29  H    0.002052   0.019950  -0.011123  -0.023451   0.003944  -0.000143
    30  H    0.000155   0.000271  -0.001063  -0.032787  -0.002828   0.000000
    31  O   -0.057506   0.001656   0.240191  -0.052298  -0.009166   0.006183
             25         26         27         28         29         30
     1  H    0.000000   0.000000   0.000000   0.000000   0.000000   0.000000
     2  C    0.000000   0.000000   0.000000   0.000000   0.000000   0.000000
     3  C   -0.000016  -0.000016   0.000047  -0.000001  -0.000013   0.000000
     4  C    0.000000   0.000000   0.000000   0.000000   0.000000   0.000000
     5  C    0.000000   0.000000   0.000004   0.000000  -0.000008   0.000000
     6  C    0.000012   0.000010  -0.000042   0.000005   0.000627   0.000002
     7  C   -0.000001  -0.000001   0.000006   0.000000   0.000001   0.000000
     8  H    0.000000   0.000000   0.000001   0.000000  -0.000002   0.000000
     9  C    0.000000   0.000000   0.000000   0.000000   0.000000   0.000000
    10  H    0.000000   0.000000   0.000000   0.000000   0.000000   0.000000
    11  C    0.000000   0.000000   0.000000   0.000000   0.000000   0.000000
    12  C    0.000000   0.000000   0.000000   0.000000   0.000000   0.000000
    13  H    0.000000   0.000000   0.000000   0.000000   0.000000   0.000000
    14  H    0.000000   0.000000   0.000000   0.000000   0.000000   0.000000
    15  H    0.000000   0.000000   0.000000   0.000000   0.000000   0.000000
    16  N    0.000000   0.000000   0.000000   0.000000   0.000000   0.000000
    17  C    0.000000   0.000000   0.000000   0.000000   0.000000   0.000000
    18  H    0.000000   0.000000   0.000000   0.000000   0.000000   0.000000
    19  C   -0.000155  -0.000134  -0.007458   0.000139   0.002052   0.000155
    20  O    0.000002   0.000002  -0.011333   0.000281   0.019950   0.000271
    21  C   -0.001890  -0.001681  -0.017782  -0.001283  -0.011123  -0.001063
    22  C   -0.029925  -0.030176   0.358806  -0.032803  -0.023451  -0.032787
    23  C    0.381204   0.381319  -0.076386  -0.002835   0.003944  -0.002828
    24  H   -0.025061  -0.025134   0.004077   0.000002  -0.000143   0.000000
    25  H    0.528905  -0.026113  -0.001731   0.002830   0.000014  -0.000273
    26  H   -0.026113   0.528946  -0.001791  -0.000268   0.000011   0.002835
    27  C   -0.001731  -0.001791   5.076057   0.380317   0.372832   0.380656
    28  H    0.002830  -0.000268   0.380317   0.535700  -0.023236  -0.027788
    29  H    0.000014   0.000011   0.372832  -0.023236   0.507245  -0.023450
    30  H   -0.000273   0.002835   0.380656  -0.027788  -0.023450   0.535065
    31  O    0.000284   0.000284   0.002556  -0.000022   0.000020  -0.000021
             31
     1  H    0.000001
     2  C   -0.000221
     3  C    0.287050
     4  C    0.003236
     5  C    0.005639
     6  C   -0.061584
     7  C   -0.063306
     8  H   -0.000060
     9  C   -0.000048
    10  H    0.000000
    11  C    0.000001
    12  C    0.000000
    13  H    0.000000
    14  H    0.000000
    15  H    0.000000
    16  N    0.000096
    17  C   -0.000203
    18  H    0.003903
    19  C   -0.057506
    20  O    0.001656
    21  C    0.240191
    22  C   -0.052298
    23  C   -0.009166
    24  H    0.006183
    25  H    0.000284
    26  H    0.000284
    27  C    0.002556
    28  H   -0.000022
    29  H    0.000020
    30  H   -0.000021
    31  O    8.284513
 Mulliken atomic charges:
              1
     1  H    0.161389
     2  C   -0.201656
     3  C    0.296971
     4  C    0.124495
     5  C   -0.141522
     6  C   -0.015991
     7  C   -0.020798
     8  H    0.177016
     9  C   -0.206262
    10  H    0.162949
    11  C    0.259585
    12  C   -0.460043
    13  H    0.168949
    14  H    0.168944
    15  H    0.159142
    16  N   -0.550260
    17  C    0.079795
    18  H    0.177638
    19  C    0.390507
    20  O   -0.532458
    21  C    0.272256
    22  C    0.010279
    23  C   -0.451723
    24  H    0.164068
    25  H    0.171916
    26  H    0.171907
    27  C   -0.458836
    28  H    0.168963
    29  H    0.174732
    30  H    0.169227
    31  O   -0.591178
 Sum of Mulliken atomic charges =   0.00000
 Mulliken charges with hydrogens summed into heavy atoms:
              1
     2  C   -0.040267
     3  C    0.296971
     4  C    0.124495
     5  C    0.035493
     6  C   -0.015991
     7  C   -0.020798
     9  C   -0.043313
    11  C    0.259585
    12  C    0.036992
    16  N   -0.550260
    17  C    0.257433
    19  C    0.390507
    20  O   -0.532458
    21  C    0.272256
    22  C    0.010279
    23  C    0.056168
    27  C    0.054086
    31  O   -0.591178
 Sum of Mulliken charges with hydrogens summed into heavy atoms =   0.00000
 Electronic spatial extent (au):  <R**2>=           5381.6021
 Charge=              0.0000 electrons
 Dipole moment (field-independent basis, Debye):
    X=             -0.4585    Y=             -0.6677    Z=              0.0872  Tot=              0.8146
 Quadrupole moment (field-independent basis, Debye-Ang):
   XX=            -84.8696   YY=           -102.9830   ZZ=           -104.0028
   XY=            -23.0206   XZ=              0.2263   YZ=              0.1847
 Traceless Quadrupole moment (field-independent basis, Debye-Ang):
   XX=             12.4156   YY=             -5.6979   ZZ=             -6.7176
   XY=            -23.0206   XZ=              0.2263   YZ=              0.1847
 Octapole moment (field-independent basis, Debye-Ang**2):
  XXX=              3.7917  YYY=              7.5706  ZZZ=             -0.1769  XYY=              1.6453
  XXY=            -22.7207  XXZ=              0.7152  XZZ=             11.4577  YZZ=             -4.0227
  YYZ=              0.4351  XYZ=              0.5064
 Hexadecapole moment (field-independent basis, Debye-Ang**3):
 XXXX=          -4956.9683 YYYY=          -1335.1326 ZZZZ=           -120.9123 XXXY=           -274.7721
 XXXZ=              1.7592 YYYX=           -128.1959 YYYZ=              0.8535 ZZZX=             -0.2880
 ZZZY=             -0.3603 XXYY=          -1225.2772 XXZZ=           -950.4439 YYZZ=           -260.1141
 XXYZ=              1.2705 YYXZ=              0.8129 ZZXY=             -1.4938
 N-N= 1.222726771710D+03 E-N=-4.269021926872D+03  KE= 7.774685998535D+02
 1\1\GINC-COMPUTE-8-5\SP\RmPW1PW91\6-31G(d,p)\C15H13N1O2\FBRUNO.IQUIR\1
 6-Oct-2021\0\\# mPW1PW91/6-31g** scrf=(pcm,solvent=chloroform,smd,dova
 cuum) nmr\\comment\\0,1\H,0,3.236974893,0.,-2.202432679\C,0,2.36853284
 2,0.,-1.544836424\C,0,0.163336414,0.,0.130503596\C,0,1.061383661,0.,-2
 .097121697\C,0,2.574442872,0.,-0.161617442\C,0,1.453587203,0.,0.643329
 245\C,0,-0.063079467,0.,-1.242376151\H,0,3.57180087,0.,0.266198943\C,0
 ,0.843230257,0.,-3.480483367\H,0,1.679020005,0.,-4.174263266\C,0,-0.46
 1938592,0.,-3.970380524\C,0,-0.707573113,0.,-5.450020748\H,0,-0.267550
 421,-0.89223971,-5.906119596\H,0,-0.267550421,0.89223971,-5.906119596\
 H,0,-1.780596062,0.,-5.667142867\N,0,-1.547636415,0.,-3.163296489\C,0,
 -1.329781524,0.,-1.828333922\H,0,-2.232708773,0.,-1.222890809\C,0,1.35
 051509,0.,2.096058404\O,0,2.278117806,-0.043215595,2.874191206\C,0,-0.
 126038756,0.,2.33797348\C,0,-0.771711435,0.,3.519201854\C,0,-2.2774475
 62,0.,3.59599175\H,0,-2.75809985,0.,2.613029797\H,0,-2.627436868,0.888
 436387,4.132196559\H,0,-2.627436868,-0.888436387,4.132196559\C,0,-0.10
 436772,0.,4.868072277\H,0,-0.406988967,0.887327215,5.434522427\H,0,0.9
 84881153,0.,4.827963485\H,0,-0.406988967,-0.887327215,5.434522427\O,0,
 -0.801267473,0.,1.111456876\\Version=EM64L-G09RevC.01\State=1-A\HF=-78
 4.4849041\RMSD=5.988e-09\Dipole=-0.262727,0.0351892,-0.1801696\Quadrup
 ole=-4.2606887,-4.9955036,9.2561923,0.1501986,-17.1046722,0.2019904\PG
 =C01 [X(C15H13N1O2)]\\@


 MISERY NO LONGER LOVES COMPANY.  NOWADAYS IT INSISTS ON IT.

                                              -- BAKER'S LAW
 Job cpu time:  0 days  0 hours 50 minutes  3.0 seconds.
 File lengths (MBytes):  RWF=    119 Int=      0 D2E=      0 Chk=      8 Scr=      1
 Normal termination of Gaussian 09 at Sat Oct 16 22:02:36 2021.
