 Entering Gaussian System, Link 0=g09
 Input=/home/fbruno.iquir/MPW_A_SMD/31_MMFF_001_NMR_MPW_A_SMD.gjc
 Output=/home/fbruno.iquir/MPW_A_SMD/31_MMFF_001_NMR_MPW_A_SMD.log
 Initial command:
 /share/apps/Gaussian09/EM64T.SSE4.2-enabled/g09/l1.exe /tmp/Gau-63778.inp -scrdir=/tmp/
 Entering Link 1 = /share/apps/Gaussian09/EM64T.SSE4.2-enabled/g09/l1.exe PID=     63779.
  
 Copyright (c) 1988,1990,1992,1993,1995,1998,2003,2009,2011,
            Gaussian, Inc.  All Rights Reserved.
  
 This is part of the Gaussian(R) 09 program.  It is based on
 the Gaussian(R) 03 system (copyright 2003, Gaussian, Inc.),
 the Gaussian(R) 98 system (copyright 1998, Gaussian, Inc.),
 the Gaussian(R) 94 system (copyright 1995, Gaussian, Inc.),
 the Gaussian 92(TM) system (copyright 1992, Gaussian, Inc.),
 the Gaussian 90(TM) system (copyright 1990, Gaussian, Inc.),
 the Gaussian 88(TM) system (copyright 1988, Gaussian, Inc.),
 the Gaussian 86(TM) system (copyright 1986, Carnegie Mellon
 University), and the Gaussian 82(TM) system (copyright 1983,
 Carnegie Mellon University). Gaussian is a federally registered
 trademark of Gaussian, Inc.
  
 This software contains proprietary and confidential information,
 including trade secrets, belonging to Gaussian, Inc.
  
 This software is provided under written license and may be
 used, copied, transmitted, or stored only in accord with that
 written license.
  
 The following legend is applicable only to US Government
 contracts under FAR:
  
                    RESTRICTED RIGHTS LEGEND
  
 Use, reproduction and disclosure by the US Government is
 subject to restrictions as set forth in subparagraphs (a)
 and (c) of the Commercial Computer Software - Restricted
 Rights clause in FAR 52.227-19.
  
 Gaussian, Inc.
 340 Quinnipiac St., Bldg. 40, Wallingford CT 06492
  
  
 ---------------------------------------------------------------
 Warning -- This program may not be used in any manner that
 competes with the business of Gaussian, Inc. or will provide
 assistance to any competitor of Gaussian, Inc.  The licensee
 of this program is prohibited from giving any competitor of
 Gaussian, Inc. access to this program.  By using this program,
 the user acknowledges that Gaussian, Inc. is engaged in the
 business of creating and licensing software in the field of
 computational chemistry and represents and warrants to the
 licensee that it is not a competitor of Gaussian, Inc. and that
 it will not use this program in any manner prohibited above.
 ---------------------------------------------------------------
  

 Cite this work as:
 Gaussian 09, Revision C.01,
 M. J. Frisch, G. W. Trucks, H. B. Schlegel, G. E. Scuseria, 
 M. A. Robb, J. R. Cheeseman, G. Scalmani, V. Barone, B. Mennucci, 
 G. A. Petersson, H. Nakatsuji, M. Caricato, X. Li, H. P. Hratchian, 
 A. F. Izmaylov, J. Bloino, G. Zheng, J. L. Sonnenberg, M. Hada, 
 M. Ehara, K. Toyota, R. Fukuda, J. Hasegawa, M. Ishida, T. Nakajima, 
 Y. Honda, O. Kitao, H. Nakai, T. Vreven, J. A. Montgomery, Jr., 
 J. E. Peralta, F. Ogliaro, M. Bearpark, J. J. Heyd, E. Brothers, 
 K. N. Kudin, V. N. Staroverov, T. Keith, R. Kobayashi, J. Normand, 
 K. Raghavachari, A. Rendell, J. C. Burant, S. S. Iyengar, J. Tomasi, 
 M. Cossi, N. Rega, J. M. Millam, M. Klene, J. E. Knox, J. B. Cross, 
 V. Bakken, C. Adamo, J. Jaramillo, R. Gomperts, R. E. Stratmann, 
 O. Yazyev, A. J. Austin, R. Cammi, C. Pomelli, J. W. Ochterski, 
 R. L. Martin, K. Morokuma, V. G. Zakrzewski, G. A. Voth, 
 P. Salvador, J. J. Dannenberg, S. Dapprich, A. D. Daniels, 
 O. Farkas, J. B. Foresman, J. V. Ortiz, J. Cioslowski, 
 and D. J. Fox, Gaussian, Inc., Wallingford CT, 2010.
 
 ******************************************
 Gaussian 09:  EM64L-G09RevC.01 23-Sep-2011
                16-Oct-2021 
 ******************************************
 %nprocshared=4
 Will use up to    4 processors via shared memory.
 -----------------------------------------------------------------
 # mPW1PW91/6-31g** scrf=(pcm,solvent=chloroform,smd,dovacuum) nmr
 -----------------------------------------------------------------
 1/38=1/1;
 2/12=2,17=6,18=5,40=1/2;
 3/5=1,6=6,7=101,11=2,16=1,25=1,30=1,70=32101,72=7,74=-7/1,2,8,3;
 4//1;
 5/5=2,38=5,53=7/2;
 8/6=1,10=90,11=11/1;
 10/13=100,45=16/2;
 6/7=2,8=2,9=2,10=2,28=1/1;
 99/9=1/99;
 -------
 comment
 -------
 Charge =  0 Multiplicity = 1
 Symbolic Z-Matrix:
 6                    -1.55946   0.28832   0.50438 
 6                    -2.53567  -0.89718   0.39225 
 6                     2.38026   0.42752   0.19277 
 6                    -0.01215  -1.04047  -0.98381 
 6                    -0.12102  -0.23062   0.3357 
 6                     0.92841   0.91362   0.42829 
 6                     0.58459   2.10796  -0.50351 
 6                    -0.86147   2.57595  -0.29594 
 6                    -1.86886   1.44316  -0.45731 
 6                    -3.99868  -0.47137   0.53984 
 6                     2.71816  -0.98595   0.69132 
 6                     1.52995   3.29811  -0.30065 
 6                     1.76437  -2.07663   0.15846 
 6                     2.50761  -3.39751  -0.01698 
 8                     1.25798  -1.69138  -1.12045 
 8                    -1.05181  -2.01325  -1.17899 
 1                    -1.66276   0.68099   1.52741 
 1                    -2.33554  -1.59625   1.21606 
 1                     2.60906   0.47281  -0.88053 
 1                     3.07491   1.1288    0.67227 
 1                    -0.0823   -0.37029  -1.84659 
 1                     0.90229   1.28375   1.46503 
 1                     0.68761   1.78557  -1.54781 
 1                    -1.10235   3.36957  -1.01387 
 1                    -0.97001   3.01454   0.70461 
 1                    -2.86659   1.84897  -0.25629 
 1                    -1.87475   1.09872  -1.49776 
 1                    -4.6451   -1.35061   0.64181 
 1                    -4.35345   0.0853   -0.33388 
 1                    -4.13961   0.14866   1.4311 
 1                     2.74418  -1.00101   1.78773 
 1                     3.74135  -1.19343   0.35185 
 1                     1.22457   4.14673  -0.92253 
 1                     2.55675   3.04683  -0.58287 
 1                     1.53286   3.62864   0.74347 
 1                     3.31684  -3.30851  -0.74955 
 1                     2.9191   -3.75167   0.93414 
 1                     1.82567  -4.17354  -0.38429 
 6                    -2.3316   -1.70407  -0.87726 
 8                    -3.25945  -2.15428  -1.5402 
 8                     0.13668  -1.05284   1.50163 
 8                     0.68944  -2.33364   1.07094 
 
                          Input orientation:                          
 ---------------------------------------------------------------------
 Center     Atomic      Atomic             Coordinates (Angstroms)
 Number     Number       Type             X           Y           Z
 ---------------------------------------------------------------------
      1          6           0       -1.559460    0.288325    0.504379
      2          6           0       -2.535674   -0.897177    0.392247
      3          6           0        2.380257    0.427521    0.192770
      4          6           0       -0.012151   -1.040474   -0.983814
      5          6           0       -0.121025   -0.230623    0.335695
      6          6           0        0.928408    0.913621    0.428287
      7          6           0        0.584591    2.107958   -0.503505
      8          6           0       -0.861473    2.575953   -0.295945
      9          6           0       -1.868862    1.443162   -0.457310
     10          6           0       -3.998683   -0.471373    0.539844
     11          6           0        2.718157   -0.985954    0.691318
     12          6           0        1.529952    3.298113   -0.300649
     13          6           0        1.764374   -2.076631    0.158458
     14          6           0        2.507614   -3.397510   -0.016979
     15          8           0        1.257984   -1.691383   -1.120448
     16          8           0       -1.051814   -2.013250   -1.178986
     17          1           0       -1.662760    0.680987    1.527412
     18          1           0       -2.335544   -1.596253    1.216061
     19          1           0        2.609062    0.472809   -0.880529
     20          1           0        3.074908    1.128799    0.672265
     21          1           0       -0.082297   -0.370294   -1.846588
     22          1           0        0.902293    1.283749    1.465034
     23          1           0        0.687610    1.785573   -1.547812
     24          1           0       -1.102348    3.369570   -1.013868
     25          1           0       -0.970012    3.014542    0.704608
     26          1           0       -2.866589    1.848965   -0.256285
     27          1           0       -1.874752    1.098717   -1.497759
     28          1           0       -4.645101   -1.350612    0.641808
     29          1           0       -4.353452    0.085304   -0.333875
     30          1           0       -4.139613    0.148656    1.431097
     31          1           0        2.744179   -1.001009    1.787733
     32          1           0        3.741348   -1.193433    0.351852
     33          1           0        1.224571    4.146734   -0.922535
     34          1           0        2.556755    3.046835   -0.582875
     35          1           0        1.532865    3.628639    0.743472
     36          1           0        3.316841   -3.308506   -0.749553
     37          1           0        2.919101   -3.751670    0.934144
     38          1           0        1.825674   -4.173540   -0.384286
     39          6           0       -2.331600   -1.704074   -0.877255
     40          8           0       -3.259452   -2.154285   -1.540196
     41          8           0        0.136678   -1.052836    1.501629
     42          8           0        0.689439   -2.333644    1.070941
 ---------------------------------------------------------------------
                    Distance matrix (angstroms):
                    1          2          3          4          5
     1  C    0.000000
     2  C    1.539799   0.000000
     3  C    3.954471   5.095193   0.000000
     4  C    2.524795   2.877889   3.043513   0.000000
     5  C    1.538459   2.505598   2.590365   1.552036   0.000000
     6  C    2.566374   3.908984   1.549073   2.587889   1.555371
     7  C    2.987281   4.423716   2.555990   3.240280   2.582849
     8  C    2.522092   3.916528   3.919620   3.777970   2.970539
     9  C    1.534349   2.577513   4.416915   3.145318   2.546635
    10  C    2.555036   1.530846   6.451305   4.305559   3.890484
    11  C    4.467296   5.263085   1.536437   3.203689   2.959383
    12  C    4.387638   5.883017   3.034268   4.654904   3.947485
    13  C    4.093965   4.464995   2.579005   2.352541   2.644596
    14  C    5.513464   5.643925   3.832894   3.583240   4.130775
    15  O    3.807532   4.160631   2.733824   1.433735   2.481096
    16  O    2.896320   2.432330   4.429243   1.437110   2.517615
    17  H    1.100659   2.131005   4.265150   3.463263   2.151318
    18  H    2.158803   1.098830   5.232740   3.247537   2.746650
    19  H    4.396428   5.474041   1.098351   3.028440   3.070406
    20  H    4.712955   5.971735   1.097382   4.120470   3.489312
    21  H    2.853565   3.362893   3.295401   1.094733   2.187092
    22  H    2.823819   4.210336   2.129826   3.497867   2.148466
    23  H    3.391543   4.620664   2.781903   2.965518   2.875158
    24  H    3.465271   4.715582   4.715948   4.542898   3.968086
    25  H    2.796391   4.224976   4.263679   4.495711   3.374607
    26  H    2.173199   2.841021   5.454497   4.126253   3.494746
    27  H    2.182820   2.827107   4.627472   2.882630   2.864308
    28  H    3.496596   2.171996   7.260789   4.919661   4.670690
    29  H    2.924086   2.190169   6.762936   4.531742   4.296693
    30  H    2.745087   2.178440   6.642283   4.927653   4.182441
    31  H    4.672332   5.462143   2.171876   3.909014   3.303226
    32  H    5.506127   6.284139   2.122585   3.986998   3.980601
    33  H    4.967316   6.427218   4.051180   5.332950   4.749213
    34  H    5.072940   6.514516   2.737441   4.844184   4.330820
    35  H    4.558216   6.095849   3.356859   5.212600   4.218475
    36  H    6.187717   6.431962   3.965231   4.034977   4.740258
    37  H    6.046797   6.180320   4.278507   4.429604   4.690232
    38  H    5.670723   5.509892   4.670152   3.681459   4.455851
    39  C    2.544556   1.518013   5.281122   2.414863   2.920437
    40  O    3.610624   2.416301   6.440125   3.477801   4.131485
    41  O    2.381197   2.897658   2.989685   2.489926   1.449775
    42  O    3.500466   3.595194   3.354710   2.527160   2.370683
                    6          7          8          9         10
     6  C    0.000000
     7  C    1.553347   0.000000
     8  C    2.547849   1.534015   0.000000
     9  C    2.981512   2.542344   1.524495   0.000000
    10  C    5.119266   5.361709   4.452732   3.032474   0.000000
    11  C    2.623122   3.943602   5.145447   5.316079   6.738225
    12  C    2.564957   1.533405   2.498090   3.875219   6.743980
    13  C    3.116610   4.397826   5.361725   5.095931   5.994592
    14  C    4.612809   5.851915   6.863734   6.540607   7.155713
    15  O    3.048483   3.907566   4.835501   4.476862   5.646020
    16  O    3.882162   4.485359   4.677261   3.624247   3.743767
    17  H    2.824243   3.348351   2.749107   2.136003   2.785634
    18  H    4.192069   5.020485   4.676147   3.500858   2.118644
    19  H    2.175296   2.629514   4.099947   4.601358   6.824311
    20  H    2.171011   2.922819   4.304275   5.080908   7.253535
    21  H    2.800897   2.896609   3.419354   2.900091   4.587303
    22  H    1.101145   2.157638   2.807439   3.376406   5.287343
    23  H    2.173304   1.097780   2.142786   2.800354   5.604770
    24  H    3.497924   2.167464   1.096933   2.146706   5.055256
    25  H    2.845034   2.167538   1.097837   2.151098   4.620779
    26  H    3.968061   3.469702   2.133207   1.095694   2.701745
    27  H    3.406115   2.838217   2.157155   1.095997   3.335879
    28  H    6.019664   6.373627   5.532914   4.089100   1.096045
    29  H    5.400468   5.338929   4.289369   2.834114   1.095051
    30  H    5.222609   5.468057   4.429520   3.224615   1.094820
    31  H    2.968321   4.424847   5.489727   5.682811   6.877785
    32  H    3.515416   4.647142   5.984469   6.251466   7.775911
    33  H    3.516454   2.177560   2.685432   4.134617   7.123751
    34  H    2.867849   2.185686   3.462418   4.708887   7.524098
    35  H    2.799291   2.183265   2.814496   4.217811   6.888365
    36  H    4.991821   6.071557   7.231247   7.039550   7.951651
    37  H    5.097420   6.469313   7.472930   7.200487   7.666261
    38  H    5.229204   6.404039   7.265275   6.723263   6.962987
    39  C    4.380003   4.814088   4.562656   3.208672   2.511352
    40  O    5.552040   5.832504   5.447349   4.005996   2.775828
    41  O    2.376101   3.769855   4.170814   3.753617   4.285363
    42  O    3.318862   4.713566   5.327087   4.810896   5.072337
                   11         12         13         14         15
    11  C    0.000000
    12  C    4.555114   0.000000
    13  C    1.543768   5.399409   0.000000
    14  C    2.522225   6.772567   1.525748   0.000000
    15  O    2.431508   5.063706   1.428442   2.385391   0.000000
    16  O    4.331981   5.970559   3.118284   3.991989   2.332851
    17  H    4.761321   4.514927   4.606923   6.034178   4.601092
    18  H    5.117393   6.418511   4.261293   5.312353   4.287396
    19  H    2.147230   3.079461   2.879694   3.966785   2.562558
    20  H    2.144717   2.835379   3.500897   4.613497   3.803743
    21  H    3.829171   4.294937   3.215897   4.383966   2.017155
    22  H    3.007914   2.751228   3.707085   5.166004   3.957605
    23  H    4.100998   2.133714   4.357453   5.702650   3.549252
    24  H    6.039413   2.728149   6.265266   7.734274   5.585318
    25  H    5.441207   2.709386   5.804756   7.330006   5.517294
    26  H    6.334359   4.629424   6.085075   7.514308   5.503903
    27  H    5.498429   4.226397   5.105794   6.450884   4.212014
    28  H    7.372449   7.786537   6.468547   7.468945   6.169934
    29  H    7.225390   6.703558   6.507238   7.700951   5.938310
    30  H    6.990252   6.712823   6.436503   7.671887   6.247414
    31  H    1.096827   4.931343   2.184380   3.009346   3.338099
    32  H    1.097818   5.048763   2.173906   2.552664   2.929627
    33  H    5.583888   1.095516   6.339574   7.705962   5.841566
    34  H    4.232376   1.094128   5.237113   6.469331   4.942318
    35  H    4.764672   1.095191   5.739856   7.134087   5.643792
    36  H    2.797996   6.858710   2.179943   1.095187   2.644152
    37  H    2.783618   7.290672   2.177347   1.095164   3.350438
    38  H    3.480540   7.477971   2.166877   1.096439   2.650530
    39  C    5.336306   6.345545   4.241285   5.198634   3.597835
    40  O    6.486637   7.362303   5.303799   6.093017   4.560449
    41  O    2.706495   4.911230   2.345562   3.664015   2.922389
    42  O    2.464970   5.856997   1.433235   2.370894   2.353280
                   16         17         18         19         20
    16  O    0.000000
    17  H    3.867397   0.000000
    18  H    2.749200   2.394869   0.000000
    19  H    4.435266   4.908155   5.755505   0.000000
    20  H    5.507217   4.835009   6.082320   1.748858   0.000000
    21  H    2.021129   3.871296   3.994986   2.981192   4.308114
    22  H    4.656133   2.635662   4.340506   3.012034   2.317918
    23  H    4.194363   4.025090   5.311798   2.420866   3.325551
    24  H    5.385589   3.741743   5.581465   4.709944   5.031260
    25  H    5.369666   2.569511   4.835876   4.667208   4.463009
    26  H    4.365946   2.448459   3.784090   5.680337   6.056586
    27  H    3.234684   3.061224   3.852273   4.569171   5.404540
    28  H    4.082412   3.715649   2.392522   7.633168   8.108449
    29  H    4.002368   3.325515   3.049899   6.994683   7.568470
    30  H    4.584853   2.535242   2.519050   7.140960   7.320234
    31  H    4.922969   4.724192   5.146330   3.051233   2.426877
    32  H    5.098036   5.839501   6.151239   2.361609   2.437122
    33  H    6.572145   5.133256   7.087305   3.926360   3.882662
    34  H    6.243523   5.277770   6.980617   2.591707   2.350047
    35  H    6.496716   4.417605   6.518237   3.708752   2.938055
    36  H    4.576817   6.774736   6.224540   3.849214   4.665809
    37  H    4.822406   6.402645   5.686528   4.608187   4.889973
    38  H    3.684880   6.276161   5.149685   4.737986   5.549026
    39  C    1.350734   3.452287   2.096095   5.398979   6.297342
    40  O    2.241434   4.471958   2.960060   6.463454   7.469788
    41  O    3.085548   2.498956   2.547299   3.756988   3.752409
    42  O    2.863003   3.850872   3.116943   3.920378   4.223496
                   21         22         23         24         25
    21  H    0.000000
    22  H    3.830420   0.000000
    23  H    2.308632   3.061888   0.000000
    24  H    3.964910   3.809750   2.449101   0.000000
    25  H    4.330560   2.660718   3.054745   1.759749   0.000000
    26  H    3.899545   4.181732   3.782114   2.449227   2.424642
    27  H    2.343623   4.065016   2.653295   2.446944   3.056037
    28  H    5.288886   6.196059   6.562613   6.129639   5.706557
    29  H    4.553969   5.682887   5.456818   4.671024   4.594187
    30  H    5.241597   5.168211   5.903853   5.057383   4.334451
    31  H    4.647049   2.952422   4.808366   6.461169   5.576112
    32  H    4.486754   3.928846   4.669958   6.793201   6.326800
    33  H    4.792214   3.741795   2.500876   2.454970   2.957303
    34  H    4.498704   3.168540   2.452670   3.698507   3.754562
    35  H    5.030767   2.533137   3.059629   3.178004   2.577404
    36  H    4.625010   5.641209   5.787893   8.012228   7.776415
    37  H    5.307972   5.450211   6.465347   8.407073   7.807657
    38  H    4.499263   5.835634   6.177379   8.115923   7.789100
    39  C    2.788896   4.987130   4.662929   5.222221   5.159608
    40  O    3.656612   6.178317   5.576901   5.953410   6.082553
    41  O    3.424088   2.459092   4.202283   5.236467   4.289938
    42  O    3.600319   3.645017   4.881170   6.331160   5.611691
                   26         27         28         29         30
    26  H    0.000000
    27  H    1.757233   0.000000
    28  H    3.769214   4.272211   0.000000
    29  H    2.308091   2.919860   1.760361   0.000000
    30  H    2.712730   3.822356   1.768135   1.779008   0.000000
    31  H    6.616727   6.044653   7.485775   7.487167   6.988241
    32  H    7.300057   6.341576   8.392932   8.223817   8.066940
    33  H    4.739326   4.384871   8.192742   6.925032   7.092156
    34  H    5.563650   4.926503   8.526671   7.522209   7.569469
    35  H    4.849942   4.799528   7.935398   6.954468   6.690300
    36  H    8.067070   6.850990   8.316355   8.397864   8.503288
    37  H    8.139929   7.240265   7.941518   8.319872   8.079910
    38  H    7.635724   6.536794   7.133914   7.504791   7.586939
    39  C    3.646355   2.906780   2.790122   2.754092   3.468431
    40  O    4.222414   3.535705   2.706854   2.769080   3.860933
    41  O    4.531040   4.203732   4.867584   4.982540   4.442434
    42  O    5.648105   4.995438   5.441308   5.766764   5.441624
                   31         32         33         34         35
    31  H    0.000000
    32  H    1.758729   0.000000
    33  H    6.012821   6.039504   0.000000
    34  H    4.694673   4.500760   1.760642   0.000000
    35  H    4.898103   5.318189   1.771735   1.773709   0.000000
    36  H    3.477111   2.422155   7.745199   6.402802   7.316807
    37  H    2.885367   2.749497   8.288756   6.975121   7.511788
    38  H    3.953008   3.618390   8.359306   7.260009   7.888699
    39  C    5.775811   6.217086   6.846923   6.823035   6.782232
    40  O    6.960513   7.315345   7.758273   7.861067   7.850073
    41  O    2.623663   3.786212   5.839144   5.197041   4.943718
    42  O    2.551796   3.336363   6.801148   5.930559   6.030541
                   36         37         38         39         40
    36  H    0.000000
    37  H    1.785897   0.000000
    38  H    1.762181   1.764034   0.000000
    39  C    5.873278   5.919770   4.860474   0.000000
    40  O    6.723464   6.844598   5.592140   1.226005   0.000000
    41  O    4.502145   3.917604   4.018480   3.489355   4.690372
    42  O    3.341824   2.645921   2.606517   3.649453   4.737504
                   41         42
    41  O    0.000000
    42  O    1.459969   0.000000
 Stoichiometry    C15H22O5
 Framework group  C1[X(C15H22O5)]
 Deg. of freedom   120
 Full point group                 C1      NOp   1
 Largest Abelian subgroup         C1      NOp   1
 Largest concise Abelian subgroup C1      NOp   1
                         Standard orientation:                         
 ---------------------------------------------------------------------
 Center     Atomic      Atomic             Coordinates (Angstroms)
 Number     Number       Type             X           Y           Z
 ---------------------------------------------------------------------
      1          6           0       -1.409397    0.623721    0.697188
      2          6           0       -2.314903   -0.621659    0.688696
      3          6           0        2.466224    1.003146    0.009114
      4          6           0        0.070593   -0.627352   -0.921156
      5          6           0        0.036460    0.192862    0.396000
      6          6           0        1.015462    1.401342    0.378379
      7          6           0        0.509900    2.558607   -0.526071
      8          6           0       -0.936624    2.938696   -0.185037
      9          6           0       -1.881107    1.743282   -0.239988
     10          6           0       -3.781284   -0.285582    0.972011
     11          6           0        2.938642   -0.379346    0.484692
     12          6           0        1.393072    3.808004   -0.424362
     13          6           0        2.009486   -1.534687    0.054489
     14          6           0        2.814766   -2.809164   -0.180332
     15          8           0        1.360637   -1.199911   -1.173260
     16          8           0       -0.919285   -1.665565   -1.007990
     17          1           0       -1.439748    1.023722    1.722140
     18          1           0       -1.993665   -1.295142    1.495327
     19          1           0        2.588790    1.047291   -1.081484
     20          1           0        3.157502    1.753010    0.414188
     21          1           0       -0.123381    0.024822   -1.778761
     22          1           0        1.064519    1.783848    1.409787
     23          1           0        0.533508    2.228420   -1.572752
     24          1           0       -1.294269    3.705503   -0.883149
     25          1           0       -0.977217    3.383886    0.817662
     26          1           0       -2.878907    2.089087    0.052179
     27          1           0       -1.963937    1.384362   -1.272231
     28          1           0       -4.358195   -1.201769    1.142565
     29          1           0       -4.251883    0.235468    0.131666
     30          1           0       -3.875909    0.337108    1.867519
     31          1           0        3.069522   -0.377147    1.573680
     32          1           0        3.936054   -0.527618    0.050654
     33          1           0        0.976978    4.627058   -1.021165
     34          1           0        2.402276    3.617060   -0.801408
     35          1           0        1.474172    4.152899    0.611936
     36          1           0        3.543543   -2.680455   -0.987644
     37          1           0        3.336251   -3.123481    0.729967
     38          1           0        2.151493   -3.631240   -0.474336
     39          6           0       -2.181631   -1.432294   -0.587813
     40          8           0       -3.137881   -1.948712   -1.155253
     41          8           0        0.455159   -0.595059    1.538681
     42          8           0        1.044439   -1.845022    1.067672
 ---------------------------------------------------------------------
 Rotational constants (GHZ):      0.4572229      0.3887254      0.2506405
 Standard basis: 6-31G(d,p) (6D, 7F)
 There are   410 symmetry adapted basis functions of A   symmetry.
 Integral buffers will be    131072 words long.
 Raffenetti 2 integral format.
 Two-electron integral symmetry is turned on.
   410 basis functions,   714 primitive gaussians,   410 cartesian basis functions
    76 alpha electrons       76 beta electrons
       nuclear repulsion energy      1850.9729718392 Hartrees.
 NAtoms=   42 NActive=   42 NUniq=   42 SFac= 1.00D+00 NAtFMM=   60 NAOKFM=F Big=F
 ------------------------------------------------------------------------------
 Polarizable Continuum Model (PCM)
 =================================
 Model                : C-PCM.
 Atomic radii         : SMD-Coulomb.
 Polarization charges : Total charges.
 Charge compensation  : None.
 Solution method      : Matrix inversion.
 Cavity type          : VdW (van der Waals Surface) (Alpha=1.000).
 Cavity algorithm     : GePol (No added spheres)
                        Default sphere list used, NSphG=   42.
                        Lebedev-Laikov grids with approx.  5.0 points / Ang**2.
                        Smoothing algorithm: Karplus/York (Gamma=1.0000).
                        Polarization charges: spherical gaussians, with
                                              point-specific exponents (IZeta= 3).
                        Self-potential: point-specific (ISelfS= 7).
                        Self-field    : sphere-specific E.n sum rule (ISelfD= 2).
 Solvent              : Chloroform, Eps=   4.711300 Eps(inf)=   2.090627
 ------------------------------------------------------------------------------
 ------------------------------------------------------------------------------
 Atomic radii for non-electrostatic terms: SMD-CDS.
 ------------------------------------------------------------------------------
 Nuclear repulsion after PCM non-electrostatic terms =     1850.9665553262 Hartrees.
 One-electron integrals computed using PRISM.
 NBasis=   410 RedAO= T  NBF=   410
 NBsUse=   410 1.00D-06 NBFU=   410
 Harris functional with IExCor=  908 diagonalized for initial guess.
 ExpMin= 1.61D-01 ExpMax= 5.48D+03 ExpMxC= 8.25D+02 IAcc=1 IRadAn=         1 AccDes= 0.00D+00
 HarFok:  IExCor=  908 AccDes= 0.00D+00 IRadAn=         1 IDoV= 1
 ScaDFX=  1.000000  1.000000  1.000000  1.000000
 FoFCou: FMM=F IPFlag=           0 FMFlag=      100000 FMFlg1=           0
         NFxFlg=           0 DoJE=T BraDBF=F KetDBF=T FulRan=T
         Omega=  0.000000  0.000000  1.000000  0.000000  0.000000 ICntrl=     500 IOpCl=  0
         NMat0=    1 NMatS0=    1 NMatT0=    0 NMatD0=    1 NMtDS0=    0 NMtDT0=    0
         I1Cent=           4 NGrid=           0.
 Petite list used in FoFCou.
 Initial guess orbital symmetries:
       Occupied  (A) (A) (A) (A) (A) (A) (A) (A) (A) (A) (A) (A)
                 (A) (A) (A) (A) (A) (A) (A) (A) (A) (A) (A) (A)
                 (A) (A) (A) (A) (A) (A) (A) (A) (A) (A) (A) (A)
                 (A) (A) (A) (A) (A) (A) (A) (A) (A) (A) (A) (A)
                 (A) (A) (A) (A) (A) (A) (A) (A) (A) (A) (A) (A)
                 (A) (A) (A) (A) (A) (A) (A) (A) (A) (A) (A) (A)
                 (A) (A) (A) (A)
       Virtual   (A) (A) (A) (A) (A) (A) (A) (A) (A) (A) (A) (A)
                 (A) (A) (A) (A) (A) (A) (A) (A) (A) (A) (A) (A)
                 (A) (A) (A) (A) (A) (A) (A) (A) (A) (A) (A) (A)
                 (A) (A) (A) (A) (A) (A) (A) (A) (A) (A) (A) (A)
                 (A) (A) (A) (A) (A) (A) (A) (A) (A) (A) (A) (A)
                 (A) (A) (A) (A) (A) (A) (A) (A) (A) (A) (A) (A)
                 (A) (A) (A) (A) (A) (A) (A) (A) (A) (A) (A) (A)
                 (A) (A) (A) (A) (A) (A) (A) (A) (A) (A) (A) (A)
                 (A) (A) (A) (A) (A) (A) (A) (A) (A) (A) (A) (A)
                 (A) (A) (A) (A) (A) (A) (A) (A) (A) (A) (A) (A)
                 (A) (A) (A) (A) (A) (A) (A) (A) (A) (A) (A) (A)
                 (A) (A) (A) (A) (A) (A) (A) (A) (A) (A) (A) (A)
                 (A) (A) (A) (A) (A) (A) (A) (A) (A) (A) (A) (A)
                 (A) (A) (A) (A) (A) (A) (A) (A) (A) (A) (A) (A)
                 (A) (A) (A) (A) (A) (A) (A) (A) (A) (A) (A) (A)
                 (A) (A) (A) (A) (A) (A) (A) (A) (A) (A) (A) (A)
                 (A) (A) (A) (A) (A) (A) (A) (A) (A) (A) (A) (A)
                 (A) (A) (A) (A) (A) (A) (A) (A) (A) (A) (A) (A)
                 (A) (A) (A) (A) (A) (A) (A) (A) (A) (A) (A) (A)
                 (A) (A) (A) (A) (A) (A) (A) (A) (A) (A) (A) (A)
                 (A) (A) (A) (A) (A) (A) (A) (A) (A) (A) (A) (A)
                 (A) (A) (A) (A) (A) (A) (A) (A) (A) (A) (A) (A)
                 (A) (A) (A) (A) (A) (A) (A) (A) (A) (A) (A) (A)
                 (A) (A) (A) (A) (A) (A) (A) (A) (A) (A) (A) (A)
                 (A) (A) (A) (A) (A) (A) (A) (A) (A) (A) (A) (A)
                 (A) (A) (A) (A) (A) (A) (A) (A) (A) (A) (A) (A)
                 (A) (A) (A) (A) (A) (A) (A) (A) (A) (A) (A) (A)
                 (A) (A) (A) (A) (A) (A) (A) (A) (A) (A)
 The electronic state of the initial guess is 1-A.
 Requested convergence on RMS density matrix=1.00D-08 within 128 cycles.
 Requested convergence on MAX density matrix=1.00D-06.
 Requested convergence on             energy=1.00D-06.
 No special actions if energy rises.
 Error on total polarization charges =  0.03332
 SCF Done:  E(RmPW1PW91) =  -960.723000096     A.U. after   13 cycles
             Convg  =    0.3814D-08             -V/T =  2.0092
 SMD-CDS (non-electrostatic) energy       (kcal/mol) =      -4.03
 (included in total energy above)
 Range of M.O.s used for correlation:     1   410
 NBasis=   410 NAE=    76 NBE=    76 NFC=     0 NFV=     0
 NROrb=    410 NOA=    76 NOB=    76 NVA=   334 NVB=   334
 NEqPCM:  Using equilibrium solvation (IEInf=0, Eps=   4.7113, EpsInf=   2.0906)
          Differentiating once with respect to magnetic field using GIAOs.
          Electric field/nuclear overlap derivatives assumed to be zero.
 FoFCou: FMM=F IPFlag=           0 FMFlag=    10101102 FMFlg1=           0
         NFxFlg=    40000000 DoJE=F BraDBF=F KetDBF=T FulRan=T
         Omega=  0.000000  0.000000  1.000000  0.000000  0.000000 ICntrl=    6100 IOpCl=  0
         NMat0=    1 NMatS0=    1 NMatT0=    0 NMatD0=    1 NMtDS0=    0 NMtDT0=    0
         I1Cent=           7 NGrid=        2618.
 Symmetry not used in FoFCou.
          There are     3 degrees of freedom in the 1st order CPHF.  IDoFFX=0.
      3 vectors produced by pass  0 Test12= 8.46D-13 3.33D-08 XBig12= 3.83D+01 9.32D-01.
 AX will form     3 AO Fock derivatives at one time.
      3 vectors produced by pass  1 Test12= 8.46D-13 3.33D-08 XBig12= 6.82D-02 1.53D-01.
      3 vectors produced by pass  2 Test12= 8.46D-13 3.33D-08 XBig12= 8.80D-04 1.49D-02.
      3 vectors produced by pass  3 Test12= 8.46D-13 3.33D-08 XBig12= 5.08D-06 7.75D-04.
      3 vectors produced by pass  4 Test12= 8.46D-13 3.33D-08 XBig12= 5.41D-08 1.09D-04.
      3 vectors produced by pass  5 Test12= 8.46D-13 3.33D-08 XBig12= 4.02D-10 4.96D-06.
      3 vectors produced by pass  6 Test12= 8.46D-13 3.33D-08 XBig12= 1.98D-12 2.02D-07.
 Inverted reduced A of dimension    21 with in-core refinement.
 Calculating GIAO nuclear magnetic shielding tensors.
 SCF GIAO Magnetic shielding tensor (ppm):
      1  C    Isotropic =   149.0955   Anisotropy =    16.0457
   XX=   158.7852   YX=    -7.1828   ZX=    -4.5196
   XY=     8.1675   YY=   146.9375   ZY=    -6.0890
   XZ=    -3.5870   YZ=     0.2027   ZZ=   141.5640
   Eigenvalues:   139.6060   147.8879   159.7927
      2  C    Isotropic =   158.8679   Anisotropy =    22.3412
   XX=   153.3740   YX=     1.5739   ZX=    -3.5700
   XY=   -10.8202   YY=   161.8938   ZY=     8.6132
   XZ=    -5.8205   YZ=    11.4160   ZZ=   161.3358
   Eigenvalues:   151.1989   151.6427   173.7620
      3  C    Isotropic =   168.5134   Anisotropy =    18.7078
   XX=   174.4805   YX=   -11.3335   ZX=    -3.8565
   XY=    -7.4167   YY=   167.2934   ZY=    -3.9488
   XZ=    -0.6439   YZ=     0.9020   ZZ=   163.7663
   Eigenvalues:   159.3739   165.1810   180.9853
      4  C    Isotropic =    97.6581   Anisotropy =    38.4287
   XX=   115.0553   YX=    14.4709   ZX=    -9.3532
   XY=     9.9689   YY=   105.0056   ZY=     8.1981
   XZ=    -8.2462   YZ=    13.7261   ZZ=    72.9133
   Eigenvalues:    66.4324   103.2646   123.2772
      5  C    Isotropic =   112.7809   Anisotropy =    56.7949
   XX=   104.2838   YX=   -12.3304   ZX=     9.7126
   XY=    -1.2852   YY=   114.1260   ZY=   -29.3807
   XZ=    11.5217   YZ=   -30.8874   ZZ=   119.9328
   Eigenvalues:    86.4674   101.2311   150.6441
      6  C    Isotropic =   144.9820   Anisotropy =    25.4922
   XX=   134.7636   YX=     2.2175   ZX=     4.7358
   XY=     5.5444   YY=   158.7016   ZY=    -4.0401
   XZ=     1.3578   YZ=   -11.6421   ZZ=   141.4809
   Eigenvalues:   131.8307   141.1386   161.9769
      7  C    Isotropic =   157.4872   Anisotropy =    16.8726
   XX=   162.8409   YX=    -2.3976   ZX=    -0.8191
   XY=   -13.8938   YY=   156.7698   ZY=    -3.4447
   XZ=     1.5734   YZ=    -2.2216   ZZ=   152.8508
   Eigenvalues:   149.6352   154.0907   168.7356
      8  C    Isotropic =   161.6515   Anisotropy =    20.8941
   XX=   174.0152   YX=     7.4328   ZX=    -3.8122
   XY=     0.1263   YY=   158.1114   ZY=     2.1749
   XZ=    -4.2092   YZ=    -3.2236   ZZ=   152.8280
   Eigenvalues:   152.0892   157.2845   175.5809
      9  C    Isotropic =   170.2605   Anisotropy =    16.4683
   XX=   168.8903   YX=     5.4921   ZX=     1.1534
   XY=    10.6746   YY=   175.0107   ZY=    -3.4292
   XZ=    -0.0011   YZ=    -4.6565   ZZ=   166.8805
   Eigenvalues:   161.6811   167.8610   181.2394
     10  C    Isotropic =   180.0449   Anisotropy =    18.1506
   XX=   188.9126   YX=    -0.5023   ZX=    -5.6169
   XY=    -1.9759   YY=   174.8376   ZY=     8.2242
   XZ=    -5.6356   YZ=     7.5093   ZZ=   176.3844
   Eigenvalues:   167.2986   180.6908   192.1453
     11  C    Isotropic =   157.9202   Anisotropy =    34.8154
   XX=   160.2367   YX=    10.9844   ZX=     8.0290
   XY=    11.0065   YY=   172.9395   ZY=     4.5629
   XZ=     8.1460   YZ=     5.8953   ZZ=   140.5844
   Eigenvalues:   137.6346   154.9955   181.1305
     12  C    Isotropic =   175.3636   Anisotropy =    30.9603
   XX=   175.3873   YX=    12.5522   ZX=     0.9445
   XY=    16.0779   YY=   186.0121   ZY=    -1.7173
   XZ=     3.6783   YZ=     1.0522   ZZ=   164.6915
   Eigenvalues:   162.9217   167.1654   196.0038
     13  C    Isotropic =    90.0580   Anisotropy =    24.7651
   XX=    83.3670   YX=     9.0911   ZX=    -5.1041
   XY=     0.2818   YY=    85.9081   ZY=    -7.6187
   XZ=   -12.5420   YZ=    -2.3245   ZZ=   100.8989
   Eigenvalues:    78.6648    84.9411   106.5681
     14  C    Isotropic =   170.0423   Anisotropy =    41.8866
   XX=   166.3215   YX=   -17.2122   ZX=    -0.9346
   XY=   -17.2040   YY=   187.8967   ZY=     5.4567
   XZ=    -2.7904   YZ=     3.4528   ZZ=   155.9089
   Eigenvalues:   155.1906   156.9697   197.9667
     15  O    Isotropic =   219.9812   Anisotropy =   105.9295
   XX=   274.0320   YX=    24.5170   ZX=    -5.8961
   XY=    44.5921   YY=   214.9714   ZY=    12.1819
   XZ=   -19.1861   YZ=     0.4899   ZZ=   170.9401
   Eigenvalues:   166.5911   202.7516   290.6008
     16  O    Isotropic =   117.0562   Anisotropy =   182.8832
   XX=   113.0395   YX=  -153.8805   ZX=   -79.3055
   XY=   -81.4560   YY=   128.8081   ZY=   -52.8775
   XZ=   -78.8473   YZ=   -86.3222   ZZ=   109.3210
   Eigenvalues:   -61.8088   173.9990   238.9783
     17  H    Isotropic =    29.8195   Anisotropy =     4.5495
   XX=    29.4702   YX=     1.1023   ZX=    -2.1016
   XY=     0.3867   YY=    28.2925   ZY=     1.1477
   XZ=    -1.1897   YZ=     2.0787   ZZ=    31.6958
   Eigenvalues:    26.9056    29.7004    32.8525
     18  H    Isotropic =    28.3452   Anisotropy =     5.3162
   XX=    30.7083   YX=     0.0465   ZX=    -0.6901
   XY=    -0.7292   YY=    27.0326   ZY=    -4.7426
   XZ=    -0.1130   YZ=    -4.7008   ZZ=    27.2948
   Eigenvalues:    22.4070    30.7393    31.8894
     19  H    Isotropic =    29.9875   Anisotropy =     6.1822
   XX=    28.8266   YX=    -0.5624   ZX=    -3.8343
   XY=    -1.2913   YY=    29.9086   ZY=    -1.7907
   XZ=    -3.5969   YZ=    -1.5941   ZZ=    31.2273
   Eigenvalues:    25.4298    30.4237    34.1089
     20  H    Isotropic =    29.7599   Anisotropy =     8.9178
   XX=    32.9188   YX=     2.6005   ZX=     2.2258
   XY=     2.4236   YY=    32.7060   ZY=     0.8085
   XZ=     2.3803   YZ=     0.4982   ZZ=    23.6550
   Eigenvalues:    23.1136    30.4610    35.7052
     21  H    Isotropic =    25.5049   Anisotropy =     1.9403
   XX=    25.4185   YX=     0.2778   ZX=     0.5162
   XY=     0.5856   YY=    26.3516   ZY=    -1.5975
   XZ=     0.6299   YZ=    -0.2660   ZZ=    24.7446
   Eigenvalues:    23.9755    25.7408    26.7984
     22  H    Isotropic =    30.0996   Anisotropy =     3.9942
   XX=    29.4234   YX=    -0.1063   ZX=     0.6317
   XY=     0.4422   YY=    29.9017   ZY=     2.2743
   XZ=     0.1997   YZ=     2.1354   ZZ=    30.9738
   Eigenvalues:    28.1560    29.3805    32.7624
     23  H    Isotropic =    30.1520   Anisotropy =     3.8499
   XX=    27.7427   YX=     0.2945   ZX=    -0.1204
   XY=     1.2560   YY=    30.0244   ZY=    -0.2624
   XZ=    -0.6414   YZ=     0.3087   ZZ=    32.6890
   Eigenvalues:    27.4778    30.2596    32.7186
     24  H    Isotropic =    30.0865   Anisotropy =     9.7734
   XX=    30.2363   YX=    -1.9112   ZX=     1.9304
   XY=    -1.6425   YY=    33.3050   ZY=    -4.5911
   XZ=     2.1412   YZ=    -4.4436   ZZ=    26.7181
   Eigenvalues:    24.2342    29.4232    36.6021
     25  H    Isotropic =    30.6327   Anisotropy =     7.3640
   XX=    29.7964   YX=    -0.4780   ZX=    -2.1087
   XY=     0.0304   YY=    32.5647   ZY=     4.2721
   XZ=    -2.0904   YZ=     3.4508   ZZ=    29.5369
   Eigenvalues:    26.1509    30.2051    35.5420
     26  H    Isotropic =    29.7696   Anisotropy =     9.6823
   XX=    35.9092   YX=    -0.9669   ZX=    -1.8318
   XY=    -0.8384   YY=    30.5215   ZY=    -1.6429
   XZ=    -1.6188   YZ=    -1.2570   ZZ=    22.8781
   Eigenvalues:    22.3563    30.7280    36.2244
     27  H    Isotropic =    30.5089   Anisotropy =     5.9896
   XX=    29.0374   YX=     0.9801   ZX=     3.4093
   XY=     0.5796   YY=    29.7918   ZY=    -0.1293
   XZ=     2.8661   YZ=    -0.5398   ZZ=    32.6976
   Eigenvalues:    26.9821    30.0427    34.5020
     28  H    Isotropic =    30.1756   Anisotropy =    11.3716
   XX=    33.1352   YX=     5.3534   ZX=    -2.1832
   XY=     4.4655   YY=    30.9745   ZY=    -1.2960
   XZ=    -3.1943   YZ=    -0.8185   ZZ=    26.4170
   Eigenvalues:    25.3327    27.4374    37.7567
     29  H    Isotropic =    30.4415   Anisotropy =     7.8947
   XX=    33.8881   YX=    -1.0662   ZX=     2.8138
   XY=    -1.6228   YY=    28.8153   ZY=    -2.4434
   XZ=     2.3543   YZ=    -2.6949   ZZ=    28.6212
   Eigenvalues:    26.0131    29.6069    35.7047
     30  H    Isotropic =    31.1406   Anisotropy =     9.7928
   XX=    31.5221   YX=    -0.7397   ZX=    -4.0610
   XY=    -0.7255   YY=    28.9806   ZY=     3.7902
   XZ=    -4.0240   YZ=     3.7292   ZZ=    32.9192
   Eigenvalues:    26.1344    29.6183    37.6692
     31  H    Isotropic =    29.0591   Anisotropy =     7.7779
   XX=    28.8039   YX=    -0.3618   ZX=     4.3855
   XY=    -0.4026   YY=    27.1994   ZY=    -0.1583
   XZ=     3.7110   YZ=    -0.5491   ZZ=    31.1741
   Eigenvalues:    25.7646    27.1684    34.2444
     32  H    Isotropic =    29.5063   Anisotropy =     8.9828
   XX=    34.7758   YX=    -2.1225   ZX=    -1.5631
   XY=    -1.3500   YY=    30.3131   ZY=     0.0805
   XZ=    -0.8688   YZ=     0.3400   ZZ=    23.4300
   Eigenvalues:    23.3010    29.7231    35.4948
     33  H    Isotropic =    30.8043   Anisotropy =    11.0259
   XX=    28.2264   YX=     0.7213   ZX=     0.4391
   XY=    -0.1362   YY=    35.8236   ZY=    -5.0609
   XZ=     0.6193   YZ=    -4.4945   ZZ=    28.3630
   Eigenvalues:    25.8766    28.3815    38.1549
     34  H    Isotropic =    30.4158   Anisotropy =     9.2659
   XX=    34.7510   YX=     0.9878   ZX=    -3.4090
   XY=     2.6251   YY=    31.0309   ZY=    -1.6766
   XZ=    -2.8793   YZ=    -1.5032   ZZ=    25.4656
   Eigenvalues:    24.3446    30.3099    36.5931
     35  H    Isotropic =    31.1486   Anisotropy =     8.8578
   XX=    28.6117   YX=     2.2616   ZX=     1.9744
   XY=     2.1306   YY=    32.9919   ZY=     4.0866
   XZ=     1.4586   YZ=     3.2600   ZZ=    31.8421
   Eigenvalues:    27.6797    28.7123    37.0538
     36  H    Isotropic =    30.1134   Anisotropy =     9.4531
   XX=    31.7781   YX=    -2.0432   ZX=    -4.4347
   XY=    -2.9358   YY=    29.1277   ZY=     2.2621
   XZ=    -4.4166   YZ=     1.0882   ZZ=    29.4342
   Eigenvalues:    26.0109    27.9137    36.4154
     37  H    Isotropic =    30.2238   Anisotropy =    10.0026
   XX=    29.9224   YX=    -3.6495   ZX=     3.6402
   XY=    -4.5997   YY=    31.1841   ZY=    -2.9845
   XZ=     2.9271   YZ=    -1.8205   ZZ=    29.5650
   Eigenvalues:    25.9201    27.8591    36.8922
     38  H    Isotropic =    30.3267   Anisotropy =     9.5381
   XX=    28.9229   YX=    -0.0332   ZX=     0.4607
   XY=     1.5749   YY=    35.8787   ZY=     3.1317
   XZ=     0.8157   YZ=     2.2674   ZZ=    26.1786
   Eigenvalues:    25.4254    28.8693    36.6855
     39  C    Isotropic =    21.6115   Anisotropy =    93.7630
   XX=   -30.2278   YX=    31.1328   ZX=    60.0333
   XY=    21.8692   YY=    62.8697   ZY=   -34.7010
   XZ=    48.1313   YZ=   -30.2715   ZZ=    32.1925
   Eigenvalues:   -72.9106    53.6249    84.1201
     40  O    Isotropic =   -97.0524   Anisotropy =   607.2010
   XX=  -407.8212   YX=   -84.8707   ZX=    18.7295
   XY=   -30.7660   YY=   142.1641   ZY=  -225.0943
   XZ=     8.2768   YZ=  -235.6828   ZZ=   -25.5001
   Eigenvalues:  -414.2013  -184.7041   307.7483
     41  O    Isotropic =    51.6650   Anisotropy =   349.3605
   XX=    33.1455   YX=   -40.6898   ZX=   -98.3589
   XY=   -93.6211   YY=   210.1003   ZY=   101.0194
   XZ=   -99.6723   YZ=   120.8442   ZZ=   -88.2507
   Eigenvalues:  -156.6913    27.1144   284.5721
     42  O    Isotropic =    41.7709   Anisotropy =   225.3652
   XX=    13.9447   YX=   -99.2704   ZX=    33.0738
   XY=   -81.5123   YY=   131.4515   ZY=    63.3322
   XZ=    15.1730   YZ=    71.8897   ZZ=   -20.0833
   Eigenvalues:   -85.4602    18.7586   192.0144
 End of Minotr Frequency-dependent properties file   721 does not exist.
 End of Minotr Frequency-dependent properties file   722 does not exist.

 **********************************************************************

            Population analysis using the SCF density.

 **********************************************************************

 Orbital symmetries:
       Occupied  (A) (A) (A) (A) (A) (A) (A) (A) (A) (A) (A) (A)
                 (A) (A) (A) (A) (A) (A) (A) (A) (A) (A) (A) (A)
                 (A) (A) (A) (A) (A) (A) (A) (A) (A) (A) (A) (A)
                 (A) (A) (A) (A) (A) (A) (A) (A) (A) (A) (A) (A)
                 (A) (A) (A) (A) (A) (A) (A) (A) (A) (A) (A) (A)
                 (A) (A) (A) (A) (A) (A) (A) (A) (A) (A) (A) (A)
                 (A) (A) (A) (A)
       Virtual   (A) (A) (A) (A) (A) (A) (A) (A) (A) (A) (A) (A)
                 (A) (A) (A) (A) (A) (A) (A) (A) (A) (A) (A) (A)
                 (A) (A) (A) (A) (A) (A) (A) (A) (A) (A) (A) (A)
                 (A) (A) (A) (A) (A) (A) (A) (A) (A) (A) (A) (A)
                 (A) (A) (A) (A) (A) (A) (A) (A) (A) (A) (A) (A)
                 (A) (A) (A) (A) (A) (A) (A) (A) (A) (A) (A) (A)
                 (A) (A) (A) (A) (A) (A) (A) (A) (A) (A) (A) (A)
                 (A) (A) (A) (A) (A) (A) (A) (A) (A) (A) (A) (A)
                 (A) (A) (A) (A) (A) (A) (A) (A) (A) (A) (A) (A)
                 (A) (A) (A) (A) (A) (A) (A) (A) (A) (A) (A) (A)
                 (A) (A) (A) (A) (A) (A) (A) (A) (A) (A) (A) (A)
                 (A) (A) (A) (A) (A) (A) (A) (A) (A) (A) (A) (A)
                 (A) (A) (A) (A) (A) (A) (A) (A) (A) (A) (A) (A)
                 (A) (A) (A) (A) (A) (A) (A) (A) (A) (A) (A) (A)
                 (A) (A) (A) (A) (A) (A) (A) (A) (A) (A) (A) (A)
                 (A) (A) (A) (A) (A) (A) (A) (A) (A) (A) (A) (A)
                 (A) (A) (A) (A) (A) (A) (A) (A) (A) (A) (A) (A)
                 (A) (A) (A) (A) (A) (A) (A) (A) (A) (A) (A) (A)
                 (A) (A) (A) (A) (A) (A) (A) (A) (A) (A) (A) (A)
                 (A) (A) (A) (A) (A) (A) (A) (A) (A) (A) (A) (A)
                 (A) (A) (A) (A) (A) (A) (A) (A) (A) (A) (A) (A)
                 (A) (A) (A) (A) (A) (A) (A) (A) (A) (A) (A) (A)
                 (A) (A) (A) (A) (A) (A) (A) (A) (A) (A) (A) (A)
                 (A) (A) (A) (A) (A) (A) (A) (A) (A) (A) (A) (A)
                 (A) (A) (A) (A) (A) (A) (A) (A) (A) (A) (A) (A)
                 (A) (A) (A) (A) (A) (A) (A) (A) (A) (A) (A) (A)
                 (A) (A) (A) (A) (A) (A) (A) (A) (A) (A) (A) (A)
                 (A) (A) (A) (A) (A) (A) (A) (A) (A) (A)
 The electronic state is 1-A.
 Alpha  occ. eigenvalues --  -19.30670 -19.30362 -19.28384 -19.26729 -19.22705
 Alpha  occ. eigenvalues --  -10.37891 -10.37251 -10.36028 -10.32111 -10.26163
 Alpha  occ. eigenvalues --  -10.26062 -10.25447 -10.24795 -10.24257 -10.24155
 Alpha  occ. eigenvalues --  -10.24035 -10.23901 -10.23568 -10.23093 -10.22816
 Alpha  occ. eigenvalues --   -1.17060  -1.13229  -1.07901  -1.03810  -0.96546
 Alpha  occ. eigenvalues --   -0.86917  -0.83332  -0.81300  -0.78120  -0.77105
 Alpha  occ. eigenvalues --   -0.74494  -0.71593  -0.69753  -0.66950  -0.65921
 Alpha  occ. eigenvalues --   -0.62648  -0.61055  -0.59599  -0.58646  -0.55619
 Alpha  occ. eigenvalues --   -0.54010  -0.53281  -0.50900  -0.49221  -0.48660
 Alpha  occ. eigenvalues --   -0.47271  -0.46811  -0.45459  -0.45312  -0.44558
 Alpha  occ. eigenvalues --   -0.43658  -0.42958  -0.42421  -0.41757  -0.41037
 Alpha  occ. eigenvalues --   -0.40726  -0.40010  -0.39799  -0.39371  -0.38805
 Alpha  occ. eigenvalues --   -0.38384  -0.37132  -0.36464  -0.35789  -0.35527
 Alpha  occ. eigenvalues --   -0.34731  -0.34431  -0.33328  -0.33224  -0.32726
 Alpha  occ. eigenvalues --   -0.30986  -0.30542  -0.30179  -0.28843  -0.27802
 Alpha  occ. eigenvalues --   -0.26748
 Alpha virt. eigenvalues --    0.00512   0.01696   0.08899   0.09862   0.10600
 Alpha virt. eigenvalues --    0.11530   0.12806   0.13609   0.14017   0.14425
 Alpha virt. eigenvalues --    0.15195   0.15858   0.16339   0.16939   0.17147
 Alpha virt. eigenvalues --    0.17403   0.18505   0.18788   0.18914   0.19067
 Alpha virt. eigenvalues --    0.20078   0.20468   0.20872   0.21228   0.21648
 Alpha virt. eigenvalues --    0.22158   0.22488   0.22961   0.23320   0.23733
 Alpha virt. eigenvalues --    0.25081   0.25829   0.25949   0.26297   0.27695
 Alpha virt. eigenvalues --    0.28352   0.29115   0.29235   0.30114   0.30286
 Alpha virt. eigenvalues --    0.31730   0.32419   0.34252   0.36229   0.37541
 Alpha virt. eigenvalues --    0.39286   0.49818   0.50136   0.52392   0.53307
 Alpha virt. eigenvalues --    0.54577   0.55033   0.55578   0.56438   0.58124
 Alpha virt. eigenvalues --    0.58699   0.59709   0.60001   0.60462   0.60889
 Alpha virt. eigenvalues --    0.61417   0.62670   0.63472   0.64300   0.65577
 Alpha virt. eigenvalues --    0.66365   0.66915   0.67140   0.68739   0.69741
 Alpha virt. eigenvalues --    0.70072   0.70758   0.72154   0.73120   0.74094
 Alpha virt. eigenvalues --    0.75140   0.76863   0.77793   0.78760   0.79463
 Alpha virt. eigenvalues --    0.81147   0.81826   0.82694   0.83553   0.85236
 Alpha virt. eigenvalues --    0.85827   0.86353   0.86746   0.87389   0.88362
 Alpha virt. eigenvalues --    0.89104   0.89723   0.90205   0.90494   0.91098
 Alpha virt. eigenvalues --    0.91386   0.91693   0.92437   0.92658   0.93576
 Alpha virt. eigenvalues --    0.93918   0.94511   0.94975   0.95941   0.96085
 Alpha virt. eigenvalues --    0.96443   0.97568   0.98170   0.98728   1.00118
 Alpha virt. eigenvalues --    1.00704   1.01025   1.03202   1.05050   1.05902
 Alpha virt. eigenvalues --    1.06634   1.07188   1.10549   1.11156   1.12847
 Alpha virt. eigenvalues --    1.14249   1.15767   1.18166   1.19398   1.20615
 Alpha virt. eigenvalues --    1.21920   1.22378   1.24219   1.25586   1.27253
 Alpha virt. eigenvalues --    1.28571   1.29817   1.33971   1.36381   1.37287
 Alpha virt. eigenvalues --    1.38306   1.41127   1.42482   1.45354   1.46696
 Alpha virt. eigenvalues --    1.47785   1.48592   1.50886   1.51588   1.53310
 Alpha virt. eigenvalues --    1.54032   1.56242   1.56994   1.59020   1.62414
 Alpha virt. eigenvalues --    1.63056   1.64639   1.65795   1.66780   1.68466
 Alpha virt. eigenvalues --    1.68915   1.71265   1.71612   1.72713   1.72927
 Alpha virt. eigenvalues --    1.75311   1.77070   1.78076   1.78649   1.79916
 Alpha virt. eigenvalues --    1.81725   1.82710   1.83510   1.83723   1.84385
 Alpha virt. eigenvalues --    1.85387   1.86929   1.87873   1.88321   1.88422
 Alpha virt. eigenvalues --    1.88924   1.89612   1.91094   1.91977   1.92814
 Alpha virt. eigenvalues --    1.93372   1.93638   1.95333   1.96137   1.96831
 Alpha virt. eigenvalues --    1.98785   1.99710   2.00272   2.01384   2.02462
 Alpha virt. eigenvalues --    2.03643   2.03784   2.04571   2.05539   2.06346
 Alpha virt. eigenvalues --    2.06929   2.07603   2.08533   2.08794   2.10020
 Alpha virt. eigenvalues --    2.10137   2.10950   2.11565   2.13153   2.13759
 Alpha virt. eigenvalues --    2.14452   2.15336   2.17604   2.17888   2.18616
 Alpha virt. eigenvalues --    2.19155   2.20416   2.21501   2.22856   2.24518
 Alpha virt. eigenvalues --    2.25057   2.25960   2.27362   2.28567   2.29046
 Alpha virt. eigenvalues --    2.29481   2.31834   2.33054   2.34592   2.35604
 Alpha virt. eigenvalues --    2.36605   2.37625   2.38142   2.39137   2.40560
 Alpha virt. eigenvalues --    2.41107   2.41572   2.42818   2.47201   2.47767
 Alpha virt. eigenvalues --    2.50451   2.50992   2.52078   2.53730   2.54793
 Alpha virt. eigenvalues --    2.56794   2.57062   2.58690   2.60007   2.61114
 Alpha virt. eigenvalues --    2.62964   2.64431   2.65885   2.66495   2.68747
 Alpha virt. eigenvalues --    2.69271   2.69729   2.70908   2.72030   2.73795
 Alpha virt. eigenvalues --    2.74009   2.75280   2.76685   2.77051   2.78321
 Alpha virt. eigenvalues --    2.78646   2.79174   2.79620   2.81009   2.82552
 Alpha virt. eigenvalues --    2.82958   2.83661   2.85817   2.87159   2.88123
 Alpha virt. eigenvalues --    2.88874   2.90304   2.90581   2.92483   2.93196
 Alpha virt. eigenvalues --    2.93829   2.94630   2.95113   2.95878   2.96489
 Alpha virt. eigenvalues --    2.97589   2.98432   2.99410   3.00680   3.03002
 Alpha virt. eigenvalues --    3.07059   3.08529   3.10482   3.15237   3.18136
 Alpha virt. eigenvalues --    3.20802   3.23392   3.24341   3.26116   3.28482
 Alpha virt. eigenvalues --    3.29353   3.33562   3.36007   3.36667   3.37392
 Alpha virt. eigenvalues --    3.39937   3.45061   3.46132   3.47076   3.47836
 Alpha virt. eigenvalues --    3.48952   3.49969   3.51243   3.51762   3.52862
 Alpha virt. eigenvalues --    3.53514   3.56461   3.57505   3.60233   3.96424
 Alpha virt. eigenvalues --    4.06889   4.19760   4.25667   4.37895   4.41624
 Alpha virt. eigenvalues --    4.47530   4.52426   4.54585   4.56321   4.57221
 Alpha virt. eigenvalues --    4.60039   4.66166   4.69833   4.79684   4.83669
 Alpha virt. eigenvalues --    4.86184   4.91533   4.94126   5.26664
          Condensed to atoms (all electrons):
              1          2          3          4          5          6
     1  C    5.163251   0.298134   0.004370  -0.040722   0.341149  -0.058638
     2  C    0.298134   5.296634  -0.000134  -0.019898  -0.033266   0.005322
     3  C    0.004370  -0.000134   5.050865  -0.008547  -0.030435   0.344966
     4  C   -0.040722  -0.019898  -0.008547   4.675663   0.281116  -0.042926
     5  C    0.341149  -0.033266  -0.030435   0.281116   5.162109   0.348145
     6  C   -0.058638   0.005322   0.344966  -0.042926   0.348145   5.060721
     7  C   -0.012025   0.000107  -0.040925  -0.003342  -0.032331   0.342709
     8  C   -0.040727   0.004678   0.004743  -0.000904  -0.010697  -0.047891
     9  C    0.336136  -0.048541   0.000042  -0.002860  -0.043955  -0.007557
    10  C   -0.049454   0.335591   0.000001   0.000354   0.004929  -0.000096
    11  C    0.000101  -0.000011   0.324748  -0.004465  -0.013905  -0.038124
    12  C    0.000177   0.000007  -0.004996   0.000013   0.004055  -0.042805
    13  C    0.000163   0.000137  -0.033989  -0.022904  -0.005745  -0.009951
    14  C    0.000006  -0.000001   0.003682   0.003325   0.000546   0.000029
    15  O    0.002830  -0.000296  -0.000686   0.228147  -0.021614  -0.002159
    16  O   -0.000933  -0.094824   0.000084   0.150116  -0.030078   0.002234
    17  H    0.392839  -0.035942  -0.000070   0.004894  -0.035266  -0.005896
    18  H   -0.035485   0.387861  -0.000006  -0.000880  -0.004629   0.000246
    19  H   -0.000090   0.000001   0.390973   0.003117  -0.005314  -0.041199
    20  H   -0.000107   0.000002   0.385391  -0.000035   0.004345  -0.027811
    21  H   -0.007503   0.001552  -0.000375   0.414301  -0.044395  -0.002145
    22  H   -0.005702  -0.000061  -0.043490   0.004833  -0.037487   0.388605
    23  H   -0.001049   0.000006  -0.007141   0.001926  -0.006701  -0.041344
    24  H    0.004701  -0.000150  -0.000117  -0.000004   0.000312   0.004713
    25  H   -0.005112  -0.000007  -0.000038   0.000092  -0.001323  -0.005021
    26  H   -0.028777  -0.006290   0.000007  -0.000056   0.004714  -0.000022
    27  H   -0.037721  -0.003912  -0.000016   0.002938  -0.008187  -0.000539
    28  H    0.004598  -0.027115   0.000000  -0.000008  -0.000137   0.000002
    29  H   -0.006410  -0.032057   0.000000  -0.000022   0.000004  -0.000002
    30  H   -0.002594  -0.032995   0.000000  -0.000019   0.000070  -0.000005
    31  H   -0.000030   0.000000  -0.032013   0.000586  -0.001546  -0.002671
    32  H    0.000007   0.000000  -0.033851  -0.000068   0.000100   0.004386
    33  H    0.000000   0.000000   0.000065   0.000000  -0.000099   0.004343
    34  H   -0.000005   0.000000   0.003723  -0.000009  -0.000010  -0.005929
    35  H   -0.000034   0.000000  -0.001197   0.000003   0.000055  -0.005603
    36  H    0.000000   0.000000   0.000063   0.000045   0.000031  -0.000004
    37  H   -0.000001   0.000000   0.000091  -0.000165   0.000014  -0.000004
    38  H    0.000000   0.000000  -0.000190  -0.000010   0.000023   0.000001
    39  C   -0.023563   0.314752  -0.000012  -0.002455  -0.013848   0.000287
    40  O    0.001807  -0.095278   0.000000   0.000448   0.000092   0.000002
    41  O   -0.049573  -0.002559  -0.006236  -0.026471   0.091443  -0.051082
    42  O    0.002764   0.000007   0.001662  -0.011055  -0.015112   0.001635
              7          8          9         10         11         12
     1  C   -0.012025  -0.040727   0.336136  -0.049454   0.000101   0.000177
     2  C    0.000107   0.004678  -0.048541   0.335591  -0.000011   0.000007
     3  C   -0.040925   0.004743   0.000042   0.000001   0.324748  -0.004996
     4  C   -0.003342  -0.000904  -0.002860   0.000354  -0.004465   0.000013
     5  C   -0.032331  -0.010697  -0.043955   0.004929  -0.013905   0.004055
     6  C    0.342709  -0.047891  -0.007557  -0.000096  -0.038124  -0.042805
     7  C    5.005415   0.366121  -0.045258  -0.000004   0.004521   0.355968
     8  C    0.366121   5.029471   0.350604   0.000111  -0.000128  -0.054407
     9  C   -0.045258   0.350604   5.056150  -0.005584  -0.000016   0.005142
    10  C   -0.000004   0.000111  -0.005584   5.031245   0.000000   0.000000
    11  C    0.004521  -0.000128  -0.000016   0.000000   5.150696   0.000210
    12  C    0.355968  -0.054407   0.005142   0.000000   0.000210   5.049579
    13  C    0.000194  -0.000012   0.000029   0.000000   0.339021  -0.000002
    14  C    0.000002   0.000000   0.000000   0.000000  -0.067280   0.000000
    15  O   -0.000297   0.000006  -0.000023   0.000001  -0.073178   0.000001
    16  O   -0.000014   0.000022  -0.000723   0.003396  -0.000260   0.000000
    17  H   -0.000714  -0.003290  -0.042001  -0.004147   0.000009  -0.000060
    18  H   -0.000015  -0.000118   0.005005  -0.035639   0.000008   0.000000
    19  H   -0.005472   0.000271  -0.000027   0.000000  -0.038736  -0.002013
    20  H   -0.004092  -0.000115   0.000001   0.000000  -0.030848   0.001865
    21  H    0.001627  -0.000433   0.002610   0.000039   0.000230  -0.000074
    22  H   -0.038893  -0.003811  -0.000320  -0.000004  -0.000217  -0.006575
    23  H    0.395501  -0.045657  -0.002603   0.000000   0.000018  -0.041634
    24  H   -0.031978   0.385529  -0.033774   0.000002   0.000002  -0.004843
    25  H   -0.040957   0.389214  -0.040251  -0.000019   0.000000  -0.004886
    26  H    0.004664  -0.032535   0.387631   0.003145   0.000000  -0.000167
    27  H   -0.004769  -0.037575   0.390160  -0.000763  -0.000001  -0.000009
    28  H    0.000000  -0.000003   0.000218   0.383838   0.000000   0.000000
    29  H    0.000000  -0.000007   0.002467   0.390699   0.000000   0.000000
    30  H   -0.000001  -0.000062  -0.001353   0.380064   0.000000   0.000000
    31  H    0.000007   0.000003  -0.000001   0.000000   0.375554  -0.000016
    32  H   -0.000110   0.000002   0.000000   0.000000   0.384802   0.000003
    33  H   -0.031050  -0.005366   0.000092   0.000000  -0.000001   0.385805
    34  H   -0.028836   0.004909  -0.000185   0.000000  -0.000018   0.382604
    35  H   -0.035050  -0.005469   0.000030   0.000000  -0.000028   0.386961
    36  H    0.000000   0.000000   0.000000   0.000000  -0.005946   0.000000
    37  H    0.000000   0.000000   0.000000   0.000000  -0.000855   0.000000
    38  H    0.000000   0.000000   0.000000   0.000000   0.005709   0.000000
    39  C   -0.000008   0.000012  -0.004629  -0.039612   0.000026   0.000000
    40  O    0.000000   0.000000   0.000137   0.003478   0.000000   0.000000
    41  O    0.003237   0.000007   0.002990   0.000139   0.003808  -0.000053
    42  O   -0.000056   0.000000  -0.000075   0.000008  -0.057055   0.000000
             13         14         15         16         17         18
     1  C    0.000163   0.000006   0.002830  -0.000933   0.392839  -0.035485
     2  C    0.000137  -0.000001  -0.000296  -0.094824  -0.035942   0.387861
     3  C   -0.033989   0.003682  -0.000686   0.000084  -0.000070  -0.000006
     4  C   -0.022904   0.003325   0.228147   0.150116   0.004894  -0.000880
     5  C   -0.005745   0.000546  -0.021614  -0.030078  -0.035266  -0.004629
     6  C   -0.009951   0.000029  -0.002159   0.002234  -0.005896   0.000246
     7  C    0.000194   0.000002  -0.000297  -0.000014  -0.000714  -0.000015
     8  C   -0.000012   0.000000   0.000006   0.000022  -0.003290  -0.000118
     9  C    0.000029   0.000000  -0.000023  -0.000723  -0.042001   0.005005
    10  C    0.000000   0.000000   0.000001   0.003396  -0.004147  -0.035639
    11  C    0.339021  -0.067280  -0.073178  -0.000260   0.000009   0.000008
    12  C   -0.000002   0.000000   0.000001   0.000000  -0.000060   0.000000
    13  C    4.686084   0.388027   0.172491  -0.001235  -0.000015   0.000080
    14  C    0.388027   5.073368  -0.054219  -0.000151   0.000000  -0.000005
    15  O    0.172491  -0.054219   8.403215  -0.041705  -0.000053  -0.000007
    16  O   -0.001235  -0.000151  -0.041705   8.383292  -0.000326   0.000392
    17  H   -0.000015   0.000000  -0.000053  -0.000326   0.563222  -0.005893
    18  H    0.000080  -0.000005  -0.000007   0.000392  -0.005893   0.517712
    19  H   -0.007486   0.000158   0.006053   0.000012   0.000003   0.000000
    20  H    0.004556  -0.000113   0.000394   0.000001  -0.000003   0.000000
    21  H    0.004300  -0.000251  -0.037990  -0.045190  -0.000163   0.000002
    22  H   -0.000508  -0.000003  -0.000033  -0.000048   0.003897   0.000007
    23  H   -0.000023   0.000000  -0.000002  -0.000042   0.000092   0.000000
    24  H    0.000000   0.000000   0.000000   0.000000  -0.000004   0.000002
    25  H    0.000000   0.000000   0.000000   0.000000   0.004574   0.000001
    26  H    0.000000   0.000000   0.000000  -0.000009  -0.005056  -0.000065
    27  H   -0.000002   0.000000  -0.000016  -0.000217   0.005252  -0.000009
    28  H    0.000000   0.000000   0.000000   0.000029  -0.000053  -0.004407
    29  H    0.000000   0.000000   0.000000   0.000059  -0.000197   0.004364
    30  H    0.000000   0.000000   0.000000  -0.000042   0.003295  -0.002174
    31  H   -0.027554   0.000664   0.002929   0.000006   0.000000   0.000000
    32  H   -0.033467  -0.006086   0.001411   0.000001   0.000000   0.000000
    33  H    0.000000   0.000000   0.000000   0.000000   0.000001   0.000000
    34  H   -0.000002   0.000000  -0.000003   0.000000   0.000000   0.000000
    35  H    0.000000   0.000000   0.000000   0.000000  -0.000003   0.000000
    36  H   -0.021584   0.379810   0.000659   0.000004   0.000000   0.000000
    37  H   -0.025767   0.372673   0.003280   0.000002   0.000000   0.000000
    38  H   -0.024562   0.370750  -0.000017   0.000217   0.000000   0.000001
    39  C   -0.000034  -0.000002   0.000289   0.245960   0.003518  -0.033249
    40  O   -0.000004   0.000000  -0.000024  -0.072418  -0.000083  -0.000073
    41  O   -0.025759   0.003661  -0.003794   0.000203  -0.001827   0.009430
    42  O    0.179704  -0.043317  -0.046862  -0.000363  -0.000041   0.000174
             19         20         21         22         23         24
     1  C   -0.000090  -0.000107  -0.007503  -0.005702  -0.001049   0.004701
     2  C    0.000001   0.000002   0.001552  -0.000061   0.000006  -0.000150
     3  C    0.390973   0.385391  -0.000375  -0.043490  -0.007141  -0.000117
     4  C    0.003117  -0.000035   0.414301   0.004833   0.001926  -0.000004
     5  C   -0.005314   0.004345  -0.044395  -0.037487  -0.006701   0.000312
     6  C   -0.041199  -0.027811  -0.002145   0.388605  -0.041344   0.004713
     7  C   -0.005472  -0.004092   0.001627  -0.038893   0.395501  -0.031978
     8  C    0.000271  -0.000115  -0.000433  -0.003811  -0.045657   0.385529
     9  C   -0.000027   0.000001   0.002610  -0.000320  -0.002603  -0.033774
    10  C    0.000000   0.000000   0.000039  -0.000004   0.000000   0.000002
    11  C   -0.038736  -0.030848   0.000230  -0.000217   0.000018   0.000002
    12  C   -0.002013   0.001865  -0.000074  -0.006575  -0.041634  -0.004843
    13  C   -0.007486   0.004556   0.004300  -0.000508  -0.000023   0.000000
    14  C    0.000158  -0.000113  -0.000251  -0.000003   0.000000   0.000000
    15  O    0.006053   0.000394  -0.037990  -0.000033  -0.000002   0.000000
    16  O    0.000012   0.000001  -0.045190  -0.000048  -0.000042   0.000000
    17  H    0.000003  -0.000003  -0.000163   0.003897   0.000092  -0.000004
    18  H    0.000000   0.000000   0.000002   0.000007   0.000000   0.000002
    19  H    0.579827  -0.032967  -0.000060   0.005568   0.005581  -0.000005
    20  H   -0.032967   0.568500  -0.000019  -0.008478  -0.000062   0.000000
    21  H   -0.000060  -0.000019   0.523613  -0.000028   0.003321  -0.000012
    22  H    0.005568  -0.008478  -0.000028   0.583809   0.005583  -0.000033
    23  H    0.005581  -0.000062   0.003321   0.005583   0.598038  -0.005067
    24  H   -0.000005   0.000000  -0.000012  -0.000033  -0.005067   0.581449
    25  H    0.000008   0.000001   0.000005   0.003907   0.005733  -0.032574
    26  H    0.000000   0.000000  -0.000012  -0.000038  -0.000044  -0.002752
    27  H   -0.000005   0.000000   0.000868   0.000086   0.003127  -0.004531
    28  H    0.000000   0.000000  -0.000001   0.000000   0.000000   0.000000
    29  H    0.000000   0.000000   0.000000   0.000000   0.000000   0.000005
    30  H    0.000000   0.000000  -0.000001   0.000001   0.000000   0.000001
    31  H    0.005172  -0.005102   0.000001   0.002025   0.000005   0.000000
    32  H   -0.006345  -0.002286   0.000004  -0.000132  -0.000009   0.000000
    33  H   -0.000058   0.000004   0.000002  -0.000012  -0.003026   0.004133
    34  H    0.001388  -0.000111   0.000001  -0.000056  -0.004087  -0.000031
    35  H    0.000170   0.000636   0.000003   0.005069   0.005203  -0.000219
    36  H    0.000052  -0.000007  -0.000007   0.000000   0.000000   0.000000
    37  H    0.000000  -0.000004   0.000005   0.000000   0.000000   0.000000
    38  H   -0.000009   0.000002   0.000005   0.000000   0.000000   0.000000
    39  C    0.000001   0.000000  -0.001606  -0.000010   0.000000  -0.000001
    40  O    0.000000   0.000000   0.000365   0.000000   0.000000   0.000000
    41  O    0.000016  -0.000218   0.002124  -0.001041  -0.000047   0.000002
    42  O    0.000090  -0.000021   0.000225  -0.000117   0.000000   0.000000
             25         26         27         28         29         30
     1  C   -0.005112  -0.028777  -0.037721   0.004598  -0.006410  -0.002594
     2  C   -0.000007  -0.006290  -0.003912  -0.027115  -0.032057  -0.032995
     3  C   -0.000038   0.000007  -0.000016   0.000000   0.000000   0.000000
     4  C    0.000092  -0.000056   0.002938  -0.000008  -0.000022  -0.000019
     5  C   -0.001323   0.004714  -0.008187  -0.000137   0.000004   0.000070
     6  C   -0.005021  -0.000022  -0.000539   0.000002  -0.000002  -0.000005
     7  C   -0.040957   0.004664  -0.004769   0.000000   0.000000  -0.000001
     8  C    0.389214  -0.032535  -0.037575  -0.000003  -0.000007  -0.000062
     9  C   -0.040251   0.387631   0.390160   0.000218   0.002467  -0.001353
    10  C   -0.000019   0.003145  -0.000763   0.383838   0.390699   0.380064
    11  C    0.000000   0.000000  -0.000001   0.000000   0.000000   0.000000
    12  C   -0.004886  -0.000167  -0.000009   0.000000   0.000000   0.000000
    13  C    0.000000   0.000000  -0.000002   0.000000   0.000000   0.000000
    14  C    0.000000   0.000000   0.000000   0.000000   0.000000   0.000000
    15  O    0.000000   0.000000  -0.000016   0.000000   0.000000   0.000000
    16  O    0.000000  -0.000009  -0.000217   0.000029   0.000059  -0.000042
    17  H    0.004574  -0.005056   0.005252  -0.000053  -0.000197   0.003295
    18  H    0.000001  -0.000065  -0.000009  -0.004407   0.004364  -0.002174
    19  H    0.000008   0.000000  -0.000005   0.000000   0.000000   0.000000
    20  H    0.000001   0.000000   0.000000   0.000000   0.000000   0.000000
    21  H    0.000005  -0.000012   0.000868  -0.000001   0.000000  -0.000001
    22  H    0.003907  -0.000038   0.000086   0.000000   0.000000   0.000001
    23  H    0.005733  -0.000044   0.003127   0.000000   0.000000   0.000000
    24  H   -0.032574  -0.002752  -0.004531   0.000000   0.000005   0.000001
    25  H    0.590717  -0.004947   0.005354   0.000000   0.000007   0.000008
    26  H   -0.004947   0.559714  -0.030714  -0.000020   0.000654   0.000706
    27  H    0.005354  -0.030714   0.572468  -0.000033   0.000567   0.000108
    28  H    0.000000  -0.000020  -0.000033   0.549235  -0.027657  -0.027492
    29  H    0.000007   0.000654   0.000567  -0.027657   0.549648  -0.028266
    30  H    0.000008   0.000706   0.000108  -0.027492  -0.028266   0.566038
    31  H    0.000000   0.000000   0.000000   0.000000   0.000000   0.000000
    32  H    0.000000   0.000000   0.000000   0.000000   0.000000   0.000000
    33  H   -0.000256  -0.000004  -0.000001   0.000000   0.000000   0.000000
    34  H    0.000007   0.000002   0.000003   0.000000   0.000000   0.000000
    35  H    0.004215   0.000001   0.000001   0.000000   0.000000   0.000000
    36  H    0.000000   0.000000   0.000000   0.000000   0.000000   0.000000
    37  H    0.000000   0.000000   0.000000   0.000000   0.000000   0.000000
    38  H    0.000000   0.000000   0.000000   0.000000   0.000000   0.000000
    39  C    0.000003  -0.000394   0.005050  -0.004090  -0.005460   0.004476
    40  O    0.000000   0.000003  -0.000164   0.004209   0.002812   0.000474
    41  O   -0.000028  -0.000046  -0.000034   0.000001  -0.000006   0.000000
    42  O    0.000000   0.000001   0.000000   0.000000   0.000000   0.000000
             31         32         33         34         35         36
     1  C   -0.000030   0.000007   0.000000  -0.000005  -0.000034   0.000000
     2  C    0.000000   0.000000   0.000000   0.000000   0.000000   0.000000
     3  C   -0.032013  -0.033851   0.000065   0.003723  -0.001197   0.000063
     4  C    0.000586  -0.000068   0.000000  -0.000009   0.000003   0.000045
     5  C   -0.001546   0.000100  -0.000099  -0.000010   0.000055   0.000031
     6  C   -0.002671   0.004386   0.004343  -0.005929  -0.005603  -0.000004
     7  C    0.000007  -0.000110  -0.031050  -0.028836  -0.035050   0.000000
     8  C    0.000003   0.000002  -0.005366   0.004909  -0.005469   0.000000
     9  C   -0.000001   0.000000   0.000092  -0.000185   0.000030   0.000000
    10  C    0.000000   0.000000   0.000000   0.000000   0.000000   0.000000
    11  C    0.375554   0.384802  -0.000001  -0.000018  -0.000028  -0.005946
    12  C   -0.000016   0.000003   0.385805   0.382604   0.386961   0.000000
    13  C   -0.027554  -0.033467   0.000000  -0.000002   0.000000  -0.021584
    14  C    0.000664  -0.006086   0.000000   0.000000   0.000000   0.379810
    15  O    0.002929   0.001411   0.000000  -0.000003   0.000000   0.000659
    16  O    0.000006   0.000001   0.000000   0.000000   0.000000   0.000004
    17  H    0.000000   0.000000   0.000001   0.000000  -0.000003   0.000000
    18  H    0.000000   0.000000   0.000000   0.000000   0.000000   0.000000
    19  H    0.005172  -0.006345  -0.000058   0.001388   0.000170   0.000052
    20  H   -0.005102  -0.002286   0.000004  -0.000111   0.000636  -0.000007
    21  H    0.000001   0.000004   0.000002   0.000001   0.000003  -0.000007
    22  H    0.002025  -0.000132  -0.000012  -0.000056   0.005069   0.000000
    23  H    0.000005  -0.000009  -0.003026  -0.004087   0.005203   0.000000
    24  H    0.000000   0.000000   0.004133  -0.000031  -0.000219   0.000000
    25  H    0.000000   0.000000  -0.000256   0.000007   0.004215   0.000000
    26  H    0.000000   0.000000  -0.000004   0.000002   0.000001   0.000000
    27  H    0.000000   0.000000  -0.000001   0.000003   0.000001   0.000000
    28  H    0.000000   0.000000   0.000000   0.000000   0.000000   0.000000
    29  H    0.000000   0.000000   0.000000   0.000000   0.000000   0.000000
    30  H    0.000000   0.000000   0.000000   0.000000   0.000000   0.000000
    31  H    0.552702  -0.028368   0.000000   0.000006   0.000001   0.000208
    32  H   -0.028368   0.562345   0.000000   0.000004   0.000000   0.001801
    33  H    0.000000   0.000000   0.566239  -0.028795  -0.029297   0.000000
    34  H    0.000006   0.000004  -0.028795   0.565213  -0.028845   0.000000
    35  H    0.000001   0.000000  -0.029297  -0.028845   0.566644   0.000000
    36  H    0.000208   0.001801   0.000000   0.000000   0.000000   0.522128
    37  H    0.000472   0.000016   0.000000   0.000000   0.000000  -0.022750
    38  H   -0.000193   0.000261   0.000000   0.000000   0.000000  -0.025763
    39  C   -0.000001   0.000000   0.000000   0.000000   0.000000   0.000000
    40  O    0.000000   0.000000   0.000000   0.000000   0.000000   0.000000
    41  O    0.002275   0.000332   0.000000   0.000000  -0.000003  -0.000072
    42  O   -0.002559   0.002781   0.000000   0.000000   0.000000   0.002608
             37         38         39         40         41         42
     1  C   -0.000001   0.000000  -0.023563   0.001807  -0.049573   0.002764
     2  C    0.000000   0.000000   0.314752  -0.095278  -0.002559   0.000007
     3  C    0.000091  -0.000190  -0.000012   0.000000  -0.006236   0.001662
     4  C   -0.000165  -0.000010  -0.002455   0.000448  -0.026471  -0.011055
     5  C    0.000014   0.000023  -0.013848   0.000092   0.091443  -0.015112
     6  C   -0.000004   0.000001   0.000287   0.000002  -0.051082   0.001635
     7  C    0.000000   0.000000  -0.000008   0.000000   0.003237  -0.000056
     8  C    0.000000   0.000000   0.000012   0.000000   0.000007   0.000000
     9  C    0.000000   0.000000  -0.004629   0.000137   0.002990  -0.000075
    10  C    0.000000   0.000000  -0.039612   0.003478   0.000139   0.000008
    11  C   -0.000855   0.005709   0.000026   0.000000   0.003808  -0.057055
    12  C    0.000000   0.000000   0.000000   0.000000  -0.000053   0.000000
    13  C   -0.025767  -0.024562  -0.000034  -0.000004  -0.025759   0.179704
    14  C    0.372673   0.370750  -0.000002   0.000000   0.003661  -0.043317
    15  O    0.003280  -0.000017   0.000289  -0.000024  -0.003794  -0.046862
    16  O    0.000002   0.000217   0.245960  -0.072418   0.000203  -0.000363
    17  H    0.000000   0.000000   0.003518  -0.000083  -0.001827  -0.000041
    18  H    0.000000   0.000001  -0.033249  -0.000073   0.009430   0.000174
    19  H    0.000000  -0.000009   0.000001   0.000000   0.000016   0.000090
    20  H   -0.000004   0.000002   0.000000   0.000000  -0.000218  -0.000021
    21  H    0.000005   0.000005  -0.001606   0.000365   0.002124   0.000225
    22  H    0.000000   0.000000  -0.000010   0.000000  -0.001041  -0.000117
    23  H    0.000000   0.000000   0.000000   0.000000  -0.000047   0.000000
    24  H    0.000000   0.000000  -0.000001   0.000000   0.000002   0.000000
    25  H    0.000000   0.000000   0.000003   0.000000  -0.000028   0.000000
    26  H    0.000000   0.000000  -0.000394   0.000003  -0.000046   0.000001
    27  H    0.000000   0.000000   0.005050  -0.000164  -0.000034   0.000000
    28  H    0.000000   0.000000  -0.004090   0.004209   0.000001   0.000000
    29  H    0.000000   0.000000  -0.005460   0.002812  -0.000006   0.000000
    30  H    0.000000   0.000000   0.004476   0.000474   0.000000   0.000000
    31  H    0.000472  -0.000193  -0.000001   0.000000   0.002275  -0.002559
    32  H    0.000016   0.000261   0.000000   0.000000   0.000332   0.002781
    33  H    0.000000   0.000000   0.000000   0.000000   0.000000   0.000000
    34  H    0.000000   0.000000   0.000000   0.000000   0.000000   0.000000
    35  H    0.000000   0.000000   0.000000   0.000000  -0.000003   0.000000
    36  H   -0.022750  -0.025763   0.000000   0.000000  -0.000072   0.002608
    37  H    0.534511  -0.024668   0.000000   0.000000  -0.000066   0.000476
    38  H   -0.024668   0.539047   0.000015   0.000000  -0.000074  -0.000568
    39  C    0.000000   0.000015   4.331125   0.579426  -0.000545   0.000886
    40  O    0.000000   0.000000   0.579426   8.082175   0.000001   0.000001
    41  O   -0.000066  -0.000074  -0.000545   0.000001   8.333197   0.035894
    42  O    0.000476  -0.000568   0.000886   0.000001   0.035894   8.261034
 Mulliken atomic charges:
              1
     1  C   -0.146778
     2  C   -0.211453
     3  C   -0.271013
     4  C    0.415909
     5  C    0.152828
     6  C   -0.068923
     7  C   -0.123878
     8  C   -0.246495
     9  C   -0.259704
    10  C   -0.401718
    11  C   -0.258392
    12  C   -0.409853
    13  C    0.465821
    14  C   -0.425273
    15  O   -0.538727
    16  O   -0.497451
    17  H    0.159502
    18  H    0.197370
    19  H    0.141324
    20  H    0.146701
    21  H    0.185062
    22  H    0.143704
    23  H    0.134405
    24  H    0.135242
    25  H    0.131576
    26  H    0.150706
    27  H    0.143233
    28  H    0.148884
    29  H    0.148799
    30  H    0.139763
    31  H    0.157438
    32  H    0.152468
    33  H    0.137281
    34  H    0.139064
    35  H    0.136756
    36  H    0.168724
    37  H    0.162742
    38  H    0.160025
    39  C    0.643690
    40  O   -0.507384
    41  O   -0.319226
    42  O   -0.312750
 Sum of Mulliken atomic charges =   0.00000
 Mulliken charges with hydrogens summed into heavy atoms:
              1
     1  C    0.012725
     2  C   -0.014083
     3  C    0.017012
     4  C    0.600972
     5  C    0.152828
     6  C    0.074781
     7  C    0.010527
     8  C    0.020322
     9  C    0.034235
    10  C    0.035728
    11  C    0.051515
    12  C    0.003248
    13  C    0.465821
    14  C    0.066218
    15  O   -0.538727
    16  O   -0.497451
    39  C    0.643690
    40  O   -0.507384
    41  O   -0.319226
    42  O   -0.312750
 Sum of Mulliken charges with hydrogens summed into heavy atoms =   0.00000
 Electronic spatial extent (au):  <R**2>=           4770.6945
 Charge=              0.0000 electrons
 Dipole moment (field-independent basis, Debye):
    X=              3.4682    Y=              5.4354    Z=              1.4093  Tot=              6.5999
 Quadrupole moment (field-independent basis, Debye-Ang):
   XX=           -117.3379   YY=           -120.9425   ZZ=           -122.1310
   XY=            -11.9510   XZ=             -7.2672   YZ=             -4.6996
 Traceless Quadrupole moment (field-independent basis, Debye-Ang):
   XX=              2.7993   YY=             -0.8054   ZZ=             -1.9939
   XY=            -11.9510   XZ=             -7.2672   YZ=             -4.6996
 Octapole moment (field-independent basis, Debye-Ang**2):
  XXX=             65.4196  YYY=            -10.0137  ZZZ=             -0.7061  XYY=             25.8782
  XXY=              9.8598  XXZ=             26.8593  XZZ=              0.6326  YZZ=              8.9863
  YYZ=              9.4763  XYZ=             17.3775
 Hexadecapole moment (field-independent basis, Debye-Ang**3):
 XXXX=          -3081.2096 YYYY=          -2545.6275 ZZZZ=           -595.6710 XXXY=           -141.7399
 XXXZ=            -65.7520 YYYX=            -72.5233 YYYZ=            -18.1824 ZZZX=              2.5045
 ZZZY=             -0.2322 XXYY=           -949.6248 XXZZ=           -622.4065 YYZZ=           -537.0139
 XXYZ=            -44.4627 YYXZ=            -28.1276 ZZXY=            -13.3932
 N-N= 1.850966555326D+03 E-N=-5.940857850906D+03  KE= 9.519224608790D+02
 1\1\GINC-COMPUTE-8-13\SP\RmPW1PW91\6-31G(d,p)\C15H22O5\FBRUNO.IQUIR\16
 -Oct-2021\0\\# mPW1PW91/6-31g** scrf=(pcm,solvent=chloroform,smd,dovac
 uum) nmr\\comment\\0,1\C,0,-1.559459677,0.288324518,0.504379298\C,0,-2
 .535673772,-0.897177426,0.39224692\C,0,2.380257,0.427520943,0.19276998
 \C,0,-0.012151094,-1.040473541,-0.983814051\C,0,-0.121024812,-0.230622
 961,0.335695285\C,0,0.928408469,0.913621385,0.428287099\C,0,0.58459057
 3,2.107957854,-0.503505384\C,0,-0.861473295,2.575953223,-0.295944941\C
 ,0,-1.868861631,1.443161927,-0.457310368\C,0,-3.998682586,-0.471373081
 ,0.539843859\C,0,2.718157032,-0.985953734,0.691318371\C,0,1.529952308,
 3.298113283,-0.300649147\C,0,1.76437391,-2.07663133,0.158458254\C,0,2.
 507614298,-3.397510382,-0.016978639\O,0,1.257984167,-1.691383451,-1.12
 0447678\O,0,-1.051814469,-2.013249645,-1.178986254\H,0,-1.662760118,0.
 680987039,1.527411827\H,0,-2.335544163,-1.596252655,1.21606073\H,0,2.6
 09061888,0.472809131,-0.880529203\H,0,3.074908232,1.12879883,0.6722652
 34\H,0,-0.082297267,-0.370293708,-1.846588439\H,0,0.902293489,1.283748
 716,1.465033706\H,0,0.687609769,1.785572666,-1.547812032\H,0,-1.102348
 493,3.36957015,-1.013868142\H,0,-0.970011523,3.014542245,0.704607866\H
 ,0,-2.866588503,1.848965147,-0.256285188\H,0,-1.874752286,1.098716807,
 -1.497758627\H,0,-4.645101431,-1.350611666,0.641807682\H,0,-4.35345179
 5,0.08530392,-0.333875386\H,0,-4.139612931,0.148656017,1.431097471\H,0
 ,2.744179071,-1.001009472,1.787733191\H,0,3.741347999,-1.193432591,0.3
 51851502\H,0,1.224570566,4.146733561,-0.922534865\H,0,2.556754835,3.04
 6834873,-0.582874784\H,0,1.532864591,3.628638848,0.74347168\H,0,3.3168
 40714,-3.308505945,-0.749553028\H,0,2.919101149,-3.7516699,0.934144314
 \H,0,1.825674172,-4.173540126,-0.384286444\C,0,-2.331599851,-1.7040742
 54,-0.877255395\O,0,-3.259451681,-2.154284777,-1.540196307\O,0,0.13667
 7659,-1.052835988,1.501629441\O,0,0.689439486,-2.333644448,1.070940596
 \\Version=EM64L-G09RevC.01\State=1-A\HF=-960.7230001\RMSD=3.814e-09\Di
 pole=1.4355137,2.0432445,0.7118533\Quadrupole=2.0087481,0.585369,-2.59
 41171,-8.5966844,-5.3465861,-3.968613\PG=C01 [X(C15H22O5)]\\@


 THOSE WHO ARE UNABLE TO LEARN FROM PAST MEETINGS
 ARE CONDEMNED TO REPEAT THEM.
 Job cpu time:  0 days  1 hours 37 minutes 46.2 seconds.
 File lengths (MBytes):  RWF=    157 Int=      0 D2E=      0 Chk=     11 Scr=      1
 Normal termination of Gaussian 09 at Sat Oct 16 12:30:09 2021.
