 Entering Gaussian System, Link 0=g09
 Input=/home/fbruno.iquir/MPW_A_SMD/31_MMFF_002_NMR_MPW_A_SMD.gjc
 Output=/home/fbruno.iquir/MPW_A_SMD/31_MMFF_002_NMR_MPW_A_SMD.log
 Initial command:
 /share/apps/Gaussian09/EM64T.SSE4.2-enabled/g09/l1.exe /tmp/Gau-447.inp -scrdir=/tmp/
 Entering Link 1 = /share/apps/Gaussian09/EM64T.SSE4.2-enabled/g09/l1.exe PID=       448.
  
 Copyright (c) 1988,1990,1992,1993,1995,1998,2003,2009,2011,
            Gaussian, Inc.  All Rights Reserved.
  
 This is part of the Gaussian(R) 09 program.  It is based on
 the Gaussian(R) 03 system (copyright 2003, Gaussian, Inc.),
 the Gaussian(R) 98 system (copyright 1998, Gaussian, Inc.),
 the Gaussian(R) 94 system (copyright 1995, Gaussian, Inc.),
 the Gaussian 92(TM) system (copyright 1992, Gaussian, Inc.),
 the Gaussian 90(TM) system (copyright 1990, Gaussian, Inc.),
 the Gaussian 88(TM) system (copyright 1988, Gaussian, Inc.),
 the Gaussian 86(TM) system (copyright 1986, Carnegie Mellon
 University), and the Gaussian 82(TM) system (copyright 1983,
 Carnegie Mellon University). Gaussian is a federally registered
 trademark of Gaussian, Inc.
  
 This software contains proprietary and confidential information,
 including trade secrets, belonging to Gaussian, Inc.
  
 This software is provided under written license and may be
 used, copied, transmitted, or stored only in accord with that
 written license.
  
 The following legend is applicable only to US Government
 contracts under FAR:
  
                    RESTRICTED RIGHTS LEGEND
  
 Use, reproduction and disclosure by the US Government is
 subject to restrictions as set forth in subparagraphs (a)
 and (c) of the Commercial Computer Software - Restricted
 Rights clause in FAR 52.227-19.
  
 Gaussian, Inc.
 340 Quinnipiac St., Bldg. 40, Wallingford CT 06492
  
  
 ---------------------------------------------------------------
 Warning -- This program may not be used in any manner that
 competes with the business of Gaussian, Inc. or will provide
 assistance to any competitor of Gaussian, Inc.  The licensee
 of this program is prohibited from giving any competitor of
 Gaussian, Inc. access to this program.  By using this program,
 the user acknowledges that Gaussian, Inc. is engaged in the
 business of creating and licensing software in the field of
 computational chemistry and represents and warrants to the
 licensee that it is not a competitor of Gaussian, Inc. and that
 it will not use this program in any manner prohibited above.
 ---------------------------------------------------------------
  

 Cite this work as:
 Gaussian 09, Revision C.01,
 M. J. Frisch, G. W. Trucks, H. B. Schlegel, G. E. Scuseria, 
 M. A. Robb, J. R. Cheeseman, G. Scalmani, V. Barone, B. Mennucci, 
 G. A. Petersson, H. Nakatsuji, M. Caricato, X. Li, H. P. Hratchian, 
 A. F. Izmaylov, J. Bloino, G. Zheng, J. L. Sonnenberg, M. Hada, 
 M. Ehara, K. Toyota, R. Fukuda, J. Hasegawa, M. Ishida, T. Nakajima, 
 Y. Honda, O. Kitao, H. Nakai, T. Vreven, J. A. Montgomery, Jr., 
 J. E. Peralta, F. Ogliaro, M. Bearpark, J. J. Heyd, E. Brothers, 
 K. N. Kudin, V. N. Staroverov, T. Keith, R. Kobayashi, J. Normand, 
 K. Raghavachari, A. Rendell, J. C. Burant, S. S. Iyengar, J. Tomasi, 
 M. Cossi, N. Rega, J. M. Millam, M. Klene, J. E. Knox, J. B. Cross, 
 V. Bakken, C. Adamo, J. Jaramillo, R. Gomperts, R. E. Stratmann, 
 O. Yazyev, A. J. Austin, R. Cammi, C. Pomelli, J. W. Ochterski, 
 R. L. Martin, K. Morokuma, V. G. Zakrzewski, G. A. Voth, 
 P. Salvador, J. J. Dannenberg, S. Dapprich, A. D. Daniels, 
 O. Farkas, J. B. Foresman, J. V. Ortiz, J. Cioslowski, 
 and D. J. Fox, Gaussian, Inc., Wallingford CT, 2010.
 
 ******************************************
 Gaussian 09:  EM64L-G09RevC.01 23-Sep-2011
                16-Oct-2021 
 ******************************************
 %nprocshared=4
 Will use up to    4 processors via shared memory.
 -----------------------------------------------------------------
 # mPW1PW91/6-31g** scrf=(pcm,solvent=chloroform,smd,dovacuum) nmr
 -----------------------------------------------------------------
 1/38=1/1;
 2/12=2,17=6,18=5,40=1/2;
 3/5=1,6=6,7=101,11=2,16=1,25=1,30=1,70=32101,72=7,74=-7/1,2,8,3;
 4//1;
 5/5=2,38=5,53=7/2;
 8/6=1,10=90,11=11/1;
 10/13=100,45=16/2;
 6/7=2,8=2,9=2,10=2,28=1/1;
 99/9=1/99;
 -------
 comment
 -------
 Charge =  0 Multiplicity = 1
 Symbolic Z-Matrix:
 6                    -1.68842   0.31541   0.1038 
 6                    -2.66255  -0.80379  -0.30881 
 6                     1.87896   0.29692   1.60868 
 6                     0.11535  -0.979    -0.98363 
 6                    -0.2902   -0.28925   0.33438 
 6                     0.64683   0.83028   0.85364 
 6                     0.85096   1.91587  -0.22298 
 6                    -0.53025   2.52067  -0.57002 
 6                    -1.62384   1.49389  -0.8962 
 6                    -4.06206  -0.2701   -0.62407 
 6                     2.592    -0.93098   1.05608 
 6                     1.79182   3.04214   0.21326 
 6                     1.70684  -1.9999    0.39979 
 6                     2.52846  -3.28019   0.22091 
 8                     1.40449  -1.5584   -0.91795 
 8                    -0.82792  -1.97079  -1.421 
 1                    -2.0584    0.71387   1.06009 
 1                    -2.7743   -1.49097   0.54155 
 1                     2.61252   1.0886    1.79078 
 1                     1.53607   0.02168   2.61786 
 1                     0.18021  -0.26809  -1.81105 
 1                     0.09673   1.33947   1.66398 
 1                     1.28537   1.47292  -1.12586 
 1                    -0.42914   3.21182  -1.41595 
 1                    -0.87748   3.12537   0.27891 
 1                    -2.58585   2.02034  -0.90859 
 1                    -1.47375   1.12732  -1.91806 
 1                    -4.42485   0.38039   0.1784 
 1                    -4.77467  -1.09623  -0.72808 
 1                    -4.08181   0.29009  -1.56488 
 1                     3.14806  -1.37677   1.89129 
 1                     3.33868  -0.58851   0.32725 
 1                     1.79476   3.85267  -0.52381 
 1                     2.82273   2.68539   0.29849 
 1                     1.49031   3.46398   1.17782 
 1                     3.43089  -3.10066  -0.37365 
 1                     2.81361  -3.70988   1.18726 
 1                     1.94019  -4.03974  -0.308 
 6                    -2.14481  -1.66708  -1.44941 
 8                    -2.88353  -2.16383  -2.29309 
 8                    -0.35856  -1.24399   1.4085 
 8                     0.54656  -2.38091   1.15234 
 
                          Input orientation:                          
 ---------------------------------------------------------------------
 Center     Atomic      Atomic             Coordinates (Angstroms)
 Number     Number       Type             X           Y           Z
 ---------------------------------------------------------------------
      1          6           0       -1.688417    0.315413    0.103801
      2          6           0       -2.662553   -0.803790   -0.308808
      3          6           0        1.878962    0.296923    1.608684
      4          6           0        0.115350   -0.978998   -0.983635
      5          6           0       -0.290204   -0.289252    0.334383
      6          6           0        0.646827    0.830284    0.853641
      7          6           0        0.850961    1.915868   -0.222975
      8          6           0       -0.530250    2.520668   -0.570024
      9          6           0       -1.623841    1.493888   -0.896203
     10          6           0       -4.062059   -0.270103   -0.624066
     11          6           0        2.592004   -0.930984    1.056080
     12          6           0        1.791815    3.042139    0.213262
     13          6           0        1.706844   -1.999901    0.399785
     14          6           0        2.528461   -3.280194    0.220915
     15          8           0        1.404492   -1.558401   -0.917951
     16          8           0       -0.827922   -1.970792   -1.420996
     17          1           0       -2.058405    0.713873    1.060094
     18          1           0       -2.774295   -1.490970    0.541553
     19          1           0        2.612523    1.088601    1.790775
     20          1           0        1.536066    0.021679    2.617863
     21          1           0        0.180213   -0.268094   -1.811045
     22          1           0        0.096731    1.339471    1.663980
     23          1           0        1.285371    1.472916   -1.125859
     24          1           0       -0.429145    3.211818   -1.415950
     25          1           0       -0.877483    3.125368    0.278912
     26          1           0       -2.585853    2.020335   -0.908587
     27          1           0       -1.473747    1.127323   -1.918061
     28          1           0       -4.424848    0.380392    0.178405
     29          1           0       -4.774667   -1.096235   -0.728083
     30          1           0       -4.081811    0.290092   -1.564883
     31          1           0        3.148058   -1.376770    1.891295
     32          1           0        3.338684   -0.588511    0.327255
     33          1           0        1.794757    3.852666   -0.523814
     34          1           0        2.822731    2.685395    0.298487
     35          1           0        1.490307    3.463979    1.177817
     36          1           0        3.430886   -3.100663   -0.373647
     37          1           0        2.813611   -3.709880    1.187258
     38          1           0        1.940194   -4.039741   -0.307998
     39          6           0       -2.144813   -1.667078   -1.449410
     40          8           0       -2.883532   -2.163830   -2.293085
     41          8           0       -0.358562   -1.243992    1.408497
     42          8           0        0.546558   -2.380914    1.152338
 ---------------------------------------------------------------------
                    Distance matrix (angstroms):
                    1          2          3          4          5
     1  C    0.000000
     2  C    1.540066   0.000000
     3  C    3.871848   5.051109   0.000000
     4  C    2.472164   2.864059   3.385028   0.000000
     5  C    1.540710   2.511271   2.583162   1.541880   0.000000
     6  C    2.506136   3.869558   1.540363   2.632784   1.549522
     7  C    3.019384   4.443949   2.651932   3.082203   2.544692
     8  C    2.580415   3.958153   3.936510   3.582672   2.961626
     9  C    1.546926   2.589070   4.469542   3.024499   2.544114
    10  C    2.550842   1.530630   6.372003   4.252361   3.891771
    11  C    4.558766   5.430421   1.523665   3.208825   3.039703
    12  C    4.422560   5.908056   3.080748   4.518035   3.930349
    13  C    4.120205   4.585239   2.601242   2.342850   2.630361
    14  C    5.542939   5.775795   3.891468   3.545355   4.111384
    15  O    3.757825   4.181071   3.170368   1.414888   2.459893
    16  O    2.879617   2.442279   4.652817   1.436907   2.489592
    17  H    1.100072   2.131242   3.997206   3.430431   2.158576
    18  H    2.152622   1.099007   5.097856   3.307320   2.767265
    19  H    4.684207   5.984633   1.094543   4.267106   3.527802
    20  H    4.099278   5.184130   1.100808   3.998821   2.940446
    21  H    2.738411   3.259602   3.859992   1.092795   2.196498
    22  H    2.582558   4.012369   2.065505   3.519305   2.137822
    23  H    3.419838   4.630018   3.035298   2.720489   2.778485
    24  H    3.504935   4.726414   4.792951   4.248095   3.916690
    25  H    2.929867   4.355476   4.167299   4.407444   3.465199
    26  H    2.176483   2.888132   5.407529   4.037094   3.485566
    27  H    2.189339   2.780676   4.936411   2.799102   2.912209
    28  H    2.738218   2.178381   6.464571   4.879721   4.191423
    29  H    3.494241   2.173095   7.188334   4.898094   4.678724
    30  H    2.917787   2.188287   6.752954   4.423189   4.280086
    31  H    5.426796   6.239548   2.119368   4.197709   3.927890
    32  H    5.112608   6.038689   2.134676   3.501541   3.641214
    33  H    5.003854   6.449529   4.147040   5.135837   4.715830
    34  H    5.099527   6.529285   2.883073   4.733025   4.305831
    35  H    4.601225   6.137602   3.219773   5.128589   4.238909
    36  H    6.172908   6.512282   4.228675   3.983255   4.717186
    37  H    6.135562   6.377456   4.135897   4.410341   4.696995
    38  H    5.683641   5.626425   4.741738   3.626939   4.410612
    39  C    2.559498   1.521280   5.422176   2.408057   2.918885
    40  O    3.649659   2.415760   6.630269   3.480199   4.140408
    41  O    2.429505   2.907110   2.724153   2.452980   1.438723
    42  O    3.655780   3.862727   3.025618   2.591079   2.396721
                    6          7          8          9         10
     6  C    0.000000
     7  C    1.542487   0.000000
     8  C    2.503944   1.547246   0.000000
     9  C    2.942492   2.599220   1.535126   0.000000
    10  C    5.056489   5.392319   4.501666   3.021693   0.000000
    11  C    2.631873   3.573762   4.930171   5.240683   6.894651
    12  C    2.571651   1.531012   2.505485   3.910844   6.777899
    13  C    3.056070   4.056305   5.136211   4.997960   6.109069
    14  C    4.564747   5.478148   6.605399   6.425062   7.294491
    15  O    3.068943   3.586075   4.528033   4.299737   5.623991
    16  O    3.898061   4.400003   4.581045   3.593452   3.739932
    17  H    2.715595   3.399333   2.873508   2.150434   2.796290
    18  H    4.146046   5.033242   4.729121   3.507145   2.123093
    19  H    2.192923   2.800476   4.183446   5.032980   7.226866
    20  H    2.134728   3.482481   4.547222   4.949855   6.475665
    21  H    2.919712   2.782365   3.134020   2.682559   4.405201
    22  H    1.103869   2.112273   2.603672   3.088486   5.012127
    23  H    2.176956   1.095499   2.168690   2.918338   5.646674
    24  H    3.461281   2.177463   1.097042   2.156089   5.094009
    25  H    2.814471   2.168479   1.098602   2.144685   4.741952
    26  H    3.869353   3.506089   2.142535   1.096707   2.739753
    27  H    3.502485   2.983183   2.156107   1.095944   3.213501
    28  H    5.136169   5.509351   4.506530   3.200046   1.094860
    29  H    5.967070   6.401217   5.578713   4.082243   1.095958
    30  H    5.338641   5.364336   4.310313   2.817423   1.095146
    31  H    3.493417   4.537428   5.897293   6.227506   7.716058
    32  H    3.088067   3.572595   5.043883   5.519048   7.468427
    33  H    3.514246   2.175418   2.679928   4.170050   7.163070
    34  H    2.912764   2.179902   3.467554   4.755941   7.548935
    35  H    2.784403   2.183490   2.833273   4.228562   6.929569
    36  H    4.970871   5.643075   6.879573   6.850783   8.013676
    37  H    5.041759   6.122891   7.286232   7.149195   7.898596
    38  H    5.171010   6.054993   7.015036   6.608281   7.094866
    39  C    4.397057   4.828695   4.573548   3.251023   2.511686
    40  O    5.597325   5.905567   5.518279   4.113028   2.785813
    41  O    2.370926   3.756243   4.256371   3.795861   4.335397
    42  O    3.226618   4.521779   5.305804   4.890935   5.371266
                   11         12         13         14         15
    11  C    0.000000
    12  C    4.139607   0.000000
    13  C    1.535192   5.046204   0.000000
    14  C    2.494059   6.365108   1.531731   0.000000
    15  O    2.387600   4.753381   1.422241   2.350509   0.000000
    16  O    4.348908   5.887554   3.121078   3.959256   2.325251
    17  H    4.932735   4.578443   4.688036   6.139718   4.589940
    18  H    5.419916   6.442532   4.512174   5.605653   4.426846
    19  H    2.149168   2.641670   3.506274   4.643049   3.975319
    20  H    2.112283   3.869198   3.005964   4.199116   3.875041
    21  H    3.804808   4.201514   3.196487   4.326185   1.990319
    22  H    3.427958   2.806595   3.916894   5.416369   4.095640
    23  H    3.499554   2.124192   3.816502   5.094225   3.040773
    24  H    5.692195   2.759671   5.917885   7.319357   5.134707
    25  H    5.394008   2.671403   5.741231   7.255001   5.345800
    26  H    6.275380   4.633207   6.025063   7.451684   5.360065
    27  H    5.441734   4.344301   5.026738   6.326064   4.061723
    28  H    7.192095   6.762619   6.581219   7.858129   6.240362
    29  H    7.581450   7.818629   6.640684   7.681533   6.199327
    30  H    7.273258   6.725701   6.527827   7.722157   5.825373
    31  H    1.097955   4.917514   2.165639   2.607124   3.311325
    32  H    1.098182   3.948090   2.158746   2.812993   2.496462
    33  H    5.100487   1.095556   5.925648   7.209066   5.439421
    34  H    3.702077   1.094220   4.817412   5.973346   4.636909
    35  H    4.532577   1.095090   5.523242   6.890377   5.442785
    36  H    2.730448   6.384750   2.186823   1.095493   2.604056
    37  H    2.790803   6.898007   2.183821   1.095336   3.323610
    38  H    3.456868   7.102588   2.171718   1.096685   2.610760
    39  C    5.408950   6.359106   4.285505   5.218392   3.590519
    40  O    6.535925   7.432548   5.324470   6.070925   4.543643
    41  O    2.987978   4.942027   2.419669   3.727113   2.935911
    42  O    2.509066   5.642875   1.434493   2.367317   2.387190
                   16         17         18         19         20
    16  O    0.000000
    17  H    3.857114   0.000000
    18  H    2.805387   2.375441   0.000000
    19  H    5.613557   4.742561   6.101849   0.000000
    20  H    5.086330   3.978190   5.017806   1.726603   0.000000
    21  H    2.016843   3.770824   3.969794   4.553007   4.640854
    22  H    4.618430   2.323932   4.184976   2.531447   2.172131
    23  H    4.051202   4.066371   5.295826   3.227350   4.022982
    24  H    5.197932   3.876211   5.607831   4.903354   5.505514
    25  H    5.372428   2.796449   4.997745   4.314429   4.574799
    26  H    4.391125   2.420899   3.803641   5.931087   5.781062
    27  H    3.203511   3.063034   3.820548   5.518566   5.554820
    28  H    4.585196   2.547280   2.521546   7.254370   6.450745
    29  H    4.101436   3.721848   2.401933   8.104859   7.229830
    30  H    3.964858   3.341297   3.052680   7.530749   7.009133
    31  H    5.208891   5.671767   6.075287   2.524867   2.254347
    32  H    4.725218   5.600163   6.182950   2.341347   2.978028
    33  H    6.449499   5.216094   7.110956   3.696772   4.961200
    34  H    6.161490   5.319063   6.987690   2.195646   3.759041
    35  H    6.454824   4.491136   6.568348   2.697685   3.731655
    36  H    4.528906   6.836564   6.475567   4.785852   4.721069
    37  H    4.805016   6.581968   6.046916   4.840464   4.195627
    38  H    3.630672   6.360607   5.426268   5.581825   5.021864
    39  C    1.351759   3.460347   2.095518   6.381599   5.739640
    40  O    2.241281   4.495089   2.915450   7.580426   6.958930
    41  O    2.958812   2.616121   2.578441   3.796640   2.579555
    42  O    2.946089   4.046239   3.491866   4.088197   2.983177
                   21         22         23         24         25
    21  H    0.000000
    22  H    3.829756   0.000000
    23  H    2.173010   3.035436   0.000000
    24  H    3.554884   3.642554   2.459166   0.000000
    25  H    4.123375   2.461084   3.062991   1.755289   0.000000
    26  H    3.701683   3.778615   3.915769   2.515639   2.355796
    27  H    2.166615   3.916941   2.891323   2.385043   3.028928
    28  H    5.058164   4.855042   5.958298   5.150203   4.486512
    29  H    5.139013   5.948541   6.594151   6.157601   5.833010
    30  H    4.305464   5.383954   5.513480   4.679812   4.658979
    31  H    4.872842   4.091483   4.549014   6.692487   6.250920
    32  H    3.827654   4.001776   3.252248   5.628303   5.618834
    33  H    4.609162   3.739771   2.507019   2.480389   2.883435
    34  H    4.489557   3.332741   2.421227   3.713639   3.726332
    35  H    4.957621   2.586880   3.051762   3.236589   2.555214
    36  H    4.544935   5.914668   5.107512   7.472192   7.599430
    37  H    5.269773   5.753664   5.877704   8.074779   7.821118
    38  H    4.425157   6.018553   5.611335   7.708855   7.721564
    39  C    2.737459   4.874120   4.661588   5.171872   5.249833
    40  O    3.634930   6.067409   5.654034   5.974193   6.214098
    41  O    3.407067   2.635687   4.062889   5.276052   4.542747
    42  O    3.657849   3.782246   4.537404   6.231112   5.754121
                   26         27         28         29         30
    26  H    0.000000
    27  H    1.747366   0.000000
    28  H    2.693115   3.696224   0.000000
    29  H    3.812676   4.154074   1.767631   0.000000
    30  H    2.379571   2.761828   1.779011   1.761302   0.000000
    31  H    7.228927   6.491745   7.960559   8.349216   8.185023
    32  H    6.590411   5.580772   7.825174   8.197438   7.708170
    33  H    4.763950   4.478229   7.157742   8.227434   6.950526
    34  H    5.581408   5.079409   7.606238   8.548393   7.542038
    35  H    4.801278   4.881602   6.745101   7.979844   6.974558
    36  H    7.919086   6.657064   8.610171   8.454256   8.328078
    37  H    8.147524   7.170982   8.375165   8.251160   8.433321
    38  H    7.587512   6.398894   7.764530   7.343709   7.522750
    39  C    3.752868   2.911810   3.469938   2.786092   2.756050
    40  O    4.417317   3.599976   3.867426   2.676823   2.826285
    41  O    4.580997   4.234709   4.548233   4.908033   5.005695
    42  O    5.781903   5.081015   5.769596   5.788076   5.994945
                   31         32         33         34         35
    31  H    0.000000
    32  H    1.761792   0.000000
    33  H    5.917024   4.778293   0.000000
    34  H    4.375392   3.314437   1.759384   0.000000
    35  H    5.166240   4.534603   1.771811   1.776166   0.000000
    36  H    2.860377   2.609726   7.144806   5.856627   7.019074
    37  H    2.459863   3.279977   7.820354   6.456743   7.294894
    38  H    3.658858   3.777606   7.896697   6.809857   7.662627
    39  C    6.265705   5.864178   6.844305   6.831958   6.814995
    40  O    7.382993   6.932805   7.823997   7.924183   7.927791
    41  O    3.542190   3.907476   5.860591   5.176179   5.063252
    42  O    2.884816   3.418982   6.574573   5.619387   5.920649
                   36         37         38         39         40
    36  H    0.000000
    37  H    1.785664   0.000000
    38  H    1.763048   1.762798   0.000000
    39  C    5.856692   5.975870   4.860004   0.000000
    40  O    6.665866   6.852774   5.543280   1.226482   0.000000
    41  O    4.580740   4.023957   4.005851   3.396663   4.574198
    42  O    3.341558   2.628098   2.612759   3.810791   4.866579
                   41         42
    41  O    0.000000
    42  O    1.475619   0.000000
 Stoichiometry    C15H22O5
 Framework group  C1[X(C15H22O5)]
 Deg. of freedom   120
 Full point group                 C1      NOp   1
 Largest Abelian subgroup         C1      NOp   1
 Largest concise Abelian subgroup C1      NOp   1
                         Standard orientation:                         
 ---------------------------------------------------------------------
 Center     Atomic      Atomic             Coordinates (Angstroms)
 Number     Number       Type             X           Y           Z
 ---------------------------------------------------------------------
      1          6           0       -1.384419    0.800760    0.684520
      2          6           0       -2.453070   -0.307901    0.710187
      3          6           0        2.483079    0.752851    0.861641
      4          6           0       -0.083938   -0.615298   -0.869546
      5          6           0        0.000405    0.164618    0.457862
      6          6           0        1.071268    1.281179    0.544818
      7          6           0        0.900712    2.293517   -0.606421
      8          6           0       -0.508577    2.922311   -0.494658
      9          6           0       -1.658280    1.914970   -0.353033
     10          6           0       -3.869245    0.252443    0.862809
     11          6           0        2.946949   -0.528770    0.180592
     12          6           0        1.946426    3.411740   -0.598947
     13          6           0        1.877722   -1.604695   -0.055956
     14          6           0        2.572535   -2.920005   -0.421188
     15          8           0        1.141651   -1.232395   -1.214558
     16          8           0       -1.130875   -1.599343   -0.886280
     17          1           0       -1.395337    1.267403    1.680655
     18          1           0       -2.270129   -0.939270    1.590937
     19          1           0        3.242641    1.529071    0.725366
     20          1           0        2.508738    0.549591    1.943217
     21          1           0       -0.302628    0.042665   -1.714211
     22          1           0        0.841979    1.855625    1.459129
     23          1           0        0.990104    1.783511   -1.571833
     24          1           0       -0.699912    3.558259   -1.367849
     25          1           0       -0.533208    3.587582    0.379260
     26          1           0       -2.559153    2.471503   -0.067609
     27          1           0       -1.875991    1.483579   -1.336698
     28          1           0       -3.924098    0.961162    1.695532
     29          1           0       -4.582433   -0.554213    1.067238
     30          1           0       -4.208242    0.756131   -0.048631
     31          1           0        3.753475   -0.942448    0.800182
     32          1           0        3.397957   -0.255239   -0.782620
     33          1           0        1.702072    4.176522   -1.344362
     34          1           0        2.939001    3.026547   -0.851412
     35          1           0        2.002845    3.899918    0.379686
     36          1           0        3.214452   -2.806252   -1.301590
     37          1           0        3.170675   -3.300810    0.413663
     38          1           0        1.829235   -3.689602   -0.661900
     39          6           0       -2.372494   -1.254158   -0.478256
     40          8           0       -3.363307   -1.775249   -0.979267
     41          8           0        0.298819   -0.721849    1.551044
     42          8           0        1.046653   -1.901491    1.074975
 ---------------------------------------------------------------------
 Rotational constants (GHZ):      0.4804053      0.3746356      0.2532844
 Standard basis: 6-31G(d,p) (6D, 7F)
 There are   410 symmetry adapted basis functions of A   symmetry.
 Integral buffers will be    131072 words long.
 Raffenetti 2 integral format.
 Two-electron integral symmetry is turned on.
   410 basis functions,   714 primitive gaussians,   410 cartesian basis functions
    76 alpha electrons       76 beta electrons
       nuclear repulsion energy      1852.4672563814 Hartrees.
 NAtoms=   42 NActive=   42 NUniq=   42 SFac= 1.00D+00 NAtFMM=   60 NAOKFM=F Big=F
 ------------------------------------------------------------------------------
 Polarizable Continuum Model (PCM)
 =================================
 Model                : C-PCM.
 Atomic radii         : SMD-Coulomb.
 Polarization charges : Total charges.
 Charge compensation  : None.
 Solution method      : Matrix inversion.
 Cavity type          : VdW (van der Waals Surface) (Alpha=1.000).
 Cavity algorithm     : GePol (No added spheres)
                        Default sphere list used, NSphG=   42.
                        Lebedev-Laikov grids with approx.  5.0 points / Ang**2.
                        Smoothing algorithm: Karplus/York (Gamma=1.0000).
                        Polarization charges: spherical gaussians, with
                                              point-specific exponents (IZeta= 3).
                        Self-potential: point-specific (ISelfS= 7).
                        Self-field    : sphere-specific E.n sum rule (ISelfD= 2).
 Solvent              : Chloroform, Eps=   4.711300 Eps(inf)=   2.090627
 ------------------------------------------------------------------------------
 ------------------------------------------------------------------------------
 Atomic radii for non-electrostatic terms: SMD-CDS.
 ------------------------------------------------------------------------------
 Nuclear repulsion after PCM non-electrostatic terms =     1852.4608680338 Hartrees.
 One-electron integrals computed using PRISM.
 NBasis=   410 RedAO= T  NBF=   410
 NBsUse=   410 1.00D-06 NBFU=   410
 Harris functional with IExCor=  908 diagonalized for initial guess.
 ExpMin= 1.61D-01 ExpMax= 5.48D+03 ExpMxC= 8.25D+02 IAcc=1 IRadAn=         1 AccDes= 0.00D+00
 HarFok:  IExCor=  908 AccDes= 0.00D+00 IRadAn=         1 IDoV= 1
 ScaDFX=  1.000000  1.000000  1.000000  1.000000
 FoFCou: FMM=F IPFlag=           0 FMFlag=      100000 FMFlg1=           0
         NFxFlg=           0 DoJE=T BraDBF=F KetDBF=T FulRan=T
         Omega=  0.000000  0.000000  1.000000  0.000000  0.000000 ICntrl=     500 IOpCl=  0
         NMat0=    1 NMatS0=    1 NMatT0=    0 NMatD0=    1 NMtDS0=    0 NMtDT0=    0
         I1Cent=           4 NGrid=           0.
 Petite list used in FoFCou.
 Initial guess orbital symmetries:
       Occupied  (A) (A) (A) (A) (A) (A) (A) (A) (A) (A) (A) (A)
                 (A) (A) (A) (A) (A) (A) (A) (A) (A) (A) (A) (A)
                 (A) (A) (A) (A) (A) (A) (A) (A) (A) (A) (A) (A)
                 (A) (A) (A) (A) (A) (A) (A) (A) (A) (A) (A) (A)
                 (A) (A) (A) (A) (A) (A) (A) (A) (A) (A) (A) (A)
                 (A) (A) (A) (A) (A) (A) (A) (A) (A) (A) (A) (A)
                 (A) (A) (A) (A)
       Virtual   (A) (A) (A) (A) (A) (A) (A) (A) (A) (A) (A) (A)
                 (A) (A) (A) (A) (A) (A) (A) (A) (A) (A) (A) (A)
                 (A) (A) (A) (A) (A) (A) (A) (A) (A) (A) (A) (A)
                 (A) (A) (A) (A) (A) (A) (A) (A) (A) (A) (A) (A)
                 (A) (A) (A) (A) (A) (A) (A) (A) (A) (A) (A) (A)
                 (A) (A) (A) (A) (A) (A) (A) (A) (A) (A) (A) (A)
                 (A) (A) (A) (A) (A) (A) (A) (A) (A) (A) (A) (A)
                 (A) (A) (A) (A) (A) (A) (A) (A) (A) (A) (A) (A)
                 (A) (A) (A) (A) (A) (A) (A) (A) (A) (A) (A) (A)
                 (A) (A) (A) (A) (A) (A) (A) (A) (A) (A) (A) (A)
                 (A) (A) (A) (A) (A) (A) (A) (A) (A) (A) (A) (A)
                 (A) (A) (A) (A) (A) (A) (A) (A) (A) (A) (A) (A)
                 (A) (A) (A) (A) (A) (A) (A) (A) (A) (A) (A) (A)
                 (A) (A) (A) (A) (A) (A) (A) (A) (A) (A) (A) (A)
                 (A) (A) (A) (A) (A) (A) (A) (A) (A) (A) (A) (A)
                 (A) (A) (A) (A) (A) (A) (A) (A) (A) (A) (A) (A)
                 (A) (A) (A) (A) (A) (A) (A) (A) (A) (A) (A) (A)
                 (A) (A) (A) (A) (A) (A) (A) (A) (A) (A) (A) (A)
                 (A) (A) (A) (A) (A) (A) (A) (A) (A) (A) (A) (A)
                 (A) (A) (A) (A) (A) (A) (A) (A) (A) (A) (A) (A)
                 (A) (A) (A) (A) (A) (A) (A) (A) (A) (A) (A) (A)
                 (A) (A) (A) (A) (A) (A) (A) (A) (A) (A) (A) (A)
                 (A) (A) (A) (A) (A) (A) (A) (A) (A) (A) (A) (A)
                 (A) (A) (A) (A) (A) (A) (A) (A) (A) (A) (A) (A)
                 (A) (A) (A) (A) (A) (A) (A) (A) (A) (A) (A) (A)
                 (A) (A) (A) (A) (A) (A) (A) (A) (A) (A) (A) (A)
                 (A) (A) (A) (A) (A) (A) (A) (A) (A) (A) (A) (A)
                 (A) (A) (A) (A) (A) (A) (A) (A) (A) (A)
 The electronic state of the initial guess is 1-A.
 Requested convergence on RMS density matrix=1.00D-08 within 128 cycles.
 Requested convergence on MAX density matrix=1.00D-06.
 Requested convergence on             energy=1.00D-06.
 No special actions if energy rises.
 Error on total polarization charges =  0.03320
 SCF Done:  E(RmPW1PW91) =  -960.709360060     A.U. after   13 cycles
             Convg  =    0.4218D-08             -V/T =  2.0092
 SMD-CDS (non-electrostatic) energy       (kcal/mol) =      -4.01
 (included in total energy above)
 Range of M.O.s used for correlation:     1   410
 NBasis=   410 NAE=    76 NBE=    76 NFC=     0 NFV=     0
 NROrb=    410 NOA=    76 NOB=    76 NVA=   334 NVB=   334
 NEqPCM:  Using equilibrium solvation (IEInf=0, Eps=   4.7113, EpsInf=   2.0906)
          Differentiating once with respect to magnetic field using GIAOs.
          Electric field/nuclear overlap derivatives assumed to be zero.
 FoFCou: FMM=F IPFlag=           0 FMFlag=    10101102 FMFlg1=           0
         NFxFlg=    40000000 DoJE=F BraDBF=F KetDBF=T FulRan=T
         Omega=  0.000000  0.000000  1.000000  0.000000  0.000000 ICntrl=    6100 IOpCl=  0
         NMat0=    1 NMatS0=    1 NMatT0=    0 NMatD0=    1 NMtDS0=    0 NMtDT0=    0
         I1Cent=           7 NGrid=        2613.
 Symmetry not used in FoFCou.
          There are     3 degrees of freedom in the 1st order CPHF.  IDoFFX=0.
      3 vectors produced by pass  0 Test12= 8.46D-13 3.33D-08 XBig12= 3.77D+01 8.61D-01.
 AX will form     3 AO Fock derivatives at one time.
      3 vectors produced by pass  1 Test12= 8.46D-13 3.33D-08 XBig12= 6.89D-02 1.32D-01.
      3 vectors produced by pass  2 Test12= 8.46D-13 3.33D-08 XBig12= 8.87D-04 1.22D-02.
      3 vectors produced by pass  3 Test12= 8.46D-13 3.33D-08 XBig12= 6.30D-06 1.03D-03.
      3 vectors produced by pass  4 Test12= 8.46D-13 3.33D-08 XBig12= 6.09D-08 7.33D-05.
      3 vectors produced by pass  5 Test12= 8.46D-13 3.33D-08 XBig12= 1.98D-10 3.02D-06.
      3 vectors produced by pass  6 Test12= 8.46D-13 3.33D-08 XBig12= 8.09D-13 1.59D-07.
 Inverted reduced A of dimension    21 with in-core refinement.
 Calculating GIAO nuclear magnetic shielding tensors.
 SCF GIAO Magnetic shielding tensor (ppm):
      1  C    Isotropic =   149.1945   Anisotropy =    27.3632
   XX=   166.0299   YX=    -5.1911   ZX=    -8.5500
   XY=     3.9096   YY=   144.4911   ZY=    -2.7502
   XZ=    -4.3932   YZ=     4.2364   ZZ=   137.0625
   Eigenvalues:   135.6426   144.5043   167.4366
      2  C    Isotropic =   158.2626   Anisotropy =    22.3846
   XX=   152.5192   YX=     3.5853   ZX=    -2.8465
   XY=    -8.7936   YY=   163.9890   ZY=     8.6360
   XZ=    -3.5994   YZ=    13.1560   ZZ=   158.2796
   Eigenvalues:   149.4755   152.1266   173.1857
      3  C    Isotropic =   174.1153   Anisotropy =    19.2249
   XX=   180.4709   YX=    -7.8740   ZX=     2.8631
   XY=    -6.7086   YY=   178.0344   ZY=     4.7581
   XZ=    -1.9555   YZ=     4.1229   ZZ=   163.8405
   Eigenvalues:   162.1798   173.2341   186.9318
      4  C    Isotropic =   100.3611   Anisotropy =    38.9606
   XX=   115.6646   YX=    14.8070   ZX=   -12.7796
   XY=    10.8821   YY=   110.1134   ZY=     7.0672
   XZ=   -11.2314   YZ=    11.1607   ZZ=    75.3053
   Eigenvalues:    68.2758   106.4727   126.3348
      5  C    Isotropic =   113.6595   Anisotropy =    53.5001
   XX=   105.9907   YX=    -6.0085   ZX=     0.2327
   XY=     3.0091   YY=   114.1810   ZY=   -30.9520
   XZ=    -0.4704   YZ=   -32.3280   ZZ=   120.8068
   Eigenvalues:    85.6109   106.0414   149.3262
      6  C    Isotropic =   141.7873   Anisotropy =    25.4438
   XX=   140.8379   YX=     5.1645   ZX=    -5.4654
   XY=     7.0757   YY=   154.4545   ZY=    -7.5227
   XZ=    -5.9525   YZ=    -3.9651   ZZ=   130.0695
   Eigenvalues:   127.2580   139.3541   158.7498
      7  C    Isotropic =   163.6928   Anisotropy =    11.2825
   XX=   169.7094   YX=     1.8788   ZX=     2.1322
   XY=    -1.3142   YY=   164.9287   ZY=    -6.7052
   XZ=     5.3564   YZ=    -6.3656   ZZ=   156.4403
   Eigenvalues:   152.2156   167.6483   171.2145
      8  C    Isotropic =   161.1289   Anisotropy =    24.9698
   XX=   177.1899   YX=    -1.3134   ZX=    -0.3167
   XY=    -5.4838   YY=   156.8452   ZY=     3.8424
   XZ=    -1.5001   YZ=    -2.9847   ZZ=   149.3516
   Eigenvalues:   149.3078   156.3035   177.7754
      9  C    Isotropic =   169.6448   Anisotropy =    18.1586
   XX=   170.0954   YX=     7.0230   ZX=     2.0176
   XY=     9.2222   YY=   173.0331   ZY=    -7.8335
   XZ=    -0.7224   YZ=    -7.0160   ZZ=   165.8060
   Eigenvalues:   158.6099   168.5740   181.7505
     10  C    Isotropic =   180.4118   Anisotropy =    17.8047
   XX=   189.1149   YX=    -3.3591   ZX=    -3.2617
   XY=    -4.6982   YY=   177.6654   ZY=     8.4105
   XZ=    -2.9245   YZ=     7.4274   ZZ=   174.4550
   Eigenvalues:   167.9790   180.9748   192.2816
     11  C    Isotropic =   156.7508   Anisotropy =    37.3990
   XX=   164.3272   YX=    16.2046   ZX=     4.8117
   XY=    15.3839   YY=   163.1178   ZY=     6.1971
   XZ=     7.4791   YZ=     7.4281   ZZ=   142.8075
   Eigenvalues:   140.5988   147.9702   181.6835
     12  C    Isotropic =   174.9458   Anisotropy =    29.2378
   XX=   180.5756   YX=    10.9971   ZX=     0.4263
   XY=    16.8088   YY=   180.4503   ZY=    -2.9756
   XZ=     0.1909   YZ=     0.0522   ZZ=   163.8116
   Eigenvalues:   163.3136   167.0863   194.4377
     13  C    Isotropic =    92.2883   Anisotropy =    20.9968
   XX=    86.3954   YX=     9.1828   ZX=    -4.2449
   XY=    -1.2429   YY=    89.0007   ZY=    -4.5738
   XZ=    -9.1743   YZ=    -5.7284   ZZ=   101.4689
   Eigenvalues:    82.9943    87.5844   106.2862
     14  C    Isotropic =   167.7670   Anisotropy =    45.9002
   XX=   160.9515   YX=   -17.7495   ZX=     0.6326
   XY=   -17.5371   YY=   188.6205   ZY=     8.2351
   XZ=     0.4526   YZ=     8.2377   ZZ=   153.7291
   Eigenvalues:   148.4257   156.5083   198.3672
     15  O    Isotropic =   220.3092   Anisotropy =   111.4953
   XX=   270.4795   YX=    34.6862   ZX=    -3.2877
   XY=    60.2115   YY=   200.5410   ZY=     3.3047
   XZ=    -7.8676   YZ=    -0.8153   ZZ=   189.9072
   Eigenvalues:   175.6355   190.6528   294.6394
     16  O    Isotropic =   120.2955   Anisotropy =   180.9163
   XX=   104.1585   YX=  -157.8664   ZX=   -81.2943
   XY=   -87.1188   YY=   129.2721   ZY=   -45.2797
   XZ=   -82.7882   YZ=   -79.5402   ZZ=   127.4560
   Eigenvalues:   -62.1413   182.1216   240.9064
     17  H    Isotropic =    29.6732   Anisotropy =     4.7378
   XX=    29.8318   YX=     0.5694   ZX=    -2.0903
   XY=     0.5622   YY=    27.6963   ZY=     1.6315
   XZ=    -0.8235   YZ=     2.4854   ZZ=    31.4916
   Eigenvalues:    26.4154    29.7725    32.8318
     18  H    Isotropic =    28.4085   Anisotropy =     5.8931
   XX=    30.3887   YX=     0.3207   ZX=    -1.1198
   XY=    -0.7653   YY=    26.5649   ZY=    -4.7160
   XZ=    -0.5942   YZ=    -4.6876   ZZ=    28.2720
   Eigenvalues:    22.5732    30.3150    32.3373
     19  H    Isotropic =    29.8154   Anisotropy =     8.1191
   XX=    32.1345   YX=     2.8710   ZX=     1.2540
   XY=     2.4962   YY=    32.8425   ZY=    -0.5985
   XZ=     1.8635   YZ=    -0.5884   ZZ=    24.4691
   Eigenvalues:    24.0151    30.2029    35.2281
     20  H    Isotropic =    29.1280   Anisotropy =     8.7891
   XX=    27.5463   YX=    -1.6441   ZX=     3.3333
   XY=    -1.4716   YY=    26.0154   ZY=     1.0296
   XZ=     2.5553   YZ=     0.1070   ZZ=    33.8221
   Eigenvalues:    24.5305    27.8659    34.9874
     21  H    Isotropic =    25.4526   Anisotropy =     2.5338
   XX=    25.3912   YX=    -0.0596   ZX=    -0.2834
   XY=     0.1453   YY=    26.7601   ZY=    -1.6903
   XZ=     0.2254   YZ=    -0.4222   ZZ=    24.2064
   Eigenvalues:    23.8261    25.3899    27.1418
     22  H    Isotropic =    29.6235   Anisotropy =     3.6575
   XX=    30.7898   YX=    -2.3326   ZX=     0.6967
   XY=    -1.7194   YY=    28.4722   ZY=     1.9381
   XZ=     0.2730   YZ=     1.4211   ZZ=    29.6085
   Eigenvalues:    26.3932    30.4154    32.0618
     23  H    Isotropic =    29.7010   Anisotropy =     3.9380
   XX=    26.9959   YX=     1.0841   ZX=    -1.2451
   XY=     1.6590   YY=    30.5111   ZY=     0.8823
   XZ=    -1.5072   YZ=     1.3070   ZZ=    31.5961
   Eigenvalues:    26.0248    30.7519    32.3264
     24  H    Isotropic =    29.9541   Anisotropy =     9.5706
   XX=    29.4982   YX=    -0.9402   ZX=     1.8989
   XY=    -0.5275   YY=    31.3890   ZY=    -5.7792
   XZ=     1.7291   YZ=    -5.4026   ZZ=    28.9751
   Eigenvalues:    24.2803    29.2474    36.3345
     25  H    Isotropic =    30.6189   Anisotropy =     7.7139
   XX=    30.3797   YX=    -0.0695   ZX=    -1.2680
   XY=     0.1226   YY=    34.1426   ZY=     4.1914
   XZ=    -1.4130   YZ=     3.0609   ZZ=    27.3344
   Eigenvalues:    25.4509    30.6442    35.7615
     26  H    Isotropic =    29.6993   Anisotropy =     9.4651
   XX=    35.0020   YX=    -2.2596   ZX=    -2.0857
   XY=    -1.9693   YY=    30.8690   ZY=    -1.6057
   XZ=    -1.7195   YZ=    -1.3007   ZZ=    23.2268
   Eigenvalues:    22.5405    30.5479    36.0094
     27  H    Isotropic =    30.2823   Anisotropy =     6.1085
   XX=    29.3507   YX=     1.7174   ZX=     3.7147
   XY=     1.3171   YY=    29.3161   ZY=    -0.4058
   XZ=     2.8174   YZ=    -0.6914   ZZ=    32.1803
   Eigenvalues:    26.3662    30.1262    34.3547
     28  H    Isotropic =    31.1537   Anisotropy =     9.7667
   XX=    31.6646   YX=    -1.5598   ZX=    -3.5642
   XY=    -1.4858   YY=    30.0305   ZY=     4.4403
   XZ=    -3.3889   YZ=     4.4071   ZZ=    31.7660
   Eigenvalues:    26.1297    29.6666    37.6648
     29  H    Isotropic =    30.1336   Anisotropy =    11.4285
   XX=    34.6257   YX=     4.8452   ZX=    -2.4032
   XY=     3.7552   YY=    29.6166   ZY=    -0.8856
   XZ=    -3.2221   YZ=    -0.3542   ZZ=    26.1585
   Eigenvalues:    25.1518    27.4965    37.7526
     30  H    Isotropic =    30.5797   Anisotropy =     7.7831
   XX=    33.4010   YX=    -1.3320   ZX=     2.6650
   XY=    -1.8357   YY=    28.8494   ZY=    -2.9475
   XZ=     2.2066   YZ=    -3.1978   ZZ=    29.4885
   Eigenvalues:    26.0455    29.9251    35.7684
     31  H    Isotropic =    29.4451   Anisotropy =     8.4372
   XX=    32.3734   YX=    -3.2564   ZX=     4.1040
   XY=    -2.5932   YY=    30.0232   ZY=     1.3312
   XZ=     3.0749   YZ=     0.7428   ZZ=    25.9387
   Eigenvalues:    23.5688    29.6965    35.0699
     32  H    Isotropic =    29.4496   Anisotropy =     6.6674
   XX=    30.3312   YX=     0.6795   ZX=    -4.9294
   XY=     0.3818   YY=    29.5179   ZY=     0.6675
   XZ=    -3.8347   YZ=     0.9538   ZZ=    28.4998
   Eigenvalues:    24.7442    29.7102    33.8945
     33  H    Isotropic =    30.8117   Anisotropy =    10.8210
   XX=    28.6665   YX=     2.0765   ZX=    -0.5276
   XY=     1.4644   YY=    33.8966   ZY=    -5.8755
   XZ=    -0.3304   YZ=    -5.0730   ZZ=    29.8719
   Eigenvalues:    25.8799    28.5294    38.0257
     34  H    Isotropic =    30.3980   Anisotropy =     9.7144
   XX=    35.9880   YX=     0.0038   ZX=    -2.8465
   XY=     1.5098   YY=    29.4364   ZY=    -1.5558
   XZ=    -2.7491   YZ=    -1.5221   ZZ=    25.7694
   Eigenvalues:    24.6879    29.6318    36.8742
     35  H    Isotropic =    31.1899   Anisotropy =     8.9433
   XX=    29.0079   YX=     2.7905   ZX=     2.1203
   XY=     2.6402   YY=    33.5061   ZY=     3.6148
   XZ=     1.4392   YZ=     3.1085   ZZ=    31.0557
   Eigenvalues:    27.7063    28.7112    37.1521
     36  H    Isotropic =    29.9790   Anisotropy =     8.8615
   XX=    30.3804   YX=    -1.8364   ZX=    -4.2049
   XY=    -2.5452   YY=    29.3569   ZY=     2.8410
   XZ=    -4.0295   YZ=     1.5662   ZZ=    30.1996
   Eigenvalues:    26.1709    27.8794    35.8866
     37  H    Isotropic =    30.3864   Anisotropy =    10.2293
   XX=    30.3716   YX=    -3.8910   ZX=     3.4594
   XY=    -4.8744   YY=    32.0358   ZY=    -2.7814
   XZ=     2.7444   YZ=    -1.3955   ZZ=    28.7519
   Eigenvalues:    25.9728    27.9806    37.2060
     38  H    Isotropic =    30.2783   Anisotropy =     9.2285
   XX=    29.1946   YX=     0.2679   ZX=     0.2191
   XY=     2.2923   YY=    35.3745   ZY=     3.0397
   XZ=     1.1340   YZ=     2.5108   ZZ=    26.2657
   Eigenvalues:    25.4605    28.9438    36.4306
     39  C    Isotropic =    21.4398   Anisotropy =    92.3515
   XX=   -23.4438   YX=    41.8020   ZX=    55.3295
   XY=    29.9355   YY=    50.1099   ZY=   -40.9735
   XZ=    44.2795   YZ=   -35.4360   ZZ=    37.6531
   Eigenvalues:   -72.0610    53.3729    83.0074
     40  O    Isotropic =   -94.9516   Anisotropy =   605.1841
   XX=  -405.6724   YX=   -53.2902   ZX=    18.4104
   XY=     2.1655   YY=    99.1024   ZY=  -235.1724
   XZ=    -5.3769   YZ=  -253.3579   ZZ=    21.7152
   Eigenvalues:  -407.0723  -186.2870   308.5044
     41  O    Isotropic =    53.4572   Anisotropy =   382.5364
   XX=    63.2112   YX=   -81.0021   ZX=  -109.3957
   XY=  -128.7874   YY=   162.0196   ZY=   137.6426
   XZ=  -102.0415   YZ=   136.9101   ZZ=   -64.8592
   Eigenvalues:  -146.0684    -2.0415   308.4815
     42  O    Isotropic =    46.7292   Anisotropy =   281.3636
   XX=    44.2250   YX=  -140.2727   ZX=    -3.2414
   XY=   -88.3199   YY=   153.1041   ZY=    43.3843
   XZ=    -3.1455   YZ=    73.3534   ZZ=   -57.1415
   Eigenvalues:   -80.9373   -13.1800   234.3050
 End of Minotr Frequency-dependent properties file   721 does not exist.
 End of Minotr Frequency-dependent properties file   722 does not exist.

 **********************************************************************

            Population analysis using the SCF density.

 **********************************************************************

 Orbital symmetries:
       Occupied  (A) (A) (A) (A) (A) (A) (A) (A) (A) (A) (A) (A)
                 (A) (A) (A) (A) (A) (A) (A) (A) (A) (A) (A) (A)
                 (A) (A) (A) (A) (A) (A) (A) (A) (A) (A) (A) (A)
                 (A) (A) (A) (A) (A) (A) (A) (A) (A) (A) (A) (A)
                 (A) (A) (A) (A) (A) (A) (A) (A) (A) (A) (A) (A)
                 (A) (A) (A) (A) (A) (A) (A) (A) (A) (A) (A) (A)
                 (A) (A) (A) (A)
       Virtual   (A) (A) (A) (A) (A) (A) (A) (A) (A) (A) (A) (A)
                 (A) (A) (A) (A) (A) (A) (A) (A) (A) (A) (A) (A)
                 (A) (A) (A) (A) (A) (A) (A) (A) (A) (A) (A) (A)
                 (A) (A) (A) (A) (A) (A) (A) (A) (A) (A) (A) (A)
                 (A) (A) (A) (A) (A) (A) (A) (A) (A) (A) (A) (A)
                 (A) (A) (A) (A) (A) (A) (A) (A) (A) (A) (A) (A)
                 (A) (A) (A) (A) (A) (A) (A) (A) (A) (A) (A) (A)
                 (A) (A) (A) (A) (A) (A) (A) (A) (A) (A) (A) (A)
                 (A) (A) (A) (A) (A) (A) (A) (A) (A) (A) (A) (A)
                 (A) (A) (A) (A) (A) (A) (A) (A) (A) (A) (A) (A)
                 (A) (A) (A) (A) (A) (A) (A) (A) (A) (A) (A) (A)
                 (A) (A) (A) (A) (A) (A) (A) (A) (A) (A) (A) (A)
                 (A) (A) (A) (A) (A) (A) (A) (A) (A) (A) (A) (A)
                 (A) (A) (A) (A) (A) (A) (A) (A) (A) (A) (A) (A)
                 (A) (A) (A) (A) (A) (A) (A) (A) (A) (A) (A) (A)
                 (A) (A) (A) (A) (A) (A) (A) (A) (A) (A) (A) (A)
                 (A) (A) (A) (A) (A) (A) (A) (A) (A) (A) (A) (A)
                 (A) (A) (A) (A) (A) (A) (A) (A) (A) (A) (A) (A)
                 (A) (A) (A) (A) (A) (A) (A) (A) (A) (A) (A) (A)
                 (A) (A) (A) (A) (A) (A) (A) (A) (A) (A) (A) (A)
                 (A) (A) (A) (A) (A) (A) (A) (A) (A) (A) (A) (A)
                 (A) (A) (A) (A) (A) (A) (A) (A) (A) (A) (A) (A)
                 (A) (A) (A) (A) (A) (A) (A) (A) (A) (A) (A) (A)
                 (A) (A) (A) (A) (A) (A) (A) (A) (A) (A) (A) (A)
                 (A) (A) (A) (A) (A) (A) (A) (A) (A) (A) (A) (A)
                 (A) (A) (A) (A) (A) (A) (A) (A) (A) (A) (A) (A)
                 (A) (A) (A) (A) (A) (A) (A) (A) (A) (A) (A) (A)
                 (A) (A) (A) (A) (A) (A) (A) (A) (A) (A)
 The electronic state is 1-A.
 Alpha  occ. eigenvalues --  -19.31007 -19.30439 -19.28467 -19.26754 -19.22693
 Alpha  occ. eigenvalues --  -10.37959 -10.36904 -10.36248 -10.32037 -10.26473
 Alpha  occ. eigenvalues --  -10.26215 -10.25238 -10.24821 -10.24604 -10.24050
 Alpha  occ. eigenvalues --  -10.23904 -10.23888 -10.23786 -10.23171 -10.22862
 Alpha  occ. eigenvalues --   -1.16682  -1.13194  -1.08402  -1.03900  -0.97151
 Alpha  occ. eigenvalues --   -0.87147  -0.83370  -0.81571  -0.78099  -0.77094
 Alpha  occ. eigenvalues --   -0.74550  -0.71754  -0.69988  -0.67270  -0.65981
 Alpha  occ. eigenvalues --   -0.62722  -0.61994  -0.59520  -0.57809  -0.56160
 Alpha  occ. eigenvalues --   -0.54353  -0.52972  -0.50661  -0.49777  -0.48303
 Alpha  occ. eigenvalues --   -0.47750  -0.46258  -0.45765  -0.44743  -0.44307
 Alpha  occ. eigenvalues --   -0.43695  -0.43277  -0.42677  -0.41745  -0.41088
 Alpha  occ. eigenvalues --   -0.40495  -0.40250  -0.39924  -0.39746  -0.39048
 Alpha  occ. eigenvalues --   -0.38112  -0.37331  -0.36704  -0.36319  -0.35693
 Alpha  occ. eigenvalues --   -0.34779  -0.34409  -0.33800  -0.33389  -0.31905
 Alpha  occ. eigenvalues --   -0.31283  -0.30857  -0.29919  -0.28734  -0.27700
 Alpha  occ. eigenvalues --   -0.26097
 Alpha virt. eigenvalues --    0.00167   0.00561   0.08723   0.09519   0.10580
 Alpha virt. eigenvalues --    0.11476   0.12501   0.13486   0.13907   0.14729
 Alpha virt. eigenvalues --    0.15331   0.15937   0.16224   0.16472   0.16990
 Alpha virt. eigenvalues --    0.17957   0.18086   0.18669   0.19422   0.19679
 Alpha virt. eigenvalues --    0.20402   0.20666   0.20989   0.21093   0.21623
 Alpha virt. eigenvalues --    0.21960   0.22613   0.23199   0.23915   0.24965
 Alpha virt. eigenvalues --    0.25391   0.25497   0.26038   0.26248   0.27073
 Alpha virt. eigenvalues --    0.27587   0.29007   0.29713   0.30763   0.31080
 Alpha virt. eigenvalues --    0.31792   0.33448   0.34943   0.36752   0.38134
 Alpha virt. eigenvalues --    0.39335   0.49828   0.50605   0.52124   0.53250
 Alpha virt. eigenvalues --    0.53993   0.55280   0.55896   0.56253   0.57335
 Alpha virt. eigenvalues --    0.58817   0.59127   0.59711   0.60254   0.61342
 Alpha virt. eigenvalues --    0.61592   0.62663   0.64001   0.64178   0.65301
 Alpha virt. eigenvalues --    0.66280   0.66998   0.67878   0.68780   0.69134
 Alpha virt. eigenvalues --    0.70788   0.71167   0.72467   0.73335   0.74727
 Alpha virt. eigenvalues --    0.76094   0.76896   0.77358   0.78287   0.79133
 Alpha virt. eigenvalues --    0.79931   0.81918   0.82967   0.83362   0.83633
 Alpha virt. eigenvalues --    0.85984   0.86644   0.86852   0.87358   0.87911
 Alpha virt. eigenvalues --    0.88795   0.89569   0.90099   0.90689   0.91136
 Alpha virt. eigenvalues --    0.91638   0.91684   0.92181   0.92862   0.93109
 Alpha virt. eigenvalues --    0.93861   0.95045   0.95457   0.95806   0.96185
 Alpha virt. eigenvalues --    0.96973   0.97259   0.99003   0.99281   1.00551
 Alpha virt. eigenvalues --    1.00703   1.01797   1.02935   1.04780   1.05426
 Alpha virt. eigenvalues --    1.06862   1.07376   1.09802   1.10338   1.12102
 Alpha virt. eigenvalues --    1.14918   1.15855   1.17425   1.18320   1.20745
 Alpha virt. eigenvalues --    1.21641   1.23788   1.25348   1.27105   1.27829
 Alpha virt. eigenvalues --    1.28712   1.30826   1.32536   1.34386   1.37606
 Alpha virt. eigenvalues --    1.38263   1.40641   1.41155   1.43742   1.46138
 Alpha virt. eigenvalues --    1.47413   1.48850   1.51049   1.52027   1.54244
 Alpha virt. eigenvalues --    1.55983   1.56520   1.58086   1.58902   1.60822
 Alpha virt. eigenvalues --    1.62401   1.63317   1.65831   1.67275   1.68857
 Alpha virt. eigenvalues --    1.69710   1.69800   1.70875   1.72230   1.73352
 Alpha virt. eigenvalues --    1.74439   1.76404   1.77377   1.78029   1.79465
 Alpha virt. eigenvalues --    1.80761   1.81287   1.83633   1.83885   1.85027
 Alpha virt. eigenvalues --    1.85389   1.86069   1.86691   1.87949   1.88400
 Alpha virt. eigenvalues --    1.89341   1.90461   1.91611   1.92498   1.93040
 Alpha virt. eigenvalues --    1.93859   1.94685   1.96331   1.96581   1.97920
 Alpha virt. eigenvalues --    1.98713   1.99115   2.00621   2.01358   2.02066
 Alpha virt. eigenvalues --    2.02351   2.04361   2.05415   2.05759   2.06750
 Alpha virt. eigenvalues --    2.07130   2.07822   2.08473   2.09143   2.10021
 Alpha virt. eigenvalues --    2.10682   2.11242   2.12328   2.12552   2.13801
 Alpha virt. eigenvalues --    2.14321   2.15455   2.16669   2.17526   2.18871
 Alpha virt. eigenvalues --    2.19385   2.21998   2.22205   2.22925   2.24280
 Alpha virt. eigenvalues --    2.24675   2.25827   2.26933   2.27745   2.28808
 Alpha virt. eigenvalues --    2.30541   2.31052   2.32105   2.34064   2.34878
 Alpha virt. eigenvalues --    2.35386   2.37135   2.37575   2.39450   2.40025
 Alpha virt. eigenvalues --    2.41162   2.42029   2.44106   2.46758   2.48035
 Alpha virt. eigenvalues --    2.49373   2.49839   2.51217   2.51330   2.53778
 Alpha virt. eigenvalues --    2.56039   2.57248   2.58704   2.59743   2.60251
 Alpha virt. eigenvalues --    2.61552   2.62287   2.65213   2.67759   2.69156
 Alpha virt. eigenvalues --    2.69430   2.70231   2.70511   2.72204   2.73522
 Alpha virt. eigenvalues --    2.74916   2.75101   2.75373   2.76946   2.78172
 Alpha virt. eigenvalues --    2.79024   2.79829   2.80601   2.81774   2.82315
 Alpha virt. eigenvalues --    2.82844   2.84870   2.85761   2.86299   2.88269
 Alpha virt. eigenvalues --    2.89108   2.90471   2.90822   2.92219   2.92461
 Alpha virt. eigenvalues --    2.93096   2.94020   2.95356   2.95956   2.96815
 Alpha virt. eigenvalues --    2.98155   2.99445   2.99506   3.01348   3.03067
 Alpha virt. eigenvalues --    3.05828   3.08235   3.11697   3.14969   3.20593
 Alpha virt. eigenvalues --    3.21407   3.23458   3.24665   3.25924   3.29012
 Alpha virt. eigenvalues --    3.30055   3.33688   3.36055   3.38209   3.40009
 Alpha virt. eigenvalues --    3.40716   3.43732   3.45848   3.46844   3.48455
 Alpha virt. eigenvalues --    3.48869   3.49833   3.51211   3.53091   3.53670
 Alpha virt. eigenvalues --    3.54412   3.55794   3.56563   3.59273   3.94603
 Alpha virt. eigenvalues --    4.05179   4.19213   4.26058   4.36026   4.40358
 Alpha virt. eigenvalues --    4.47832   4.51063   4.54237   4.54672   4.56728
 Alpha virt. eigenvalues --    4.59665   4.65307   4.73251   4.81384   4.84468
 Alpha virt. eigenvalues --    4.84816   4.89554   4.94183   5.19579
          Condensed to atoms (all electrons):
              1          2          3          4          5          6
     1  C    5.173964   0.292442   0.004358  -0.041184   0.337470  -0.054263
     2  C    0.292442   5.298016  -0.000168  -0.019524  -0.034903   0.006044
     3  C    0.004358  -0.000168   5.051374  -0.003867  -0.038234   0.341519
     4  C   -0.041184  -0.019524  -0.003867   4.688943   0.280412  -0.053719
     5  C    0.337470  -0.034903  -0.038234   0.280412   5.160976   0.327929
     6  C   -0.054263   0.006044   0.341519  -0.053719   0.327929   5.122907
     7  C   -0.015293   0.000003  -0.038188  -0.001954  -0.029859   0.329948
     8  C   -0.038710   0.004128   0.004518  -0.002307  -0.010391  -0.045540
     9  C    0.337653  -0.047157   0.000190  -0.004708  -0.039677  -0.010818
    10  C   -0.051505   0.334064   0.000002   0.000312   0.005174  -0.000092
    11  C   -0.000049  -0.000005   0.334645  -0.001838  -0.008300  -0.041111
    12  C    0.000118   0.000008  -0.006580   0.000032   0.004373  -0.040652
    13  C    0.000262   0.000056  -0.027363  -0.020523  -0.008274  -0.014254
    14  C    0.000011  -0.000001   0.004467   0.003003   0.000512   0.000146
    15  O    0.003288  -0.000186  -0.001985   0.229854  -0.027630   0.006334
    16  O    0.000020  -0.093348  -0.000027   0.146963  -0.031403   0.002804
    17  H    0.391333  -0.034735  -0.000028   0.005248  -0.034510  -0.009608
    18  H   -0.035020   0.388979  -0.000002  -0.000806  -0.005032   0.000253
    19  H   -0.000098   0.000001   0.386043   0.000000   0.004500  -0.030463
    20  H   -0.000018  -0.000004   0.394560   0.000147  -0.004951  -0.034753
    21  H   -0.011478   0.001922  -0.000029   0.417369  -0.042825  -0.002664
    22  H   -0.007102   0.000167  -0.048489   0.004618  -0.040097   0.394898
    23  H    0.000304   0.000004  -0.002610   0.002858  -0.011257  -0.042903
    24  H    0.004341  -0.000125  -0.000118   0.000018   0.000269   0.004903
    25  H   -0.002456  -0.000047  -0.000059   0.000101  -0.001501  -0.006474
    26  H   -0.028616  -0.005471   0.000010   0.000028   0.004728   0.000011
    27  H   -0.038777  -0.004082  -0.000010   0.001951  -0.007765  -0.000668
    28  H   -0.002222  -0.033649   0.000000  -0.000024   0.000113  -0.000008
    29  H    0.004781  -0.026854   0.000000  -0.000006  -0.000144   0.000002
    30  H   -0.006734  -0.032585   0.000000  -0.000017  -0.000019  -0.000004
    31  H    0.000004   0.000000  -0.034257  -0.000065   0.000070   0.005045
    32  H   -0.000012   0.000000  -0.038511   0.000286  -0.000175  -0.001007
    33  H    0.000002   0.000000   0.000265  -0.000002  -0.000099   0.004208
    34  H   -0.000006   0.000000   0.000328  -0.000009  -0.000082  -0.004713
    35  H   -0.000015   0.000000  -0.000908   0.000006   0.000013  -0.005950
    36  H    0.000000   0.000000   0.000097   0.000071   0.000023  -0.000006
    37  H   -0.000001   0.000000  -0.000022  -0.000162   0.000024  -0.000005
    38  H    0.000000   0.000000  -0.000168  -0.000016   0.000036  -0.000003
    39  C   -0.025263   0.315820  -0.000012  -0.003330  -0.013737   0.000305
    40  O    0.002444  -0.094338   0.000000   0.000580   0.000007   0.000002
    41  O   -0.042920  -0.001341  -0.006578  -0.033336   0.100115  -0.058122
    42  O    0.003052  -0.000281  -0.001785  -0.010802  -0.009369   0.000359
              7          8          9         10         11         12
     1  C   -0.015293  -0.038710   0.337653  -0.051505  -0.000049   0.000118
     2  C    0.000003   0.004128  -0.047157   0.334064  -0.000005   0.000008
     3  C   -0.038188   0.004518   0.000190   0.000002   0.334645  -0.006580
     4  C   -0.001954  -0.002307  -0.004708   0.000312  -0.001838   0.000032
     5  C   -0.029859  -0.010391  -0.039677   0.005174  -0.008300   0.004373
     6  C    0.329948  -0.045540  -0.010818  -0.000092  -0.041111  -0.040652
     7  C    5.012798   0.362911  -0.039347  -0.000005   0.000681   0.357800
     8  C    0.362911   5.031994   0.347672   0.000141  -0.000093  -0.053589
     9  C   -0.039347   0.347672   5.052239  -0.005080  -0.000014   0.004754
    10  C   -0.000005   0.000141  -0.005080   5.032691   0.000000   0.000000
    11  C    0.000681  -0.000093  -0.000014   0.000000   5.100847  -0.000371
    12  C    0.357800  -0.053589   0.004754   0.000000  -0.000371   5.047103
    13  C   -0.000361  -0.000003   0.000026   0.000000   0.356032   0.000021
    14  C   -0.000011   0.000000  -0.000001   0.000000  -0.074885   0.000000
    15  O   -0.001558   0.000115  -0.000075   0.000001  -0.071565  -0.000016
    16  O   -0.000077   0.000069  -0.000874   0.003229  -0.000108   0.000000
    17  H   -0.000101  -0.001814  -0.039109  -0.004016   0.000012  -0.000049
    18  H   -0.000018  -0.000101   0.004599  -0.034155   0.000000   0.000000
    19  H   -0.009652   0.000119  -0.000004   0.000000  -0.030710   0.003190
    20  H    0.005435  -0.000165  -0.000002   0.000000  -0.041576   0.000056
    21  H    0.002816  -0.001283   0.004578   0.000080  -0.000068  -0.000011
    22  H   -0.046620  -0.007109  -0.001817  -0.000021   0.005535  -0.005079
    23  H    0.396419  -0.042386  -0.002258  -0.000001   0.001550  -0.042829
    24  H   -0.032646   0.385103  -0.032133   0.000003   0.000002  -0.004029
    25  H   -0.040761   0.390304  -0.041983  -0.000020   0.000004  -0.005503
    26  H    0.004277  -0.031529   0.389062   0.003087   0.000000  -0.000143
    27  H   -0.002380  -0.038235   0.390953  -0.001210   0.000001  -0.000052
    28  H    0.000000  -0.000053  -0.001671   0.381193   0.000000   0.000000
    29  H    0.000000  -0.000003   0.000182   0.383194   0.000000   0.000000
    30  H    0.000000   0.000004   0.003135   0.391322   0.000000   0.000000
    31  H   -0.000118   0.000002   0.000000   0.000000   0.378850   0.000004
    32  H    0.001233  -0.000007   0.000001   0.000000   0.378187   0.000079
    33  H   -0.031182  -0.005311   0.000103   0.000000  -0.000010   0.384408
    34  H   -0.027979   0.004764  -0.000165   0.000000   0.000070   0.383306
    35  H   -0.034420  -0.005754  -0.000012   0.000000   0.000084   0.386219
    36  H    0.000001   0.000000   0.000000   0.000000  -0.004098   0.000000
    37  H    0.000000   0.000000   0.000000   0.000000  -0.002056   0.000000
    38  H    0.000000   0.000000   0.000000   0.000000   0.005664   0.000000
    39  C    0.000016  -0.000005  -0.004242  -0.038805   0.000017   0.000000
    40  O    0.000000   0.000000   0.000052   0.002866   0.000000   0.000000
    41  O    0.003397   0.000032   0.002446   0.000174  -0.001999  -0.000057
    42  O   -0.000016   0.000000  -0.000059   0.000001  -0.049590   0.000000
             13         14         15         16         17         18
     1  C    0.000262   0.000011   0.003288   0.000020   0.391333  -0.035020
     2  C    0.000056  -0.000001  -0.000186  -0.093348  -0.034735   0.388979
     3  C   -0.027363   0.004467  -0.001985  -0.000027  -0.000028  -0.000002
     4  C   -0.020523   0.003003   0.229854   0.146963   0.005248  -0.000806
     5  C   -0.008274   0.000512  -0.027630  -0.031403  -0.034510  -0.005032
     6  C   -0.014254   0.000146   0.006334   0.002804  -0.009608   0.000253
     7  C   -0.000361  -0.000011  -0.001558  -0.000077  -0.000101  -0.000018
     8  C   -0.000003   0.000000   0.000115   0.000069  -0.001814  -0.000101
     9  C    0.000026  -0.000001  -0.000075  -0.000874  -0.039109   0.004599
    10  C    0.000000   0.000000   0.000001   0.003229  -0.004016  -0.034155
    11  C    0.356032  -0.074885  -0.071565  -0.000108   0.000012   0.000000
    12  C    0.000021   0.000000  -0.000016   0.000000  -0.000049   0.000000
    13  C    4.699636   0.386836   0.157136  -0.001125  -0.000006   0.000027
    14  C    0.386836   5.076532  -0.055609  -0.000115   0.000000  -0.000002
    15  O    0.157136  -0.055609   8.407994  -0.042198  -0.000060  -0.000004
    16  O   -0.001125  -0.000115  -0.042198   8.384824  -0.000320   0.000486
    17  H   -0.000006   0.000000  -0.000060  -0.000320   0.560065  -0.005779
    18  H    0.000027  -0.000002  -0.000004   0.000486  -0.005779   0.512568
    19  H    0.004082  -0.000126  -0.000201   0.000000  -0.000002   0.000000
    20  H   -0.004607  -0.000087  -0.000019  -0.000001   0.000015   0.000000
    21  H    0.004861  -0.000300  -0.041161  -0.046111  -0.000126  -0.000014
    22  H    0.000086   0.000002  -0.000042  -0.000045   0.006020   0.000009
    23  H   -0.000396   0.000007   0.002056   0.000042   0.000062   0.000000
    24  H    0.000000   0.000000  -0.000001   0.000000  -0.000076   0.000002
    25  H   -0.000001   0.000000   0.000000   0.000000   0.002793   0.000003
    26  H    0.000000   0.000000  -0.000001  -0.000018  -0.005902  -0.000089
    27  H   -0.000008   0.000000  -0.000012  -0.000120   0.005032   0.000034
    28  H    0.000000   0.000000   0.000000  -0.000042   0.003145  -0.002336
    29  H    0.000000   0.000000   0.000000   0.000044  -0.000070  -0.004310
    30  H    0.000000   0.000000   0.000000   0.000062  -0.000147   0.004304
    31  H   -0.033071  -0.003418   0.003963   0.000004   0.000000   0.000000
    32  H   -0.026483  -0.003421  -0.000070   0.000003   0.000000   0.000000
    33  H    0.000001   0.000000   0.000000   0.000000   0.000000   0.000000
    34  H   -0.000002   0.000000   0.000006   0.000000   0.000000   0.000000
    35  H   -0.000002   0.000000   0.000000   0.000000  -0.000003   0.000000
    36  H   -0.021756   0.381025  -0.000203   0.000002   0.000000   0.000000
    37  H   -0.024602   0.369795   0.003565   0.000001   0.000000   0.000000
    38  H   -0.023989   0.370064   0.000041   0.000271   0.000000   0.000000
    39  C    0.000039  -0.000005   0.000181   0.247342   0.003420  -0.032210
    40  O   -0.000003   0.000000  -0.000025  -0.072003  -0.000076  -0.000562
    41  O   -0.013530   0.003018  -0.003962   0.000103  -0.001496   0.008985
    42  O    0.168828  -0.043325  -0.039310   0.000347  -0.000061  -0.000225
             19         20         21         22         23         24
     1  C   -0.000098  -0.000018  -0.011478  -0.007102   0.000304   0.004341
     2  C    0.000001  -0.000004   0.001922   0.000167   0.000004  -0.000125
     3  C    0.386043   0.394560  -0.000029  -0.048489  -0.002610  -0.000118
     4  C    0.000000   0.000147   0.417369   0.004618   0.002858   0.000018
     5  C    0.004500  -0.004951  -0.042825  -0.040097  -0.011257   0.000269
     6  C   -0.030463  -0.034753  -0.002664   0.394898  -0.042903   0.004903
     7  C   -0.009652   0.005435   0.002816  -0.046620   0.396419  -0.032646
     8  C    0.000119  -0.000165  -0.001283  -0.007109  -0.042386   0.385103
     9  C   -0.000004  -0.000002   0.004578  -0.001817  -0.002258  -0.032133
    10  C    0.000000   0.000000   0.000080  -0.000021  -0.000001   0.000003
    11  C   -0.030710  -0.041576  -0.000068   0.005535   0.001550   0.000002
    12  C    0.003190   0.000056  -0.000011  -0.005079  -0.042829  -0.004029
    13  C    0.004082  -0.004607   0.004861   0.000086  -0.000396   0.000000
    14  C   -0.000126  -0.000087  -0.000300   0.000002   0.000007   0.000000
    15  O   -0.000201  -0.000019  -0.041161  -0.000042   0.002056  -0.000001
    16  O    0.000000  -0.000001  -0.046111  -0.000045   0.000042   0.000000
    17  H   -0.000002   0.000015  -0.000126   0.006020   0.000062  -0.000076
    18  H    0.000000   0.000000  -0.000014   0.000009   0.000000   0.000002
    19  H    0.571096  -0.034816   0.000005   0.000636   0.000068  -0.000005
    20  H   -0.034816   0.583927  -0.000011  -0.011350  -0.000125   0.000002
    21  H    0.000005  -0.000011   0.532823  -0.000079   0.000999  -0.000013
    22  H    0.000636  -0.011350  -0.000079   0.596375   0.006132   0.000104
    23  H    0.000068  -0.000125   0.000999   0.006132   0.595631  -0.004856
    24  H   -0.000005   0.000002  -0.000013   0.000104  -0.004856   0.578159
    25  H   -0.000002  -0.000007  -0.000001   0.005831   0.005504  -0.032867
    26  H    0.000000   0.000000   0.000027  -0.000204  -0.000096  -0.001138
    27  H    0.000000   0.000000   0.000929   0.000135   0.001708  -0.006543
    28  H    0.000000   0.000000   0.000000   0.000001   0.000000   0.000000
    29  H    0.000000   0.000000  -0.000001   0.000000   0.000000   0.000000
    30  H    0.000000   0.000000  -0.000008   0.000000   0.000000   0.000004
    31  H   -0.000498  -0.010324   0.000005  -0.000182  -0.000006   0.000000
    32  H   -0.009228   0.005890  -0.000081  -0.000113  -0.000048   0.000000
    33  H   -0.000058  -0.000001   0.000002  -0.000080  -0.002565   0.003844
    34  H    0.001088  -0.000002  -0.000001  -0.000116  -0.004273  -0.000066
    35  H    0.000854  -0.000116   0.000002   0.004905   0.005283  -0.000178
    36  H   -0.000004   0.000005  -0.000009   0.000000  -0.000001   0.000000
    37  H    0.000001   0.000005   0.000006   0.000000   0.000000   0.000000
    38  H    0.000002   0.000001   0.000005   0.000000   0.000000   0.000000
    39  C    0.000000   0.000000  -0.001954  -0.000008   0.000014  -0.000003
    40  O    0.000000   0.000000   0.000352   0.000000   0.000000   0.000000
    41  O    0.000293   0.005700   0.002258  -0.000809  -0.000001   0.000002
    42  O   -0.000052   0.001330   0.000057  -0.000176   0.000011   0.000000
             25         26         27         28         29         30
     1  C   -0.002456  -0.028616  -0.038777  -0.002222   0.004781  -0.006734
     2  C   -0.000047  -0.005471  -0.004082  -0.033649  -0.026854  -0.032585
     3  C   -0.000059   0.000010  -0.000010   0.000000   0.000000   0.000000
     4  C    0.000101   0.000028   0.001951  -0.000024  -0.000006  -0.000017
     5  C   -0.001501   0.004728  -0.007765   0.000113  -0.000144  -0.000019
     6  C   -0.006474   0.000011  -0.000668  -0.000008   0.000002  -0.000004
     7  C   -0.040761   0.004277  -0.002380   0.000000   0.000000   0.000000
     8  C    0.390304  -0.031529  -0.038235  -0.000053  -0.000003   0.000004
     9  C   -0.041983   0.389062   0.390953  -0.001671   0.000182   0.003135
    10  C   -0.000020   0.003087  -0.001210   0.381193   0.383194   0.391322
    11  C    0.000004   0.000000   0.000001   0.000000   0.000000   0.000000
    12  C   -0.005503  -0.000143  -0.000052   0.000000   0.000000   0.000000
    13  C   -0.000001   0.000000  -0.000008   0.000000   0.000000   0.000000
    14  C    0.000000   0.000000   0.000000   0.000000   0.000000   0.000000
    15  O    0.000000  -0.000001  -0.000012   0.000000   0.000000   0.000000
    16  O    0.000000  -0.000018  -0.000120  -0.000042   0.000044   0.000062
    17  H    0.002793  -0.005902   0.005032   0.003145  -0.000070  -0.000147
    18  H    0.000003  -0.000089   0.000034  -0.002336  -0.004310   0.004304
    19  H   -0.000002   0.000000   0.000000   0.000000   0.000000   0.000000
    20  H   -0.000007   0.000000   0.000000   0.000000   0.000000   0.000000
    21  H   -0.000001   0.000027   0.000929   0.000000  -0.000001  -0.000008
    22  H    0.005831  -0.000204   0.000135   0.000001   0.000000   0.000000
    23  H    0.005504  -0.000096   0.001708   0.000000   0.000000   0.000000
    24  H   -0.032867  -0.001138  -0.006543   0.000000   0.000000   0.000004
    25  H    0.591224  -0.007322   0.005477   0.000006   0.000000   0.000006
    26  H   -0.007322   0.554762  -0.031239   0.000828  -0.000013   0.000106
    27  H    0.005477  -0.031239   0.572541   0.000143  -0.000040   0.000856
    28  H    0.000006   0.000828   0.000143   0.564469  -0.027376  -0.028195
    29  H    0.000000  -0.000013  -0.000040  -0.027376   0.547346  -0.027600
    30  H    0.000006   0.000106   0.000856  -0.028195  -0.027600   0.549638
    31  H    0.000000   0.000000   0.000000   0.000000   0.000000   0.000000
    32  H    0.000000   0.000000   0.000000   0.000000   0.000000   0.000000
    33  H   -0.000244  -0.000002  -0.000004   0.000000   0.000000   0.000000
    34  H    0.000068   0.000002   0.000004   0.000000   0.000000   0.000000
    35  H    0.004478  -0.000002   0.000000   0.000000   0.000000   0.000000
    36  H    0.000000   0.000000   0.000000   0.000000   0.000000   0.000000
    37  H    0.000000   0.000000   0.000000   0.000000   0.000000   0.000000
    38  H    0.000000   0.000000   0.000000   0.000000   0.000000   0.000000
    39  C    0.000003  -0.000272   0.004734   0.004403  -0.004555  -0.004974
    40  O    0.000000   0.000008  -0.000206   0.000441   0.005229   0.001979
    41  O   -0.000010  -0.000032  -0.000040   0.000000   0.000001  -0.000005
    42  O    0.000000   0.000000   0.000000   0.000000   0.000000   0.000000
             31         32         33         34         35         36
     1  C    0.000004  -0.000012   0.000002  -0.000006  -0.000015   0.000000
     2  C    0.000000   0.000000   0.000000   0.000000   0.000000   0.000000
     3  C   -0.034257  -0.038511   0.000265   0.000328  -0.000908   0.000097
     4  C   -0.000065   0.000286  -0.000002  -0.000009   0.000006   0.000071
     5  C    0.000070  -0.000175  -0.000099  -0.000082   0.000013   0.000023
     6  C    0.005045  -0.001007   0.004208  -0.004713  -0.005950  -0.000006
     7  C   -0.000118   0.001233  -0.031182  -0.027979  -0.034420   0.000001
     8  C    0.000002  -0.000007  -0.005311   0.004764  -0.005754   0.000000
     9  C    0.000000   0.000001   0.000103  -0.000165  -0.000012   0.000000
    10  C    0.000000   0.000000   0.000000   0.000000   0.000000   0.000000
    11  C    0.378850   0.378187  -0.000010   0.000070   0.000084  -0.004098
    12  C    0.000004   0.000079   0.384408   0.383306   0.386219   0.000000
    13  C   -0.033071  -0.026483   0.000001  -0.000002  -0.000002  -0.021756
    14  C   -0.003418  -0.003421   0.000000   0.000000   0.000000   0.381025
    15  O    0.003963  -0.000070   0.000000   0.000006   0.000000  -0.000203
    16  O    0.000004   0.000003   0.000000   0.000000   0.000000   0.000002
    17  H    0.000000   0.000000   0.000000   0.000000  -0.000003   0.000000
    18  H    0.000000   0.000000   0.000000   0.000000   0.000000   0.000000
    19  H   -0.000498  -0.009228  -0.000058   0.001088   0.000854  -0.000004
    20  H   -0.010324   0.005890  -0.000001  -0.000002  -0.000116   0.000005
    21  H    0.000005  -0.000081   0.000002  -0.000001   0.000002  -0.000009
    22  H   -0.000182  -0.000113  -0.000080  -0.000116   0.004905   0.000000
    23  H   -0.000006  -0.000048  -0.002565  -0.004273   0.005283  -0.000001
    24  H    0.000000   0.000000   0.003844  -0.000066  -0.000178   0.000000
    25  H    0.000000   0.000000  -0.000244   0.000068   0.004478   0.000000
    26  H    0.000000   0.000000  -0.000002   0.000002  -0.000002   0.000000
    27  H    0.000000   0.000000  -0.000004   0.000004   0.000000   0.000000
    28  H    0.000000   0.000000   0.000000   0.000000   0.000000   0.000000
    29  H    0.000000   0.000000   0.000000   0.000000   0.000000   0.000000
    30  H    0.000000   0.000000   0.000000   0.000000   0.000000   0.000000
    31  H    0.573175  -0.029323   0.000000   0.000000  -0.000001  -0.000060
    32  H   -0.029323   0.566219  -0.000009   0.000350  -0.000006   0.001523
    33  H    0.000000  -0.000009   0.567439  -0.028793  -0.029001   0.000000
    34  H    0.000000   0.000350  -0.028793   0.565150  -0.029462   0.000000
    35  H   -0.000001  -0.000006  -0.029001  -0.029462   0.567544   0.000000
    36  H   -0.000060   0.001523   0.000000   0.000000   0.000000   0.520229
    37  H    0.001043   0.000203   0.000000   0.000000   0.000000  -0.023180
    38  H    0.000107  -0.000139   0.000000   0.000000   0.000000  -0.025248
    39  C    0.000000   0.000000   0.000000   0.000000   0.000000   0.000000
    40  O    0.000000   0.000000   0.000000   0.000000   0.000000   0.000000
    41  O   -0.000312   0.000006   0.000000  -0.000001  -0.000001  -0.000057
    42  O    0.001444   0.002755   0.000000   0.000000   0.000000   0.002561
             37         38         39         40         41         42
     1  C   -0.000001   0.000000  -0.025263   0.002444  -0.042920   0.003052
     2  C    0.000000   0.000000   0.315820  -0.094338  -0.001341  -0.000281
     3  C   -0.000022  -0.000168  -0.000012   0.000000  -0.006578  -0.001785
     4  C   -0.000162  -0.000016  -0.003330   0.000580  -0.033336  -0.010802
     5  C    0.000024   0.000036  -0.013737   0.000007   0.100115  -0.009369
     6  C   -0.000005  -0.000003   0.000305   0.000002  -0.058122   0.000359
     7  C    0.000000   0.000000   0.000016   0.000000   0.003397  -0.000016
     8  C    0.000000   0.000000  -0.000005   0.000000   0.000032   0.000000
     9  C    0.000000   0.000000  -0.004242   0.000052   0.002446  -0.000059
    10  C    0.000000   0.000000  -0.038805   0.002866   0.000174   0.000001
    11  C   -0.002056   0.005664   0.000017   0.000000  -0.001999  -0.049590
    12  C    0.000000   0.000000   0.000000   0.000000  -0.000057   0.000000
    13  C   -0.024602  -0.023989   0.000039  -0.000003  -0.013530   0.168828
    14  C    0.369795   0.370064  -0.000005   0.000000   0.003018  -0.043325
    15  O    0.003565   0.000041   0.000181  -0.000025  -0.003962  -0.039310
    16  O    0.000001   0.000271   0.247342  -0.072003   0.000103   0.000347
    17  H    0.000000   0.000000   0.003420  -0.000076  -0.001496  -0.000061
    18  H    0.000000   0.000000  -0.032210  -0.000562   0.008985  -0.000225
    19  H    0.000001   0.000002   0.000000   0.000000   0.000293  -0.000052
    20  H    0.000005   0.000001   0.000000   0.000000   0.005700   0.001330
    21  H    0.000006   0.000005  -0.001954   0.000352   0.002258   0.000057
    22  H    0.000000   0.000000  -0.000008   0.000000  -0.000809  -0.000176
    23  H    0.000000   0.000000   0.000014   0.000000  -0.000001   0.000011
    24  H    0.000000   0.000000  -0.000003   0.000000   0.000002   0.000000
    25  H    0.000000   0.000000   0.000003   0.000000  -0.000010   0.000000
    26  H    0.000000   0.000000  -0.000272   0.000008  -0.000032   0.000000
    27  H    0.000000   0.000000   0.004734  -0.000206  -0.000040   0.000000
    28  H    0.000000   0.000000   0.004403   0.000441   0.000000   0.000000
    29  H    0.000000   0.000000  -0.004555   0.005229   0.000001   0.000000
    30  H    0.000000   0.000000  -0.004974   0.001979  -0.000005   0.000000
    31  H    0.001043   0.000107   0.000000   0.000000  -0.000312   0.001444
    32  H    0.000203  -0.000139   0.000000   0.000000   0.000006   0.002755
    33  H    0.000000   0.000000   0.000000   0.000000   0.000000   0.000000
    34  H    0.000000   0.000000   0.000000   0.000000  -0.000001   0.000000
    35  H    0.000000   0.000000   0.000000   0.000000  -0.000001   0.000000
    36  H   -0.023180  -0.025248   0.000000   0.000000  -0.000057   0.002561
    37  H    0.539459  -0.024068   0.000000   0.000000  -0.000056   0.000126
    38  H   -0.024068   0.537326   0.000014   0.000000  -0.000087  -0.000007
    39  C    0.000000   0.000014   4.326729   0.576432  -0.000180   0.000619
    40  O    0.000000   0.000000   0.576432   8.085893   0.000002   0.000000
    41  O   -0.000056  -0.000087  -0.000180   0.000002   8.331521   0.032949
    42  O    0.000126  -0.000007   0.000619   0.000000   0.032949   8.256545
 Mulliken atomic charges:
              1
     1  C   -0.154107
     2  C   -0.212848
     3  C   -0.272375
     4  C    0.415396
     5  C    0.173491
     6  C   -0.089819
     7  C   -0.125187
     8  C   -0.247491
     9  C   -0.266434
    10  C   -0.402626
    11  C   -0.233735
    12  C   -0.412509
    13  C    0.442429
    14  C   -0.414115
    15  O   -0.528644
    16  O   -0.498680
    17  H    0.160949
    18  H    0.200415
    19  H    0.143938
    20  H    0.145861
    21  H    0.179130
    22  H    0.144083
    23  H    0.137957
    24  H    0.138039
    25  H    0.133457
    26  H    0.155153
    27  H    0.146895
    28  H    0.140834
    29  H    0.150192
    30  H    0.148871
    31  H    0.147919
    32  H    0.151899
    33  H    0.137088
    34  H    0.140533
    35  H    0.136444
    36  H    0.169087
    37  H    0.159923
    38  H    0.160195
    39  C    0.649467
    40  O   -0.509074
    41  O   -0.326072
    42  O   -0.315928
 Sum of Mulliken atomic charges =   0.00000
 Mulliken charges with hydrogens summed into heavy atoms:
              1
     1  C    0.006842
     2  C   -0.012433
     3  C    0.017425
     4  C    0.594525
     5  C    0.173491
     6  C    0.054264
     7  C    0.012770
     8  C    0.024006
     9  C    0.035613
    10  C    0.037272
    11  C    0.066083
    12  C    0.001556
    13  C    0.442429
    14  C    0.075090
    15  O   -0.528644
    16  O   -0.498680
    39  C    0.649467
    40  O   -0.509074
    41  O   -0.326072
    42  O   -0.315928
 Sum of Mulliken charges with hydrogens summed into heavy atoms =   0.00000
 Electronic spatial extent (au):  <R**2>=           4743.7144
 Charge=              0.0000 electrons
 Dipole moment (field-independent basis, Debye):
    X=              3.7835    Y=              5.6740    Z=              0.9906  Tot=              6.8913
 Quadrupole moment (field-independent basis, Debye-Ang):
   XX=           -119.2550   YY=           -120.1528   ZZ=           -121.1746
   XY=            -12.8930   XZ=             -7.5730   YZ=             -2.7990
 Traceless Quadrupole moment (field-independent basis, Debye-Ang):
   XX=              0.9392   YY=              0.0413   ZZ=             -0.9805
   XY=            -12.8930   XZ=             -7.5730   YZ=             -2.7990
 Octapole moment (field-independent basis, Debye-Ang**2):
  XXX=             68.0616  YYY=            -10.9619  ZZZ=             -2.2258  XYY=             24.8882
  XXY=             14.2360  XXZ=             26.0823  XZZ=             -1.6582  YZZ=              7.7902
  YYZ=              4.8570  XYZ=             15.8910
 Hexadecapole moment (field-independent basis, Debye-Ang**3):
 XXXX=          -3244.2425 YYYY=          -2365.9547 ZZZZ=           -623.0684 XXXY=           -149.8376
 XXXZ=            -74.5254 YYYX=            -69.7785 YYYZ=             -5.6412 ZZZX=              2.3278
 ZZZY=              0.8370 XXYY=           -940.2825 XXZZ=           -634.1355 YYZZ=           -506.5639
 XXYZ=            -40.5201 YYXZ=            -28.8368 ZZXY=            -10.5768
 N-N= 1.852460868034D+03 E-N=-5.943835732625D+03  KE= 9.519775768018D+02
 1\1\GINC-COMPUTE-8-13\SP\RmPW1PW91\6-31G(d,p)\C15H22O5\FBRUNO.IQUIR\16
 -Oct-2021\0\\# mPW1PW91/6-31g** scrf=(pcm,solvent=chloroform,smd,dovac
 uum) nmr\\comment\\0,1\C,0,-1.688417334,0.315413333,0.103800646\C,0,-2
 .66255301,-0.803790483,-0.308807634\C,0,1.878961963,0.296923304,1.6086
 83843\C,0,0.115350346,-0.978998008,-0.983634901\C,0,-0.290204275,-0.28
 9252092,0.334382805\C,0,0.64682703,0.830283534,0.853641421\C,0,0.85096
 0535,1.915867768,-0.222975128\C,0,-0.530250369,2.520668121,-0.57002419
 2\C,0,-1.623840944,1.49388781,-0.89620288\C,0,-4.062059492,-0.27010251
 5,-0.624065929\C,0,2.592004264,-0.930983649,1.056079564\C,0,1.79181526
 1,3.04213905,0.213261597\C,0,1.706844113,-1.999900894,0.399785261\C,0,
 2.528460703,-3.280194218,0.220914716\O,0,1.404492398,-1.558400832,-0.9
 17951217\O,0,-0.827921551,-1.970791889,-1.420995928\H,0,-2.058404998,0
 .713873244,1.060094397\H,0,-2.77429516,-1.490970355,0.541553254\H,0,2.
 612523444,1.088601341,1.790775385\H,0,1.536065782,0.021679443,2.617862
 547\H,0,0.180212704,-0.268093569,-1.811045232\H,0,0.096730559,1.339470
 728,1.663979852\H,0,1.285370946,1.472916252,-1.125858822\H,0,-0.429144
 564,3.2118183,-1.415949983\H,0,-0.877483362,3.125367611,0.278912456\H,
 0,-2.585852605,2.020335351,-0.908586892\H,0,-1.473746561,1.12732306,-1
 .918061243\H,0,-4.424847599,0.380391706,0.178404982\H,0,-4.774666954,-
 1.09623487,-0.728083481\H,0,-4.081811339,0.290092257,-1.564882649\H,0,
 3.148057965,-1.376769572,1.891294634\H,0,3.338684089,-0.588511016,0.32
 7254981\H,0,1.794756589,3.852666186,-0.523813714\H,0,2.822731318,2.685
 394632,0.298487218\H,0,1.490307425,3.46397895,1.177816692\H,0,3.430885
 6,-3.10066301,-0.373646717\H,0,2.813611296,-3.709879854,1.187258135\H,
 0,1.940194346,-4.039741184,-0.307997652\C,0,-2.144812656,-1.667077535,
 -1.449409518\O,0,-2.883532321,-2.163830006,-2.29308532\O,0,-0.35856197
 7,-1.243992242,1.408496846\O,0,0.546558395,-2.380914189,1.152337803\\V
 ersion=EM64L-G09RevC.01\State=1-A\HF=-960.7093601\RMSD=4.218e-09\Dipol
 e=1.1869391,2.2168042,1.0138118\Quadrupole=4.7271166,0.1107842,-4.8379
 007,-7.8877164,-4.1196955,-5.1338091\PG=C01 [X(C15H22O5)]\\@


 THE RARE EARTHS PERPLEX US IN OUR RESEARCHES,
 BAFFLE US IN OUR SPECULATIONS, AND HAUNT US IN OUR
 VERY DREAMS.  THEY STRETCH LIKE AN UNKNOWN BEFORE US,
 MOCKING, MYSTIFYING, AND MURMURING STRANGE REVELATIONS
 AND POSSIBILITIES.  -- SIR WILLIAM CROOKE, 1832-1919
 Job cpu time:  0 days  1 hours 30 minutes 49.5 seconds.
 File lengths (MBytes):  RWF=    157 Int=      0 D2E=      0 Chk=     11 Scr=      1
 Normal termination of Gaussian 09 at Sat Oct 16 12:52:52 2021.
