 Entering Gaussian System, Link 0=g09
 Input=/home/mamichetti.iquir/Linux/01_Cardona_A1A3_R__S_R_R_024_OptB.gjc
 Output=/home/mamichetti.iquir/Linux/01_Cardona_A1A3_R__S_R_R_024_OptB.log
 Initial command:
 /opt/ohpc/pub/apps/software/Gaussian/09/AMD64.SSE4a-enabled/g09/l1.exe /local/mamichetti.iquir/Gau-404755.inp -scrdir=/local/mamichetti.iquir/
 Entering Link 1 = /opt/ohpc/pub/apps/software/Gaussian/09/AMD64.SSE4a-enabled/g09/l1.exe PID=    404756.
  
 Copyright (c) 1988,1990,1992,1993,1995,1998,2003,2009,2011,
            Gaussian, Inc.  All Rights Reserved.
  
 This is part of the Gaussian(R) 09 program.  It is based on
 the Gaussian(R) 03 system (copyright 2003, Gaussian, Inc.),
 the Gaussian(R) 98 system (copyright 1998, Gaussian, Inc.),
 the Gaussian(R) 94 system (copyright 1995, Gaussian, Inc.),
 the Gaussian 92(TM) system (copyright 1992, Gaussian, Inc.),
 the Gaussian 90(TM) system (copyright 1990, Gaussian, Inc.),
 the Gaussian 88(TM) system (copyright 1988, Gaussian, Inc.),
 the Gaussian 86(TM) system (copyright 1986, Carnegie Mellon
 University), and the Gaussian 82(TM) system (copyright 1983,
 Carnegie Mellon University). Gaussian is a federally registered
 trademark of Gaussian, Inc.
  
 This software contains proprietary and confidential information,
 including trade secrets, belonging to Gaussian, Inc.
  
 This software is provided under written license and may be
 used, copied, transmitted, or stored only in accord with that
 written license.
  
 The following legend is applicable only to US Government
 contracts under FAR:
  
                    RESTRICTED RIGHTS LEGEND
  
 Use, reproduction and disclosure by the US Government is
 subject to restrictions as set forth in subparagraphs (a)
 and (c) of the Commercial Computer Software - Restricted
 Rights clause in FAR 52.227-19.
  
 Gaussian, Inc.
 340 Quinnipiac St., Bldg. 40, Wallingford CT 06492
  
  
 ---------------------------------------------------------------
 Warning -- This program may not be used in any manner that
 competes with the business of Gaussian, Inc. or will provide
 assistance to any competitor of Gaussian, Inc.  The licensee
 of this program is prohibited from giving any competitor of
 Gaussian, Inc. access to this program.  By using this program,
 the user acknowledges that Gaussian, Inc. is engaged in the
 business of creating and licensing software in the field of
 computational chemistry and represents and warrants to the
 licensee that it is not a competitor of Gaussian, Inc. and that
 it will not use this program in any manner prohibited above.
 ---------------------------------------------------------------
  

 Cite this work as:
 Gaussian 09, Revision C.01,
 M. J. Frisch, G. W. Trucks, H. B. Schlegel, G. E. Scuseria, 
 M. A. Robb, J. R. Cheeseman, G. Scalmani, V. Barone, B. Mennucci, 
 G. A. Petersson, H. Nakatsuji, M. Caricato, X. Li, H. P. Hratchian, 
 A. F. Izmaylov, J. Bloino, G. Zheng, J. L. Sonnenberg, M. Hada, 
 M. Ehara, K. Toyota, R. Fukuda, J. Hasegawa, M. Ishida, T. Nakajima, 
 Y. Honda, O. Kitao, H. Nakai, T. Vreven, J. A. Montgomery, Jr., 
 J. E. Peralta, F. Ogliaro, M. Bearpark, J. J. Heyd, E. Brothers, 
 K. N. Kudin, V. N. Staroverov, T. Keith, R. Kobayashi, J. Normand, 
 K. Raghavachari, A. Rendell, J. C. Burant, S. S. Iyengar, J. Tomasi, 
 M. Cossi, N. Rega, J. M. Millam, M. Klene, J. E. Knox, J. B. Cross, 
 V. Bakken, C. Adamo, J. Jaramillo, R. Gomperts, R. E. Stratmann, 
 O. Yazyev, A. J. Austin, R. Cammi, C. Pomelli, J. W. Ochterski, 
 R. L. Martin, K. Morokuma, V. G. Zakrzewski, G. A. Voth, 
 P. Salvador, J. J. Dannenberg, S. Dapprich, A. D. Daniels, 
 O. Farkas, J. B. Foresman, J. V. Ortiz, J. Cioslowski, 
 and D. J. Fox, Gaussian, Inc., Wallingford CT, 2010.
 
 ******************************************
 Gaussian 09:  AM64L-G09RevC.01 23-Sep-2011
                17-May-2024 
 ******************************************
 %nprocshared=4
 Will use up to    4 processors via shared memory.
 ------------------------------------------------
 # mpw1pw91/6-31+G** nmr scrf=(pcm,solvent=water)
 ------------------------------------------------
 1/38=1/1;
 2/12=2,17=6,18=5,40=1/2;
 3/5=1,6=6,7=111,11=2,16=1,25=1,30=1,70=2201,72=1,74=-7/1,2,8,3;
 4//1;
 5/5=2,38=5,53=1/2;
 8/6=1,10=90,11=11/1;
 10/13=100,45=16/2;
 6/7=2,8=2,9=2,10=2,28=1/1;
 99/9=1/99;
 -------
 comment
 -------
 Charge =  0 Multiplicity = 1
 Symbolic Z-Matrix:
 6                    -2.47719  -0.59876   0.33381 
 6                    -1.22296   0.05327   0.95424 
 7                    -0.06073  -0.84563   0.61089 
 6                    -0.5886   -1.96375  -0.20734 
 6                    -1.92183  -1.48265  -0.79361 
 6                     0.97472  -0.03014  -0.0575 
 6                     0.68874   1.39735   0.42293 
 6                    -0.84903   1.45321   0.44791 
 1                    -2.97607  -1.21978   1.08662 
 1                    -3.19851   0.14527  -0.01511 
 1                    -1.32778   0.11516   2.04387 
 1                    -0.75608  -2.8408    0.43238 
 1                     0.14325  -2.25264  -0.96652 
 1                    -2.58899  -2.30971  -1.05852 
 1                    -1.74754  -0.88398  -1.69403 
 1                     0.85633  -0.04359  -1.15369 
 1                     1.08569   1.55183   1.43411 
 1                    -1.22534   2.23977   1.11591 
 8                    -1.32621   1.6852   -0.88041 
 1                    -0.63827   2.24163  -1.29616 
 8                     1.25976   2.34089  -0.48487 
 1                     1.2663    3.20698  -0.04263 
 6                     2.40049  -0.47013   0.26247 
 1                     3.09883   0.2709   -0.14084 
 1                     2.53719  -0.51424   1.3522 
 8                     2.76712  -1.71652  -0.34224 
 1                     2.26465  -2.41444   0.10869 
 
                          Input orientation:                          
 ---------------------------------------------------------------------
 Center     Atomic      Atomic             Coordinates (Angstroms)
 Number     Number       Type             X           Y           Z
 ---------------------------------------------------------------------
      1          6           0       -2.477194   -0.598758    0.333813
      2          6           0       -1.222955    0.053273    0.954242
      3          7           0       -0.060733   -0.845629    0.610892
      4          6           0       -0.588603   -1.963745   -0.207335
      5          6           0       -1.921826   -1.482654   -0.793606
      6          6           0        0.974722   -0.030137   -0.057495
      7          6           0        0.688736    1.397348    0.422931
      8          6           0       -0.849032    1.453212    0.447910
      9          1           0       -2.976065   -1.219782    1.086623
     10          1           0       -3.198510    0.145266   -0.015111
     11          1           0       -1.327777    0.115156    2.043874
     12          1           0       -0.756077   -2.840804    0.432379
     13          1           0        0.143247   -2.252639   -0.966520
     14          1           0       -2.588987   -2.309706   -1.058522
     15          1           0       -1.747544   -0.883983   -1.694025
     16          1           0        0.856327   -0.043590   -1.153694
     17          1           0        1.085689    1.551830    1.434110
     18          1           0       -1.225342    2.239768    1.115912
     19          8           0       -1.326205    1.685203   -0.880409
     20          1           0       -0.638267    2.241631   -1.296160
     21          8           0        1.259764    2.340886   -0.484868
     22          1           0        1.266300    3.206978   -0.042628
     23          6           0        2.400489   -0.470126    0.262473
     24          1           0        3.098828    0.270895   -0.140838
     25          1           0        2.537187   -0.514240    1.352200
     26          8           0        2.767122   -1.716516   -0.342239
     27          1           0        2.264650   -2.414438    0.108689
 ---------------------------------------------------------------------
                    Distance matrix (angstroms):
                    1          2          3          4          5
     1  C    0.000000
     2  C    1.543759   0.000000
     3  N    2.444791   1.508865   0.000000
     4  C    2.392239   2.412473   1.482675   0.000000
     5  C    1.536483   2.429499   2.417040   1.533834   0.000000
     6  C    3.520252   2.420817   1.477814   2.491039   3.322899
     7  C    3.743727   2.396537   2.372336   3.650449   4.073010
     8  C    2.621929   1.534933   2.435703   3.488949   3.363266
     9  H    1.096023   2.170619   2.977494   2.815632   2.171585
    10  H    1.093442   2.202482   3.349537   3.361025   2.210452
    11  H    2.180629   1.096410   2.140548   3.152166   3.310164
    12  H    2.828202   2.977583   2.120399   1.098414   2.169466
    13  H    3.360491   3.297433   2.123562   1.093355   2.210724
    14  H    2.208719   3.391302   3.364897   2.201305   1.095125
    15  H    2.173906   2.857789   2.856474   2.172390   1.095233
    16  H    3.692323   2.962464   2.144302   2.582714   3.149397
    17  H    4.304627   2.793883   2.782046   4.225738   4.818294
    18  H    3.199382   2.192465   3.336320   4.452633   4.241200
    19  O    2.831181   2.457601   3.198517   3.783108   3.224534
    20  H    3.755832   3.192974   3.674448   4.344329   3.971194
    21  O    4.824583   3.669892   3.619155   4.692902   4.983703
    22  H    5.351549   4.139565   4.314131   5.495832   5.720207
    23  C    4.879900   3.725834   2.513963   3.374357   4.563214
    24  H    5.663357   4.463672   3.434319   4.312213   5.357985
    25  H    5.117448   3.823494   2.721864   3.782033   5.042331
    26  O    5.404561   4.553431   3.108644   3.367523   4.716424
    27  H    5.082564   4.355221   2.849697   2.905864   4.382800
                    6          7          8          9         10
     6  C    0.000000
     7  C    1.533072   0.000000
     8  C    2.404545   1.538985   0.000000
     9  H    4.281703   4.551991   3.475215   0.000000
    10  H    4.177132   4.107344   2.728582   1.768235   0.000000
    11  H    3.120635   2.887524   2.136982   2.327067   2.782080
    12  H    3.336988   4.477668   4.295050   2.825614   3.883599
    13  H    2.541101   3.943417   4.088834   3.874571   4.221666
    14  H    4.347242   5.165309   4.410933   2.437091   2.736259
    15  H    3.289075   3.952396   3.295101   3.058436   2.446101
    16  H    1.102656   2.142460   2.777373   4.592350   4.215891
    17  H    2.177112   1.097233   2.173813   4.929546   4.736351
    18  H    3.371889   2.203086   1.098411   3.877419   3.091851
    19  O    2.985606   2.416928   1.430365   3.876879   2.574038
    20  H    3.049091   2.330027   1.925567   4.808777   3.548334
    21  O    2.426035   1.428438   2.470842   5.752407   4.991756
    22  H    3.250254   1.955783   2.791228   6.234507   5.413813
    23  C    1.526035   2.538366   3.780609   5.490769   5.639552
    24  H    2.146950   2.719426   4.162943   6.374410   6.299846
    25  H    2.159373   2.816821   4.019339   5.564555   5.933187
    26  O    2.477428   3.821168   4.873200   5.939073   6.257956
    27  H    2.715957   4.136661   4.976827   5.463392   6.034362
                   11         12         13         14         15
    11  H    0.000000
    12  H    3.414887   0.000000
    13  H    4.102784   1.763984   0.000000
    14  H    4.134667   2.421654   2.734378   0.000000
    15  H    3.891834   3.055119   2.444908   1.773295   0.000000
    16  H    3.875558   3.597205   2.328823   4.124867   2.788972
    17  H    2.874137   4.867320   4.596216   5.884549   4.872948
    18  H    2.320686   5.147780   5.137244   5.223543   4.233942
    19  O    3.319108   4.746915   4.203963   4.193524   2.727676
    20  H    4.019098   5.369625   4.573608   4.957464   3.340397
    21  O    4.247797   5.635146   4.751744   6.063825   4.572280
    22  H    4.543357   6.394631   5.649977   6.806547   5.342877
    23  C    4.173238   3.951315   3.127766   5.479412   4.604926
    24  H    4.938831   4.987138   3.973089   6.312914   5.218568
    25  H    3.976493   4.135766   3.758915   5.942469   5.270210
    26  O    5.081019   3.778490   2.749886   5.436252   4.785671
    27  H    4.800971   3.067793   2.383821   4.993109   4.657228
                   16         17         18         19         20
    16  H    0.000000
    17  H    3.048721   0.000000
    18  H    3.833821   2.432154   0.000000
    19  O    2.797652   3.345448   2.074371   0.000000
    20  H    2.734290   3.301852   2.482489   0.977609   0.000000
    21  O    2.509146   2.082159   2.957782   2.696963   2.066535
    22  H    3.459586   2.225509   2.913072   3.120698   2.476007
    23  C    2.138200   2.681369   4.606358   4.454197   4.360849
    24  H    2.480643   2.859018   4.914705   4.704057   4.380006
    25  H    3.053900   2.526302   4.668728   4.974725   4.969119
    26  O    2.666135   4.082244   5.806734   5.349453   5.307878
    27  H    3.032805   4.344879   5.903912   5.538918   5.663877
                   21         22         23         24         25
    21  O    0.000000
    22  H    0.972489   0.000000
    23  C    3.124350   3.860125   0.000000
    24  H    2.790229   3.462425   1.095194   0.000000
    25  H    3.627447   4.172309   1.099153   1.777931   0.000000
    26  O    4.330702   5.155873   1.433033   2.024943   2.090326
    27  H    4.896449   5.711385   1.955109   2.822965   2.287214
                   26         27
    26  O    0.000000
    27  H    0.971035   0.000000
 Stoichiometry    C8H15NO3
 Framework group  C1[X(C8H15NO3)]
 Deg. of freedom    75
 Full point group                 C1      NOp   1
 Largest Abelian subgroup         C1      NOp   1
 Largest concise Abelian subgroup C1      NOp   1
                         Standard orientation:                         
 ---------------------------------------------------------------------
 Center     Atomic      Atomic             Coordinates (Angstroms)
 Number     Number       Type             X           Y           Z
 ---------------------------------------------------------------------
      1          6           0       -2.477194   -0.598756    0.333813
      2          6           0       -1.222955    0.053274    0.954242
      3          7           0       -0.060734   -0.845629    0.610892
      4          6           0       -0.588604   -1.963745   -0.207335
      5          6           0       -1.921827   -1.482653   -0.793606
      6          6           0        0.974722   -0.030138   -0.057495
      7          6           0        0.688737    1.397348    0.422931
      8          6           0       -0.849031    1.453213    0.447910
      9          1           0       -2.976066   -1.219780    1.086623
     10          1           0       -3.198510    0.145268   -0.015111
     11          1           0       -1.327777    0.115157    2.043874
     12          1           0       -0.756079   -2.840804    0.432379
     13          1           0        0.143246   -2.252639   -0.966520
     14          1           0       -2.588989   -2.309704   -1.058522
     15          1           0       -1.747545   -0.883982   -1.694025
     16          1           0        0.856327   -0.043591   -1.153694
     17          1           0        1.085690    1.551829    1.434110
     18          1           0       -1.225340    2.239769    1.115912
     19          8           0       -1.326204    1.685204   -0.880409
     20          1           0       -0.638265    2.241631   -1.296160
     21          8           0        1.259766    2.340885   -0.484868
     22          1           0        1.266302    3.206977   -0.042628
     23          6           0        2.400489   -0.470128    0.262473
     24          1           0        3.098828    0.270893   -0.140838
     25          1           0        2.537187   -0.514242    1.352200
     26          8           0        2.767121   -1.716518   -0.342239
     27          1           0        2.264648   -2.414440    0.108689
 ---------------------------------------------------------------------
 Rotational constants (GHZ):      1.1595536      0.9401879      0.6031203
 Standard basis: 6-31+G(d,p) (6D, 7F)
 There are   303 symmetry adapted basis functions of A   symmetry.
 Integral buffers will be    131072 words long.
 Raffenetti 2 integral format.
 Two-electron integral symmetry is turned on.
   303 basis functions,   489 primitive gaussians,   303 cartesian basis functions
    47 alpha electrons       47 beta electrons
       nuclear repulsion energy       810.4684282868 Hartrees.
 NAtoms=   27 NActive=   27 NUniq=   27 SFac= 1.00D+00 NAtFMM=   60 NAOKFM=F Big=F
 ------------------------------------------------------------------------------
 Polarizable Continuum Model (PCM)
 =================================
 Model                : PCM.
 Atomic radii         : UFF (Universal Force Field).
 Polarization charges : Total charges.
 Charge compensation  : None.
 Solution method      : Matrix inversion.
 Cavity type          : Scaled VdW (van der Waals Surface) (Alpha=1.100).
 Cavity algorithm     : GePol (No added spheres)
                        Default sphere list used, NSphG=   27.
                        Lebedev-Laikov grids with approx.  5.0 points / Ang**2.
                        Smoothing algorithm: Karplus/York (Gamma=1.0000).
                        Polarization charges: spherical gaussians, with
                                              point-specific exponents (IZeta= 3).
                        Self-potential: point-specific (ISelfS= 7).
                        Self-field    : sphere-specific E.n sum rule (ISelfD= 2).
 Solvent              : Water, Eps=  78.355300 Eps(inf)=   1.777849
 ------------------------------------------------------------------------------
 One-electron integrals computed using PRISM.
 NBasis=   303 RedAO= T  NBF=   303
 NBsUse=   303 1.00D-06 NBFU=   303
 Harris functional with IExCor=  908 diagonalized for initial guess.
 ExpMin= 4.38D-02 ExpMax= 5.48D+03 ExpMxC= 8.25D+02 IAcc=2 IRadAn=         4 AccDes= 0.00D+00
 HarFok:  IExCor=  908 AccDes= 0.00D+00 IRadAn=         4 IDoV= 1
 ScaDFX=  1.000000  1.000000  1.000000  1.000000
 FoFCou: FMM=F IPFlag=           0 FMFlag=      100000 FMFlg1=           0
         NFxFlg=           0 DoJE=T BraDBF=F KetDBF=T FulRan=T
         Omega=  0.000000  0.000000  1.000000  0.000000  0.000000 ICntrl=     500 IOpCl=  0
         NMat0=    1 NMatS0=    1 NMatT0=    0 NMatD0=    1 NMtDS0=    0 NMtDT0=    0
         I1Cent=           4 NGrid=           0.
 Petite list used in FoFCou.
 Initial guess orbital symmetries:
       Occupied  (A) (A) (A) (A) (A) (A) (A) (A) (A) (A) (A) (A)
                 (A) (A) (A) (A) (A) (A) (A) (A) (A) (A) (A) (A)
                 (A) (A) (A) (A) (A) (A) (A) (A) (A) (A) (A) (A)
                 (A) (A) (A) (A) (A) (A) (A) (A) (A) (A) (A)
       Virtual   (A) (A) (A) (A) (A) (A) (A) (A) (A) (A) (A) (A)
                 (A) (A) (A) (A) (A) (A) (A) (A) (A) (A) (A) (A)
                 (A) (A) (A) (A) (A) (A) (A) (A) (A) (A) (A) (A)
                 (A) (A) (A) (A) (A) (A) (A) (A) (A) (A) (A) (A)
                 (A) (A) (A) (A) (A) (A) (A) (A) (A) (A) (A) (A)
                 (A) (A) (A) (A) (A) (A) (A) (A) (A) (A) (A) (A)
                 (A) (A) (A) (A) (A) (A) (A) (A) (A) (A) (A) (A)
                 (A) (A) (A) (A) (A) (A) (A) (A) (A) (A) (A) (A)
                 (A) (A) (A) (A) (A) (A) (A) (A) (A) (A) (A) (A)
                 (A) (A) (A) (A) (A) (A) (A) (A) (A) (A) (A) (A)
                 (A) (A) (A) (A) (A) (A) (A) (A) (A) (A) (A) (A)
                 (A) (A) (A) (A) (A) (A) (A) (A) (A) (A) (A) (A)
                 (A) (A) (A) (A) (A) (A) (A) (A) (A) (A) (A) (A)
                 (A) (A) (A) (A) (A) (A) (A) (A) (A) (A) (A) (A)
                 (A) (A) (A) (A) (A) (A) (A) (A) (A) (A) (A) (A)
                 (A) (A) (A) (A) (A) (A) (A) (A) (A) (A) (A) (A)
                 (A) (A) (A) (A) (A) (A) (A) (A) (A) (A) (A) (A)
                 (A) (A) (A) (A) (A) (A) (A) (A) (A) (A) (A) (A)
                 (A) (A) (A) (A) (A) (A) (A) (A) (A) (A) (A) (A)
                 (A) (A) (A) (A) (A) (A) (A) (A) (A) (A) (A) (A)
                 (A) (A) (A) (A) (A) (A) (A) (A) (A) (A) (A) (A)
                 (A) (A) (A) (A)
 The electronic state of the initial guess is 1-A.
 Requested convergence on RMS density matrix=1.00D-08 within 128 cycles.
 Requested convergence on MAX density matrix=1.00D-06.
 Requested convergence on             energy=1.00D-06.
 No special actions if energy rises.
 Error on total polarization charges =  0.01440
 SCF Done:  E(RmPW1PW91) =  -594.198349736     A.U. after   13 cycles
             Convg  =    0.4928D-08             -V/T =  2.0094
 Range of M.O.s used for correlation:     1   303
 NBasis=   303 NAE=    47 NBE=    47 NFC=     0 NFV=     0
 NROrb=    303 NOA=    47 NOB=    47 NVA=   256 NVB=   256

 **** Warning!!: The largest alpha MO coefficient is  0.61499203D+02

 NEqPCM:  Using equilibrium solvation (IEInf=0, Eps=  78.3553, EpsInf=   1.7778)
          Differentiating once with respect to magnetic field using GIAOs.
          Electric field/nuclear overlap derivatives assumed to be zero.
 FoFCou: FMM=F IPFlag=           0 FMFlag=    10101102 FMFlg1=           0
         NFxFlg=    40000000 DoJE=F BraDBF=F KetDBF=T FulRan=T
         Omega=  0.000000  0.000000  1.000000  0.000000  0.000000 ICntrl=    6100 IOpCl=  0
         NMat0=    1 NMatS0=    1 NMatT0=    0 NMatD0=    1 NMtDS0=    0 NMtDT0=    0
         I1Cent=           7 NGrid=        1810.
 Symmetry not used in FoFCou.
          There are     3 degrees of freedom in the 1st order CPHF.  IDoFFX=0.
      3 vectors produced by pass  0 Test12= 4.01D-13 3.33D-08 XBig12= 3.72D+01 1.12D+00.
 AX will form     3 AO Fock derivatives at one time.
      3 vectors produced by pass  1 Test12= 4.01D-13 3.33D-08 XBig12= 9.12D-02 5.10D-02.
      3 vectors produced by pass  2 Test12= 4.01D-13 3.33D-08 XBig12= 2.09D-04 2.16D-03.
      3 vectors produced by pass  3 Test12= 4.01D-13 3.33D-08 XBig12= 8.15D-07 1.58D-04.
      3 vectors produced by pass  4 Test12= 4.01D-13 3.33D-08 XBig12= 2.32D-09 1.06D-05.
      3 vectors produced by pass  5 Test12= 4.01D-13 3.33D-08 XBig12= 7.04D-12 5.89D-07.
 Inverted reduced A of dimension    18 with in-core refinement.
 Calculating GIAO nuclear magnetic shielding tensors.
 SCF GIAO Magnetic shielding tensor (ppm):
      1  C    Isotropic =   167.6332   Anisotropy =    22.9361
   XX=   177.3834   YX=    -1.3294   ZX=     2.9272
   XY=     0.7147   YY=   161.9215   ZY=    18.9166
   XZ=    -3.9402   YZ=    21.2595   ZZ=   163.5948
   Eigenvalues:   142.6522   177.3235   182.9240
      2  C    Isotropic =   127.3445   Anisotropy =    55.3517
   XX=   145.7896   YX=   -19.6589   ZX=    -0.0935
   XY=   -19.1010   YY=   141.2075   ZY=    15.9794
   XZ=    -5.2821   YZ=     5.5769   ZZ=    95.0363
   Eigenvalues:    92.5900   125.1979   164.2456
      3  N    Isotropic =   191.2057   Anisotropy =    75.3311
   XX=   236.6787   YX=    -4.3410   ZX=   -19.8381
   XY=    10.4691   YY=   194.1681   ZY=    23.1758
   XZ=   -23.1431   YZ=    20.3670   ZZ=   142.7702
   Eigenvalues:   130.5296   201.6610   241.4264
      4  C    Isotropic =   139.6584   Anisotropy =    58.0136
   XX=   137.7127   YX=    17.2100   ZX=     9.8557
   XY=     4.6803   YY=   152.3611   ZY=    28.8283
   XZ=    23.0343   YZ=    25.0743   ZZ=   128.9013
   Eigenvalues:   108.6937   131.9473   178.3341
      5  C    Isotropic =   168.2244   Anisotropy =    24.4774
   XX=   172.7602   YX=    -3.9311   ZX=     7.4355
   XY=    -6.4652   YY=   170.4232   ZY=    13.6531
   XZ=    11.8157   YZ=    21.6454   ZZ=   161.4897
   Eigenvalues:   143.7301   176.4004   184.5427
      6  C    Isotropic =   125.1502   Anisotropy =    41.0640
   XX=   127.0195   YX=    12.7936   ZX=    -6.8099
   XY=    20.2803   YY=   136.3698   ZY=   -12.4941
   XZ=   -25.0596   YZ=     7.4018   ZZ=   112.0615
   Eigenvalues:   100.4111   122.5134   152.5263
      7  C    Isotropic =   119.4012   Anisotropy =    49.7585
   XX=   125.9117   YX=    10.5291   ZX=   -19.2564
   XY=     7.7975   YY=   137.6291   ZY=   -22.1877
   XZ=   -11.9985   YZ=   -15.0297   ZZ=    94.6627
   Eigenvalues:    84.3087   121.3212   152.5735
      8  C    Isotropic =   121.2808   Anisotropy =    21.2716
   XX=   115.5038   YX=     1.7639   ZX=     6.7790
   XY=     0.9114   YY=   119.3712   ZY=    -9.0675
   XZ=    10.7556   YZ=    -5.1142   ZZ=   128.9674
   Eigenvalues:   109.0756   119.3050   135.4618
      9  H    Isotropic =    29.9167   Anisotropy =    12.5241
   XX=    31.7481   YX=     4.0901   ZX=    -4.8141
   XY=     4.7649   YY=    27.3144   ZY=    -1.9281
   XZ=    -5.3102   YZ=    -1.9600   ZZ=    30.6877
   Eigenvalues:    24.2987    27.1854    38.2661
     10  H    Isotropic =    29.4163   Anisotropy =     9.2126
   XX=    33.8516   YX=    -2.8753   ZX=     1.2174
   XY=    -3.1475   YY=    29.6427   ZY=    -1.0172
   XZ=     0.6494   YZ=    -0.6620   ZZ=    24.7546
   Eigenvalues:    24.5900    28.1009    35.5580
     11  H    Isotropic =    27.9860   Anisotropy =     9.1303
   XX=    26.4973   YX=    -0.4574   ZX=    -2.6022
   XY=    -0.2005   YY=    24.4754   ZY=     1.6165
   XZ=    -2.6750   YZ=     0.6969   ZZ=    32.9852
   Eigenvalues:    24.3206    25.5644    34.0729
     12  H    Isotropic =    28.6858   Anisotropy =    11.6537
   XX=    25.7357   YX=     2.1182   ZX=     1.2308
   XY=     1.0182   YY=    35.6474   ZY=    -3.1439
   XZ=     2.4258   YZ=    -2.5410   ZZ=    24.6743
   Eigenvalues:    22.5118    27.0906    36.4549
     13  H    Isotropic =    28.6466   Anisotropy =     7.4127
   XX=    30.8334   YX=    -1.6065   ZX=    -0.3564
   XY=    -1.6560   YY=    29.1332   ZY=     5.0496
   XZ=    -1.4197   YZ=     4.0127   ZZ=    25.9731
   Eigenvalues:    22.7481    29.6032    33.5884
     14  H    Isotropic =    30.1007   Anisotropy =    12.7400
   XX=    30.7472   YX=     4.5343   ZX=     2.6768
   XY=     5.0974   YY=    32.1655   ZY=     4.1639
   XZ=     3.1371   YZ=     4.1292   ZZ=    27.3894
   Eigenvalues:    24.9878    26.7203    38.5941
     15  H    Isotropic =    29.6687   Anisotropy =     7.6666
   XX=    26.7300   YX=     0.0372   ZX=     0.4071
   XY=     0.1174   YY=    27.9330   ZY=    -2.0325
   XZ=     1.0582   YZ=    -1.1647   ZZ=    34.3430
   Eigenvalues:    26.6080    27.6183    34.7797
     16  H    Isotropic =    28.6801   Anisotropy =     4.2528
   XX=    29.7062   YX=     0.3792   ZX=    -1.7772
   XY=     0.0738   YY=    27.8084   ZY=    -2.1653
   XZ=    -2.2795   YZ=    -0.5712   ZZ=    28.5257
   Eigenvalues:    26.2996    28.2254    31.5153
     17  H    Isotropic =    27.7339   Anisotropy =     4.3161
   XX=    26.3561   YX=     2.1389   ZX=     0.5635
   XY=     0.9481   YY=    27.5941   ZY=     0.2427
   XZ=     2.6956   YZ=     1.2645   ZZ=    29.2513
   Eigenvalues:    25.0678    27.5225    30.6113
     18  H    Isotropic =    27.7859   Anisotropy =     9.0098
   XX=    24.4096   YX=    -2.0802   ZX=     0.1219
   XY=    -2.0753   YY=    28.7174   ZY=     3.4039
   XZ=    -1.5857   YZ=     4.3151   ZZ=    30.2307
   Eigenvalues:    23.4364    26.1289    33.7924
     19  O    Isotropic =   312.8687   Anisotropy =    47.3121
   XX=   307.0298   YX=    16.8114   ZX=   -31.7841
   XY=    23.3771   YY=   317.2551   ZY=    15.2277
   XZ=   -16.4079   YZ=   -20.1784   ZZ=   314.3212
   Eigenvalues:   280.6025   313.5934   344.4101
     20  H    Isotropic =    28.6331   Anisotropy =    18.4874
   XX=    32.3919   YX=     7.8833   ZX=    -1.1923
   XY=     6.8258   YY=    26.8463   ZY=    -8.7366
   XZ=    -3.0705   YZ=    -8.3248   ZZ=    26.6612
   Eigenvalues:    17.1713    27.7700    40.9580
     21  O    Isotropic =   307.8055   Anisotropy =    92.5862
   XX=   271.2847   YX=    -9.6010   ZX=     1.7496
   XY=    14.6949   YY=   365.8937   ZY=     7.2250
   XZ=     2.3006   YZ=    27.1488   ZZ=   286.2380
   Eigenvalues:   271.0144   282.8724   369.5296
     22  H    Isotropic =    30.0482   Anisotropy =    22.7001
   XX=    22.1638   YX=     4.0189   ZX=    -1.0405
   XY=     4.2639   YY=    43.0677   ZY=     5.6384
   XZ=    -0.3253   YZ=     5.1363   ZZ=    24.9130
   Eigenvalues:    20.5075    24.4555    45.1816
     23  C    Isotropic =   124.8194   Anisotropy =    48.6917
   XX=   125.0213   YX=   -14.4523   ZX=     4.5080
   XY=   -20.3122   YY=   138.2289   ZY=    23.9446
   XZ=     0.3739   YZ=    20.8498   ZZ=   111.2079
   Eigenvalues:    94.3760   122.8016   157.2805
     24  H    Isotropic =    27.7633   Anisotropy =     5.3031
   XX=    30.9708   YX=    -0.3019   ZX=    -1.1278
   XY=     1.3374   YY=    30.0898   ZY=    -0.1646
   XZ=    -1.2550   YZ=     1.2048   ZZ=    22.2292
   Eigenvalues:    22.0273    29.9639    31.2987
     25  H    Isotropic =    28.0153   Anisotropy =     5.4707
   XX=    27.2934   YX=    -2.3220   ZX=     2.7315
   XY=    -1.5287   YY=    27.8505   ZY=     4.1226
   XZ=     2.9885   YZ=     1.6429   ZZ=    28.9021
   Eigenvalues:    22.8920    29.4915    31.6625
     26  O    Isotropic =   307.0384   Anisotropy =    20.7760
   XX=   301.3094   YX=    14.6761   ZX=     4.4440
   XY=     2.6922   YY=   311.4695   ZY=    -3.7444
   XZ=   -12.8413   YZ=    -8.6407   ZZ=   308.3364
   Eigenvalues:   296.2946   303.9316   320.8891
     27  H    Isotropic =    30.0231   Anisotropy =    14.6392
   XX=    28.9400   YX=     2.5517   ZX=    -4.8158
   XY=     3.3673   YY=    36.9050   ZY=    -4.2138
   XZ=    -3.8476   YZ=    -4.1212   ZZ=    24.2244
   Eigenvalues:    21.3310    28.9558    39.7826
 End of Minotr Frequency-dependent properties file   721 does not exist.
 End of Minotr Frequency-dependent properties file   722 does not exist.

 **********************************************************************

            Population analysis using the SCF density.

 **********************************************************************

 Orbital symmetries:
       Occupied  (A) (A) (A) (A) (A) (A) (A) (A) (A) (A) (A) (A)
                 (A) (A) (A) (A) (A) (A) (A) (A) (A) (A) (A) (A)
                 (A) (A) (A) (A) (A) (A) (A) (A) (A) (A) (A) (A)
                 (A) (A) (A) (A) (A) (A) (A) (A) (A) (A) (A)
       Virtual   (A) (A) (A) (A) (A) (A) (A) (A) (A) (A) (A) (A)
                 (A) (A) (A) (A) (A) (A) (A) (A) (A) (A) (A) (A)
                 (A) (A) (A) (A) (A) (A) (A) (A) (A) (A) (A) (A)
                 (A) (A) (A) (A) (A) (A) (A) (A) (A) (A) (A) (A)
                 (A) (A) (A) (A) (A) (A) (A) (A) (A) (A) (A) (A)
                 (A) (A) (A) (A) (A) (A) (A) (A) (A) (A) (A) (A)
                 (A) (A) (A) (A) (A) (A) (A) (A) (A) (A) (A) (A)
                 (A) (A) (A) (A) (A) (A) (A) (A) (A) (A) (A) (A)
                 (A) (A) (A) (A) (A) (A) (A) (A) (A) (A) (A) (A)
                 (A) (A) (A) (A) (A) (A) (A) (A) (A) (A) (A) (A)
                 (A) (A) (A) (A) (A) (A) (A) (A) (A) (A) (A) (A)
                 (A) (A) (A) (A) (A) (A) (A) (A) (A) (A) (A) (A)
                 (A) (A) (A) (A) (A) (A) (A) (A) (A) (A) (A) (A)
                 (A) (A) (A) (A) (A) (A) (A) (A) (A) (A) (A) (A)
                 (A) (A) (A) (A) (A) (A) (A) (A) (A) (A) (A) (A)
                 (A) (A) (A) (A) (A) (A) (A) (A) (A) (A) (A) (A)
                 (A) (A) (A) (A) (A) (A) (A) (A) (A) (A) (A) (A)
                 (A) (A) (A) (A) (A) (A) (A) (A) (A) (A) (A) (A)
                 (A) (A) (A) (A) (A) (A) (A) (A) (A) (A) (A) (A)
                 (A) (A) (A) (A) (A) (A) (A) (A) (A) (A) (A) (A)
                 (A) (A) (A) (A) (A) (A) (A) (A) (A) (A) (A) (A)
                 (A) (A) (A) (A)
 The electronic state is 1-A.
 Alpha  occ. eigenvalues --  -19.27313 -19.25596 -19.24964 -14.41211 -10.31135
 Alpha  occ. eigenvalues --  -10.30091 -10.29355 -10.27951 -10.27787 -10.26713
 Alpha  occ. eigenvalues --  -10.24446 -10.24036  -1.08435  -1.05613  -1.04815
 Alpha  occ. eigenvalues --   -0.96144  -0.82735  -0.79114  -0.75396  -0.71459
 Alpha  occ. eigenvalues --   -0.66633  -0.61696  -0.60061  -0.57587  -0.56001
 Alpha  occ. eigenvalues --   -0.53465  -0.51736  -0.50481  -0.49333  -0.48717
 Alpha  occ. eigenvalues --   -0.45778  -0.43847  -0.43142  -0.41469  -0.40471
 Alpha  occ. eigenvalues --   -0.39747  -0.38929  -0.37587  -0.35625  -0.35297
 Alpha  occ. eigenvalues --   -0.34725  -0.34560  -0.33884  -0.30928  -0.30161
 Alpha  occ. eigenvalues --   -0.28940  -0.23173
 Alpha virt. eigenvalues --    0.00265   0.01230   0.02005   0.02236   0.03701
 Alpha virt. eigenvalues --    0.04198   0.04532   0.05282   0.05414   0.07002
 Alpha virt. eigenvalues --    0.07495   0.08039   0.08417   0.09162   0.09677
 Alpha virt. eigenvalues --    0.10594   0.11581   0.11961   0.12116   0.12702
 Alpha virt. eigenvalues --    0.13251   0.13836   0.14492   0.14871   0.15451
 Alpha virt. eigenvalues --    0.15607   0.16306   0.16738   0.17737   0.18463
 Alpha virt. eigenvalues --    0.19140   0.19331   0.19635   0.20674   0.21301
 Alpha virt. eigenvalues --    0.21472   0.21879   0.22359   0.22773   0.23203
 Alpha virt. eigenvalues --    0.23631   0.24116   0.24843   0.25179   0.26047
 Alpha virt. eigenvalues --    0.26470   0.26939   0.27652   0.28007   0.28912
 Alpha virt. eigenvalues --    0.29612   0.30346   0.30610   0.30971   0.31722
 Alpha virt. eigenvalues --    0.32774   0.33108   0.33464   0.34125   0.34775
 Alpha virt. eigenvalues --    0.35386   0.35986   0.36963   0.37413   0.37931
 Alpha virt. eigenvalues --    0.39218   0.39976   0.40352   0.41673   0.41798
 Alpha virt. eigenvalues --    0.42312   0.43253   0.44599   0.45166   0.47132
 Alpha virt. eigenvalues --    0.48822   0.64521   0.66599   0.67703   0.68807
 Alpha virt. eigenvalues --    0.69448   0.69976   0.72012   0.72996   0.74568
 Alpha virt. eigenvalues --    0.77568   0.78530   0.78763   0.81047   0.81859
 Alpha virt. eigenvalues --    0.82818   0.84159   0.85518   0.86346   0.86940
 Alpha virt. eigenvalues --    0.88823   0.91087   0.92869   0.94175   0.96457
 Alpha virt. eigenvalues --    0.99177   1.00485   1.02237   1.03072   1.03336
 Alpha virt. eigenvalues --    1.04306   1.06614   1.08346   1.09777   1.10574
 Alpha virt. eigenvalues --    1.11555   1.12970   1.14361   1.14922   1.15665
 Alpha virt. eigenvalues --    1.17751   1.18735   1.19908   1.21947   1.24658
 Alpha virt. eigenvalues --    1.25986   1.28723   1.29959   1.31559   1.33437
 Alpha virt. eigenvalues --    1.34249   1.34941   1.37055   1.39541   1.42195
 Alpha virt. eigenvalues --    1.44782   1.45754   1.47066   1.48790   1.52681
 Alpha virt. eigenvalues --    1.55573   1.56779   1.58615   1.59217   1.61888
 Alpha virt. eigenvalues --    1.62740   1.64874   1.65857   1.69467   1.70796
 Alpha virt. eigenvalues --    1.73100   1.74096   1.75411   1.77865   1.78613
 Alpha virt. eigenvalues --    1.80989   1.82572   1.84277   1.86504   1.87281
 Alpha virt. eigenvalues --    1.88303   1.90411   1.91069   1.93070   1.94170
 Alpha virt. eigenvalues --    1.95826   1.98675   2.02490   2.03819   2.05734
 Alpha virt. eigenvalues --    2.06199   2.07036   2.08033   2.09304   2.10706
 Alpha virt. eigenvalues --    2.13639   2.15529   2.16540   2.17933   2.20384
 Alpha virt. eigenvalues --    2.21385   2.22319   2.24838   2.26558   2.30818
 Alpha virt. eigenvalues --    2.31110   2.34375   2.35321   2.37001   2.40289
 Alpha virt. eigenvalues --    2.41223   2.42746   2.43666   2.45687   2.46881
 Alpha virt. eigenvalues --    2.49505   2.50512   2.52935   2.54343   2.55410
 Alpha virt. eigenvalues --    2.56617   2.58263   2.59555   2.60767   2.65395
 Alpha virt. eigenvalues --    2.65852   2.66636   2.67733   2.69077   2.70108
 Alpha virt. eigenvalues --    2.72248   2.72547   2.74110   2.76015   2.77552
 Alpha virt. eigenvalues --    2.78843   2.80729   2.83889   2.84854   2.86784
 Alpha virt. eigenvalues --    2.87533   2.89016   2.90459   2.94297   2.95466
 Alpha virt. eigenvalues --    2.96980   2.99103   3.01127   3.02078   3.03952
 Alpha virt. eigenvalues --    3.06051   3.09434   3.11728   3.12496   3.32843
 Alpha virt. eigenvalues --    3.34949   3.37225   3.39249   3.40181   3.44778
 Alpha virt. eigenvalues --    3.47055   3.49392   3.52322   3.53987   3.55805
 Alpha virt. eigenvalues --    3.57062   3.58189   3.60627   3.61480   4.29072
 Alpha virt. eigenvalues --    4.34506   4.37222   4.47028   4.51058   4.55828
 Alpha virt. eigenvalues --    4.62328   4.68323   4.79908   4.80184   4.87619
 Alpha virt. eigenvalues --    5.03029
          Condensed to atoms (all electrons):
              1          2          3          4          5          6
     1  C    5.902523  -0.512518   0.026651   0.115661   0.051970  -0.041120
     2  C   -0.512518   9.130644  -0.247473  -0.482187   0.222752  -1.128970
     3  N    0.026651  -0.247473   7.412726   0.162990  -0.149633  -0.286623
     4  C    0.115661  -0.482187   0.162990   6.053462  -0.084546  -0.182207
     5  C    0.051970   0.222752  -0.149633  -0.084546   5.622896   0.087800
     6  C   -0.041120  -1.128970  -0.286623  -0.182207   0.087800  10.626879
     7  C   -0.011115   0.846190   0.054694  -0.424683   0.025995  -2.269480
     8  C   -0.054940  -1.476176  -0.108952   0.225249   0.018213   1.441575
     9  H    0.411193  -0.066874   0.010026  -0.003614  -0.045954   0.012597
    10  H    0.417758  -0.132743   0.017709   0.028487  -0.031315   0.006177
    11  H    0.021560   0.181599  -0.008274  -0.003144   0.013095   0.022694
    12  H   -0.000511  -0.025908  -0.029368   0.370815  -0.031500   0.012559
    13  H    0.020465   0.036491  -0.061914   0.385941  -0.028839   0.016146
    14  H   -0.030061   0.016847   0.013936  -0.028026   0.353506   0.003238
    15  H   -0.061697  -0.003183   0.010183  -0.087273   0.451447   0.013537
    16  H    0.016105   0.025459  -0.065864   0.068571  -0.018728   0.279217
    17  H    0.017659  -0.030434   0.046943   0.019729  -0.004710  -0.083914
    18  H    0.030730  -0.099217   0.022032   0.005295  -0.014906   0.007662
    19  O    0.092777  -0.403760   0.060205   0.025772  -0.054412   0.013050
    20  H    0.002839   0.056390  -0.000883   0.008579  -0.007324  -0.002054
    21  O   -0.005275   0.027013   0.018059   0.005302   0.003468  -0.091450
    22  H    0.000301   0.010817  -0.003527  -0.000687  -0.000417   0.016561
    23  C    0.106071  -0.129835   0.232244   0.093615  -0.140186  -1.924923
    24  H   -0.000156   0.015723   0.011211  -0.006820   0.001644  -0.193796
    25  H    0.003746   0.002051   0.013060   0.014020  -0.002724  -0.125768
    26  O    0.007087   0.019978   0.025576  -0.010583  -0.005507  -0.141581
    27  H   -0.000834   0.010956   0.016691  -0.006914   0.006424  -0.073118
              7          8          9         10         11         12
     1  C   -0.011115  -0.054940   0.411193   0.417758   0.021560  -0.000511
     2  C    0.846190  -1.476176  -0.066874  -0.132743   0.181599  -0.025908
     3  N    0.054694  -0.108952   0.010026   0.017709  -0.008274  -0.029368
     4  C   -0.424683   0.225249  -0.003614   0.028487  -0.003144   0.370815
     5  C    0.025995   0.018213  -0.045954  -0.031315   0.013095  -0.031500
     6  C   -2.269480   1.441575   0.012597   0.006177   0.022694   0.012559
     7  C    8.718523  -1.820765  -0.002790  -0.011057  -0.023942   0.009954
     8  C   -1.820765   7.581190   0.014271   0.041133   0.055257  -0.000055
     9  H   -0.002790   0.014271   0.529101  -0.025187  -0.007593   0.001463
    10  H   -0.011057   0.041133  -0.025187   0.510174   0.002777  -0.000021
    11  H   -0.023942   0.055257  -0.007593   0.002777   0.566868   0.000834
    12  H    0.009954  -0.000055   0.001463  -0.000021   0.000834   0.554455
    13  H    0.016369  -0.019796  -0.000109  -0.000143  -0.000189  -0.031992
    14  H    0.003708   0.001952  -0.005063   0.000831  -0.000050  -0.003380
    15  H    0.011249   0.001526   0.004146  -0.005341  -0.000105   0.004064
    16  H   -0.031741  -0.011105  -0.000003  -0.000028  -0.000531  -0.000339
    17  H    0.260287   0.021048   0.000003  -0.000005   0.000609   0.000009
    18  H    0.067521   0.279394  -0.000002   0.000339  -0.001562   0.000005
    19  O   -0.023551   0.282336  -0.000254   0.000520   0.010165   0.000209
    20  H   -0.097721   0.010024   0.000000  -0.000024  -0.000254   0.000000
    21  O    0.109556  -0.023976   0.000019   0.000011  -0.000261   0.000014
    22  H    0.054425  -0.064675   0.000000   0.000000  -0.000009   0.000000
    23  C    0.523127  -0.406473   0.000130   0.000633   0.005321   0.005730
    24  H    0.055968  -0.015445   0.000000   0.000000  -0.000008  -0.000004
    25  H    0.023546  -0.015174   0.000000   0.000000  -0.000020   0.000018
    26  O    0.059530  -0.043207  -0.000012   0.000002   0.000040  -0.000238
    27  H    0.012189  -0.002997   0.000000   0.000000  -0.000009  -0.000405
             13         14         15         16         17         18
     1  C    0.020465  -0.030061  -0.061697   0.016105   0.017659   0.030730
     2  C    0.036491   0.016847  -0.003183   0.025459  -0.030434  -0.099217
     3  N   -0.061914   0.013936   0.010183  -0.065864   0.046943   0.022032
     4  C    0.385941  -0.028026  -0.087273   0.068571   0.019729   0.005295
     5  C   -0.028839   0.353506   0.451447  -0.018728  -0.004710  -0.014906
     6  C    0.016146   0.003238   0.013537   0.279217  -0.083914   0.007662
     7  C    0.016369   0.003708   0.011249  -0.031741   0.260287   0.067521
     8  C   -0.019796   0.001952   0.001526  -0.011105   0.021048   0.279394
     9  H   -0.000109  -0.005063   0.004146  -0.000003   0.000003  -0.000002
    10  H   -0.000143   0.000831  -0.005341  -0.000028  -0.000005   0.000339
    11  H   -0.000189  -0.000050  -0.000105  -0.000531   0.000609  -0.001562
    12  H   -0.031992  -0.003380   0.004064  -0.000339   0.000009   0.000005
    13  H    0.532266   0.001017  -0.005846   0.002204  -0.000017   0.000004
    14  H    0.001017   0.527846  -0.024788  -0.000139   0.000000   0.000005
    15  H   -0.005846  -0.024788   0.511669   0.000154   0.000001   0.000018
    16  H    0.002204  -0.000139   0.000154   0.561795   0.004316  -0.000173
    17  H   -0.000017   0.000000   0.000001   0.004316   0.553164  -0.003034
    18  H    0.000004   0.000005   0.000018  -0.000173  -0.003034   0.577215
    19  O    0.000560   0.000570  -0.001770   0.002378   0.006771  -0.044800
    20  H   -0.000007   0.000000   0.000043   0.001215   0.001093  -0.000124
    21  O   -0.000127  -0.000015  -0.000056   0.002789  -0.027582  -0.006455
    22  H    0.000000   0.000000   0.000000   0.000127  -0.007908   0.001759
    23  C   -0.030082   0.000453   0.000740  -0.012620   0.040910   0.019037
    24  H   -0.000018   0.000000   0.000000  -0.001925  -0.000126  -0.000003
    25  H    0.000101   0.000000   0.000001   0.004681   0.003220   0.000002
    26  O    0.004190   0.000037  -0.000174   0.000000   0.000337   0.000045
    27  H    0.000226  -0.000004   0.000000   0.000037   0.000008   0.000000
             19         20         21         22         23         24
     1  C    0.092777   0.002839  -0.005275   0.000301   0.106071  -0.000156
     2  C   -0.403760   0.056390   0.027013   0.010817  -0.129835   0.015723
     3  N    0.060205  -0.000883   0.018059  -0.003527   0.232244   0.011211
     4  C    0.025772   0.008579   0.005302  -0.000687   0.093615  -0.006820
     5  C   -0.054412  -0.007324   0.003468  -0.000417  -0.140186   0.001644
     6  C    0.013050  -0.002054  -0.091450   0.016561  -1.924923  -0.193796
     7  C   -0.023551  -0.097721   0.109556   0.054425   0.523127   0.055968
     8  C    0.282336   0.010024  -0.023976  -0.064675  -0.406473  -0.015445
     9  H   -0.000254   0.000000   0.000019   0.000000   0.000130   0.000000
    10  H    0.000520  -0.000024   0.000011   0.000000   0.000633   0.000000
    11  H    0.010165  -0.000254  -0.000261  -0.000009   0.005321  -0.000008
    12  H    0.000209   0.000000   0.000014   0.000000   0.005730  -0.000004
    13  H    0.000560  -0.000007  -0.000127   0.000000  -0.030082  -0.000018
    14  H    0.000570   0.000000  -0.000015   0.000000   0.000453   0.000000
    15  H   -0.001770   0.000043  -0.000056   0.000000   0.000740   0.000000
    16  H    0.002378   0.001215   0.002789   0.000127  -0.012620  -0.001925
    17  H    0.006771   0.001093  -0.027582  -0.007908   0.040910  -0.000126
    18  H   -0.044800  -0.000124  -0.006455   0.001759   0.019037  -0.000003
    19  O    8.313549   0.236554  -0.026859   0.002206   0.070532  -0.000272
    20  H    0.236554   0.360827   0.038493  -0.002511   0.005144   0.000007
    21  O   -0.026859   0.038493   8.328129   0.239958   0.012644   0.005419
    22  H    0.002206  -0.002511   0.239958   0.353961  -0.005133  -0.000163
    23  C    0.070532   0.005144   0.012644  -0.005133   6.702734   0.505673
    24  H   -0.000272   0.000007   0.005419  -0.000163   0.505673   0.541935
    25  H    0.000283  -0.000002   0.000122   0.000018   0.436127  -0.032767
    26  O    0.001341  -0.000004  -0.000249   0.000036   0.205029  -0.061454
    27  H   -0.000054   0.000000   0.000044   0.000000   0.030478   0.006684
             25         26         27
     1  C    0.003746   0.007087  -0.000834
     2  C    0.002051   0.019978   0.010956
     3  N    0.013060   0.025576   0.016691
     4  C    0.014020  -0.010583  -0.006914
     5  C   -0.002724  -0.005507   0.006424
     6  C   -0.125768  -0.141581  -0.073118
     7  C    0.023546   0.059530   0.012189
     8  C   -0.015174  -0.043207  -0.002997
     9  H    0.000000  -0.000012   0.000000
    10  H    0.000000   0.000002   0.000000
    11  H   -0.000020   0.000040  -0.000009
    12  H    0.000018  -0.000238  -0.000405
    13  H    0.000101   0.004190   0.000226
    14  H    0.000000   0.000037  -0.000004
    15  H    0.000001  -0.000174   0.000000
    16  H    0.004681   0.000000   0.000037
    17  H    0.003220   0.000337   0.000008
    18  H    0.000002   0.000045   0.000000
    19  O    0.000283   0.001341  -0.000054
    20  H   -0.000002  -0.000004   0.000000
    21  O    0.000122  -0.000249   0.000044
    22  H    0.000018   0.000036   0.000000
    23  C    0.436127   0.205029   0.030478
    24  H   -0.032767  -0.061454   0.006684
    25  H    0.560844  -0.041231  -0.007061
    26  O   -0.041231   8.269691   0.258101
    27  H   -0.007061   0.258101   0.374362
 Mulliken atomic charges:
              1
     1  C   -0.526867
     2  C    0.136368
     3  N   -0.192426
     4  C   -0.262801
     5  C   -0.238507
     6  C   -0.014688
     7  C   -0.135983
     8  C    0.090566
     9  H    0.174508
    10  H    0.179315
    11  H    0.165132
    12  H    0.163591
    13  H    0.163097
    14  H    0.167580
    15  H    0.181455
    16  H    0.174150
    17  H    0.181624
    18  H    0.159215
    19  O   -0.564048
    20  H    0.389700
    21  O   -0.608734
    22  H    0.404861
    23  C   -0.347120
    24  H    0.168691
    25  H    0.162904
    26  O   -0.546781
    27  H    0.375198
 Sum of Mulliken atomic charges =   0.00000
 Mulliken charges with hydrogens summed into heavy atoms:
              1
     1  C   -0.173044
     2  C    0.301500
     3  N   -0.192426
     4  C    0.063887
     5  C    0.110528
     6  C    0.159463
     7  C    0.045641
     8  C    0.249781
    19  O   -0.174348
    21  O   -0.203874
    23  C   -0.015524
    26  O   -0.171583
 Sum of Mulliken charges with hydrogens summed into heavy atoms =   0.00000
 Electronic spatial extent (au):  <R**2>=           2004.0458
 Charge=              0.0000 electrons
 Dipole moment (field-independent basis, Debye):
    X=             -1.1682    Y=              2.1545    Z=              3.0539  Tot=              3.9158
 Quadrupole moment (field-independent basis, Debye-Ang):
   XX=            -83.4501   YY=            -61.4784   ZZ=            -74.4951
   XY=              8.5439   XZ=              2.5527   YZ=              3.4739
 Traceless Quadrupole moment (field-independent basis, Debye-Ang):
   XX=            -10.3089   YY=             11.6629   ZZ=             -1.3539
   XY=              8.5439   XZ=              2.5527   YZ=              3.4739
 Octapole moment (field-independent basis, Debye-Ang**2):
  XXX=            -20.2461  YYY=             35.7254  ZZZ=             -3.4866  XYY=              9.6293
  XXY=             11.9106  XXZ=             18.8537  XZZ=              1.1059  YZZ=              8.2309
  YYZ=              9.3465  XYZ=             -5.0065
 Hexadecapole moment (field-independent basis, Debye-Ang**3):
 XXXX=          -1423.4081 YYYY=           -795.8330 ZZZZ=           -271.8536 XXXY=             74.0553
 XXXZ=             22.5937 YYYX=             29.1066 YYYZ=             -2.3895 ZZZX=              0.5139
 ZZZY=             -7.4100 XXYY=           -405.6828 XXZZ=           -271.0618 YYZZ=           -211.5578
 XXYZ=             -8.2739 YYXZ=             18.1949 ZZXY=              0.6629
 N-N= 8.104684282868D+02 E-N=-3.006931437739D+03  KE= 5.886592957409D+02
 1\1\GINC-COMPUTE-3-1\SP\RmPW1PW91\6-31+G(d,p)\C8H15N1O3\MAMICHETTI.IQU
 IR\17-May-2024\0\\# mpw1pw91/6-31+G** nmr scrf=(pcm,solvent=water)\\co
 mment\\0,1\C,0,-2.477194,-0.598758,0.333813\C,0,-1.222955,0.053273,0.9
 54242\N,0,-0.060733,-0.845629,0.610892\C,0,-0.588603,-1.963745,-0.2073
 35\C,0,-1.921826,-1.482654,-0.793606\C,0,0.974722,-0.030137,-0.057495\
 C,0,0.688736,1.397348,0.422931\C,0,-0.849032,1.453212,0.44791\H,0,-2.9
 76065,-1.219782,1.086623\H,0,-3.19851,0.145266,-0.015111\H,0,-1.327777
 ,0.115156,2.043874\H,0,-0.756077,-2.840804,0.432379\H,0,0.143247,-2.25
 2639,-0.96652\H,0,-2.588987,-2.309706,-1.058522\H,0,-1.747544,-0.88398
 3,-1.694025\H,0,0.856327,-0.04359,-1.153694\H,0,1.085689,1.55183,1.434
 11\H,0,-1.225342,2.239768,1.115912\O,0,-1.326205,1.685203,-0.880409\H,
 0,-0.638267,2.241631,-1.29616\O,0,1.259764,2.340886,-0.484868\H,0,1.26
 63,3.206978,-0.042628\C,0,2.400489,-0.470126,0.262473\H,0,3.098828,0.2
 70895,-0.140838\H,0,2.537187,-0.51424,1.3522\O,0,2.767122,-1.716516,-0
 .342239\H,0,2.26465,-2.414438,0.108689\\Version=AM64L-G09RevC.01\State
 =1-A\HF=-594.1983497\RMSD=4.928e-09\Dipole=-0.4595934,0.8476478,1.2015
 148\Quadrupole=-7.6644393,8.6710555,-1.0066162,6.3521389,1.8978801,2.5
 827349\PG=C01 [X(C8H15N1O3)]\\@


 A HARD FALL SHOULD MEAN A HIGH BOUNCE 
 IF ONE IS MADE OF THE RIGHT MATERIAL.

                -- THE CHEMIST ANALYST, MARCH 1950
 Job cpu time:  0 days  0 hours  8 minutes 35.4 seconds.
 File lengths (MBytes):  RWF=    112 Int=      0 D2E=      0 Chk=      7 Scr=      1
 Normal termination of Gaussian 09 at Fri May 17 12:20:37 2024.
