 Entering Gaussian System, Link 0=g09
 Input=/home/mamichetti.iquir/Linux/01_Cardona_A1A3_R__S_R_R_031_OptB.gjc
 Output=/home/mamichetti.iquir/Linux/01_Cardona_A1A3_R__S_R_R_031_OptB.log
 Initial command:
 /opt/ohpc/pub/apps/software/Gaussian/09/AMD64.SSE4a-enabled/g09/l1.exe /local/mamichetti.iquir/Gau-406329.inp -scrdir=/local/mamichetti.iquir/
 Entering Link 1 = /opt/ohpc/pub/apps/software/Gaussian/09/AMD64.SSE4a-enabled/g09/l1.exe PID=    406330.
  
 Copyright (c) 1988,1990,1992,1993,1995,1998,2003,2009,2011,
            Gaussian, Inc.  All Rights Reserved.
  
 This is part of the Gaussian(R) 09 program.  It is based on
 the Gaussian(R) 03 system (copyright 2003, Gaussian, Inc.),
 the Gaussian(R) 98 system (copyright 1998, Gaussian, Inc.),
 the Gaussian(R) 94 system (copyright 1995, Gaussian, Inc.),
 the Gaussian 92(TM) system (copyright 1992, Gaussian, Inc.),
 the Gaussian 90(TM) system (copyright 1990, Gaussian, Inc.),
 the Gaussian 88(TM) system (copyright 1988, Gaussian, Inc.),
 the Gaussian 86(TM) system (copyright 1986, Carnegie Mellon
 University), and the Gaussian 82(TM) system (copyright 1983,
 Carnegie Mellon University). Gaussian is a federally registered
 trademark of Gaussian, Inc.
  
 This software contains proprietary and confidential information,
 including trade secrets, belonging to Gaussian, Inc.
  
 This software is provided under written license and may be
 used, copied, transmitted, or stored only in accord with that
 written license.
  
 The following legend is applicable only to US Government
 contracts under FAR:
  
                    RESTRICTED RIGHTS LEGEND
  
 Use, reproduction and disclosure by the US Government is
 subject to restrictions as set forth in subparagraphs (a)
 and (c) of the Commercial Computer Software - Restricted
 Rights clause in FAR 52.227-19.
  
 Gaussian, Inc.
 340 Quinnipiac St., Bldg. 40, Wallingford CT 06492
  
  
 ---------------------------------------------------------------
 Warning -- This program may not be used in any manner that
 competes with the business of Gaussian, Inc. or will provide
 assistance to any competitor of Gaussian, Inc.  The licensee
 of this program is prohibited from giving any competitor of
 Gaussian, Inc. access to this program.  By using this program,
 the user acknowledges that Gaussian, Inc. is engaged in the
 business of creating and licensing software in the field of
 computational chemistry and represents and warrants to the
 licensee that it is not a competitor of Gaussian, Inc. and that
 it will not use this program in any manner prohibited above.
 ---------------------------------------------------------------
  

 Cite this work as:
 Gaussian 09, Revision C.01,
 M. J. Frisch, G. W. Trucks, H. B. Schlegel, G. E. Scuseria, 
 M. A. Robb, J. R. Cheeseman, G. Scalmani, V. Barone, B. Mennucci, 
 G. A. Petersson, H. Nakatsuji, M. Caricato, X. Li, H. P. Hratchian, 
 A. F. Izmaylov, J. Bloino, G. Zheng, J. L. Sonnenberg, M. Hada, 
 M. Ehara, K. Toyota, R. Fukuda, J. Hasegawa, M. Ishida, T. Nakajima, 
 Y. Honda, O. Kitao, H. Nakai, T. Vreven, J. A. Montgomery, Jr., 
 J. E. Peralta, F. Ogliaro, M. Bearpark, J. J. Heyd, E. Brothers, 
 K. N. Kudin, V. N. Staroverov, T. Keith, R. Kobayashi, J. Normand, 
 K. Raghavachari, A. Rendell, J. C. Burant, S. S. Iyengar, J. Tomasi, 
 M. Cossi, N. Rega, J. M. Millam, M. Klene, J. E. Knox, J. B. Cross, 
 V. Bakken, C. Adamo, J. Jaramillo, R. Gomperts, R. E. Stratmann, 
 O. Yazyev, A. J. Austin, R. Cammi, C. Pomelli, J. W. Ochterski, 
 R. L. Martin, K. Morokuma, V. G. Zakrzewski, G. A. Voth, 
 P. Salvador, J. J. Dannenberg, S. Dapprich, A. D. Daniels, 
 O. Farkas, J. B. Foresman, J. V. Ortiz, J. Cioslowski, 
 and D. J. Fox, Gaussian, Inc., Wallingford CT, 2010.
 
 ******************************************
 Gaussian 09:  AM64L-G09RevC.01 23-Sep-2011
                17-May-2024 
 ******************************************
 %nprocshared=4
 Will use up to    4 processors via shared memory.
 ------------------------------------------------
 # mpw1pw91/6-31+G** nmr scrf=(pcm,solvent=water)
 ------------------------------------------------
 1/38=1/1;
 2/12=2,17=6,18=5,40=1/2;
 3/5=1,6=6,7=111,11=2,16=1,25=1,30=1,70=2201,72=1,74=-7/1,2,8,3;
 4//1;
 5/5=2,38=5,53=1/2;
 8/6=1,10=90,11=11/1;
 10/13=100,45=16/2;
 6/7=2,8=2,9=2,10=2,28=1/1;
 99/9=1/99;
 -------
 comment
 -------
 Charge =  0 Multiplicity = 1
 Symbolic Z-Matrix:
 6                    -2.47575   0.36086   0.33489 
 6                    -1.02729   0.32299   0.84715 
 7                    -0.36838  -0.84029   0.14514 
 6                    -1.36012  -1.45539  -0.76115 
 6                    -2.71337  -1.07863  -0.15107 
 6                     0.87467  -0.37088  -0.4888 
 6                     1.2497    0.87462   0.33943 
 6                    -0.11775   1.53942   0.59387 
 1                    -3.17892   0.67793   1.11057 
 1                    -2.56942   1.05778  -0.50503 
 1                    -1.02183   0.13032   1.92711 
 1                    -1.21541  -2.53907  -0.83358 
 1                    -1.27203  -1.0416   -1.78023 
 1                    -2.94355  -1.73627   0.69574 
 1                    -3.53115  -1.15941  -0.87374 
 1                     0.70694  -0.0548   -1.53523 
 1                     1.68985   0.56014   1.29109 
 1                    -0.09697   2.22464   1.44411 
 8                    -0.4767    2.36019  -0.52838 
 1                    -0.6432    1.78806  -1.29765 
 8                     2.18673   1.73312  -0.2916 
 1                     1.66188   2.25312  -0.9296 
 6                     1.94389  -1.46233  -0.50145 
 1                     1.65204  -2.25856  -1.2031 
 1                     2.89676  -1.04589  -0.84524 
 8                     2.15782  -2.00052   0.80425 
 1                     1.25699  -2.10073   1.16746 
 
                          Input orientation:                          
 ---------------------------------------------------------------------
 Center     Atomic      Atomic             Coordinates (Angstroms)
 Number     Number       Type             X           Y           Z
 ---------------------------------------------------------------------
      1          6           0       -2.475749    0.360860    0.334887
      2          6           0       -1.027286    0.322987    0.847150
      3          7           0       -0.368383   -0.840291    0.145141
      4          6           0       -1.360122   -1.455387   -0.761151
      5          6           0       -2.713368   -1.078627   -0.151067
      6          6           0        0.874669   -0.370875   -0.488796
      7          6           0        1.249696    0.874619    0.339426
      8          6           0       -0.117751    1.539422    0.593869
      9          1           0       -3.178924    0.677925    1.110571
     10          1           0       -2.569417    1.057779   -0.505031
     11          1           0       -1.021828    0.130322    1.927110
     12          1           0       -1.215410   -2.539071   -0.833580
     13          1           0       -1.272028   -1.041602   -1.780226
     14          1           0       -2.943548   -1.736269    0.695741
     15          1           0       -3.531153   -1.159407   -0.873740
     16          1           0        0.706944   -0.054798   -1.535225
     17          1           0        1.689847    0.560142    1.291093
     18          1           0       -0.096966    2.224643    1.444108
     19          8           0       -0.476702    2.360191   -0.528379
     20          1           0       -0.643201    1.788056   -1.297646
     21          8           0        2.186733    1.733121   -0.291600
     22          1           0        1.661875    2.253122   -0.929601
     23          6           0        1.943893   -1.462331   -0.501453
     24          1           0        1.652038   -2.258555   -1.203103
     25          1           0        2.896764   -1.045887   -0.845239
     26          8           0        2.157820   -2.000518    0.804245
     27          1           0        1.256991   -2.100729    1.167462
 ---------------------------------------------------------------------
                    Distance matrix (angstroms):
                    1          2          3          4          5
     1  C    0.000000
     2  C    1.536845   0.000000
     3  N    2.433055   1.510028   0.000000
     4  C    2.396805   2.420749   1.477584   0.000000
     5  C    1.537770   2.409114   2.375605   1.531478   0.000000
     6  C    3.526924   2.425619   1.472211   2.498927   3.672735
     7  C    3.760706   2.397234   2.365765   3.667608   4.445405
     8  C    2.648818   1.539844   2.434586   3.514036   3.761162
     9  H    1.093925   2.196570   3.337091   3.370817   2.212227
    10  H    1.095414   2.178642   2.978245   2.800713   2.170309
    11  H    2.168458   1.097025   2.131782   3.139373   2.939674
    12  H    3.370960   3.324398   2.135697   1.095700   2.200591
    13  H    2.808834   2.970708   2.136384   1.103400   2.175544
    14  H    2.178761   2.817006   2.781620   2.169946   1.096613
    15  H    2.210400   3.380578   3.338123   2.194005   1.094328
    16  H    3.714785   2.970856   2.144052   2.614116   3.829184
    17  H    4.278578   2.763357   2.740571   4.192419   4.914641
    18  H    3.219110   2.199579   3.339881   4.472287   4.505745
    19  O    2.956136   2.519012   3.272376   3.923423   4.119528
    20  H    2.839064   2.625662   3.010875   3.364777   3.717271
    21  O    4.900441   3.689871   3.652644   4.792415   5.651254
    22  H    4.722237   3.756841   3.853080   4.786845   5.554225
    23  C    4.853527   3.719408   2.480250   3.314213   4.686158
    24  H    5.124975   4.248138   2.812710   3.148572   4.642820
    25  H    5.677634   4.487334   3.418232   4.277364   5.653011
    26  O    5.221720   3.942768   2.856965   3.888901   5.048859
    27  H    4.548181   3.345881   2.296886   3.314407   4.306618
                    6          7          8          9         10
     6  C    0.000000
     7  C    1.542029   0.000000
     8  C    2.409626   1.541628   0.000000
     9  H    4.482139   4.499559   3.221791   0.000000
    10  H    3.728679   3.915645   2.729510   1.768038   0.000000
    11  H    3.111993   2.869589   2.140198   2.370584   3.028286
    12  H    3.031234   4.371038   4.458315   4.240775   3.857280
    13  H    2.593448   3.811026   3.691933   3.866488   2.777902
    14  H    4.224477   4.952473   4.327315   2.460857   3.064071
    15  H    4.492353   5.335312   4.592262   2.727149   2.444749
    16  H    1.105916   2.161646   2.784726   4.757845   3.610217
    17  H    2.167790   1.094668   2.170834   4.873540   4.649197
    18  H    3.378891   2.203721   1.092184   3.464397   3.357637
    19  O    3.047375   2.437306   1.435949   3.580249   2.465011
    20  H    2.760281   2.664100   1.978824   3.669031   2.207227
    21  O    2.487408   1.418893   2.476332   5.645334   4.808597
    22  H    2.774773   1.918487   2.448958   5.484239   4.417345
    23  C    1.527965   2.578822   3.802713   5.781226   5.169230
    24  H    2.162839   3.515402   4.559155   6.108535   5.413507
    25  H    2.161379   2.793673   4.223998   6.611407   5.866881
    26  O    2.444211   3.050764   4.213509   5.979024   5.780498
    27  H    2.425233   3.088429   3.933144   5.234644   5.235915
                   11         12         13         14         15
    11  H    0.000000
    12  H    3.845067   0.000000
    13  H    3.896196   1.772500   0.000000
    14  H    2.948464   2.443312   3.067076   0.000000
    15  H    3.975534   2.695877   2.437056   1.772377   0.000000
    16  H    3.874363   3.218596   2.224891   4.596808   4.429355
    17  H    2.818234   4.749724   4.557553   5.205410   5.907808
    18  H    2.339838   5.397384   4.737664   4.934765   5.349566
    19  O    3.361384   4.964031   3.711046   4.936070   4.672956
    20  H    3.645613   4.389397   2.938583   4.656829   4.148193
    21  O    4.217405   5.488164   4.677406   6.271467   6.434270
    22  H    4.457504   5.590447   4.492945   6.306100   6.214179
    23  C    4.150899   3.354232   3.486319   5.039384   5.496043
    24  H    4.759677   2.904737   3.219349   4.999780   5.308679
    25  H    4.942140   4.374895   4.272358   6.079514   6.428983
    26  O    3.988918   3.788297   4.400326   5.109360   5.990619
    27  H    3.278364   3.210776   4.025736   4.242627   5.289510
                   16         17         18         19         20
    16  H    0.000000
    17  H    3.054885   0.000000
    18  H    3.836476   2.446769   0.000000
    19  O    2.871747   3.353295   2.013275   0.000000
    20  H    2.296834   3.694923   2.829522   0.973053   0.000000
    21  O    2.633065   2.031672   2.910250   2.746483   3.003943
    22  H    2.570052   2.792570   2.954459   2.178521   2.380151
    23  C    2.140065   2.714435   4.641561   4.524564   4.229893
    24  H    2.420755   3.763973   5.492341   5.130263   4.653184
    25  H    2.500730   2.932557   4.989980   4.804377   4.557111
    26  O    3.371051   2.648207   4.831715   5.266154   5.159162
    27  H    3.434080   2.698682   4.540768   5.077536   4.980977
                   21         22         23         24         25
    21  O    0.000000
    22  H    0.976177   0.000000
    23  C    3.211530   3.750658   0.000000
    24  H    4.129190   4.519970   1.100666   0.000000
    25  H    2.921223   3.523568   1.095252   1.774253   0.000000
    26  O    3.891243   4.620134   1.428376   2.086108   2.044054
    27  H    4.206149   4.849497   1.914331   2.408433   2.802233
                   26         27
    26  O    0.000000
    27  H    0.976454   0.000000
 Stoichiometry    C8H15NO3
 Framework group  C1[X(C8H15NO3)]
 Deg. of freedom    75
 Full point group                 C1      NOp   1
 Largest Abelian subgroup         C1      NOp   1
 Largest concise Abelian subgroup C1      NOp   1
                         Standard orientation:                         
 ---------------------------------------------------------------------
 Center     Atomic      Atomic             Coordinates (Angstroms)
 Number     Number       Type             X           Y           Z
 ---------------------------------------------------------------------
      1          6           0       -2.475749    0.360860    0.334887
      2          6           0       -1.027286    0.322987    0.847150
      3          7           0       -0.368383   -0.840291    0.145141
      4          6           0       -1.360122   -1.455387   -0.761151
      5          6           0       -2.713368   -1.078627   -0.151067
      6          6           0        0.874669   -0.370875   -0.488796
      7          6           0        1.249696    0.874619    0.339426
      8          6           0       -0.117751    1.539422    0.593869
      9          1           0       -3.178924    0.677925    1.110571
     10          1           0       -2.569417    1.057779   -0.505031
     11          1           0       -1.021828    0.130322    1.927110
     12          1           0       -1.215410   -2.539071   -0.833580
     13          1           0       -1.272028   -1.041602   -1.780226
     14          1           0       -2.943548   -1.736269    0.695741
     15          1           0       -3.531153   -1.159407   -0.873740
     16          1           0        0.706944   -0.054798   -1.535225
     17          1           0        1.689847    0.560142    1.291093
     18          1           0       -0.096966    2.224643    1.444108
     19          8           0       -0.476702    2.360191   -0.528379
     20          1           0       -0.643201    1.788056   -1.297646
     21          8           0        2.186733    1.733121   -0.291600
     22          1           0        1.661875    2.253122   -0.929601
     23          6           0        1.943893   -1.462331   -0.501453
     24          1           0        1.652038   -2.258555   -1.203103
     25          1           0        2.896764   -1.045887   -0.845239
     26          8           0        2.157820   -2.000518    0.804245
     27          1           0        1.256991   -2.100729    1.167462
 ---------------------------------------------------------------------
 Rotational constants (GHZ):      1.1925985      0.9091106      0.5985918
 Standard basis: 6-31+G(d,p) (6D, 7F)
 There are   303 symmetry adapted basis functions of A   symmetry.
 Integral buffers will be    131072 words long.
 Raffenetti 2 integral format.
 Two-electron integral symmetry is turned on.
   303 basis functions,   489 primitive gaussians,   303 cartesian basis functions
    47 alpha electrons       47 beta electrons
       nuclear repulsion energy       809.9530104760 Hartrees.
 NAtoms=   27 NActive=   27 NUniq=   27 SFac= 1.00D+00 NAtFMM=   60 NAOKFM=F Big=F
 ------------------------------------------------------------------------------
 Polarizable Continuum Model (PCM)
 =================================
 Model                : PCM.
 Atomic radii         : UFF (Universal Force Field).
 Polarization charges : Total charges.
 Charge compensation  : None.
 Solution method      : Matrix inversion.
 Cavity type          : Scaled VdW (van der Waals Surface) (Alpha=1.100).
 Cavity algorithm     : GePol (No added spheres)
                        Default sphere list used, NSphG=   27.
                        Lebedev-Laikov grids with approx.  5.0 points / Ang**2.
                        Smoothing algorithm: Karplus/York (Gamma=1.0000).
                        Polarization charges: spherical gaussians, with
                                              point-specific exponents (IZeta= 3).
                        Self-potential: point-specific (ISelfS= 7).
                        Self-field    : sphere-specific E.n sum rule (ISelfD= 2).
 Solvent              : Water, Eps=  78.355300 Eps(inf)=   1.777849
 ------------------------------------------------------------------------------
 One-electron integrals computed using PRISM.
 NBasis=   303 RedAO= T  NBF=   303
 NBsUse=   303 1.00D-06 NBFU=   303
 Harris functional with IExCor=  908 diagonalized for initial guess.
 ExpMin= 4.38D-02 ExpMax= 5.48D+03 ExpMxC= 8.25D+02 IAcc=2 IRadAn=         4 AccDes= 0.00D+00
 HarFok:  IExCor=  908 AccDes= 0.00D+00 IRadAn=         4 IDoV= 1
 ScaDFX=  1.000000  1.000000  1.000000  1.000000
 FoFCou: FMM=F IPFlag=           0 FMFlag=      100000 FMFlg1=           0
         NFxFlg=           0 DoJE=T BraDBF=F KetDBF=T FulRan=T
         Omega=  0.000000  0.000000  1.000000  0.000000  0.000000 ICntrl=     500 IOpCl=  0
         NMat0=    1 NMatS0=    1 NMatT0=    0 NMatD0=    1 NMtDS0=    0 NMtDT0=    0
         I1Cent=           4 NGrid=           0.
 Petite list used in FoFCou.
 Initial guess orbital symmetries:
       Occupied  (A) (A) (A) (A) (A) (A) (A) (A) (A) (A) (A) (A)
                 (A) (A) (A) (A) (A) (A) (A) (A) (A) (A) (A) (A)
                 (A) (A) (A) (A) (A) (A) (A) (A) (A) (A) (A) (A)
                 (A) (A) (A) (A) (A) (A) (A) (A) (A) (A) (A)
       Virtual   (A) (A) (A) (A) (A) (A) (A) (A) (A) (A) (A) (A)
                 (A) (A) (A) (A) (A) (A) (A) (A) (A) (A) (A) (A)
                 (A) (A) (A) (A) (A) (A) (A) (A) (A) (A) (A) (A)
                 (A) (A) (A) (A) (A) (A) (A) (A) (A) (A) (A) (A)
                 (A) (A) (A) (A) (A) (A) (A) (A) (A) (A) (A) (A)
                 (A) (A) (A) (A) (A) (A) (A) (A) (A) (A) (A) (A)
                 (A) (A) (A) (A) (A) (A) (A) (A) (A) (A) (A) (A)
                 (A) (A) (A) (A) (A) (A) (A) (A) (A) (A) (A) (A)
                 (A) (A) (A) (A) (A) (A) (A) (A) (A) (A) (A) (A)
                 (A) (A) (A) (A) (A) (A) (A) (A) (A) (A) (A) (A)
                 (A) (A) (A) (A) (A) (A) (A) (A) (A) (A) (A) (A)
                 (A) (A) (A) (A) (A) (A) (A) (A) (A) (A) (A) (A)
                 (A) (A) (A) (A) (A) (A) (A) (A) (A) (A) (A) (A)
                 (A) (A) (A) (A) (A) (A) (A) (A) (A) (A) (A) (A)
                 (A) (A) (A) (A) (A) (A) (A) (A) (A) (A) (A) (A)
                 (A) (A) (A) (A) (A) (A) (A) (A) (A) (A) (A) (A)
                 (A) (A) (A) (A) (A) (A) (A) (A) (A) (A) (A) (A)
                 (A) (A) (A) (A) (A) (A) (A) (A) (A) (A) (A) (A)
                 (A) (A) (A) (A) (A) (A) (A) (A) (A) (A) (A) (A)
                 (A) (A) (A) (A) (A) (A) (A) (A) (A) (A) (A) (A)
                 (A) (A) (A) (A) (A) (A) (A) (A) (A) (A) (A) (A)
                 (A) (A) (A) (A)
 The electronic state of the initial guess is 1-A.
 Requested convergence on RMS density matrix=1.00D-08 within 128 cycles.
 Requested convergence on MAX density matrix=1.00D-06.
 Requested convergence on             energy=1.00D-06.
 No special actions if energy rises.
 Error on total polarization charges =  0.01410
 SCF Done:  E(RmPW1PW91) =  -594.201775612     A.U. after   13 cycles
             Convg  =    0.7091D-08             -V/T =  2.0094
 Range of M.O.s used for correlation:     1   303
 NBasis=   303 NAE=    47 NBE=    47 NFC=     0 NFV=     0
 NROrb=    303 NOA=    47 NOB=    47 NVA=   256 NVB=   256

 **** Warning!!: The largest alpha MO coefficient is  0.72149674D+02

 NEqPCM:  Using equilibrium solvation (IEInf=0, Eps=  78.3553, EpsInf=   1.7778)
          Differentiating once with respect to magnetic field using GIAOs.
          Electric field/nuclear overlap derivatives assumed to be zero.
 FoFCou: FMM=F IPFlag=           0 FMFlag=    10101102 FMFlg1=           0
         NFxFlg=    40000000 DoJE=F BraDBF=F KetDBF=T FulRan=T
         Omega=  0.000000  0.000000  1.000000  0.000000  0.000000 ICntrl=    6100 IOpCl=  0
         NMat0=    1 NMatS0=    1 NMatT0=    0 NMatD0=    1 NMtDS0=    0 NMtDT0=    0
         I1Cent=           7 NGrid=        1838.
 Symmetry not used in FoFCou.
          There are     3 degrees of freedom in the 1st order CPHF.  IDoFFX=0.
      3 vectors produced by pass  0 Test12= 4.01D-13 3.33D-08 XBig12= 3.34D+01 1.25D+00.
 AX will form     3 AO Fock derivatives at one time.
      3 vectors produced by pass  1 Test12= 4.01D-13 3.33D-08 XBig12= 8.05D-02 6.77D-02.
      3 vectors produced by pass  2 Test12= 4.01D-13 3.33D-08 XBig12= 1.55D-04 2.70D-03.
      3 vectors produced by pass  3 Test12= 4.01D-13 3.33D-08 XBig12= 6.96D-07 1.68D-04.
      3 vectors produced by pass  4 Test12= 4.01D-13 3.33D-08 XBig12= 2.50D-09 8.82D-06.
      3 vectors produced by pass  5 Test12= 4.01D-13 3.33D-08 XBig12= 7.18D-12 4.37D-07.
 Inverted reduced A of dimension    18 with in-core refinement.
 Calculating GIAO nuclear magnetic shielding tensors.
 SCF GIAO Magnetic shielding tensor (ppm):
      1  C    Isotropic =   169.9459   Anisotropy =    22.0342
   XX=   176.9700   YX=     3.4036   ZX=     5.0856
   XY=    -5.6194   YY=   177.9466   ZY=    17.8702
   XZ=     2.9884   YZ=    10.1381   ZZ=   154.9213
   Eigenvalues:   147.7234   177.4790   184.6354
      2  C    Isotropic =   128.8754   Anisotropy =    50.6802
   XX=   137.5048   YX=    -8.7963   ZX=    -4.1008
   XY=    -8.8816   YY=   149.5420   ZY=    24.3088
   XZ=    -6.1427   YZ=    21.9445   ZZ=    99.5795
   Eigenvalues:    90.4657   133.4984   162.6623
      3  N    Isotropic =   202.4269   Anisotropy =    68.0315
   XX=   243.2946   YX=     4.4231   ZX=   -18.5769
   XY=    12.7932   YY=   207.1139   ZY=    59.6328
   XZ=   -15.8645   YZ=    55.4063   ZZ=   156.8723
   Eigenvalues:   116.3457   243.1538   247.7812
      4  C    Isotropic =   139.1534   Anisotropy =    55.8034
   XX=   154.6423   YX=    12.8182   ZX=    17.5909
   XY=    23.1318   YY=   120.5290   ZY=     9.9799
   XZ=    17.4266   YZ=    18.1914   ZZ=   142.2890
   Eigenvalues:   111.1523   129.9524   176.3557
      5  C    Isotropic =   165.4044   Anisotropy =    22.5771
   XX=   179.2787   YX=    -0.4500   ZX=     0.2952
   XY=     4.0973   YY=   168.4036   ZY=    21.8562
   XZ=    -8.7333   YZ=    16.1194   ZZ=   148.5311
   Eigenvalues:   136.5514   179.2061   180.4558
      6  C    Isotropic =   123.5891   Anisotropy =    53.0927
   XX=   142.0498   YX=    18.7374   ZX=    -4.5108
   XY=    28.7107   YY=   113.6049   ZY=   -15.2065
   XZ=   -13.8081   YZ=    -2.6087   ZZ=   115.1127
   Eigenvalues:    99.3629   112.4203   158.9843
      7  C    Isotropic =   120.3521   Anisotropy =    55.8729
   XX=   137.6336   YX=    25.0607   ZX=   -27.1227
   XY=    17.3115   YY=   129.1720   ZY=     3.4397
   XZ=   -13.4669   YZ=     7.7423   ZZ=    94.2508
   Eigenvalues:    82.2277   121.2279   157.6008
      8  C    Isotropic =   120.3645   Anisotropy =    31.1309
   XX=   120.2370   YX=     0.8990   ZX=    -0.2676
   XY=    -3.1072   YY=   116.5426   ZY=   -20.2814
   XZ=     8.8482   YZ=   -18.7816   ZZ=   124.3138
   Eigenvalues:   100.3350   119.6400   141.1184
      9  H    Isotropic =    29.7873   Anisotropy =    11.7555
   XX=    32.5540   YX=    -2.0201   ZX=    -4.6877
   XY=    -3.0808   YY=    27.7455   ZY=     3.5171
   XZ=    -5.2119   YZ=     2.8278   ZZ=    29.0625
   Eigenvalues:    24.7826    26.9551    37.6244
     10  H    Isotropic =    29.7958   Anisotropy =     7.1780
   XX=    30.3916   YX=    -0.4530   ZX=     1.9665
   XY=     0.0907   YY=    31.8248   ZY=    -4.0942
   XZ=     2.5970   YZ=    -3.9428   ZZ=    27.1709
   Eigenvalues:    24.2576    30.5486    34.5811
     11  H    Isotropic =    27.8607   Anisotropy =     8.7997
   XX=    25.6495   YX=    -0.9904   ZX=    -1.5387
   XY=    -0.4485   YY=    24.6583   ZY=     1.4490
   XZ=    -1.6280   YZ=     0.5348   ZZ=    33.2742
   Eigenvalues:    24.2774    25.5775    33.7271
     12  H    Isotropic =    28.3501   Anisotropy =     9.7077
   XX=    27.2116   YX=     1.0918   ZX=     0.9999
   XY=     0.4164   YY=    33.5533   ZY=     3.3286
   XZ=     1.0841   YZ=     3.5102   ZZ=    24.2853
   Eigenvalues:    23.0215    27.2069    34.8219
     13  H    Isotropic =    29.3602   Anisotropy =     8.5548
   XX=    28.1444   YX=     0.4468   ZX=     2.2465
   XY=     1.1434   YY=    25.6497   ZY=     2.0719
   XZ=     0.9459   YZ=     1.4645   ZZ=    34.2866
   Eigenvalues:    25.2165    27.8008    35.0634
     14  H    Isotropic =    29.5037   Anisotropy =    11.0033
   XX=    28.9731   YX=     3.2775   ZX=    -3.5707
   XY=     3.7597   YY=    31.4556   ZY=    -3.4130
   XZ=    -3.8008   YZ=    -3.6400   ZZ=    28.0825
   Eigenvalues:    24.7876    26.8844    36.8393
     15  H    Isotropic =    29.4794   Anisotropy =    11.7894
   XX=    33.9765   YX=     1.9107   ZX=     4.6284
   XY=     2.7242   YY=    26.7924   ZY=     2.2199
   XZ=     4.7787   YZ=     1.8145   ZZ=    27.6693
   Eigenvalues:    24.7794    26.3198    37.3390
     16  H    Isotropic =    29.3776   Anisotropy =     2.9301
   XX=    28.6838   YX=    -0.4086   ZX=    -1.8402
   XY=    -1.1425   YY=    28.8794   ZY=    -0.6594
   XZ=    -0.9372   YZ=    -0.6955   ZZ=    30.5696
   Eigenvalues:    27.3044    29.4974    31.3310
     17  H    Isotropic =    27.2477   Anisotropy =     3.5359
   XX=    26.6430   YX=     1.4894   ZX=     1.2084
   XY=     0.1712   YY=    27.4773   ZY=    -0.6790
   XZ=     3.6366   YZ=    -0.5960   ZZ=    27.6226
   Eigenvalues:    24.3151    27.8230    29.6049
     18  H    Isotropic =    27.7113   Anisotropy =     8.3118
   XX=    23.9651   YX=    -0.3894   ZX=     1.0829
   XY=     0.1378   YY=    27.5738   ZY=     2.0970
   XZ=     0.8908   YZ=     3.8675   ZZ=    31.5949
   Eigenvalues:    23.7479    26.1335    33.2525
     19  O    Isotropic =   303.2665   Anisotropy =    82.5177
   XX=   270.5572   YX=    20.4584   ZX=   -11.8900
   XY=    15.8334   YY=   323.3459   ZY=    55.5605
   XZ=    -0.6645   YZ=    19.3528   ZZ=   315.8965
   Eigenvalues:   257.9211   293.6002   358.2784
     20  H    Isotropic =    31.1076   Anisotropy =    14.5304
   XX=    25.1242   YX=     0.0666   ZX=     4.4741
   XY=     1.9403   YY=    30.3531   ZY=     5.0705
   XZ=     4.8047   YZ=     2.4221   ZZ=    37.8455
   Eigenvalues:    23.6045    28.9237    40.7945
     21  O    Isotropic =   304.4874   Anisotropy =    33.0541
   XX=   301.9436   YX=    -3.8307   ZX=    14.8642
   XY=    24.3633   YY=   322.1516   ZY=   -14.0744
   XZ=    24.6258   YZ=    -5.0927   ZZ=   289.3670
   Eigenvalues:   271.1876   315.7511   326.5235
     22  H    Isotropic =    28.9635   Anisotropy =    14.6162
   XX=    31.0150   YX=    -1.5812   ZX=     2.9839
   XY=    -3.3615   YY=    27.6281   ZY=    -8.4614
   XZ=     2.0039   YZ=    -9.8633   ZZ=    28.2475
   Eigenvalues:    18.7700    29.4129    38.7076
     23  C    Isotropic =   135.9653   Anisotropy =    57.5588
   XX=   115.9065   YX=    -7.2628   ZX=     7.5769
   XY=    -8.0489   YY=   127.7251   ZY=   -19.8044
   XZ=     9.8032   YZ=   -17.9436   ZZ=   164.2643
   Eigenvalues:   112.1354   121.4227   174.3378
     24  H    Isotropic =    27.7839   Anisotropy =     7.7525
   XX=    25.0156   YX=    -1.9616   ZX=     0.9923
   XY=    -2.3538   YY=    27.6379   ZY=     2.3642
   XZ=     0.8371   YZ=     4.5075   ZZ=    30.6982
   Eigenvalues:    22.8862    27.5133    32.9523
     25  H    Isotropic =    27.8832   Anisotropy =     6.5806
   XX=    29.8031   YX=    -1.3099   ZX=    -2.7160
   XY=     0.4516   YY=    26.5821   ZY=    -1.6435
   XZ=    -4.2132   YZ=    -1.3382   ZZ=    27.2643
   Eigenvalues:    23.9995    27.3797    32.2702
     26  O    Isotropic =   328.7712   Anisotropy =    50.3235
   XX=   352.1065   YX=     5.7818   ZX=   -21.8204
   XY=    -3.0817   YY=   307.4586   ZY=    16.2242
   XZ=   -16.0828   YZ=    -1.7807   ZZ=   326.7484
   Eigenvalues:   303.6052   320.3881   362.3202
     27  H    Isotropic =    29.1558   Anisotropy =    16.2940
   XX=    38.1571   YX=    -0.4874   ZX=    -4.4318
   XY=    -1.6731   YY=    23.4126   ZY=    -6.8569
   XZ=    -5.5857   YZ=    -5.3667   ZZ=    25.8977
   Eigenvalues:    17.6072    29.8418    40.0185
 End of Minotr Frequency-dependent properties file   721 does not exist.
 End of Minotr Frequency-dependent properties file   722 does not exist.

 **********************************************************************

            Population analysis using the SCF density.

 **********************************************************************

 Orbital symmetries:
       Occupied  (A) (A) (A) (A) (A) (A) (A) (A) (A) (A) (A) (A)
                 (A) (A) (A) (A) (A) (A) (A) (A) (A) (A) (A) (A)
                 (A) (A) (A) (A) (A) (A) (A) (A) (A) (A) (A) (A)
                 (A) (A) (A) (A) (A) (A) (A) (A) (A) (A) (A)
       Virtual   (A) (A) (A) (A) (A) (A) (A) (A) (A) (A) (A) (A)
                 (A) (A) (A) (A) (A) (A) (A) (A) (A) (A) (A) (A)
                 (A) (A) (A) (A) (A) (A) (A) (A) (A) (A) (A) (A)
                 (A) (A) (A) (A) (A) (A) (A) (A) (A) (A) (A) (A)
                 (A) (A) (A) (A) (A) (A) (A) (A) (A) (A) (A) (A)
                 (A) (A) (A) (A) (A) (A) (A) (A) (A) (A) (A) (A)
                 (A) (A) (A) (A) (A) (A) (A) (A) (A) (A) (A) (A)
                 (A) (A) (A) (A) (A) (A) (A) (A) (A) (A) (A) (A)
                 (A) (A) (A) (A) (A) (A) (A) (A) (A) (A) (A) (A)
                 (A) (A) (A) (A) (A) (A) (A) (A) (A) (A) (A) (A)
                 (A) (A) (A) (A) (A) (A) (A) (A) (A) (A) (A) (A)
                 (A) (A) (A) (A) (A) (A) (A) (A) (A) (A) (A) (A)
                 (A) (A) (A) (A) (A) (A) (A) (A) (A) (A) (A) (A)
                 (A) (A) (A) (A) (A) (A) (A) (A) (A) (A) (A) (A)
                 (A) (A) (A) (A) (A) (A) (A) (A) (A) (A) (A) (A)
                 (A) (A) (A) (A) (A) (A) (A) (A) (A) (A) (A) (A)
                 (A) (A) (A) (A) (A) (A) (A) (A) (A) (A) (A) (A)
                 (A) (A) (A) (A) (A) (A) (A) (A) (A) (A) (A) (A)
                 (A) (A) (A) (A) (A) (A) (A) (A) (A) (A) (A) (A)
                 (A) (A) (A) (A) (A) (A) (A) (A) (A) (A) (A) (A)
                 (A) (A) (A) (A) (A) (A) (A) (A) (A) (A) (A) (A)
                 (A) (A) (A) (A)
 The electronic state is 1-A.
 Alpha  occ. eigenvalues --  -19.27113 -19.25869 -19.24986 -14.42036 -10.30947
 Alpha  occ. eigenvalues --  -10.30517 -10.29386 -10.28410 -10.28384 -10.27315
 Alpha  occ. eigenvalues --  -10.25026 -10.24925  -1.08426  -1.05550  -1.05233
 Alpha  occ. eigenvalues --   -0.96887  -0.83177  -0.79751  -0.75235  -0.71898
 Alpha  occ. eigenvalues --   -0.67406  -0.62206  -0.60883  -0.58717  -0.55422
 Alpha  occ. eigenvalues --   -0.53564  -0.51217  -0.50765  -0.48998  -0.47795
 Alpha  occ. eigenvalues --   -0.46754  -0.45107  -0.43645  -0.42483  -0.40375
 Alpha  occ. eigenvalues --   -0.39778  -0.39472  -0.38134  -0.36262  -0.35962
 Alpha  occ. eigenvalues --   -0.35684  -0.34741  -0.33883  -0.31743  -0.30084
 Alpha  occ. eigenvalues --   -0.28559  -0.24005
 Alpha virt. eigenvalues --    0.00186   0.01265   0.02101   0.02327   0.03982
 Alpha virt. eigenvalues --    0.04325   0.04550   0.04891   0.05529   0.07226
 Alpha virt. eigenvalues --    0.07642   0.08178   0.08788   0.08866   0.09279
 Alpha virt. eigenvalues --    0.09827   0.11108   0.11641   0.12133   0.12854
 Alpha virt. eigenvalues --    0.13445   0.13875   0.14503   0.14949   0.15339
 Alpha virt. eigenvalues --    0.16203   0.16296   0.16749   0.17474   0.18419
 Alpha virt. eigenvalues --    0.18823   0.19309   0.19660   0.20522   0.20930
 Alpha virt. eigenvalues --    0.21225   0.21295   0.22042   0.22587   0.22950
 Alpha virt. eigenvalues --    0.23582   0.24066   0.25195   0.25612   0.26038
 Alpha virt. eigenvalues --    0.26464   0.26730   0.27813   0.27946   0.28568
 Alpha virt. eigenvalues --    0.29201   0.30253   0.30463   0.31072   0.31625
 Alpha virt. eigenvalues --    0.32894   0.33155   0.33691   0.34007   0.34657
 Alpha virt. eigenvalues --    0.35561   0.35603   0.36120   0.37228   0.37711
 Alpha virt. eigenvalues --    0.38549   0.39237   0.39959   0.40739   0.41443
 Alpha virt. eigenvalues --    0.41986   0.43066   0.44893   0.45718   0.47036
 Alpha virt. eigenvalues --    0.47885   0.64251   0.64902   0.67204   0.68267
 Alpha virt. eigenvalues --    0.69532   0.69798   0.71319   0.72577   0.74313
 Alpha virt. eigenvalues --    0.74638   0.76305   0.78007   0.79009   0.81065
 Alpha virt. eigenvalues --    0.82325   0.83307   0.85859   0.88015   0.88888
 Alpha virt. eigenvalues --    0.90577   0.92356   0.93824   0.94383   0.96067
 Alpha virt. eigenvalues --    0.98537   0.99509   1.02170   1.02951   1.04635
 Alpha virt. eigenvalues --    1.05924   1.06779   1.07798   1.09791   1.10417
 Alpha virt. eigenvalues --    1.11032   1.12338   1.13403   1.14583   1.16505
 Alpha virt. eigenvalues --    1.17105   1.20003   1.20061   1.23262   1.25663
 Alpha virt. eigenvalues --    1.26859   1.27063   1.29755   1.30908   1.32539
 Alpha virt. eigenvalues --    1.34419   1.35783   1.36080   1.38991   1.40869
 Alpha virt. eigenvalues --    1.43150   1.45089   1.45401   1.47673   1.50259
 Alpha virt. eigenvalues --    1.53058   1.56286   1.58783   1.59198   1.60352
 Alpha virt. eigenvalues --    1.60656   1.64545   1.64869   1.67062   1.70295
 Alpha virt. eigenvalues --    1.71018   1.74107   1.76464   1.77527   1.80005
 Alpha virt. eigenvalues --    1.81660   1.82173   1.83872   1.85550   1.87736
 Alpha virt. eigenvalues --    1.88938   1.90096   1.92118   1.95325   1.95556
 Alpha virt. eigenvalues --    1.97902   1.98141   2.01570   2.03399   2.04769
 Alpha virt. eigenvalues --    2.05291   2.07048   2.07451   2.09834   2.10836
 Alpha virt. eigenvalues --    2.12058   2.15209   2.15780   2.16633   2.18888
 Alpha virt. eigenvalues --    2.20120   2.23092   2.23276   2.25829   2.27658
 Alpha virt. eigenvalues --    2.29348   2.32167   2.35035   2.39029   2.39950
 Alpha virt. eigenvalues --    2.41463   2.43456   2.45540   2.46245   2.47746
 Alpha virt. eigenvalues --    2.49384   2.49719   2.50839   2.52571   2.54219
 Alpha virt. eigenvalues --    2.55864   2.58397   2.59564   2.62429   2.63354
 Alpha virt. eigenvalues --    2.64240   2.65838   2.66290   2.67597   2.68348
 Alpha virt. eigenvalues --    2.70506   2.71514   2.74449   2.75541   2.76683
 Alpha virt. eigenvalues --    2.78110   2.81505   2.83344   2.84802   2.84960
 Alpha virt. eigenvalues --    2.86139   2.88308   2.90787   2.92772   2.94376
 Alpha virt. eigenvalues --    2.97314   3.00002   3.01319   3.03282   3.04743
 Alpha virt. eigenvalues --    3.06332   3.06937   3.13720   3.15779   3.31927
 Alpha virt. eigenvalues --    3.34940   3.36051   3.36518   3.43424   3.45100
 Alpha virt. eigenvalues --    3.48599   3.50025   3.51396   3.53713   3.55853
 Alpha virt. eigenvalues --    3.57723   3.60050   3.60397   3.63275   4.25879
 Alpha virt. eigenvalues --    4.31699   4.37774   4.47721   4.49175   4.51348
 Alpha virt. eigenvalues --    4.54763   4.72649   4.78253   4.79177   4.89184
 Alpha virt. eigenvalues --    5.00261
          Condensed to atoms (all electrons):
              1          2          3          4          5          6
     1  C    5.849364  -0.445388   0.065901  -0.201247   0.180124   0.025961
     2  C   -0.445388   8.065208  -0.244626  -0.272553   0.143008  -0.671694
     3  N    0.065901  -0.244626   7.741244   0.244236  -0.175437  -0.766169
     4  C   -0.201247  -0.272553   0.244236   5.726144   0.012253  -0.224908
     5  C    0.180124   0.143008  -0.175437   0.012253   5.701357   0.045875
     6  C    0.025961  -0.671694  -0.766169  -0.224908   0.045875  11.118470
     7  C    0.009486   0.569718   0.208311  -0.044374  -0.062424  -2.596198
     8  C    0.095181  -0.958290  -0.300875   0.186549  -0.147444   1.320744
     9  H    0.376271  -0.059179   0.010773   0.018724  -0.019075   0.008244
    10  H    0.486319  -0.182616   0.036556   0.033506  -0.084892  -0.001806
    11  H    0.045878   0.164513  -0.011510   0.018801  -0.023916   0.049446
    12  H    0.029579   0.006723  -0.054064   0.376143  -0.025580   0.009268
    13  H    0.011002   0.000886  -0.076809   0.434341  -0.041733  -0.027913
    14  H   -0.019982  -0.042408   0.017770  -0.026663   0.390865   0.001636
    15  H   -0.066066   0.049755   0.002710  -0.019947   0.376966  -0.003441
    16  H   -0.007970   0.037179  -0.018900   0.024761   0.011775   0.086378
    17  H    0.006562   0.003462   0.061295   0.008106   0.002747  -0.245288
    18  H    0.001490  -0.064351   0.018122  -0.000465   0.001778   0.047959
    19  O    0.029466  -0.113880   0.058643   0.021682  -0.013389  -0.023512
    20  H   -0.004046  -0.068559   0.012756   0.005849  -0.004591   0.045884
    21  O    0.005274   0.012214   0.005465  -0.003473   0.000432  -0.129053
    22  H    0.002162   0.013959   0.007792   0.000468   0.000766  -0.078753
    23  C   -0.024398   0.064901   0.359208  -0.028258   0.030265  -1.828548
    24  H    0.000682  -0.007929  -0.016706   0.013842   0.006920  -0.025159
    25  H    0.000458   0.013541   0.018832  -0.004016  -0.001401  -0.237043
    26  O    0.004514  -0.013349   0.044620   0.001544  -0.000381  -0.204641
    27  H    0.000803   0.019401   0.050830   0.006529  -0.005227  -0.104724
              7          8          9         10         11         12
     1  C    0.009486   0.095181   0.376271   0.486319   0.045878   0.029579
     2  C    0.569718  -0.958290  -0.059179  -0.182616   0.164513   0.006723
     3  N    0.208311  -0.300875   0.010773   0.036556  -0.011510  -0.054064
     4  C   -0.044374   0.186549   0.018724   0.033506   0.018801   0.376143
     5  C   -0.062424  -0.147444  -0.019075  -0.084892  -0.023916  -0.025580
     6  C   -2.596198   1.320744   0.008244  -0.001806   0.049446   0.009268
     7  C    8.271773  -1.410035  -0.003533  -0.007753  -0.057654  -0.000281
     8  C   -1.410035   7.198272   0.011455   0.034314   0.087567  -0.006203
     9  H   -0.003533   0.011455   0.506256  -0.023279  -0.004525  -0.000098
    10  H   -0.007753   0.034314  -0.023279   0.527747   0.003995  -0.000067
    11  H   -0.057654   0.087567  -0.004525   0.003995   0.544923   0.000163
    12  H   -0.000281  -0.006203  -0.000098  -0.000067   0.000163   0.534469
    13  H    0.013309  -0.001899  -0.000131   0.000664  -0.000507  -0.040541
    14  H   -0.001543   0.009718  -0.004816   0.004015   0.000668  -0.006071
    15  H    0.001618  -0.000878   0.000421  -0.005391  -0.000102   0.000655
    16  H    0.094435  -0.066754  -0.000007  -0.000231  -0.000609  -0.000999
    17  H    0.542207  -0.129723   0.000002  -0.000014   0.000034   0.000005
    18  H   -0.042149   0.371296   0.000274   0.000071  -0.002743   0.000004
    19  O   -0.133220   0.193420  -0.000659   0.010148   0.005459  -0.000020
    20  H   -0.023480   0.020116   0.000110   0.000681   0.000014   0.000005
    21  O    0.291310  -0.024448   0.000007  -0.000115  -0.000318   0.000016
    22  H    0.115455  -0.110122   0.000000  -0.000011  -0.000018   0.000000
    23  C    0.546680  -0.489036   0.000827  -0.001551   0.000425   0.003567
    24  H   -0.010166  -0.005202   0.000000   0.000001   0.000008   0.000087
    25  H    0.050560  -0.015536   0.000000   0.000000  -0.000004  -0.000011
    26  O    0.040356  -0.027430  -0.000001   0.000026   0.001347   0.001215
    27  H   -0.001310  -0.010421  -0.000001  -0.000001  -0.000536  -0.000379
             13         14         15         16         17         18
     1  C    0.011002  -0.019982  -0.066066  -0.007970   0.006562   0.001490
     2  C    0.000886  -0.042408   0.049755   0.037179   0.003462  -0.064351
     3  N   -0.076809   0.017770   0.002710  -0.018900   0.061295   0.018122
     4  C    0.434341  -0.026663  -0.019947   0.024761   0.008106  -0.000465
     5  C   -0.041733   0.390865   0.376966   0.011775   0.002747   0.001778
     6  C   -0.027913   0.001636  -0.003441   0.086378  -0.245288   0.047959
     7  C    0.013309  -0.001543   0.001618   0.094435   0.542207  -0.042149
     8  C   -0.001899   0.009718  -0.000878  -0.066754  -0.129723   0.371296
     9  H   -0.000131  -0.004816   0.000421  -0.000007   0.000002   0.000274
    10  H    0.000664   0.004015  -0.005391  -0.000231  -0.000014   0.000071
    11  H   -0.000507   0.000668  -0.000102  -0.000609   0.000034  -0.002743
    12  H   -0.040541  -0.006071   0.000655  -0.000999   0.000005   0.000004
    13  H    0.569603   0.003865  -0.004437   0.012764  -0.000017  -0.000014
    14  H    0.003865   0.516003  -0.023905  -0.000010  -0.000001   0.000000
    15  H   -0.004437  -0.023905   0.511709  -0.000017   0.000000   0.000002
    16  H    0.012764  -0.000010  -0.000017   0.606507   0.004374  -0.000209
    17  H   -0.000017  -0.000001   0.000000   0.004374   0.524172  -0.003798
    18  H   -0.000014   0.000000   0.000002  -0.000209  -0.003798   0.527981
    19  O   -0.000228   0.000143   0.000087   0.010068   0.012762  -0.048896
    20  H   -0.000204  -0.000004   0.000012  -0.001950  -0.000278   0.006057
    21  O   -0.000040  -0.000007  -0.000007   0.001184  -0.049920  -0.000373
    22  H    0.000001   0.000000   0.000000   0.002326   0.006301  -0.000224
    23  C   -0.009135  -0.000897   0.000591   0.048500   0.053075   0.009609
    24  H    0.000125   0.000004   0.000000  -0.001785   0.000128   0.000003
    25  H    0.000007   0.000000   0.000000   0.001690   0.000530  -0.000004
    26  O   -0.000260   0.000052  -0.000008   0.009171   0.011858   0.000177
    27  H    0.000119   0.000002  -0.000001   0.000713   0.000013  -0.000012
             19         20         21         22         23         24
     1  C    0.029466  -0.004046   0.005274   0.002162  -0.024398   0.000682
     2  C   -0.113880  -0.068559   0.012214   0.013959   0.064901  -0.007929
     3  N    0.058643   0.012756   0.005465   0.007792   0.359208  -0.016706
     4  C    0.021682   0.005849  -0.003473   0.000468  -0.028258   0.013842
     5  C   -0.013389  -0.004591   0.000432   0.000766   0.030265   0.006920
     6  C   -0.023512   0.045884  -0.129053  -0.078753  -1.828548  -0.025159
     7  C   -0.133220  -0.023480   0.291310   0.115455   0.546680  -0.010166
     8  C    0.193420   0.020116  -0.024448  -0.110122  -0.489036  -0.005202
     9  H   -0.000659   0.000110   0.000007   0.000000   0.000827   0.000000
    10  H    0.010148   0.000681  -0.000115  -0.000011  -0.001551   0.000001
    11  H    0.005459   0.000014  -0.000318  -0.000018   0.000425   0.000008
    12  H   -0.000020   0.000005   0.000016   0.000000   0.003567   0.000087
    13  H   -0.000228  -0.000204  -0.000040   0.000001  -0.009135   0.000125
    14  H    0.000143  -0.000004  -0.000007   0.000000  -0.000897   0.000004
    15  H    0.000087   0.000012  -0.000007   0.000000   0.000591   0.000000
    16  H    0.010068  -0.001950   0.001184   0.002326   0.048500  -0.001785
    17  H    0.012762  -0.000278  -0.049920   0.006301   0.053075   0.000128
    18  H   -0.048896   0.006057  -0.000373  -0.000224   0.009609   0.000003
    19  O    8.250669   0.258110  -0.018392   0.039456   0.050845   0.000079
    20  H    0.258110   0.350499  -0.003737  -0.003625   0.014115   0.000004
    21  O   -0.018392  -0.003737   8.186773   0.249245  -0.018380  -0.000549
    22  H    0.039456  -0.003625   0.249245   0.357112   0.013875  -0.000008
    23  C    0.050845   0.014115  -0.018380   0.013875   6.353841   0.400709
    24  H    0.000079   0.000004  -0.000549  -0.000008   0.400709   0.583741
    25  H   -0.000044  -0.000003   0.007644  -0.000025   0.544828  -0.039730
    26  O    0.001035  -0.000066  -0.001422   0.000227   0.265104  -0.049614
    27  H    0.000012   0.000001   0.000439  -0.000004   0.046532  -0.003655
             25         26         27
     1  C    0.000458   0.004514   0.000803
     2  C    0.013541  -0.013349   0.019401
     3  N    0.018832   0.044620   0.050830
     4  C   -0.004016   0.001544   0.006529
     5  C   -0.001401  -0.000381  -0.005227
     6  C   -0.237043  -0.204641  -0.104724
     7  C    0.050560   0.040356  -0.001310
     8  C   -0.015536  -0.027430  -0.010421
     9  H    0.000000  -0.000001  -0.000001
    10  H    0.000000   0.000026  -0.000001
    11  H   -0.000004   0.001347  -0.000536
    12  H   -0.000011   0.001215  -0.000379
    13  H    0.000007  -0.000260   0.000119
    14  H    0.000000   0.000052   0.000002
    15  H    0.000000  -0.000008  -0.000001
    16  H    0.001690   0.009171   0.000713
    17  H    0.000530   0.011858   0.000013
    18  H   -0.000004   0.000177  -0.000012
    19  O   -0.000044   0.001035   0.000012
    20  H   -0.000003  -0.000066   0.000001
    21  O    0.007644  -0.001422   0.000439
    22  H   -0.000025   0.000227  -0.000004
    23  C    0.544828   0.265104   0.046532
    24  H   -0.039730  -0.049614  -0.003655
    25  H    0.540436  -0.053037   0.006242
    26  O   -0.053037   8.279357   0.249626
    27  H    0.006242   0.249626   0.356771
 Mulliken atomic charges:
              1
     1  C   -0.457379
     2  C   -0.019644
     3  N   -0.299969
     4  C   -0.307575
     5  C   -0.299639
     6  C    0.408986
     7  C   -0.361096
     8  C    0.175667
     9  H    0.181941
    10  H    0.169684
    11  H    0.179203
    12  H    0.172413
    13  H    0.157181
    14  H    0.181568
    15  H    0.179676
    16  H    0.147616
    17  H    0.191408
    18  H    0.178414
    19  O   -0.589844
    20  H    0.396333
    21  O   -0.509766
    22  H    0.383645
    23  C   -0.407296
    24  H    0.154169
    25  H    0.166085
    26  O   -0.560020
    27  H    0.388239
 Sum of Mulliken atomic charges =   0.00000
 Mulliken charges with hydrogens summed into heavy atoms:
              1
     1  C   -0.105754
     2  C    0.159559
     3  N   -0.299969
     4  C    0.022020
     5  C    0.061605
     6  C    0.556602
     7  C   -0.169688
     8  C    0.354082
    19  O   -0.193511
    21  O   -0.126121
    23  C   -0.087043
    26  O   -0.171781
 Sum of Mulliken charges with hydrogens summed into heavy atoms =   0.00000
 Electronic spatial extent (au):  <R**2>=           2017.5113
 Charge=              0.0000 electrons
 Dipole moment (field-independent basis, Debye):
    X=             -5.3676    Y=             -0.6529    Z=             -2.0527  Tot=              5.7837
 Quadrupole moment (field-independent basis, Debye-Ang):
   XX=            -83.5232   YY=            -82.9672   ZZ=            -66.7003
   XY=              3.6890   XZ=             -3.8493   YZ=              2.6332
 Traceless Quadrupole moment (field-independent basis, Debye-Ang):
   XX=             -5.7929   YY=             -5.2370   ZZ=             11.0299
   XY=              3.6890   XZ=             -3.8493   YZ=              2.6332
 Octapole moment (field-independent basis, Debye-Ang**2):
  XXX=            -39.2445  YYY=             -8.8287  ZZZ=             -2.2035  XYY=            -13.0974
  XXY=              2.1369  XXZ=            -11.7089  XZZ=             -0.8043  YZZ=             10.6295
  YYZ=             -6.3903  XYZ=              5.4558
 Hexadecapole moment (field-independent basis, Debye-Ang**3):
 XXXX=          -1440.2131 YYYY=          -1031.7914 ZZZZ=           -261.6383 XXXY=              6.2653
 XXXZ=            -25.2509 YYYX=             46.3583 YYYZ=              1.3533 ZZZX=              1.5514
 ZZZY=            -21.2727 XXYY=           -453.0133 XXZZ=           -268.9288 YYZZ=           -185.2353
 XXYZ=             18.6772 YYXZ=            -24.8252 ZZXY=              4.7609
 N-N= 8.099530104760D+02 E-N=-3.005046301468D+03  KE= 5.886608565224D+02
 1\1\GINC-COMPUTE-3-1\SP\RmPW1PW91\6-31+G(d,p)\C8H15N1O3\MAMICHETTI.IQU
 IR\17-May-2024\0\\# mpw1pw91/6-31+G** nmr scrf=(pcm,solvent=water)\\co
 mment\\0,1\C,0,-2.475749,0.36086,0.334887\C,0,-1.027286,0.322987,0.847
 15\N,0,-0.368383,-0.840291,0.145141\C,0,-1.360122,-1.455387,-0.761151\
 C,0,-2.713368,-1.078627,-0.151067\C,0,0.874669,-0.370875,-0.488796\C,0
 ,1.249696,0.874619,0.339426\C,0,-0.117751,1.539422,0.593869\H,0,-3.178
 924,0.677925,1.110571\H,0,-2.569417,1.057779,-0.505031\H,0,-1.021828,0
 .130322,1.92711\H,0,-1.21541,-2.539071,-0.83358\H,0,-1.272028,-1.04160
 2,-1.780226\H,0,-2.943548,-1.736269,0.695741\H,0,-3.531153,-1.159407,-
 0.87374\H,0,0.706944,-0.054798,-1.535225\H,0,1.689847,0.560142,1.29109
 3\H,0,-0.096966,2.224643,1.444108\O,0,-0.476702,2.360191,-0.528379\H,0
 ,-0.643201,1.788056,-1.297646\O,0,2.186733,1.733121,-0.2916\H,0,1.6618
 75,2.253122,-0.929601\C,0,1.943893,-1.462331,-0.501453\H,0,1.652038,-2
 .258555,-1.203103\H,0,2.896764,-1.045887,-0.845239\O,0,2.15782,-2.0005
 18,0.804245\H,0,1.256991,-2.100729,1.167462\\Version=AM64L-G09RevC.01\
 State=1-A\HF=-594.2017756\RMSD=7.091e-09\Dipole=-2.111777,-0.2568646,-
 0.8075869\Quadrupole=-4.3069133,-3.8935641,8.2004773,2.7427165,-2.8618
 486,1.9577372\PG=C01 [X(C8H15N1O3)]\\@


 WE HAVE LEARNED THAT NOTHING IS SIMPLE AND
 RATIONAL EXCEPT WHAT WE OURSELVES HAVE INVENTED;
 THAT GOD THINKS IN TERMS NEITHER OF EUCLID OR RIEMANN; THAT SCIENCE HAS "EXPLAINED" NOTHING;
 THAT THE MORE WE KNOW THE MORE FANTASTIC THE WORLD BECOMES
 AND THE PROFOUNDER THE SURROUNDING DARKNESS.
   --  ALDOUS HUXLEY
 Job cpu time:  0 days  0 hours  8 minutes 49.7 seconds.
 File lengths (MBytes):  RWF=    113 Int=      0 D2E=      0 Chk=      7 Scr=      1
 Normal termination of Gaussian 09 at Fri May 17 12:36:51 2024.
