 Entering Gaussian System, Link 0=g09
 Input=/home/mamichetti.iquir/Linux/01_Cardona_A1A3_R__S_R_R_011_OptB.gjc
 Output=/home/mamichetti.iquir/Linux/01_Cardona_A1A3_R__S_R_R_011_OptB.log
 Initial command:
 /opt/ohpc/pub/apps/software/Gaussian/09/AMD64.SSE4a-enabled/g09/l1.exe /local/mamichetti.iquir/Gau-405850.inp -scrdir=/local/mamichetti.iquir/
 Entering Link 1 = /opt/ohpc/pub/apps/software/Gaussian/09/AMD64.SSE4a-enabled/g09/l1.exe PID=    405851.
  
 Copyright (c) 1988,1990,1992,1993,1995,1998,2003,2009,2011,
            Gaussian, Inc.  All Rights Reserved.
  
 This is part of the Gaussian(R) 09 program.  It is based on
 the Gaussian(R) 03 system (copyright 2003, Gaussian, Inc.),
 the Gaussian(R) 98 system (copyright 1998, Gaussian, Inc.),
 the Gaussian(R) 94 system (copyright 1995, Gaussian, Inc.),
 the Gaussian 92(TM) system (copyright 1992, Gaussian, Inc.),
 the Gaussian 90(TM) system (copyright 1990, Gaussian, Inc.),
 the Gaussian 88(TM) system (copyright 1988, Gaussian, Inc.),
 the Gaussian 86(TM) system (copyright 1986, Carnegie Mellon
 University), and the Gaussian 82(TM) system (copyright 1983,
 Carnegie Mellon University). Gaussian is a federally registered
 trademark of Gaussian, Inc.
  
 This software contains proprietary and confidential information,
 including trade secrets, belonging to Gaussian, Inc.
  
 This software is provided under written license and may be
 used, copied, transmitted, or stored only in accord with that
 written license.
  
 The following legend is applicable only to US Government
 contracts under FAR:
  
                    RESTRICTED RIGHTS LEGEND
  
 Use, reproduction and disclosure by the US Government is
 subject to restrictions as set forth in subparagraphs (a)
 and (c) of the Commercial Computer Software - Restricted
 Rights clause in FAR 52.227-19.
  
 Gaussian, Inc.
 340 Quinnipiac St., Bldg. 40, Wallingford CT 06492
  
  
 ---------------------------------------------------------------
 Warning -- This program may not be used in any manner that
 competes with the business of Gaussian, Inc. or will provide
 assistance to any competitor of Gaussian, Inc.  The licensee
 of this program is prohibited from giving any competitor of
 Gaussian, Inc. access to this program.  By using this program,
 the user acknowledges that Gaussian, Inc. is engaged in the
 business of creating and licensing software in the field of
 computational chemistry and represents and warrants to the
 licensee that it is not a competitor of Gaussian, Inc. and that
 it will not use this program in any manner prohibited above.
 ---------------------------------------------------------------
  

 Cite this work as:
 Gaussian 09, Revision C.01,
 M. J. Frisch, G. W. Trucks, H. B. Schlegel, G. E. Scuseria, 
 M. A. Robb, J. R. Cheeseman, G. Scalmani, V. Barone, B. Mennucci, 
 G. A. Petersson, H. Nakatsuji, M. Caricato, X. Li, H. P. Hratchian, 
 A. F. Izmaylov, J. Bloino, G. Zheng, J. L. Sonnenberg, M. Hada, 
 M. Ehara, K. Toyota, R. Fukuda, J. Hasegawa, M. Ishida, T. Nakajima, 
 Y. Honda, O. Kitao, H. Nakai, T. Vreven, J. A. Montgomery, Jr., 
 J. E. Peralta, F. Ogliaro, M. Bearpark, J. J. Heyd, E. Brothers, 
 K. N. Kudin, V. N. Staroverov, T. Keith, R. Kobayashi, J. Normand, 
 K. Raghavachari, A. Rendell, J. C. Burant, S. S. Iyengar, J. Tomasi, 
 M. Cossi, N. Rega, J. M. Millam, M. Klene, J. E. Knox, J. B. Cross, 
 V. Bakken, C. Adamo, J. Jaramillo, R. Gomperts, R. E. Stratmann, 
 O. Yazyev, A. J. Austin, R. Cammi, C. Pomelli, J. W. Ochterski, 
 R. L. Martin, K. Morokuma, V. G. Zakrzewski, G. A. Voth, 
 P. Salvador, J. J. Dannenberg, S. Dapprich, A. D. Daniels, 
 O. Farkas, J. B. Foresman, J. V. Ortiz, J. Cioslowski, 
 and D. J. Fox, Gaussian, Inc., Wallingford CT, 2010.
 
 ******************************************
 Gaussian 09:  AM64L-G09RevC.01 23-Sep-2011
                17-May-2024 
 ******************************************
 %nprocshared=4
 Will use up to    4 processors via shared memory.
 ------------------------------------------------
 # mpw1pw91/6-31+G** nmr scrf=(pcm,solvent=water)
 ------------------------------------------------
 1/38=1/1;
 2/12=2,17=6,18=5,40=1/2;
 3/5=1,6=6,7=111,11=2,16=1,25=1,30=1,70=2201,72=1,74=-7/1,2,8,3;
 4//1;
 5/5=2,38=5,53=1/2;
 8/6=1,10=90,11=11/1;
 10/13=100,45=16/2;
 6/7=2,8=2,9=2,10=2,28=1/1;
 99/9=1/99;
 -------
 comment
 -------
 Charge =  0 Multiplicity = 1
 Symbolic Z-Matrix:
 6                    -1.91501   1.08383  -0.35787 
 6                    -0.70769   0.32119  -0.92933 
 7                     0.49491   0.82722  -0.17638 
 6                     0.03861   1.91145   0.73409 
 6                    -1.27943   2.3949    0.12628 
 6                     1.14668  -0.32583   0.49757 
 6                     0.11358  -1.4539    0.53441 
 6                    -0.6935   -1.21925  -0.75278 
 1                    -2.70424   1.23079  -1.1018 
 1                    -2.34597   0.5419    0.48954 
 1                    -0.59927   0.5649   -1.99255 
 1                     0.79436   2.70188   0.80296 
 1                    -0.13588   1.5285    1.74943 
 1                    -1.08743   3.06294  -0.72225 
 1                    -1.89749   2.93528   0.84998 
 1                     1.43515  -0.03736   1.51358 
 1                     0.57723  -2.4502    0.54711 
 1                    -0.15517  -1.67662  -1.59228 
 8                    -1.97218  -1.83577  -0.60992 
 1                    -2.51518  -1.58818  -1.37705 
 8                    -0.71757  -1.28979   1.68968 
 1                    -1.58027  -1.67561   1.45143 
 6                     2.42128  -0.71304  -0.2659 
 1                     3.01657  -1.42297   0.3171 
 1                     2.16756  -1.19197  -1.22453 
 8                     3.22206   0.44684  -0.4858 
 1                     2.56005   1.11976  -0.7465 
 
                          Input orientation:                          
 ---------------------------------------------------------------------
 Center     Atomic      Atomic             Coordinates (Angstroms)
 Number     Number       Type             X           Y           Z
 ---------------------------------------------------------------------
      1          6           0       -1.915010    1.083827   -0.357874
      2          6           0       -0.707687    0.321194   -0.929332
      3          7           0        0.494906    0.827223   -0.176382
      4          6           0        0.038610    1.911450    0.734093
      5          6           0       -1.279425    2.394896    0.126276
      6          6           0        1.146679   -0.325825    0.497574
      7          6           0        0.113580   -1.453904    0.534411
      8          6           0       -0.693503   -1.219248   -0.752784
      9          1           0       -2.704237    1.230788   -1.101804
     10          1           0       -2.345968    0.541898    0.489542
     11          1           0       -0.599274    0.564898   -1.992545
     12          1           0        0.794358    2.701881    0.802964
     13          1           0       -0.135880    1.528502    1.749431
     14          1           0       -1.087430    3.062942   -0.722254
     15          1           0       -1.897493    2.935279    0.849984
     16          1           0        1.435150   -0.037362    1.513575
     17          1           0        0.577228   -2.450200    0.547109
     18          1           0       -0.155168   -1.676617   -1.592277
     19          8           0       -1.972183   -1.835768   -0.609921
     20          1           0       -2.515184   -1.588175   -1.377053
     21          8           0       -0.717565   -1.289788    1.689681
     22          1           0       -1.580272   -1.675606    1.451434
     23          6           0        2.421276   -0.713040   -0.265902
     24          1           0        3.016574   -1.422972    0.317095
     25          1           0        2.167555   -1.191966   -1.224526
     26          8           0        3.222064    0.446842   -0.485795
     27          1           0        2.560050    1.119762   -0.746497
 ---------------------------------------------------------------------
                    Distance matrix (angstroms):
                    1          2          3          4          5
     1  C    0.000000
     2  C    1.538116   0.000000
     3  N    2.430325   1.506396   0.000000
     4  C    2.386207   2.419268   1.487521   0.000000
     5  C    1.535341   2.396129   2.386933   1.529829   0.000000
     6  C    3.477477   2.427626   1.486117   2.507819   3.664173
     7  C    3.369188   2.442948   2.419541   3.372106   4.113429
     8  C    2.636700   1.550591   2.435693   3.542324   3.765380
     9  H    1.094490   2.200754   3.354666   3.370019   2.212107
    10  H    1.094315   2.178504   2.931796   2.760741   2.168658
    11  H    2.161619   1.096160   2.136467   3.107194   2.881128
    12  H    3.362487   3.305247   2.136149   1.095755   2.202890
    13  H    2.793524   2.993381   2.144397   1.099094   2.166325
    14  H    2.175904   2.775656   2.792884   2.171370   1.096882
    15  H    2.210679   3.378616   3.349761   2.193206   1.094429
    16  H    3.997869   3.269267   2.118377   2.521068   3.899922
    17  H    4.418098   3.392862   3.357338   4.398757   5.205691
    18  H    3.498692   2.176240   2.948995   4.280628   4.560109
    19  O    2.931012   2.520607   3.655955   4.459967   4.349761
    20  H    2.922076   2.667056   4.041831   4.819354   4.433052
    21  O    3.355653   3.074832   3.071484   3.425328   4.041883
    22  H    3.316642   3.227485   3.635973   4.000291   4.291333
    23  C    4.694738   3.361575   2.468061   3.683074   4.848531
    24  H    5.573163   4.297187   3.415510   4.490048   5.750490
    25  H    4.753699   3.262485   2.823736   4.242615   5.154795
    26  O    5.177996   3.956698   2.770887   3.710469   4.942970
    27  H    4.492046   3.368864   2.162274   3.029286   4.138752
                    6          7          8          9         10
     6  C    0.000000
     7  C    1.530102   0.000000
     8  C    2.397471   1.537308   0.000000
     9  H    4.450911   4.221950   3.188658   0.000000
    10  H    3.598832   3.167746   2.715815   1.770680   0.000000
    11  H    3.168980   3.311983   2.174641   2.380693   3.035165
    12  H    3.063396   4.219731   4.473179   4.246460   3.824318
    13  H    2.578882   3.230054   3.757945   3.848978   2.728589
    14  H    4.238274   4.839786   4.300379   2.472835   3.067251
    15  H    4.475039   4.838277   4.612868   2.713964   2.461569
    16  H    1.094844   2.170691   3.326319   5.057958   3.959929
    17  H    2.199931   1.098971   2.195387   5.199673   4.183424
    18  H    2.808366   2.155140   1.097151   3.897604   3.749051
    19  O    3.637825   2.409507   1.426720   3.190865   2.646097
    20  H    4.303138   3.253018   1.960699   2.838671   2.837256
    21  O    2.413659   1.432615   2.443602   4.253535   2.728938
    22  H    3.188733   1.938870   2.419339   4.028579   2.535518
    23  C    1.535392   2.552419   3.192984   5.545095   4.987202
    24  H    2.175503   2.911281   3.866628   6.464008   5.713782
    25  H    2.181288   2.716852   2.899817   5.442348   5.129932
    26  O    2.423067   3.783692   4.263661   6.009583   5.653609
    27  H    2.373826   3.774877   4.007071   5.277432   5.092223
                   11         12         13         14         15
    11  H    0.000000
    12  H    3.784677   0.000000
    13  H    3.891741   1.771429   0.000000
    14  H    2.844672   2.449037   3.060912   0.000000
    15  H    3.922251   2.702360   2.427201   1.773255   0.000000
    16  H    4.098106   2.901557   2.230626   4.579763   4.514804
    17  H    4.113978   5.162998   4.217128   5.897211   5.934590
    18  H    2.319878   5.080357   4.630353   4.908103   5.501811
    19  O    3.091881   5.499114   4.500763   4.979233   4.989969
    20  H    2.947077   5.840387   5.014944   4.909189   5.079653
    21  O    4.124638   4.359541   2.878313   4.990039   4.466376
    22  H    4.224122   5.022128   3.527234   5.236569   4.660754
    23  C    3.706500   3.930779   3.952863   5.174680   5.762569
    24  H    4.728681   4.710491   4.549808   6.168186   6.589869
    25  H    3.366269   4.599829   4.642325   5.380655   6.153240
    26  O    4.109362   3.555258   4.176363   5.046943   5.846921
    27  H    3.441197   2.832243   3.696588   4.132874   5.070951
                   16         17         18         19         20
    16  H    0.000000
    17  H    2.737129   0.000000
    18  H    3.855202   2.389939   0.000000
    19  O    4.399252   2.866311   2.071689   0.000000
    20  H    5.134773   3.742793   2.371459   0.971928   0.000000
    21  O    2.496751   2.080509   3.352190   2.675879   3.567258
    22  H    3.432270   2.464266   3.360818   2.104384   2.980276
    23  C    2.143717   2.660681   3.053820   4.547675   5.135091
    24  H    2.419170   2.656786   3.710793   5.090919   5.787726
    25  H    3.060511   2.692765   2.401077   4.234342   4.701945
    26  O    2.724885   4.056464   4.139937   5.675026   6.152369
    27  H    2.777096   4.283647   3.988419   5.412481   5.786927
                   21         22         23         24         25
    21  O    0.000000
    22  H    0.974618   0.000000
    23  C    3.742895   4.459615   0.000000
    24  H    3.980644   4.741470   1.094655   0.000000
    25  H    4.101962   4.630429   1.101229   1.775047   0.000000
    26  O    4.823822   5.596434   1.426513   2.045254   2.084084
    27  H    4.741693   5.457770   1.899840   2.793768   2.393042
                   26         27
    26  O    0.000000
    27  H    0.979311   0.000000
 Stoichiometry    C8H15NO3
 Framework group  C1[X(C8H15NO3)]
 Deg. of freedom    75
 Full point group                 C1      NOp   1
 Largest Abelian subgroup         C1      NOp   1
 Largest concise Abelian subgroup C1      NOp   1
                         Standard orientation:                         
 ---------------------------------------------------------------------
 Center     Atomic      Atomic             Coordinates (Angstroms)
 Number     Number       Type             X           Y           Z
 ---------------------------------------------------------------------
      1          6           0       -1.915010    1.083828   -0.357874
      2          6           0       -0.707687    0.321194   -0.929332
      3          7           0        0.494906    0.827223   -0.176382
      4          6           0        0.038611    1.911450    0.734093
      5          6           0       -1.279424    2.394896    0.126276
      6          6           0        1.146679   -0.325825    0.497574
      7          6           0        0.113579   -1.453904    0.534411
      8          6           0       -0.693503   -1.219248   -0.752784
      9          1           0       -2.704237    1.230789   -1.101804
     10          1           0       -2.345968    0.541899    0.489542
     11          1           0       -0.599274    0.564898   -1.992545
     12          1           0        0.794359    2.701881    0.802964
     13          1           0       -0.135879    1.528502    1.749431
     14          1           0       -1.087429    3.062942   -0.722254
     15          1           0       -1.897492    2.935280    0.849984
     16          1           0        1.435150   -0.037363    1.513575
     17          1           0        0.577227   -2.450200    0.547109
     18          1           0       -0.155169   -1.676617   -1.592277
     19          8           0       -1.972184   -1.835767   -0.609921
     20          1           0       -2.515185   -1.588174   -1.377053
     21          8           0       -0.717565   -1.289788    1.689681
     22          1           0       -1.580273   -1.675605    1.451434
     23          6           0        2.421276   -0.713041   -0.265902
     24          1           0        3.016573   -1.422973    0.317095
     25          1           0        2.167555   -1.191967   -1.224526
     26          8           0        3.222064    0.446841   -0.485795
     27          1           0        2.560050    1.119761   -0.746497
 ---------------------------------------------------------------------
 Rotational constants (GHZ):      1.1747832      0.8972878      0.6536982
 Standard basis: 6-31+G(d,p) (6D, 7F)
 There are   303 symmetry adapted basis functions of A   symmetry.
 Integral buffers will be    131072 words long.
 Raffenetti 2 integral format.
 Two-electron integral symmetry is turned on.
   303 basis functions,   489 primitive gaussians,   303 cartesian basis functions
    47 alpha electrons       47 beta electrons
       nuclear repulsion energy       814.7621241606 Hartrees.
 NAtoms=   27 NActive=   27 NUniq=   27 SFac= 1.00D+00 NAtFMM=   60 NAOKFM=F Big=F
 ------------------------------------------------------------------------------
 Polarizable Continuum Model (PCM)
 =================================
 Model                : PCM.
 Atomic radii         : UFF (Universal Force Field).
 Polarization charges : Total charges.
 Charge compensation  : None.
 Solution method      : Matrix inversion.
 Cavity type          : Scaled VdW (van der Waals Surface) (Alpha=1.100).
 Cavity algorithm     : GePol (No added spheres)
                        Default sphere list used, NSphG=   27.
                        Lebedev-Laikov grids with approx.  5.0 points / Ang**2.
                        Smoothing algorithm: Karplus/York (Gamma=1.0000).
                        Polarization charges: spherical gaussians, with
                                              point-specific exponents (IZeta= 3).
                        Self-potential: point-specific (ISelfS= 7).
                        Self-field    : sphere-specific E.n sum rule (ISelfD= 2).
 Solvent              : Water, Eps=  78.355300 Eps(inf)=   1.777849
 ------------------------------------------------------------------------------
 One-electron integrals computed using PRISM.
 NBasis=   303 RedAO= T  NBF=   303
 NBsUse=   303 1.00D-06 NBFU=   303
 Harris functional with IExCor=  908 diagonalized for initial guess.
 ExpMin= 4.38D-02 ExpMax= 5.48D+03 ExpMxC= 8.25D+02 IAcc=2 IRadAn=         4 AccDes= 0.00D+00
 HarFok:  IExCor=  908 AccDes= 0.00D+00 IRadAn=         4 IDoV= 1
 ScaDFX=  1.000000  1.000000  1.000000  1.000000
 FoFCou: FMM=F IPFlag=           0 FMFlag=      100000 FMFlg1=           0
         NFxFlg=           0 DoJE=T BraDBF=F KetDBF=T FulRan=T
         Omega=  0.000000  0.000000  1.000000  0.000000  0.000000 ICntrl=     500 IOpCl=  0
         NMat0=    1 NMatS0=    1 NMatT0=    0 NMatD0=    1 NMtDS0=    0 NMtDT0=    0
         I1Cent=           4 NGrid=           0.
 Petite list used in FoFCou.
 Initial guess orbital symmetries:
       Occupied  (A) (A) (A) (A) (A) (A) (A) (A) (A) (A) (A) (A)
                 (A) (A) (A) (A) (A) (A) (A) (A) (A) (A) (A) (A)
                 (A) (A) (A) (A) (A) (A) (A) (A) (A) (A) (A) (A)
                 (A) (A) (A) (A) (A) (A) (A) (A) (A) (A) (A)
       Virtual   (A) (A) (A) (A) (A) (A) (A) (A) (A) (A) (A) (A)
                 (A) (A) (A) (A) (A) (A) (A) (A) (A) (A) (A) (A)
                 (A) (A) (A) (A) (A) (A) (A) (A) (A) (A) (A) (A)
                 (A) (A) (A) (A) (A) (A) (A) (A) (A) (A) (A) (A)
                 (A) (A) (A) (A) (A) (A) (A) (A) (A) (A) (A) (A)
                 (A) (A) (A) (A) (A) (A) (A) (A) (A) (A) (A) (A)
                 (A) (A) (A) (A) (A) (A) (A) (A) (A) (A) (A) (A)
                 (A) (A) (A) (A) (A) (A) (A) (A) (A) (A) (A) (A)
                 (A) (A) (A) (A) (A) (A) (A) (A) (A) (A) (A) (A)
                 (A) (A) (A) (A) (A) (A) (A) (A) (A) (A) (A) (A)
                 (A) (A) (A) (A) (A) (A) (A) (A) (A) (A) (A) (A)
                 (A) (A) (A) (A) (A) (A) (A) (A) (A) (A) (A) (A)
                 (A) (A) (A) (A) (A) (A) (A) (A) (A) (A) (A) (A)
                 (A) (A) (A) (A) (A) (A) (A) (A) (A) (A) (A) (A)
                 (A) (A) (A) (A) (A) (A) (A) (A) (A) (A) (A) (A)
                 (A) (A) (A) (A) (A) (A) (A) (A) (A) (A) (A) (A)
                 (A) (A) (A) (A) (A) (A) (A) (A) (A) (A) (A) (A)
                 (A) (A) (A) (A) (A) (A) (A) (A) (A) (A) (A) (A)
                 (A) (A) (A) (A) (A) (A) (A) (A) (A) (A) (A) (A)
                 (A) (A) (A) (A) (A) (A) (A) (A) (A) (A) (A) (A)
                 (A) (A) (A) (A) (A) (A) (A) (A) (A) (A) (A) (A)
                 (A) (A) (A) (A)
 The electronic state of the initial guess is 1-A.
 Requested convergence on RMS density matrix=1.00D-08 within 128 cycles.
 Requested convergence on MAX density matrix=1.00D-06.
 Requested convergence on             energy=1.00D-06.
 No special actions if energy rises.
 Error on total polarization charges =  0.01415
 SCF Done:  E(RmPW1PW91) =  -594.198734517     A.U. after   13 cycles
             Convg  =    0.4001D-08             -V/T =  2.0094
 Range of M.O.s used for correlation:     1   303
 NBasis=   303 NAE=    47 NBE=    47 NFC=     0 NFV=     0
 NROrb=    303 NOA=    47 NOB=    47 NVA=   256 NVB=   256

 **** Warning!!: The largest alpha MO coefficient is  0.77023320D+02

 NEqPCM:  Using equilibrium solvation (IEInf=0, Eps=  78.3553, EpsInf=   1.7778)
          Differentiating once with respect to magnetic field using GIAOs.
          Electric field/nuclear overlap derivatives assumed to be zero.
 FoFCou: FMM=F IPFlag=           0 FMFlag=    10101102 FMFlg1=           0
         NFxFlg=    40000000 DoJE=F BraDBF=F KetDBF=T FulRan=T
         Omega=  0.000000  0.000000  1.000000  0.000000  0.000000 ICntrl=    6100 IOpCl=  0
         NMat0=    1 NMatS0=    1 NMatT0=    0 NMatD0=    1 NMtDS0=    0 NMtDT0=    0
         I1Cent=           7 NGrid=        1838.
 Symmetry not used in FoFCou.
          There are     3 degrees of freedom in the 1st order CPHF.  IDoFFX=0.
      3 vectors produced by pass  0 Test12= 4.01D-13 3.33D-08 XBig12= 3.01D+01 7.65D-01.
 AX will form     3 AO Fock derivatives at one time.
      3 vectors produced by pass  1 Test12= 4.01D-13 3.33D-08 XBig12= 6.71D-02 3.36D-02.
      3 vectors produced by pass  2 Test12= 4.01D-13 3.33D-08 XBig12= 1.50D-04 2.89D-03.
      3 vectors produced by pass  3 Test12= 4.01D-13 3.33D-08 XBig12= 6.82D-07 1.85D-04.
      3 vectors produced by pass  4 Test12= 4.01D-13 3.33D-08 XBig12= 2.16D-09 9.14D-06.
      3 vectors produced by pass  5 Test12= 4.01D-13 3.33D-08 XBig12= 6.91D-12 4.82D-07.
 Inverted reduced A of dimension    18 with in-core refinement.
 Calculating GIAO nuclear magnetic shielding tensors.
 SCF GIAO Magnetic shielding tensor (ppm):
      1  C    Isotropic =   166.4752   Anisotropy =    18.2578
   XX=   172.7614   YX=    -6.4493   ZX=     4.8579
   XY=     1.2569   YY=   171.7063   ZY=    14.4119
   XZ=     0.6260   YZ=    10.8008   ZZ=   154.9579
   Eigenvalues:   147.6681   173.1104   178.6471
      2  C    Isotropic =   127.1021   Anisotropy =    54.3962
   XX=   148.1538   YX=     6.5202   ZX=    26.4360
   XY=    13.3716   YY=   135.9704   ZY=    12.3117
   XZ=    14.7415   YZ=    17.3562   ZZ=    97.1821
   Eigenvalues:    87.4047   130.5354   163.3662
      3  N    Isotropic =   196.8240   Anisotropy =    84.6547
   XX=   200.2716   YX=   -22.8742   ZX=    49.6910
   XY=   -21.5942   YY=   209.9144   ZY=    21.5563
   XZ=    72.7096   YZ=    12.1504   ZZ=   180.2861
   Eigenvalues:   119.9905   217.2210   253.2605
      4  C    Isotropic =   136.4825   Anisotropy =    62.3251
   XX=   128.5017   YX=   -20.2402   ZX=    -4.5483
   XY=   -31.6281   YY=   148.1320   ZY=    21.4428
   XZ=     3.3541   YZ=    32.2613   ZZ=   132.8139
   Eigenvalues:   101.3689   130.0462   178.0326
      5  C    Isotropic =   165.9717   Anisotropy =    21.0785
   XX=   173.2218   YX=    -2.7408   ZX=    11.5502
   XY=    -8.2163   YY=   174.5529   ZY=    17.1616
   XZ=    14.5222   YZ=     8.3926   ZZ=   150.1404
   Eigenvalues:   138.8576   179.0335   180.0240
      6  C    Isotropic =   122.5710   Anisotropy =    29.9699
   XX=   119.1565   YX=     2.1594   ZX=    10.7339
   XY=   -14.6012   YY=   132.4374   ZY=   -15.0581
   XZ=    -4.3060   YZ=   -12.8879   ZZ=   116.1189
   Eigenvalues:   108.0873   117.0747   142.5509
      7  C    Isotropic =   117.8620   Anisotropy =    28.5649
   XX=   120.0471   YX=     3.9052   ZX=   -19.8428
   XY=     3.1603   YY=   109.5534   ZY=     0.4278
   XZ=    -8.4365   YZ=    -5.1255   ZZ=   123.9854
   Eigenvalues:   107.0777   109.6029   136.9052
      8  C    Isotropic =   120.0150   Anisotropy =    47.2066
   XX=   137.6209   YX=    17.2384   ZX=     9.1494
   XY=    19.2158   YY=   124.9683   ZY=    -8.0381
   XZ=    16.9001   YZ=    -5.5330   ZZ=    97.4558
   Eigenvalues:    89.2195   119.3395   151.4861
      9  H    Isotropic =    29.9896   Anisotropy =    10.7741
   XX=    33.3820   YX=    -1.7695   ZX=     5.4556
   XY=    -1.3479   YY=    28.0452   ZY=    -0.1047
   XZ=     5.4582   YZ=    -0.5345   ZZ=    28.5415
   Eigenvalues:    24.8788    27.9177    37.1723
     10  H    Isotropic =    29.4491   Anisotropy =     6.4073
   XX=    29.8868   YX=     0.4601   ZX=    -3.4693
   XY=     0.6299   YY=    31.0548   ZY=    -2.0588
   XZ=    -3.9925   YZ=    -2.1521   ZZ=    27.4057
   Eigenvalues:    24.4085    30.2181    33.7206
     11  H    Isotropic =    27.9147   Anisotropy =     8.2793
   XX=    25.8922   YX=     0.1498   ZX=     0.9597
   XY=     0.1588   YY=    24.4913   ZY=    -0.5727
   XZ=     0.4563   YZ=     0.0403   ZZ=    33.3607
   Eigenvalues:    24.4609    25.8490    33.4342
     12  H    Isotropic =    28.2771   Anisotropy =     9.4878
   XX=    28.4728   YX=     2.0626   ZX=     0.8923
   XY=     3.1304   YY=    31.8110   ZY=     3.2133
   XZ=     1.3314   YZ=     4.0095   ZZ=    24.5475
   Eigenvalues:    23.0572    27.1718    34.6023
     13  H    Isotropic =    28.4732   Anisotropy =     7.7635
   XX=    24.5111   YX=    -1.2186   ZX=    -0.6422
   XY=    -1.6322   YY=    28.1793   ZY=     2.6638
   XZ=     0.0321   YZ=     1.6100   ZZ=    32.7293
   Eigenvalues:    24.0013    27.7695    33.6489
     14  H    Isotropic =    29.6788   Anisotropy =    11.0993
   XX=    26.6423   YX=     0.1537   ZX=     0.9264
   XY=    -0.0414   YY=    34.1672   ZY=    -4.8049
   XZ=     0.9128   YZ=    -5.3102   ZZ=    28.2269
   Eigenvalues:    24.9302    27.0280    37.0784
     15  H    Isotropic =    29.5649   Anisotropy =    11.7183
   XX=    29.2179   YX=    -3.7538   ZX=    -2.5355
   XY=    -4.5217   YY=    31.5904   ZY=     4.4553
   XZ=    -2.8646   YZ=     4.0684   ZZ=    27.8863
   Eigenvalues:    25.0914    26.2261    37.3771
     16  H    Isotropic =    28.5017   Anisotropy =     6.8487
   XX=    29.2071   YX=    -1.2523   ZX=     3.3515
   XY=    -1.2408   YY=    25.9109   ZY=    -1.8096
   XZ=     2.3184   YZ=    -0.3812   ZZ=    30.3869
   Eigenvalues:    25.4856    26.9519    33.0675
     17  H    Isotropic =    27.6318   Anisotropy =     7.3802
   XX=    27.2476   YX=    -4.0670   ZX=    -1.5583
   XY=    -2.5607   YY=    30.4113   ZY=    -1.0741
   XZ=    -2.6121   YZ=    -0.1792   ZZ=    25.2365
   Eigenvalues:    23.0809    27.2626    32.5520
     18  H    Isotropic =    27.1438   Anisotropy =     5.9812
   XX=    27.6276   YX=    -0.2381   ZX=    -3.3631
   XY=     1.4944   YY=    26.6438   ZY=     3.7347
   XZ=    -0.7347   YZ=     3.9662   ZZ=    27.1600
   Eigenvalues:    22.3688    27.9313    31.1312
     19  O    Isotropic =   307.6353   Anisotropy =    48.6378
   XX=   296.6551   YX=    -1.7393   ZX=    15.5621
   XY=     7.0880   YY=   311.9192   ZY=    -6.2114
   XZ=    50.8161   YZ=    -4.1507   ZZ=   314.3316
   Eigenvalues:   270.4741   312.3713   340.0605
     20  H    Isotropic =    29.8820   Anisotropy =    19.1797
   XX=    32.8346   YX=     1.5239   ZX=     9.9800
   XY=     1.3312   YY=    24.4018   ZY=    -2.5682
   XZ=    10.0662   YZ=    -2.1000   ZZ=    32.4096
   Eigenvalues:    20.6783    26.2992    42.6684
     21  O    Isotropic =   305.1873   Anisotropy =    42.3905
   XX=   323.2950   YX=    21.6809   ZX=    -2.3729
   XY=     8.0129   YY=   304.1302   ZY=    18.6819
   XZ=    11.3749   YZ=     4.4561   ZZ=   288.1368
   Eigenvalues:   281.8156   300.2987   333.4477
     22  H    Isotropic =    28.8236   Anisotropy =    16.5096
   XX=    36.0149   YX=     7.9420   ZX=     2.2463
   XY=     8.2182   YY=    21.9641   ZY=    -0.6080
   XZ=     0.5837   YZ=     0.3195   ZZ=    28.4917
   Eigenvalues:    18.2317    28.4091    39.8300
     23  C    Isotropic =   133.6318   Anisotropy =    50.8397
   XX=   135.5062   YX=    18.2350   ZX=    -7.4221
   XY=    25.5415   YY=   149.7537   ZY=    -1.8517
   XZ=   -12.1478   YZ=    -8.2073   ZZ=   115.6355
   Eigenvalues:   111.0086   122.3619   167.5250
     24  H    Isotropic =    28.2129   Anisotropy =     6.9037
   XX=    30.0053   YX=    -1.3799   ZX=     0.3797
   XY=    -2.9830   YY=    29.8956   ZY=    -2.4189
   XZ=     1.0945   YZ=    -2.6554   ZZ=    24.7378
   Eigenvalues:    23.6952    28.1281    32.8154
     25  H    Isotropic =    28.5883   Anisotropy =     5.7422
   XX=    29.5642   YX=     2.2877   ZX=    -1.1178
   XY=     1.8720   YY=    28.7369   ZY=     5.1185
   XZ=    -2.3782   YZ=     3.2256   ZZ=    27.4638
   Eigenvalues:    22.8121    30.5364    32.4164
     26  O    Isotropic =   314.1054   Anisotropy =    44.3570
   XX=   330.9605   YX=   -13.4759   ZX=    -0.3391
   XY=   -17.6146   YY=   324.3852   ZY=    -1.0768
   XZ=     8.3815   YZ=    18.8964   ZZ=   286.9704
   Eigenvalues:   283.6863   314.9530   343.6767
     27  H    Isotropic =    28.5071   Anisotropy =    17.0654
   XX=    34.8762   YX=    -5.1248   ZX=     1.1174
   XY=    -6.9131   YY=    30.8952   ZY=    -5.3895
   XZ=    -0.7936   YZ=    -6.1080   ZZ=    19.7501
   Eigenvalues:    17.0133    28.6240    39.8841
 End of Minotr Frequency-dependent properties file   721 does not exist.
 End of Minotr Frequency-dependent properties file   722 does not exist.

 **********************************************************************

            Population analysis using the SCF density.

 **********************************************************************

 Orbital symmetries:
       Occupied  (A) (A) (A) (A) (A) (A) (A) (A) (A) (A) (A) (A)
                 (A) (A) (A) (A) (A) (A) (A) (A) (A) (A) (A) (A)
                 (A) (A) (A) (A) (A) (A) (A) (A) (A) (A) (A) (A)
                 (A) (A) (A) (A) (A) (A) (A) (A) (A) (A) (A)
       Virtual   (A) (A) (A) (A) (A) (A) (A) (A) (A) (A) (A) (A)
                 (A) (A) (A) (A) (A) (A) (A) (A) (A) (A) (A) (A)
                 (A) (A) (A) (A) (A) (A) (A) (A) (A) (A) (A) (A)
                 (A) (A) (A) (A) (A) (A) (A) (A) (A) (A) (A) (A)
                 (A) (A) (A) (A) (A) (A) (A) (A) (A) (A) (A) (A)
                 (A) (A) (A) (A) (A) (A) (A) (A) (A) (A) (A) (A)
                 (A) (A) (A) (A) (A) (A) (A) (A) (A) (A) (A) (A)
                 (A) (A) (A) (A) (A) (A) (A) (A) (A) (A) (A) (A)
                 (A) (A) (A) (A) (A) (A) (A) (A) (A) (A) (A) (A)
                 (A) (A) (A) (A) (A) (A) (A) (A) (A) (A) (A) (A)
                 (A) (A) (A) (A) (A) (A) (A) (A) (A) (A) (A) (A)
                 (A) (A) (A) (A) (A) (A) (A) (A) (A) (A) (A) (A)
                 (A) (A) (A) (A) (A) (A) (A) (A) (A) (A) (A) (A)
                 (A) (A) (A) (A) (A) (A) (A) (A) (A) (A) (A) (A)
                 (A) (A) (A) (A) (A) (A) (A) (A) (A) (A) (A) (A)
                 (A) (A) (A) (A) (A) (A) (A) (A) (A) (A) (A) (A)
                 (A) (A) (A) (A) (A) (A) (A) (A) (A) (A) (A) (A)
                 (A) (A) (A) (A) (A) (A) (A) (A) (A) (A) (A) (A)
                 (A) (A) (A) (A) (A) (A) (A) (A) (A) (A) (A) (A)
                 (A) (A) (A) (A) (A) (A) (A) (A) (A) (A) (A) (A)
                 (A) (A) (A) (A) (A) (A) (A) (A) (A) (A) (A) (A)
                 (A) (A) (A) (A)
 The electronic state is 1-A.
 Alpha  occ. eigenvalues --  -19.26878 -19.25355 -19.24739 -14.41849 -10.30959
 Alpha  occ. eigenvalues --  -10.30631 -10.29331 -10.28195 -10.27977 -10.26877
 Alpha  occ. eigenvalues --  -10.24633 -10.24491  -1.08128  -1.05331  -1.04938
 Alpha  occ. eigenvalues --   -0.96257  -0.83077  -0.79005  -0.75316  -0.71701
 Alpha  occ. eigenvalues --   -0.66767  -0.61158  -0.60615  -0.59051  -0.54343
 Alpha  occ. eigenvalues --   -0.53899  -0.52284  -0.50436  -0.49279  -0.46875
 Alpha  occ. eigenvalues --   -0.45726  -0.44933  -0.43490  -0.43041  -0.40619
 Alpha  occ. eigenvalues --   -0.38987  -0.38771  -0.37426  -0.36617  -0.35669
 Alpha  occ. eigenvalues --   -0.34683  -0.34418  -0.34083  -0.30846  -0.29332
 Alpha  occ. eigenvalues --   -0.29166  -0.23774
 Alpha virt. eigenvalues --    0.00126   0.01513   0.02060   0.02406   0.03516
 Alpha virt. eigenvalues --    0.04445   0.04739   0.04894   0.05481   0.06944
 Alpha virt. eigenvalues --    0.07866   0.08665   0.08886   0.09097   0.09748
 Alpha virt. eigenvalues --    0.10406   0.10836   0.11850   0.12350   0.12578
 Alpha virt. eigenvalues --    0.13096   0.13591   0.14520   0.15005   0.15519
 Alpha virt. eigenvalues --    0.16050   0.16446   0.16676   0.17471   0.18334
 Alpha virt. eigenvalues --    0.18517   0.19254   0.19757   0.20460   0.20978
 Alpha virt. eigenvalues --    0.21439   0.21737   0.22368   0.23218   0.23352
 Alpha virt. eigenvalues --    0.23585   0.23796   0.24636   0.25148   0.26318
 Alpha virt. eigenvalues --    0.26534   0.27373   0.28027   0.28294   0.28732
 Alpha virt. eigenvalues --    0.29387   0.30304   0.30348   0.31126   0.32101
 Alpha virt. eigenvalues --    0.32955   0.33249   0.34118   0.34364   0.34712
 Alpha virt. eigenvalues --    0.35220   0.36146   0.37613   0.37927   0.38775
 Alpha virt. eigenvalues --    0.39268   0.39400   0.41203   0.41277   0.41580
 Alpha virt. eigenvalues --    0.43089   0.44296   0.44460   0.45775   0.47617
 Alpha virt. eigenvalues --    0.49971   0.65219   0.66210   0.67731   0.68801
 Alpha virt. eigenvalues --    0.70145   0.71058   0.72270   0.72709   0.74681
 Alpha virt. eigenvalues --    0.74894   0.76421   0.77496   0.80574   0.81452
 Alpha virt. eigenvalues --    0.82388   0.83873   0.84265   0.86217   0.86831
 Alpha virt. eigenvalues --    0.88459   0.93877   0.94214   0.95310   0.96485
 Alpha virt. eigenvalues --    0.97778   1.00400   1.01534   1.02780   1.05044
 Alpha virt. eigenvalues --    1.06105   1.07083   1.09196   1.10431   1.10766
 Alpha virt. eigenvalues --    1.11747   1.11938   1.13228   1.14632   1.14941
 Alpha virt. eigenvalues --    1.16333   1.17632   1.18559   1.23662   1.24491
 Alpha virt. eigenvalues --    1.27652   1.30179   1.31015   1.31586   1.33038
 Alpha virt. eigenvalues --    1.34829   1.37528   1.38885   1.40069   1.40693
 Alpha virt. eigenvalues --    1.41842   1.44855   1.50682   1.51268   1.52561
 Alpha virt. eigenvalues --    1.52762   1.57071   1.59285   1.61407   1.63257
 Alpha virt. eigenvalues --    1.63732   1.65200   1.65433   1.66262   1.71646
 Alpha virt. eigenvalues --    1.72837   1.74314   1.75503   1.78720   1.79684
 Alpha virt. eigenvalues --    1.81253   1.83408   1.84781   1.86208   1.86478
 Alpha virt. eigenvalues --    1.88384   1.89755   1.91635   1.93181   1.95373
 Alpha virt. eigenvalues --    1.95725   1.98781   2.00650   2.03759   2.05169
 Alpha virt. eigenvalues --    2.05401   2.06626   2.08593   2.10588   2.11368
 Alpha virt. eigenvalues --    2.12497   2.14938   2.15604   2.18139   2.19596
 Alpha virt. eigenvalues --    2.21873   2.23238   2.25074   2.26166   2.28964
 Alpha virt. eigenvalues --    2.30633   2.32597   2.34689   2.37011   2.38582
 Alpha virt. eigenvalues --    2.41103   2.41771   2.45410   2.47350   2.48514
 Alpha virt. eigenvalues --    2.50075   2.51248   2.52106   2.54159   2.55923
 Alpha virt. eigenvalues --    2.56942   2.59563   2.60015   2.61608   2.62976
 Alpha virt. eigenvalues --    2.63797   2.65595   2.65906   2.68150   2.70246
 Alpha virt. eigenvalues --    2.71226   2.73596   2.75806   2.77246   2.79169
 Alpha virt. eigenvalues --    2.79880   2.80232   2.81189   2.84102   2.85743
 Alpha virt. eigenvalues --    2.86650   2.87342   2.90287   2.91712   2.95545
 Alpha virt. eigenvalues --    2.96845   2.99656   3.00130   3.01999   3.04336
 Alpha virt. eigenvalues --    3.07735   3.08824   3.11049   3.13428   3.32463
 Alpha virt. eigenvalues --    3.34110   3.36459   3.37260   3.42473   3.44968
 Alpha virt. eigenvalues --    3.47745   3.50301   3.52202   3.53678   3.56026
 Alpha virt. eigenvalues --    3.57196   3.58167   3.59012   3.64141   4.31942
 Alpha virt. eigenvalues --    4.32485   4.38731   4.49567   4.51314   4.55772
 Alpha virt. eigenvalues --    4.62371   4.73138   4.78140   4.83546   4.86400
 Alpha virt. eigenvalues --    4.95302
          Condensed to atoms (all electrons):
              1          2          3          4          5          6
     1  C    6.042446  -0.854154   0.097608  -0.143444   0.023706   0.394849
     2  C   -0.854154   8.418921  -0.201480  -0.365688   0.395010  -1.533734
     3  N    0.097608  -0.201480   7.439042   0.123871  -0.202175   0.107538
     4  C   -0.143444  -0.365688   0.123871   5.495139   0.153406   0.155523
     5  C    0.023706   0.395010  -0.202175   0.153406   5.636882  -0.139771
     6  C    0.394849  -1.533734   0.107538   0.155523  -0.139771   9.543876
     7  C   -0.427346   1.408191  -0.181453  -0.251305   0.210298  -2.675623
     8  C    0.263566  -0.880791   0.015834   0.167565  -0.142606   0.712209
     9  H    0.377514  -0.058913   0.014495   0.028969  -0.027826   0.003237
    10  H    0.515176  -0.189542   0.030179   0.017840  -0.084751   0.008003
    11  H    0.051381   0.180648  -0.017388   0.012876  -0.029781   0.044004
    12  H    0.031374  -0.001581  -0.056624   0.401297  -0.042095   0.001253
    13  H    0.002826   0.007554  -0.068844   0.423132  -0.022349  -0.026327
    14  H   -0.009459  -0.039980   0.017250  -0.032105   0.382607   0.001743
    15  H   -0.076237   0.057678   0.003194  -0.031259   0.397672  -0.008953
    16  H   -0.007136   0.028501  -0.051299   0.006866   0.013433   0.295599
    17  H    0.001520   0.010252   0.011228  -0.007159  -0.001207  -0.087053
    18  H    0.001374  -0.024025   0.010145  -0.000110   0.001918   0.007939
    19  O    0.022766  -0.133810   0.021637  -0.005939   0.017056   0.075077
    20  H    0.004292  -0.046952   0.000693   0.001165   0.001999  -0.007177
    21  O    0.012320   0.004788   0.024915  -0.012939  -0.031473  -0.010755
    22  H   -0.000023  -0.010447  -0.004487  -0.002047   0.003499   0.024094
    23  C    0.042433  -0.080134   0.054325  -0.017401  -0.054960  -0.496713
    24  H    0.001901  -0.003198   0.003504  -0.002855  -0.000794  -0.101328
    25  H   -0.006040   0.050098   0.016610   0.000338   0.004103  -0.220553
    26  O    0.005652  -0.028771   0.001380  -0.016501  -0.001298  -0.118550
    27  H   -0.000091   0.020889   0.053879  -0.002780  -0.000163  -0.077461
              7          8          9         10         11         12
     1  C   -0.427346   0.263566   0.377514   0.515176   0.051381   0.031374
     2  C    1.408191  -0.880791  -0.058913  -0.189542   0.180648  -0.001581
     3  N   -0.181453   0.015834   0.014495   0.030179  -0.017388  -0.056624
     4  C   -0.251305   0.167565   0.028969   0.017840   0.012876   0.401297
     5  C    0.210298  -0.142606  -0.027826  -0.084751  -0.029781  -0.042095
     6  C   -2.675623   0.712209   0.003237   0.008003   0.044004   0.001253
     7  C    8.371609  -0.977803  -0.012262  -0.005488  -0.022044  -0.006627
     8  C   -0.977803   6.266656   0.014672   0.029827   0.045496  -0.002151
     9  H   -0.012262   0.014672   0.519442  -0.024966  -0.004721  -0.000102
    10  H   -0.005488   0.029827  -0.024966   0.513976   0.004105  -0.000055
    11  H   -0.022044   0.045496  -0.004721   0.004105   0.556400   0.000197
    12  H   -0.006627  -0.002151  -0.000102  -0.000055   0.000197   0.549983
    13  H    0.014342  -0.000629  -0.000119   0.001165  -0.000420  -0.041367
    14  H    0.001396   0.002411  -0.004872   0.004137   0.000988  -0.006465
    15  H    0.004650  -0.005468   0.000052  -0.005330  -0.000107   0.000974
    16  H    0.067471  -0.000828   0.000004  -0.000014  -0.000207  -0.000255
    17  H    0.287209   0.047758   0.000007  -0.000057  -0.000088   0.000009
    18  H   -0.033618   0.344787  -0.000086   0.000018  -0.006966   0.000006
    19  O   -0.188516   0.263824  -0.001510   0.000174   0.001764   0.000078
    20  H    0.027632   0.026523   0.000046  -0.000205   0.001025   0.000000
    21  O    0.187764  -0.044364   0.000857   0.000382  -0.000574   0.000411
    22  H    0.005878  -0.035419   0.000001  -0.000097  -0.000034  -0.000006
    23  C    0.109076  -0.022336   0.000050  -0.000538   0.009831   0.005835
    24  H   -0.007241   0.006580   0.000000   0.000000   0.000000  -0.000009
    25  H    0.152471  -0.049822   0.000000   0.000000  -0.000243   0.000005
    26  O    0.021212   0.016195   0.000008   0.000040   0.001823   0.003314
    27  H    0.015841  -0.010898  -0.000002  -0.000001  -0.000369  -0.001228
             13         14         15         16         17         18
     1  C    0.002826  -0.009459  -0.076237  -0.007136   0.001520   0.001374
     2  C    0.007554  -0.039980   0.057678   0.028501   0.010252  -0.024025
     3  N   -0.068844   0.017250   0.003194  -0.051299   0.011228   0.010145
     4  C    0.423132  -0.032105  -0.031259   0.006866  -0.007159  -0.000110
     5  C   -0.022349   0.382607   0.397672   0.013433  -0.001207   0.001918
     6  C   -0.026327   0.001743  -0.008953   0.295599  -0.087053   0.007939
     7  C    0.014342   0.001396   0.004650   0.067471   0.287209  -0.033618
     8  C   -0.000629   0.002411  -0.005468  -0.000828   0.047758   0.344787
     9  H   -0.000119  -0.004872   0.000052   0.000004   0.000007  -0.000086
    10  H    0.001165   0.004137  -0.005330  -0.000014  -0.000057   0.000018
    11  H   -0.000420   0.000988  -0.000107  -0.000207  -0.000088  -0.006966
    12  H   -0.041367  -0.006465   0.000974  -0.000255   0.000009   0.000006
    13  H    0.552187   0.003962  -0.004673   0.004925  -0.000128   0.000004
    14  H    0.003962   0.524691  -0.024456  -0.000011   0.000000   0.000004
    15  H   -0.004673  -0.024456   0.514598  -0.000014   0.000000   0.000003
    16  H    0.004925  -0.000011  -0.000014   0.526892  -0.001098  -0.000179
    17  H   -0.000128   0.000000   0.000000  -0.001098   0.578416  -0.003714
    18  H    0.000004   0.000004   0.000003  -0.000179  -0.003714   0.564639
    19  O   -0.000105   0.000116   0.000020  -0.000999   0.003368  -0.035951
    20  H    0.000000  -0.000001   0.000000   0.000005  -0.000161  -0.004568
    21  O   -0.002298  -0.000068   0.000064  -0.007153  -0.045862   0.007439
    22  H    0.000222   0.000000  -0.000002   0.000238  -0.001256   0.000470
    23  C   -0.008261   0.000792   0.000482  -0.057666   0.045576  -0.005643
    24  H    0.000010   0.000000   0.000000  -0.005391   0.001456   0.000121
    25  H   -0.000005   0.000000   0.000000   0.004827  -0.001500  -0.000339
    26  O   -0.000860   0.000018  -0.000004   0.005041   0.000119  -0.000588
    27  H    0.000315   0.000013  -0.000003  -0.000151  -0.000001   0.000029
             19         20         21         22         23         24
     1  C    0.022766   0.004292   0.012320  -0.000023   0.042433   0.001901
     2  C   -0.133810  -0.046952   0.004788  -0.010447  -0.080134  -0.003198
     3  N    0.021637   0.000693   0.024915  -0.004487   0.054325   0.003504
     4  C   -0.005939   0.001165  -0.012939  -0.002047  -0.017401  -0.002855
     5  C    0.017056   0.001999  -0.031473   0.003499  -0.054960  -0.000794
     6  C    0.075077  -0.007177  -0.010755   0.024094  -0.496713  -0.101328
     7  C   -0.188516   0.027632   0.187764   0.005878   0.109076  -0.007241
     8  C    0.263824   0.026523  -0.044364  -0.035419  -0.022336   0.006580
     9  H   -0.001510   0.000046   0.000857   0.000001   0.000050   0.000000
    10  H    0.000174  -0.000205   0.000382  -0.000097  -0.000538   0.000000
    11  H    0.001764   0.001025  -0.000574  -0.000034   0.009831   0.000000
    12  H    0.000078   0.000000   0.000411  -0.000006   0.005835  -0.000009
    13  H   -0.000105   0.000000  -0.002298   0.000222  -0.008261   0.000010
    14  H    0.000116  -0.000001  -0.000068   0.000000   0.000792   0.000000
    15  H    0.000020   0.000000   0.000064  -0.000002   0.000482   0.000000
    16  H   -0.000999   0.000005  -0.007153   0.000238  -0.057666  -0.005391
    17  H    0.003368  -0.000161  -0.045862  -0.001256   0.045576   0.001456
    18  H   -0.035951  -0.004568   0.007439   0.000470  -0.005643   0.000121
    19  O    8.278564   0.242978  -0.003574   0.021937   0.002671   0.000071
    20  H    0.242978   0.357712  -0.000335  -0.000671  -0.000006   0.000000
    21  O   -0.003574  -0.000335   8.224347   0.248453   0.010733  -0.000102
    22  H    0.021937  -0.000671   0.248453   0.364772  -0.002655  -0.000004
    23  C    0.002671  -0.000006   0.010733  -0.002655   5.521822   0.491362
    24  H    0.000071   0.000000  -0.000102  -0.000004   0.491362   0.538710
    25  H   -0.000919   0.000007  -0.001138   0.000014   0.400358  -0.040682
    26  O    0.000098  -0.000002  -0.000972  -0.000005   0.235862  -0.057783
    27  H    0.000002   0.000000  -0.000006   0.000001   0.020283   0.006687
             25         26         27
     1  C   -0.006040   0.005652  -0.000091
     2  C    0.050098  -0.028771   0.020889
     3  N    0.016610   0.001380   0.053879
     4  C    0.000338  -0.016501  -0.002780
     5  C    0.004103  -0.001298  -0.000163
     6  C   -0.220553  -0.118550  -0.077461
     7  C    0.152471   0.021212   0.015841
     8  C   -0.049822   0.016195  -0.010898
     9  H    0.000000   0.000008  -0.000002
    10  H    0.000000   0.000040  -0.000001
    11  H   -0.000243   0.001823  -0.000369
    12  H    0.000005   0.003314  -0.001228
    13  H   -0.000005  -0.000860   0.000315
    14  H    0.000000   0.000018   0.000013
    15  H    0.000000  -0.000004  -0.000003
    16  H    0.004827   0.005041  -0.000151
    17  H   -0.001500   0.000119  -0.000001
    18  H   -0.000339  -0.000588   0.000029
    19  O   -0.000919   0.000098   0.000002
    20  H    0.000007  -0.000002   0.000000
    21  O   -0.001138  -0.000972  -0.000006
    22  H    0.000014  -0.000005   0.000001
    23  C    0.400358   0.235862   0.020283
    24  H   -0.040682  -0.057783   0.006687
    25  H    0.601016  -0.047413  -0.003831
    26  O   -0.047413   8.287019   0.229309
    27  H   -0.003831   0.229309   0.364045
 Mulliken atomic charges:
              1
     1  C   -0.368774
     2  C   -0.129331
     3  N   -0.263577
     4  C   -0.096452
     5  C   -0.460341
     6  C    0.129055
     7  C   -0.095715
     8  C   -0.050785
     9  H    0.176027
    10  H    0.186023
    11  H    0.172402
    12  H    0.163825
    13  H    0.165741
    14  H    0.177291
    15  H    0.177122
    16  H    0.178601
    17  H    0.162367
    18  H    0.176892
    19  O   -0.580878
    20  H    0.396002
    21  O   -0.560861
    22  H    0.387574
    23  C   -0.205176
    24  H    0.168982
    25  H    0.142638
    26  O   -0.534344
    27  H    0.385692
 Sum of Mulliken atomic charges =   0.00000
 Mulliken charges with hydrogens summed into heavy atoms:
              1
     1  C   -0.006724
     2  C    0.043071
     3  N   -0.263577
     4  C    0.233114
     5  C   -0.105928
     6  C    0.307656
     7  C    0.066652
     8  C    0.126107
    19  O   -0.184876
    21  O   -0.173287
    23  C    0.106444
    26  O   -0.148653
 Sum of Mulliken charges with hydrogens summed into heavy atoms =   0.00000
 Electronic spatial extent (au):  <R**2>=           1959.1279
 Charge=              0.0000 electrons
 Dipole moment (field-independent basis, Debye):
    X=             -4.2904    Y=             -0.0619    Z=             -2.6576  Tot=              5.0472
 Quadrupole moment (field-independent basis, Debye-Ang):
   XX=            -82.4757   YY=            -70.7957   ZZ=            -72.9708
   XY=             -4.9591   XZ=              6.4601   YZ=              3.7813
 Traceless Quadrupole moment (field-independent basis, Debye-Ang):
   XX=             -7.0616   YY=              4.6183   ZZ=              2.4433
   XY=             -4.9591   XZ=              6.4601   YZ=              3.7813
 Octapole moment (field-independent basis, Debye-Ang**2):
  XXX=            -78.6891  YYY=              2.6644  ZZZ=            -17.9501  XYY=              7.1257
  XXY=            -17.1281  XXZ=              1.9443  XZZ=             -9.9353  YZZ=             -1.7759
  YYZ=             -1.3537  XYZ=             -3.3743
 Hexadecapole moment (field-independent basis, Debye-Ang**3):
 XXXX=          -1412.1817 YYYY=           -937.6322 ZZZZ=           -381.0290 XXXY=             -9.9653
 XXXZ=             58.9408 YYYX=              5.5027 YYYZ=             -5.9244 ZZZX=             17.7004
 ZZZY=             20.8653 XXYY=           -342.7069 XXZZ=           -237.6642 YYZZ=           -212.2176
 XXYZ=              3.0018 YYXZ=             -4.6456 ZZXY=             17.1824
 N-N= 8.147621241606D+02 E-N=-3.015161033843D+03  KE= 5.886579512721D+02
 1\1\GINC-COMPUTE-3-1\SP\RmPW1PW91\6-31+G(d,p)\C8H15N1O3\MAMICHETTI.IQU
 IR\17-May-2024\0\\# mpw1pw91/6-31+G** nmr scrf=(pcm,solvent=water)\\co
 mment\\0,1\C,0,-1.91501,1.083827,-0.357874\C,0,-0.707687,0.321194,-0.9
 29332\N,0,0.494906,0.827223,-0.176382\C,0,0.03861,1.91145,0.734093\C,0
 ,-1.279425,2.394896,0.126276\C,0,1.146679,-0.325825,0.497574\C,0,0.113
 58,-1.453904,0.534411\C,0,-0.693503,-1.219248,-0.752784\H,0,-2.704237,
 1.230788,-1.101804\H,0,-2.345968,0.541898,0.489542\H,0,-0.599274,0.564
 898,-1.992545\H,0,0.794358,2.701881,0.802964\H,0,-0.13588,1.528502,1.7
 49431\H,0,-1.08743,3.062942,-0.722254\H,0,-1.897493,2.935279,0.849984\
 H,0,1.43515,-0.037362,1.513575\H,0,0.577228,-2.4502,0.547109\H,0,-0.15
 5168,-1.676617,-1.592277\O,0,-1.972183,-1.835768,-0.609921\H,0,-2.5151
 84,-1.588175,-1.377053\O,0,-0.717565,-1.289788,1.689681\H,0,-1.580272,
 -1.675606,1.451434\C,0,2.421276,-0.71304,-0.265902\H,0,3.016574,-1.422
 972,0.317095\H,0,2.167555,-1.191966,-1.224526\O,0,3.222064,0.446842,-0
 .485795\H,0,2.56005,1.119762,-0.746497\\Version=AM64L-G09RevC.01\State
 =1-A\HF=-594.1987345\RMSD=4.001e-09\Dipole=-1.6879544,-0.024349,-1.045
 585\Quadrupole=-5.2501488,3.4336119,1.8165369,-3.6869457,4.8029557,2.8
 113427\PG=C01 [X(C8H15N1O3)]\\@


 THEREFORE SHALL EVIL COME UPON THEE...
 THOU SHALT NOT KNOW FROM WHENCE IT RISETH...
 AND MISCHIEF SHALL FALL UPON THEE...
 THOU SHALT NOT BE ABLE TO PUT IT OFF...
 AND DESOLATION SHALL COME UPON THEE SUDDENLY...
 WHICH THOU SHALT NOT KNOW...

                                         ISAIAH 47.11
 Job cpu time:  0 days  0 hours  9 minutes  3.8 seconds.
 File lengths (MBytes):  RWF=    113 Int=      0 D2E=      0 Chk=      7 Scr=      1
 Normal termination of Gaussian 09 at Fri May 17 12:32:00 2024.
