 Entering Gaussian System, Link 0=g09
 Input=/home/mamichetti.iquir/Linux/01_Cardona_A1A3_R__S_R_R_016_OptB.gjc
 Output=/home/mamichetti.iquir/Linux/01_Cardona_A1A3_R__S_R_R_016_OptB.log
 Initial command:
 /opt/ohpc/pub/apps/software/Gaussian/09/AMD64.SSE4a-enabled/g09/l1.exe /local/mamichetti.iquir/Gau-407448.inp -scrdir=/local/mamichetti.iquir/
 Entering Link 1 = /opt/ohpc/pub/apps/software/Gaussian/09/AMD64.SSE4a-enabled/g09/l1.exe PID=    407449.
  
 Copyright (c) 1988,1990,1992,1993,1995,1998,2003,2009,2011,
            Gaussian, Inc.  All Rights Reserved.
  
 This is part of the Gaussian(R) 09 program.  It is based on
 the Gaussian(R) 03 system (copyright 2003, Gaussian, Inc.),
 the Gaussian(R) 98 system (copyright 1998, Gaussian, Inc.),
 the Gaussian(R) 94 system (copyright 1995, Gaussian, Inc.),
 the Gaussian 92(TM) system (copyright 1992, Gaussian, Inc.),
 the Gaussian 90(TM) system (copyright 1990, Gaussian, Inc.),
 the Gaussian 88(TM) system (copyright 1988, Gaussian, Inc.),
 the Gaussian 86(TM) system (copyright 1986, Carnegie Mellon
 University), and the Gaussian 82(TM) system (copyright 1983,
 Carnegie Mellon University). Gaussian is a federally registered
 trademark of Gaussian, Inc.
  
 This software contains proprietary and confidential information,
 including trade secrets, belonging to Gaussian, Inc.
  
 This software is provided under written license and may be
 used, copied, transmitted, or stored only in accord with that
 written license.
  
 The following legend is applicable only to US Government
 contracts under FAR:
  
                    RESTRICTED RIGHTS LEGEND
  
 Use, reproduction and disclosure by the US Government is
 subject to restrictions as set forth in subparagraphs (a)
 and (c) of the Commercial Computer Software - Restricted
 Rights clause in FAR 52.227-19.
  
 Gaussian, Inc.
 340 Quinnipiac St., Bldg. 40, Wallingford CT 06492
  
  
 ---------------------------------------------------------------
 Warning -- This program may not be used in any manner that
 competes with the business of Gaussian, Inc. or will provide
 assistance to any competitor of Gaussian, Inc.  The licensee
 of this program is prohibited from giving any competitor of
 Gaussian, Inc. access to this program.  By using this program,
 the user acknowledges that Gaussian, Inc. is engaged in the
 business of creating and licensing software in the field of
 computational chemistry and represents and warrants to the
 licensee that it is not a competitor of Gaussian, Inc. and that
 it will not use this program in any manner prohibited above.
 ---------------------------------------------------------------
  

 Cite this work as:
 Gaussian 09, Revision C.01,
 M. J. Frisch, G. W. Trucks, H. B. Schlegel, G. E. Scuseria, 
 M. A. Robb, J. R. Cheeseman, G. Scalmani, V. Barone, B. Mennucci, 
 G. A. Petersson, H. Nakatsuji, M. Caricato, X. Li, H. P. Hratchian, 
 A. F. Izmaylov, J. Bloino, G. Zheng, J. L. Sonnenberg, M. Hada, 
 M. Ehara, K. Toyota, R. Fukuda, J. Hasegawa, M. Ishida, T. Nakajima, 
 Y. Honda, O. Kitao, H. Nakai, T. Vreven, J. A. Montgomery, Jr., 
 J. E. Peralta, F. Ogliaro, M. Bearpark, J. J. Heyd, E. Brothers, 
 K. N. Kudin, V. N. Staroverov, T. Keith, R. Kobayashi, J. Normand, 
 K. Raghavachari, A. Rendell, J. C. Burant, S. S. Iyengar, J. Tomasi, 
 M. Cossi, N. Rega, J. M. Millam, M. Klene, J. E. Knox, J. B. Cross, 
 V. Bakken, C. Adamo, J. Jaramillo, R. Gomperts, R. E. Stratmann, 
 O. Yazyev, A. J. Austin, R. Cammi, C. Pomelli, J. W. Ochterski, 
 R. L. Martin, K. Morokuma, V. G. Zakrzewski, G. A. Voth, 
 P. Salvador, J. J. Dannenberg, S. Dapprich, A. D. Daniels, 
 O. Farkas, J. B. Foresman, J. V. Ortiz, J. Cioslowski, 
 and D. J. Fox, Gaussian, Inc., Wallingford CT, 2010.
 
 ******************************************
 Gaussian 09:  AM64L-G09RevC.01 23-Sep-2011
                17-May-2024 
 ******************************************
 %nprocshared=4
 Will use up to    4 processors via shared memory.
 ------------------------------------------------
 # mpw1pw91/6-31+G** nmr scrf=(pcm,solvent=water)
 ------------------------------------------------
 1/38=1/1;
 2/12=2,17=6,18=5,40=1/2;
 3/5=1,6=6,7=111,11=2,16=1,25=1,30=1,70=2201,72=1,74=-7/1,2,8,3;
 4//1;
 5/5=2,38=5,53=1/2;
 8/6=1,10=90,11=11/1;
 10/13=100,45=16/2;
 6/7=2,8=2,9=2,10=2,28=1/1;
 99/9=1/99;
 -------
 comment
 -------
 Charge =  0 Multiplicity = 1
 Symbolic Z-Matrix:
 6                    -2.4878   -0.55213   0.35057 
 6                    -1.2162    0.08384   0.95056 
 7                    -0.07444  -0.83657   0.60289 
 6                    -0.62492  -1.94952  -0.20621 
 6                    -1.96156  -1.45601  -0.77548 
 6                     0.97641  -0.03869  -0.06389 
 6                     0.7081    1.39476   0.43019 
 6                    -0.82205   1.4715    0.427 
 1                    -2.9875   -1.15744   1.11542 
 1                    -3.20113   0.20041   0.00345 
 1                    -1.30855   0.16041   2.04045 
 1                    -0.79229  -2.82468   0.43641 
 1                     0.09265  -2.24674  -0.97586 
 1                    -2.64415  -2.2769   -1.01935 
 1                    -1.79426  -0.87068  -1.68568 
 1                     0.85729  -0.04253  -1.1596 
 1                     1.07554   1.51313   1.45926 
 1                    -1.19713   2.27471   1.07472 
 8                    -1.29625   1.67177  -0.90927 
 1                    -0.68773   2.31705  -1.31254 
 8                     1.2299    2.42418  -0.40497 
 1                     2.19931   2.36613  -0.39286 
 6                     2.39045  -0.51462   0.25643 
 1                     3.11258   0.2063   -0.14512 
 1                     2.52554  -0.56317   1.34614 
 8                     2.72768  -1.76847  -0.35033 
 1                     2.20563  -2.45463   0.09641 
 
                          Input orientation:                          
 ---------------------------------------------------------------------
 Center     Atomic      Atomic             Coordinates (Angstroms)
 Number     Number       Type             X           Y           Z
 ---------------------------------------------------------------------
      1          6           0       -2.487803   -0.552127    0.350572
      2          6           0       -1.216196    0.083840    0.950562
      3          7           0       -0.074437   -0.836568    0.602886
      4          6           0       -0.624920   -1.949524   -0.206213
      5          6           0       -1.961560   -1.456008   -0.775478
      6          6           0        0.976412   -0.038691   -0.063892
      7          6           0        0.708098    1.394756    0.430194
      8          6           0       -0.822052    1.471496    0.427002
      9          1           0       -2.987501   -1.157437    1.115420
     10          1           0       -3.201132    0.200405    0.003447
     11          1           0       -1.308550    0.160410    2.040454
     12          1           0       -0.792285   -2.824675    0.436414
     13          1           0        0.092653   -2.246744   -0.975855
     14          1           0       -2.644150   -2.276900   -1.019346
     15          1           0       -1.794264   -0.870676   -1.685676
     16          1           0        0.857294   -0.042528   -1.159602
     17          1           0        1.075540    1.513127    1.459256
     18          1           0       -1.197130    2.274708    1.074718
     19          8           0       -1.296245    1.671772   -0.909268
     20          1           0       -0.687729    2.317052   -1.312541
     21          8           0        1.229904    2.424182   -0.404967
     22          1           0        2.199310    2.366131   -0.392863
     23          6           0        2.390445   -0.514621    0.256425
     24          1           0        3.112577    0.206299   -0.145115
     25          1           0        2.525537   -0.563167    1.346139
     26          8           0        2.727681   -1.768470   -0.350326
     27          1           0        2.205634   -2.454631    0.096406
 ---------------------------------------------------------------------
                    Distance matrix (angstroms):
                    1          2          3          4          5
     1  C    0.000000
     2  C    1.543187   0.000000
     3  N    2.443134   1.507197   0.000000
     4  C    2.394381   2.412945   1.482007   0.000000
     5  C    1.536854   2.430209   2.417608   1.534349   0.000000
     6  C    3.526497   2.419021   1.478338   2.497159   3.338686
     7  C    3.743057   2.385831   2.370863   3.655976   4.087490
     8  C    2.622140   1.534618   2.432493   3.484709   3.363735
     9  H    1.095943   2.169209   2.975162   2.820621   2.171910
    10  H    1.093453   2.202404   3.348262   3.361996   2.210649
    11  H    2.180378   1.096475   2.140935   3.157006   3.311903
    12  H    2.836657   2.983875   2.120280   1.098576   2.170054
    13  H    3.360043   3.294813   2.123426   1.093435   2.210250
    14  H    2.208158   3.390086   3.362978   2.201284   1.095109
    15  H    2.174575   2.862694   2.862950   2.172577   1.095017
    16  H    3.705400   2.961101   2.145923   2.596641   3.176699
    17  H    4.265193   2.748397   2.752614   4.201821   4.799352
    18  H    3.190802   2.194466   3.341123   4.451106   4.233890
    19  O    2.820059   2.446815   3.173514   3.749500   3.200555
    20  H    3.773380   3.223065   3.740362   4.408126   4.018341
    21  O    4.821888   3.646651   3.653705   4.754911   5.037717
    22  H    5.571172   4.321958   4.052002   5.161007   5.662860
    23  C    4.879301   3.721269   2.509846   3.371262   4.570665
    24  H    5.673198   4.466965   3.435715   4.315112   5.376568
    25  H    5.111248   3.817809   2.717911   3.775866   5.043061
    26  O    5.401113   4.547255   3.103050   3.360578   4.718831
    27  H    5.070747   4.345381   2.841368   2.891150   4.372978
                    6          7          8          9         10
     6  C    0.000000
     7  C    1.539767   0.000000
     8  C    2.399190   1.532076   0.000000
     9  H    4.284271   4.543201   3.474820   0.000000
    10  H    4.184922   4.109826   2.730402   1.768009   0.000000
    11  H    3.112710   2.860667   2.135147   2.326217   2.780803
    12  H    3.337709   4.478257   4.296284   2.838962   3.891158
    13  H    2.547195   3.951742   4.077990   3.879094   4.218601
    14  H    4.362447   5.178783   4.411625   2.434813   2.737403
    15  H    3.316478   3.983830   3.300663   3.058134   2.445328
    16  H    1.102173   2.148371   2.762206   4.604476   4.228773
    17  H    2.176682   1.099088   2.160587   4.874263   4.704524
    18  H    3.372319   2.195363   1.097893   3.871266   3.076748
    19  O    2.967375   2.426579   1.431987   3.868350   2.574211
    20  H    3.142931   2.415800   1.938819   4.822450   3.539663
    21  O    2.499267   1.424603   2.410458   5.738125   4.974542
    22  H    2.717880   1.960792   3.255945   6.449299   5.831998
    23  C    1.525976   2.550727   3.780727   5.483921   5.642782
    24  H    2.151701   2.743161   4.172451   6.376494   6.315459
    25  H    2.159410   2.824093   4.023806   5.549773   5.931324
    26  O    2.478129   3.833266   4.868493   5.931701   6.257192
    27  H    2.715409   4.143888   4.968969   5.448830   6.024199
                   11         12         13         14         15
    11  H    0.000000
    12  H    3.427857   0.000000
    13  H    4.105591   1.763979   0.000000
    14  H    4.133604   2.418408   2.737315   0.000000
    15  H    3.896550   3.053742   2.440874   1.773067   0.000000
    16  H    3.869421   3.606760   2.340301   4.155984   2.827250
    17  H    2.802056   4.832339   4.586116   5.860364   4.879435
    18  H    2.327083   5.155098   5.129514   5.214989   4.227267
    19  O    3.314397   4.720474   4.157913   4.173844   2.704602
    20  H    4.034737   5.432047   4.642261   5.001794   3.394887
    21  O    4.189093   5.687501   4.841157   6.122575   4.652085
    22  H    4.805343   6.048290   5.104557   6.738644   5.300653
    23  C    4.161849   3.936815   3.130273   5.484557   4.627129
    24  H    4.932057   4.977241   3.978378   6.330123   5.254550
    25  H    3.963062   4.117033   3.760986   5.937850   5.286506
    26  O    5.072235   3.758283   2.750165   5.437155   4.799706
    27  H    4.792416   3.039746   2.378581   4.979648   4.656599
                   16         17         18         19         20
    16  H    0.000000
    17  H    3.053868   0.000000
    18  H    3.818694   2.427530   0.000000
    19  O    2.763914   3.355658   2.075947   0.000000
    20  H    2.824554   3.382051   2.441370   0.974324   0.000000
    21  O    2.606333   2.080667   2.846455   2.683630   2.124261
    22  H    2.861911   2.328265   3.701075   3.601071   3.030381
    23  C    2.139756   2.699544   4.617429   4.441941   4.467122
    24  H    2.485438   2.903674   4.933547   4.708424   4.501165
    25  H    3.054969   2.535012   4.688865   4.968685   5.068463
    26  O    2.670609   4.095490   5.812244   5.323501   5.411319
    27  H    3.035427   4.344833   5.907838   5.504701   5.755488
                   21         22         23         24         25
    21  O    0.000000
    22  H    0.971218   0.000000
    23  C    3.228135   2.959196   0.000000
    24  H    2.920785   2.358031   1.096556   0.000000
    25  H    3.697200   3.422183   1.099128   1.777789   0.000000
    26  O    4.452488   4.168442   1.433183   2.022367   2.090840
    27  H    5.000624   4.845531   1.955352   2.821600   2.289499
                   26         27
    26  O    0.000000
    27  H    0.971040   0.000000
 Stoichiometry    C8H15NO3
 Framework group  C1[X(C8H15NO3)]
 Deg. of freedom    75
 Full point group                 C1      NOp   1
 Largest Abelian subgroup         C1      NOp   1
 Largest concise Abelian subgroup C1      NOp   1
                         Standard orientation:                         
 ---------------------------------------------------------------------
 Center     Atomic      Atomic             Coordinates (Angstroms)
 Number     Number       Type             X           Y           Z
 ---------------------------------------------------------------------
      1          6           0       -2.487803   -0.552126    0.350572
      2          6           0       -1.216196    0.083840    0.950562
      3          7           0       -0.074437   -0.836568    0.602886
      4          6           0       -0.624921   -1.949524   -0.206213
      5          6           0       -1.961561   -1.456007   -0.775478
      6          6           0        0.976412   -0.038691   -0.063892
      7          6           0        0.708098    1.394756    0.430194
      8          6           0       -0.822052    1.471496    0.427002
      9          1           0       -2.987501   -1.157436    1.115420
     10          1           0       -3.201132    0.200406    0.003447
     11          1           0       -1.308550    0.160410    2.040454
     12          1           0       -0.792286   -2.824675    0.436414
     13          1           0        0.092652   -2.246744   -0.975855
     14          1           0       -2.644151   -2.276899   -1.019346
     15          1           0       -1.794264   -0.870675   -1.685676
     16          1           0        0.857294   -0.042528   -1.159602
     17          1           0        1.075540    1.513127    1.459256
     18          1           0       -1.197129    2.274708    1.074718
     19          8           0       -1.296245    1.671772   -0.909268
     20          1           0       -0.687728    2.317052   -1.312541
     21          8           0        1.229905    2.424182   -0.404967
     22          1           0        2.199311    2.366130   -0.392863
     23          6           0        2.390445   -0.514622    0.256425
     24          1           0        3.112577    0.206298   -0.145115
     25          1           0        2.525537   -0.563168    1.346139
     26          8           0        2.727680   -1.768471   -0.350326
     27          1           0        2.205633   -2.454632    0.096406
 ---------------------------------------------------------------------
 Rotational constants (GHZ):      1.1546310      0.9416221      0.6014439
 Standard basis: 6-31+G(d,p) (6D, 7F)
 There are   303 symmetry adapted basis functions of A   symmetry.
 Integral buffers will be    131072 words long.
 Raffenetti 2 integral format.
 Two-electron integral symmetry is turned on.
   303 basis functions,   489 primitive gaussians,   303 cartesian basis functions
    47 alpha electrons       47 beta electrons
       nuclear repulsion energy       810.3105962699 Hartrees.
 NAtoms=   27 NActive=   27 NUniq=   27 SFac= 1.00D+00 NAtFMM=   60 NAOKFM=F Big=F
 ------------------------------------------------------------------------------
 Polarizable Continuum Model (PCM)
 =================================
 Model                : PCM.
 Atomic radii         : UFF (Universal Force Field).
 Polarization charges : Total charges.
 Charge compensation  : None.
 Solution method      : Matrix inversion.
 Cavity type          : Scaled VdW (van der Waals Surface) (Alpha=1.100).
 Cavity algorithm     : GePol (No added spheres)
                        Default sphere list used, NSphG=   27.
                        Lebedev-Laikov grids with approx.  5.0 points / Ang**2.
                        Smoothing algorithm: Karplus/York (Gamma=1.0000).
                        Polarization charges: spherical gaussians, with
                                              point-specific exponents (IZeta= 3).
                        Self-potential: point-specific (ISelfS= 7).
                        Self-field    : sphere-specific E.n sum rule (ISelfD= 2).
 Solvent              : Water, Eps=  78.355300 Eps(inf)=   1.777849
 ------------------------------------------------------------------------------
 One-electron integrals computed using PRISM.
 NBasis=   303 RedAO= T  NBF=   303
 NBsUse=   303 1.00D-06 NBFU=   303
 Harris functional with IExCor=  908 diagonalized for initial guess.
 ExpMin= 4.38D-02 ExpMax= 5.48D+03 ExpMxC= 8.25D+02 IAcc=2 IRadAn=         4 AccDes= 0.00D+00
 HarFok:  IExCor=  908 AccDes= 0.00D+00 IRadAn=         4 IDoV= 1
 ScaDFX=  1.000000  1.000000  1.000000  1.000000
 FoFCou: FMM=F IPFlag=           0 FMFlag=      100000 FMFlg1=           0
         NFxFlg=           0 DoJE=T BraDBF=F KetDBF=T FulRan=T
         Omega=  0.000000  0.000000  1.000000  0.000000  0.000000 ICntrl=     500 IOpCl=  0
         NMat0=    1 NMatS0=    1 NMatT0=    0 NMatD0=    1 NMtDS0=    0 NMtDT0=    0
         I1Cent=           4 NGrid=           0.
 Petite list used in FoFCou.
 Initial guess orbital symmetries:
       Occupied  (A) (A) (A) (A) (A) (A) (A) (A) (A) (A) (A) (A)
                 (A) (A) (A) (A) (A) (A) (A) (A) (A) (A) (A) (A)
                 (A) (A) (A) (A) (A) (A) (A) (A) (A) (A) (A) (A)
                 (A) (A) (A) (A) (A) (A) (A) (A) (A) (A) (A)
       Virtual   (A) (A) (A) (A) (A) (A) (A) (A) (A) (A) (A) (A)
                 (A) (A) (A) (A) (A) (A) (A) (A) (A) (A) (A) (A)
                 (A) (A) (A) (A) (A) (A) (A) (A) (A) (A) (A) (A)
                 (A) (A) (A) (A) (A) (A) (A) (A) (A) (A) (A) (A)
                 (A) (A) (A) (A) (A) (A) (A) (A) (A) (A) (A) (A)
                 (A) (A) (A) (A) (A) (A) (A) (A) (A) (A) (A) (A)
                 (A) (A) (A) (A) (A) (A) (A) (A) (A) (A) (A) (A)
                 (A) (A) (A) (A) (A) (A) (A) (A) (A) (A) (A) (A)
                 (A) (A) (A) (A) (A) (A) (A) (A) (A) (A) (A) (A)
                 (A) (A) (A) (A) (A) (A) (A) (A) (A) (A) (A) (A)
                 (A) (A) (A) (A) (A) (A) (A) (A) (A) (A) (A) (A)
                 (A) (A) (A) (A) (A) (A) (A) (A) (A) (A) (A) (A)
                 (A) (A) (A) (A) (A) (A) (A) (A) (A) (A) (A) (A)
                 (A) (A) (A) (A) (A) (A) (A) (A) (A) (A) (A) (A)
                 (A) (A) (A) (A) (A) (A) (A) (A) (A) (A) (A) (A)
                 (A) (A) (A) (A) (A) (A) (A) (A) (A) (A) (A) (A)
                 (A) (A) (A) (A) (A) (A) (A) (A) (A) (A) (A) (A)
                 (A) (A) (A) (A) (A) (A) (A) (A) (A) (A) (A) (A)
                 (A) (A) (A) (A) (A) (A) (A) (A) (A) (A) (A) (A)
                 (A) (A) (A) (A) (A) (A) (A) (A) (A) (A) (A) (A)
                 (A) (A) (A) (A) (A) (A) (A) (A) (A) (A) (A) (A)
                 (A) (A) (A) (A)
 The electronic state of the initial guess is 1-A.
 Requested convergence on RMS density matrix=1.00D-08 within 128 cycles.
 Requested convergence on MAX density matrix=1.00D-06.
 Requested convergence on             energy=1.00D-06.
 No special actions if energy rises.
 Error on total polarization charges =  0.01458
 SCF Done:  E(RmPW1PW91) =  -594.196601882     A.U. after   13 cycles
             Convg  =    0.2944D-08             -V/T =  2.0094
 Range of M.O.s used for correlation:     1   303
 NBasis=   303 NAE=    47 NBE=    47 NFC=     0 NFV=     0
 NROrb=    303 NOA=    47 NOB=    47 NVA=   256 NVB=   256

 **** Warning!!: The largest alpha MO coefficient is  0.81216985D+02

 NEqPCM:  Using equilibrium solvation (IEInf=0, Eps=  78.3553, EpsInf=   1.7778)
          Differentiating once with respect to magnetic field using GIAOs.
          Electric field/nuclear overlap derivatives assumed to be zero.
 FoFCou: FMM=F IPFlag=           0 FMFlag=    10101102 FMFlg1=           0
         NFxFlg=    40000000 DoJE=F BraDBF=F KetDBF=T FulRan=T
         Omega=  0.000000  0.000000  1.000000  0.000000  0.000000 ICntrl=    6100 IOpCl=  0
         NMat0=    1 NMatS0=    1 NMatT0=    0 NMatD0=    1 NMtDS0=    0 NMtDT0=    0
         I1Cent=           7 NGrid=        1820.
 Symmetry not used in FoFCou.
          There are     3 degrees of freedom in the 1st order CPHF.  IDoFFX=0.
      3 vectors produced by pass  0 Test12= 4.01D-13 3.33D-08 XBig12= 3.72D+01 1.58D+00.
 AX will form     3 AO Fock derivatives at one time.
      3 vectors produced by pass  1 Test12= 4.01D-13 3.33D-08 XBig12= 8.84D-02 4.59D-02.
      3 vectors produced by pass  2 Test12= 4.01D-13 3.33D-08 XBig12= 2.05D-04 2.29D-03.
      3 vectors produced by pass  3 Test12= 4.01D-13 3.33D-08 XBig12= 8.30D-07 1.94D-04.
      3 vectors produced by pass  4 Test12= 4.01D-13 3.33D-08 XBig12= 3.02D-09 9.44D-06.
      3 vectors produced by pass  5 Test12= 4.01D-13 3.33D-08 XBig12= 9.23D-12 5.49D-07.
 Inverted reduced A of dimension    18 with in-core refinement.
 Calculating GIAO nuclear magnetic shielding tensors.
 SCF GIAO Magnetic shielding tensor (ppm):
      1  C    Isotropic =   167.9993   Anisotropy =    23.5474
   XX=   177.5866   YX=    -1.3690   ZX=     2.9391
   XY=     0.6063   YY=   162.3890   ZY=    19.4129
   XZ=    -3.9764   YZ=    21.4050   ZZ=   164.0222
   Eigenvalues:   142.7801   177.5201   183.6975
      2  C    Isotropic =   128.0992   Anisotropy =    53.2606
   XX=   145.5219   YX=   -19.7289   ZX=     1.0257
   XY=   -17.6524   YY=   142.0616   ZY=    15.8001
   XZ=    -4.3537   YZ=     5.1451   ZZ=    96.7141
   Eigenvalues:    94.2838   126.4075   163.6062
      3  N    Isotropic =   190.8663   Anisotropy =    78.7381
   XX=   238.2818   YX=    -4.1474   ZX=   -21.1867
   XY=     9.4418   YY=   193.6889   ZY=    23.6109
   XZ=   -23.9546   YZ=    21.3691   ZZ=   140.6281
   Eigenvalues:   127.9363   201.3042   243.3584
      4  C    Isotropic =   139.7794   Anisotropy =    58.2470
   XX=   138.7104   YX=    17.4241   ZX=    10.5306
   XY=     5.3196   YY=   152.3940   ZY=    28.6864
   XZ=    23.3155   YZ=    24.6761   ZZ=   128.2339
   Eigenvalues:   108.3854   132.3421   178.6108
      5  C    Isotropic =   168.0431   Anisotropy =    24.5579
   XX=   172.7969   YX=    -3.8241   ZX=     7.6419
   XY=    -6.1264   YY=   170.6202   ZY=    13.6690
   XZ=    12.1293   YZ=    21.5081   ZZ=   160.7121
   Eigenvalues:   143.3557   176.3585   184.4150
      6  C    Isotropic =   123.9270   Anisotropy =    39.1488
   XX=   121.9664   YX=    11.5605   ZX=    -5.8044
   XY=    22.2095   YY=   136.1007   ZY=   -10.6861
   XZ=   -23.7121   YZ=     7.7122   ZZ=   113.7138
   Eigenvalues:    99.8131   121.9417   150.0262
      7  C    Isotropic =   119.8409   Anisotropy =    50.1104
   XX=   121.1228   YX=    14.9364   ZX=   -21.4570
   XY=    10.5587   YY=   140.5773   ZY=   -14.6034
   XZ=   -13.7311   YZ=    -8.7729   ZZ=    97.8226
   Eigenvalues:    87.9760   118.2989   153.2478
      8  C    Isotropic =   120.6200   Anisotropy =    22.4290
   XX=   115.8486   YX=     1.6223   ZX=     5.4725
   XY=     1.7257   YY=   116.0285   ZY=    -8.6984
   XZ=    10.2146   YZ=    -6.4801   ZZ=   129.9828
   Eigenvalues:   108.6726   117.6146   135.5726
      9  H    Isotropic =    29.9117   Anisotropy =    12.5480
   XX=    31.7488   YX=     3.9646   ZX=    -4.9075
   XY=     4.6111   YY=    27.1097   ZY=    -1.8289
   XZ=    -5.4237   YZ=    -1.9054   ZZ=    30.8766
   Eigenvalues:    24.2628    27.1952    38.2770
     10  H    Isotropic =    29.3977   Anisotropy =     9.2737
   XX=    33.7995   YX=    -2.9491   ZX=     1.1305
   XY=    -3.2526   YY=    29.6550   ZY=    -1.0379
   XZ=     0.5878   YZ=    -0.6512   ZZ=    24.7386
   Eigenvalues:    24.5819    28.0310    35.5802
     11  H    Isotropic =    27.9635   Anisotropy =     9.1817
   XX=    26.4063   YX=    -0.4926   ZX=    -2.4193
   XY=    -0.1655   YY=    24.4346   ZY=     1.7789
   XZ=    -2.6197   YZ=     0.8395   ZZ=    33.0494
   Eigenvalues:    24.2387    25.5671    34.0846
     12  H    Isotropic =    28.6422   Anisotropy =    11.6346
   XX=    25.7929   YX=     2.1992   ZX=     1.2370
   XY=     1.1584   YY=    35.5466   ZY=    -3.1840
   XZ=     2.3849   YZ=    -2.5830   ZZ=    24.5871
   Eigenvalues:    22.4386    27.0894    36.3986
     13  H    Isotropic =    28.6269   Anisotropy =     7.3333
   XX=    30.7595   YX=    -1.6005   ZX=    -0.2957
   XY=    -1.5845   YY=    29.1013   ZY=     5.0684
   XZ=    -1.3833   YZ=     4.0213   ZZ=    26.0199
   Eigenvalues:    22.7538    29.6111    33.5157
     14  H    Isotropic =    30.0871   Anisotropy =    12.7215
   XX=    30.9667   YX=     4.6274   ZX=     2.6188
   XY=     5.2113   YY=    32.0876   ZY=     3.9825
   XZ=     3.0762   YZ=     3.9834   ZZ=    27.2070
   Eigenvalues:    24.9736    26.7196    38.5681
     15  H    Isotropic =    29.6343   Anisotropy =     7.7241
   XX=    26.7096   YX=     0.0111   ZX=     0.5312
   XY=     0.0721   YY=    27.8364   ZY=    -1.9691
   XZ=     1.1418   YZ=    -1.1135   ZZ=    34.3570
   Eigenvalues:    26.5747    27.5445    34.7837
     16  H    Isotropic =    28.6109   Anisotropy =     4.3755
   XX=    29.9100   YX=     0.3128   ZX=    -1.6354
   XY=     0.0794   YY=    27.3768   ZY=    -2.1602
   XZ=    -2.2050   YZ=    -0.7812   ZZ=    28.5458
   Eigenvalues:    26.0968    28.2080    31.5279
     17  H    Isotropic =    27.8238   Anisotropy =     4.5829
   XX=    26.0088   YX=     1.9143   ZX=     0.3496
   XY=     1.4792   YY=    27.8580   ZY=     0.2567
   XZ=     2.6781   YZ=     1.4838   ZZ=    29.6045
   Eigenvalues:    24.8263    27.7660    30.8790
     18  H    Isotropic =    27.5288   Anisotropy =     8.7767
   XX=    24.4171   YX=    -2.1372   ZX=     0.1496
   XY=    -2.0009   YY=    28.4073   ZY=     3.2433
   XZ=    -1.4686   YZ=     4.4632   ZZ=    29.7621
   Eigenvalues:    23.3352    25.8714    33.3799
     19  O    Isotropic =   315.1499   Anisotropy =    45.4251
   XX=   302.1132   YX=    17.8680   ZX=   -32.6742
   XY=    18.4788   YY=   325.0061   ZY=    10.8177
   XZ=   -12.7488   YZ=   -19.6587   ZZ=   318.3303
   Eigenvalues:   282.2199   317.7964   345.4332
     20  H    Isotropic =    29.0208   Anisotropy =    18.7470
   XX=    30.4031   YX=     7.7929   ZX=    -0.3352
   XY=     6.9535   YY=    29.3542   ZY=    -9.5330
   XZ=    -2.0808   YZ=    -9.1063   ZZ=    27.3051
   Eigenvalues:    17.4792    28.0644    41.5188
     21  O    Isotropic =   304.8962   Anisotropy =    31.3373
   XX=   322.3904   YX=     5.3110   ZX=   -11.5932
   XY=    11.5267   YY=   304.2628   ZY=    -2.0681
   XZ=    10.3524   YZ=    -4.8454   ZZ=   288.0353
   Eigenvalues:   287.2925   301.6083   325.7877
     22  H    Isotropic =    29.7426   Anisotropy =    19.3142
   XX=    41.9977   YX=     2.4924   ZX=    -1.1472
   XY=     2.9093   YY=    26.6529   ZY=    -3.4698
   XZ=    -1.6106   YZ=    -2.4365   ZZ=    20.5773
   Eigenvalues:    19.3752    27.2339    42.6187
     23  C    Isotropic =   125.4872   Anisotropy =    48.6728
   XX=   124.1234   YX=   -13.5443   ZX=     4.9504
   XY=   -19.6301   YY=   139.1556   ZY=    24.1058
   XZ=     0.7076   YZ=    22.2032   ZZ=   113.1825
   Eigenvalues:    95.1337   123.3921   157.9357
     24  H    Isotropic =    27.9916   Anisotropy =     5.3414
   XX=    31.1712   YX=    -0.2129   ZX=    -1.1972
   XY=     1.4200   YY=    30.3082   ZY=     0.0206
   XZ=    -1.1779   YZ=     1.2493   ZZ=    22.4954
   Eigenvalues:    22.2728    30.1494    31.5525
     25  H    Isotropic =    28.0473   Anisotropy =     5.5487
   XX=    27.1937   YX=    -2.2035   ZX=     2.7581
   XY=    -1.4109   YY=    27.8705   ZY=     4.0698
   XZ=     2.9880   YZ=     1.4992   ZZ=    29.0777
   Eigenvalues:    23.0479    29.3476    31.7465
     26  O    Isotropic =   307.7202   Anisotropy =    22.9812
   XX=   301.9222   YX=    15.7034   ZX=     3.5329
   XY=     3.9940   YY=   311.7680   ZY=    -4.1431
   XZ=   -14.3785   YZ=    -8.8381   ZZ=   309.4703
   Eigenvalues:   295.6989   304.4207   323.0410
     27  H    Isotropic =    30.0177   Anisotropy =    14.7475
   XX=    29.1848   YX=     2.8811   ZX=    -4.9213
   XY=     3.6497   YY=    36.7447   ZY=    -4.0441
   XZ=    -3.9700   YZ=    -4.0406   ZZ=    24.1236
   Eigenvalues:    21.2789    28.9248    39.8493
 End of Minotr Frequency-dependent properties file   721 does not exist.
 End of Minotr Frequency-dependent properties file   722 does not exist.

 **********************************************************************

            Population analysis using the SCF density.

 **********************************************************************

 Orbital symmetries:
       Occupied  (A) (A) (A) (A) (A) (A) (A) (A) (A) (A) (A) (A)
                 (A) (A) (A) (A) (A) (A) (A) (A) (A) (A) (A) (A)
                 (A) (A) (A) (A) (A) (A) (A) (A) (A) (A) (A) (A)
                 (A) (A) (A) (A) (A) (A) (A) (A) (A) (A) (A)
       Virtual   (A) (A) (A) (A) (A) (A) (A) (A) (A) (A) (A) (A)
                 (A) (A) (A) (A) (A) (A) (A) (A) (A) (A) (A) (A)
                 (A) (A) (A) (A) (A) (A) (A) (A) (A) (A) (A) (A)
                 (A) (A) (A) (A) (A) (A) (A) (A) (A) (A) (A) (A)
                 (A) (A) (A) (A) (A) (A) (A) (A) (A) (A) (A) (A)
                 (A) (A) (A) (A) (A) (A) (A) (A) (A) (A) (A) (A)
                 (A) (A) (A) (A) (A) (A) (A) (A) (A) (A) (A) (A)
                 (A) (A) (A) (A) (A) (A) (A) (A) (A) (A) (A) (A)
                 (A) (A) (A) (A) (A) (A) (A) (A) (A) (A) (A) (A)
                 (A) (A) (A) (A) (A) (A) (A) (A) (A) (A) (A) (A)
                 (A) (A) (A) (A) (A) (A) (A) (A) (A) (A) (A) (A)
                 (A) (A) (A) (A) (A) (A) (A) (A) (A) (A) (A) (A)
                 (A) (A) (A) (A) (A) (A) (A) (A) (A) (A) (A) (A)
                 (A) (A) (A) (A) (A) (A) (A) (A) (A) (A) (A) (A)
                 (A) (A) (A) (A) (A) (A) (A) (A) (A) (A) (A) (A)
                 (A) (A) (A) (A) (A) (A) (A) (A) (A) (A) (A) (A)
                 (A) (A) (A) (A) (A) (A) (A) (A) (A) (A) (A) (A)
                 (A) (A) (A) (A) (A) (A) (A) (A) (A) (A) (A) (A)
                 (A) (A) (A) (A) (A) (A) (A) (A) (A) (A) (A) (A)
                 (A) (A) (A) (A) (A) (A) (A) (A) (A) (A) (A) (A)
                 (A) (A) (A) (A) (A) (A) (A) (A) (A) (A) (A) (A)
                 (A) (A) (A) (A)
 The electronic state is 1-A.
 Alpha  occ. eigenvalues --  -19.27012 -19.25750 -19.25173 -14.41231 -10.31081
 Alpha  occ. eigenvalues --  -10.30347 -10.29723 -10.27901 -10.27848 -10.26742
 Alpha  occ. eigenvalues --  -10.24473 -10.24044  -1.08256  -1.05772  -1.04988
 Alpha  occ. eigenvalues --   -0.96180  -0.82699  -0.79353  -0.75331  -0.71877
 Alpha  occ. eigenvalues --   -0.66560  -0.61987  -0.60093  -0.57761  -0.55713
 Alpha  occ. eigenvalues --   -0.53676  -0.52402  -0.50355  -0.49679  -0.48275
 Alpha  occ. eigenvalues --   -0.45542  -0.43392  -0.42713  -0.42230  -0.41326
 Alpha  occ. eigenvalues --   -0.39549  -0.38750  -0.38165  -0.36339  -0.35371
 Alpha  occ. eigenvalues --   -0.34835  -0.34339  -0.32799  -0.31227  -0.30327
 Alpha  occ. eigenvalues --   -0.28947  -0.23137
 Alpha virt. eigenvalues --    0.00346   0.01226   0.01950   0.02110   0.03619
 Alpha virt. eigenvalues --    0.04192   0.04560   0.05217   0.05393   0.07150
 Alpha virt. eigenvalues --    0.07329   0.08117   0.08342   0.08839   0.09717
 Alpha virt. eigenvalues --    0.10606   0.11603   0.12000   0.12138   0.12749
 Alpha virt. eigenvalues --    0.13272   0.13873   0.14394   0.14854   0.15101
 Alpha virt. eigenvalues --    0.15520   0.16333   0.16735   0.17338   0.18435
 Alpha virt. eigenvalues --    0.19088   0.19462   0.19815   0.20715   0.20801
 Alpha virt. eigenvalues --    0.21600   0.22108   0.22467   0.22799   0.23107
 Alpha virt. eigenvalues --    0.23414   0.24591   0.24636   0.25104   0.25958
 Alpha virt. eigenvalues --    0.26307   0.26530   0.27750   0.28635   0.28835
 Alpha virt. eigenvalues --    0.29182   0.29996   0.30695   0.31094   0.31809
 Alpha virt. eigenvalues --    0.32301   0.33027   0.34009   0.34270   0.34657
 Alpha virt. eigenvalues --    0.35268   0.36082   0.37007   0.37638   0.37725
 Alpha virt. eigenvalues --    0.39285   0.39928   0.40424   0.41138   0.41904
 Alpha virt. eigenvalues --    0.42830   0.42988   0.44424   0.45575   0.45751
 Alpha virt. eigenvalues --    0.47701   0.63594   0.66857   0.67702   0.68947
 Alpha virt. eigenvalues --    0.69334   0.70151   0.71803   0.72988   0.74159
 Alpha virt. eigenvalues --    0.77859   0.78356   0.78584   0.80436   0.81846
 Alpha virt. eigenvalues --    0.82892   0.84199   0.85433   0.86548   0.87454
 Alpha virt. eigenvalues --    0.88657   0.90851   0.91386   0.94338   0.95922
 Alpha virt. eigenvalues --    0.99014   1.00464   1.02404   1.03110   1.03291
 Alpha virt. eigenvalues --    1.04466   1.06901   1.08489   1.10114   1.10646
 Alpha virt. eigenvalues --    1.12229   1.12840   1.14146   1.14638   1.15631
 Alpha virt. eigenvalues --    1.16999   1.17924   1.19529   1.22181   1.24614
 Alpha virt. eigenvalues --    1.26551   1.27909   1.30313   1.32166   1.32797
 Alpha virt. eigenvalues --    1.34261   1.35174   1.36888   1.39959   1.40620
 Alpha virt. eigenvalues --    1.44957   1.45202   1.46945   1.47781   1.54002
 Alpha virt. eigenvalues --    1.55368   1.57364   1.57939   1.60419   1.61871
 Alpha virt. eigenvalues --    1.62747   1.64848   1.65354   1.69384   1.72000
 Alpha virt. eigenvalues --    1.72833   1.74054   1.75950   1.77290   1.78606
 Alpha virt. eigenvalues --    1.80229   1.82416   1.84237   1.86279   1.87036
 Alpha virt. eigenvalues --    1.88270   1.90048   1.90707   1.92028   1.94981
 Alpha virt. eigenvalues --    1.96115   2.00175   2.02098   2.04014   2.04879
 Alpha virt. eigenvalues --    2.05494   2.06472   2.08638   2.09137   2.09678
 Alpha virt. eigenvalues --    2.14364   2.15394   2.17312   2.18077   2.19852
 Alpha virt. eigenvalues --    2.21049   2.22737   2.24129   2.28999   2.30524
 Alpha virt. eigenvalues --    2.31503   2.32475   2.35115   2.38224   2.38999
 Alpha virt. eigenvalues --    2.41818   2.42781   2.43805   2.46088   2.46374
 Alpha virt. eigenvalues --    2.48330   2.49261   2.51373   2.52509   2.54719
 Alpha virt. eigenvalues --    2.56414   2.57963   2.59596   2.61563   2.64820
 Alpha virt. eigenvalues --    2.65511   2.66236   2.68944   2.69593   2.70832
 Alpha virt. eigenvalues --    2.71338   2.73345   2.74138   2.76430   2.76902
 Alpha virt. eigenvalues --    2.78794   2.79774   2.81987   2.84112   2.85157
 Alpha virt. eigenvalues --    2.86715   2.89838   2.91212   2.94377   2.95905
 Alpha virt. eigenvalues --    2.96705   2.98895   3.01197   3.02029   3.04159
 Alpha virt. eigenvalues --    3.05259   3.09126   3.10811   3.13076   3.32842
 Alpha virt. eigenvalues --    3.34396   3.37159   3.39187   3.39627   3.44677
 Alpha virt. eigenvalues --    3.46938   3.48438   3.53323   3.53966   3.55587
 Alpha virt. eigenvalues --    3.56682   3.58283   3.60518   3.61449   4.28876
 Alpha virt. eigenvalues --    4.34583   4.37405   4.46533   4.50362   4.55554
 Alpha virt. eigenvalues --    4.63003   4.67879   4.79734   4.80215   4.87019
 Alpha virt. eigenvalues --    5.02333
          Condensed to atoms (all electrons):
              1          2          3          4          5          6
     1  C    5.905104  -0.394504   0.011795   0.110799   0.007529  -0.010390
     2  C   -0.394504   8.534409  -0.195868  -0.383437   0.139948  -0.938091
     3  N    0.011795  -0.195868   7.389043   0.150620  -0.136760  -0.149078
     4  C    0.110799  -0.383437   0.150620   5.997695  -0.088931  -0.205071
     5  C    0.007529   0.139948  -0.136760  -0.088931   5.691216   0.064156
     6  C   -0.010390  -0.938091  -0.149078  -0.205071   0.064156   9.250196
     7  C   -0.014434   0.686749   0.045386  -0.360854   0.027132  -1.479180
     8  C   -0.165032  -1.114881  -0.157639   0.133142   0.128707   1.137849
     9  H    0.409045  -0.065339   0.009957  -0.003634  -0.044623   0.012441
    10  H    0.420127  -0.132438   0.017582   0.027612  -0.032123   0.004733
    11  H    0.017302   0.204901  -0.010920  -0.005582   0.014979   0.011726
    12  H   -0.000388  -0.027963  -0.030240   0.372856  -0.031258   0.013979
    13  H    0.020048   0.036165  -0.062962   0.387500  -0.028273   0.017654
    14  H   -0.029715   0.018298   0.013508  -0.026420   0.351842   0.002658
    15  H   -0.061975  -0.002699   0.010447  -0.085943   0.452153   0.013928
    16  H    0.019472   0.016687  -0.068175   0.069777  -0.019836   0.318642
    17  H    0.016003  -0.031469   0.051059   0.018137  -0.003966  -0.105486
    18  H    0.031072  -0.073273   0.021565   0.006467  -0.016783   0.017483
    19  O    0.087888  -0.385020   0.063627   0.031851  -0.052888   0.020930
    20  H   -0.000331   0.069101  -0.004019   0.003812  -0.005525  -0.015564
    21  O    0.000446   0.017164   0.014003   0.004617   0.001519  -0.040747
    22  H   -0.001002   0.001398  -0.000936  -0.001621   0.000989  -0.025728
    23  C    0.120989  -0.103466   0.148345   0.114808  -0.163087  -1.386799
    24  H   -0.000600   0.017560   0.008394  -0.008651   0.002002  -0.143652
    25  H    0.003786  -0.001779   0.013748   0.015502  -0.002496  -0.122119
    26  O    0.006823   0.017981   0.023309  -0.010925  -0.005053  -0.156070
    27  H   -0.000862   0.011473   0.015653  -0.008055   0.006341  -0.062752
              7          8          9         10         11         12
     1  C   -0.014434  -0.165032   0.409045   0.420127   0.017302  -0.000388
     2  C    0.686749  -1.114881  -0.065339  -0.132438   0.204901  -0.027963
     3  N    0.045386  -0.157639   0.009957   0.017582  -0.010920  -0.030240
     4  C   -0.360854   0.133142  -0.003634   0.027612  -0.005582   0.372856
     5  C    0.027132   0.128707  -0.044623  -0.032123   0.014979  -0.031258
     6  C   -1.479180   1.137849   0.012441   0.004733   0.011726   0.013979
     7  C    7.837782  -1.488333  -0.002486  -0.008214  -0.011899   0.008729
     8  C   -1.488333   7.483750   0.013752   0.038570   0.037673   0.000720
     9  H   -0.002486   0.013752   0.528620  -0.025121  -0.007596   0.001423
    10  H   -0.008214   0.038570  -0.025121   0.509487   0.002745  -0.000022
    11  H   -0.011899   0.037673  -0.007596   0.002745   0.565054   0.000839
    12  H    0.008729   0.000720   0.001423  -0.000022   0.000839   0.554919
    13  H    0.013259  -0.019160  -0.000112  -0.000142  -0.000191  -0.032511
    14  H    0.003733   0.000871  -0.005173   0.000866  -0.000050  -0.003451
    15  H    0.009834   0.000336   0.004138  -0.005353  -0.000100   0.004053
    16  H   -0.073121  -0.000263  -0.000005  -0.000024  -0.000531  -0.000369
    17  H    0.310407  -0.005061   0.000002  -0.000003   0.000753   0.000013
    18  H    0.056917   0.246265  -0.000009   0.000344  -0.001513   0.000005
    19  O   -0.065034   0.278164  -0.000356   0.000947   0.010488   0.000237
    20  H   -0.046204  -0.017842   0.000000  -0.000054  -0.000260   0.000000
    21  O    0.251429  -0.132785   0.000015   0.000010  -0.000417   0.000014
    22  H    0.034814   0.028468   0.000000   0.000000   0.000006   0.000000
    23  C    0.325127  -0.493642   0.000143   0.000609   0.005929   0.005197
    24  H    0.055526  -0.015534   0.000000   0.000000  -0.000008  -0.000004
    25  H    0.013317  -0.010509   0.000000   0.000000  -0.000016   0.000017
    26  O    0.061024  -0.042996  -0.000013   0.000002   0.000048  -0.000345
    27  H    0.011847  -0.003681   0.000000   0.000000  -0.000009  -0.000426
             13         14         15         16         17         18
     1  C    0.020048  -0.029715  -0.061975   0.019472   0.016003   0.031072
     2  C    0.036165   0.018298  -0.002699   0.016687  -0.031469  -0.073273
     3  N   -0.062962   0.013508   0.010447  -0.068175   0.051059   0.021565
     4  C    0.387500  -0.026420  -0.085943   0.069777   0.018137   0.006467
     5  C   -0.028273   0.351842   0.452153  -0.019836  -0.003966  -0.016783
     6  C    0.017654   0.002658   0.013928   0.318642  -0.105486   0.017483
     7  C    0.013259   0.003733   0.009834  -0.073121   0.310407   0.056917
     8  C   -0.019160   0.000871   0.000336  -0.000263  -0.005061   0.246265
     9  H   -0.000112  -0.005173   0.004138  -0.000005   0.000002  -0.000009
    10  H   -0.000142   0.000866  -0.005353  -0.000024  -0.000003   0.000344
    11  H   -0.000191  -0.000050  -0.000100  -0.000531   0.000753  -0.001513
    12  H   -0.032511  -0.003451   0.004053  -0.000369   0.000013   0.000005
    13  H    0.532368   0.001024  -0.005956   0.002389  -0.000018   0.000004
    14  H    0.001024   0.527899  -0.024912  -0.000126   0.000000   0.000005
    15  H   -0.005956  -0.024912   0.511228   0.000078   0.000001   0.000020
    16  H    0.002389  -0.000126   0.000078   0.562548   0.004213  -0.000164
    17  H   -0.000018   0.000000   0.000001   0.004213   0.560761  -0.003341
    18  H    0.000004   0.000005   0.000020  -0.000164  -0.003341   0.577476
    19  O    0.000500   0.000584  -0.001831   0.003322   0.007795  -0.042778
    20  H   -0.000003   0.000000   0.000045   0.001087   0.000550  -0.001429
    21  O   -0.000093  -0.000012  -0.000022   0.002154  -0.034292   0.002282
    22  H   -0.000001   0.000000   0.000000  -0.001050  -0.005487  -0.000113
    23  C   -0.029174   0.000778   0.000821  -0.018320   0.036221   0.019606
    24  H   -0.000028   0.000000   0.000000  -0.002761  -0.000174  -0.000004
    25  H    0.000106   0.000000   0.000001   0.004762   0.003337   0.000001
    26  O    0.004234   0.000042  -0.000165   0.000363   0.000010   0.000050
    27  H    0.000187  -0.000004   0.000000   0.000019   0.000009   0.000000
             19         20         21         22         23         24
     1  C    0.087888  -0.000331   0.000446  -0.001002   0.120989  -0.000600
     2  C   -0.385020   0.069101   0.017164   0.001398  -0.103466   0.017560
     3  N    0.063627  -0.004019   0.014003  -0.000936   0.148345   0.008394
     4  C    0.031851   0.003812   0.004617  -0.001621   0.114808  -0.008651
     5  C   -0.052888  -0.005525   0.001519   0.000989  -0.163087   0.002002
     6  C    0.020930  -0.015564  -0.040747  -0.025728  -1.386799  -0.143652
     7  C   -0.065034  -0.046204   0.251429   0.034814   0.325127   0.055526
     8  C    0.278164  -0.017842  -0.132785   0.028468  -0.493642  -0.015534
     9  H   -0.000356   0.000000   0.000015   0.000000   0.000143   0.000000
    10  H    0.000947  -0.000054   0.000010   0.000000   0.000609   0.000000
    11  H    0.010488  -0.000260  -0.000417   0.000006   0.005929  -0.000008
    12  H    0.000237   0.000000   0.000014   0.000000   0.005197  -0.000004
    13  H    0.000500  -0.000003  -0.000093  -0.000001  -0.029174  -0.000028
    14  H    0.000584   0.000000  -0.000012   0.000000   0.000778   0.000000
    15  H   -0.001831   0.000045  -0.000022   0.000000   0.000821   0.000000
    16  H    0.003322   0.001087   0.002154  -0.001050  -0.018320  -0.002761
    17  H    0.007795   0.000550  -0.034292  -0.005487   0.036221  -0.000174
    18  H   -0.042778  -0.001429   0.002282  -0.000113   0.019606  -0.000004
    19  O    8.308911   0.240644  -0.005543   0.000342   0.072379  -0.000369
    20  H    0.240644   0.359502   0.022723  -0.000526   0.002281   0.000004
    21  O   -0.005543   0.022723   8.283508   0.239136  -0.042514   0.001712
    22  H    0.000342  -0.000526   0.239136   0.359194  -0.024377   0.003018
    23  C    0.072379   0.002281  -0.042514  -0.024377   6.509235   0.458759
    24  H   -0.000369   0.000004   0.001712   0.003018   0.458759   0.565550
    25  H    0.000281  -0.000001   0.000487  -0.000092   0.440379  -0.034324
    26  O    0.001457   0.000001  -0.000908  -0.000431   0.227392  -0.063891
    27  H   -0.000058   0.000000   0.000033   0.000002   0.022581   0.006796
             25         26         27
     1  C    0.003786   0.006823  -0.000862
     2  C   -0.001779   0.017981   0.011473
     3  N    0.013748   0.023309   0.015653
     4  C    0.015502  -0.010925  -0.008055
     5  C   -0.002496  -0.005053   0.006341
     6  C   -0.122119  -0.156070  -0.062752
     7  C    0.013317   0.061024   0.011847
     8  C   -0.010509  -0.042996  -0.003681
     9  H    0.000000  -0.000013   0.000000
    10  H    0.000000   0.000002   0.000000
    11  H   -0.000016   0.000048  -0.000009
    12  H    0.000017  -0.000345  -0.000426
    13  H    0.000106   0.004234   0.000187
    14  H    0.000000   0.000042  -0.000004
    15  H    0.000001  -0.000165   0.000000
    16  H    0.004762   0.000363   0.000019
    17  H    0.003337   0.000010   0.000009
    18  H    0.000001   0.000050   0.000000
    19  O    0.000281   0.001457  -0.000058
    20  H   -0.000001   0.000001   0.000000
    21  O    0.000487  -0.000908   0.000033
    22  H   -0.000092  -0.000431   0.000002
    23  C    0.440379   0.227392   0.022581
    24  H   -0.034324  -0.063891   0.006796
    25  H    0.555989  -0.040800  -0.006829
    26  O   -0.040800   8.261150   0.260043
    27  H   -0.006829   0.260043   0.371211
 Mulliken atomic charges:
              1
     1  C   -0.508995
     2  C    0.078392
     3  N   -0.191445
     4  C   -0.256069
     5  C   -0.256910
     6  C   -0.045649
     7  C   -0.203254
     8  C    0.139093
     9  H    0.174933
    10  H    0.179857
    11  H    0.166648
    12  H    0.163978
    13  H    0.163188
    14  H    0.167758
    15  H    0.181873
    16  H    0.179230
    17  H    0.180028
    18  H    0.159846
    19  O   -0.576471
    20  H    0.392007
    21  O   -0.583919
    22  H    0.393997
    23  C   -0.250202
    24  H    0.150682
    25  H    0.167253
    26  O   -0.542331
    27  H    0.376483
 Sum of Mulliken atomic charges =   0.00000
 Mulliken charges with hydrogens summed into heavy atoms:
              1
     1  C   -0.154205
     2  C    0.245040
     3  N   -0.191445
     4  C    0.071096
     5  C    0.092720
     6  C    0.133581
     7  C   -0.023226
     8  C    0.298938
    19  O   -0.184464
    21  O   -0.189922
    23  C    0.067733
    26  O   -0.165848
 Sum of Mulliken charges with hydrogens summed into heavy atoms =   0.00000
 Electronic spatial extent (au):  <R**2>=           2007.1585
 Charge=              0.0000 electrons
 Dipole moment (field-independent basis, Debye):
    X=              0.4162    Y=              0.4309    Z=              2.1651  Tot=              2.2464
 Quadrupole moment (field-independent basis, Debye-Ang):
   XX=            -75.6598   YY=            -71.8813   ZZ=            -74.0518
   XY=              9.9015   XZ=              0.6935   YZ=              0.8076
 Traceless Quadrupole moment (field-independent basis, Debye-Ang):
   XX=             -1.7955   YY=              1.9830   ZZ=             -0.1875
   XY=              9.9015   XZ=              0.6935   YZ=              0.8076
 Octapole moment (field-independent basis, Debye-Ang**2):
  XXX=              1.3558  YYY=            -10.9551  ZZZ=             -3.9009  XYY=              3.4492
  XXY=             26.6684  XXZ=             13.5422  XZZ=              2.0404  YZZ=              9.3701
  YYZ=              2.7309  XYZ=             -9.4961
 Hexadecapole moment (field-independent basis, Debye-Ang**3):
 XXXX=          -1365.2537 YYYY=           -979.9621 ZZZZ=           -269.5027 XXXY=            118.2865
 XXXZ=             10.4776 YYYX=            -10.4796 YYYZ=            -20.8858 ZZZX=             -0.2195
 ZZZY=             -9.7528 XXYY=           -384.3022 XXZZ=           -268.4943 YYZZ=           -207.6269
 XXYZ=            -20.8252 YYXZ=              8.3572 ZZXY=              2.3785
 N-N= 8.103105962699D+02 E-N=-3.006498553420D+03  KE= 5.886566639096D+02
 1\1\GINC-COMPUTE-3-1\SP\RmPW1PW91\6-31+G(d,p)\C8H15N1O3\MAMICHETTI.IQU
 IR\17-May-2024\0\\# mpw1pw91/6-31+G** nmr scrf=(pcm,solvent=water)\\co
 mment\\0,1\C,0,-2.487803,-0.552127,0.350572\C,0,-1.216196,0.08384,0.95
 0562\N,0,-0.074437,-0.836568,0.602886\C,0,-0.62492,-1.949524,-0.206213
 \C,0,-1.96156,-1.456008,-0.775478\C,0,0.976412,-0.038691,-0.063892\C,0
 ,0.708098,1.394756,0.430194\C,0,-0.822052,1.471496,0.427002\H,0,-2.987
 501,-1.157437,1.11542\H,0,-3.201132,0.200405,0.003447\H,0,-1.30855,0.1
 6041,2.040454\H,0,-0.792285,-2.824675,0.436414\H,0,0.092653,-2.246744,
 -0.975855\H,0,-2.64415,-2.2769,-1.019346\H,0,-1.794264,-0.870676,-1.68
 5676\H,0,0.857294,-0.042528,-1.159602\H,0,1.07554,1.513127,1.459256\H,
 0,-1.19713,2.274708,1.074718\O,0,-1.296245,1.671772,-0.909268\H,0,-0.6
 87729,2.317052,-1.312541\O,0,1.229904,2.424182,-0.404967\H,0,2.19931,2
 .366131,-0.392863\C,0,2.390445,-0.514621,0.256425\H,0,3.112577,0.20629
 9,-0.145115\H,0,2.525537,-0.563167,1.346139\O,0,2.727681,-1.76847,-0.3
 50326\H,0,2.205634,-2.454631,0.096406\\Version=AM64L-G09RevC.01\State=
 1-A\HF=-594.1966019\RMSD=2.944e-09\Dipole=0.1637263,0.1695193,0.851800
 3\Quadrupole=-1.3348956,1.4743135,-0.1394179,7.3615427,0.5156064,0.600
 4596\PG=C01 [X(C8H15N1O3)]\\@


 Money is a good servant but a bad master.
                        -- French Proverb
 Job cpu time:  0 days  0 hours  8 minutes 57.2 seconds.
 File lengths (MBytes):  RWF=    112 Int=      0 D2E=      0 Chk=      7 Scr=      1
 Normal termination of Gaussian 09 at Fri May 17 12:47:07 2024.
