 Entering Gaussian System, Link 0=g09
 Input=/home/mamichetti.iquir/Linux/01_Cardona_A1A3_R__S_R_R_015_OptB.gjc
 Output=/home/mamichetti.iquir/Linux/01_Cardona_A1A3_R__S_R_R_015_OptB.log
 Initial command:
 /opt/ohpc/pub/apps/software/Gaussian/09/AMD64.SSE4a-enabled/g09/l1.exe /local/mamichetti.iquir/Gau-407181.inp -scrdir=/local/mamichetti.iquir/
 Entering Link 1 = /opt/ohpc/pub/apps/software/Gaussian/09/AMD64.SSE4a-enabled/g09/l1.exe PID=    407182.
  
 Copyright (c) 1988,1990,1992,1993,1995,1998,2003,2009,2011,
            Gaussian, Inc.  All Rights Reserved.
  
 This is part of the Gaussian(R) 09 program.  It is based on
 the Gaussian(R) 03 system (copyright 2003, Gaussian, Inc.),
 the Gaussian(R) 98 system (copyright 1998, Gaussian, Inc.),
 the Gaussian(R) 94 system (copyright 1995, Gaussian, Inc.),
 the Gaussian 92(TM) system (copyright 1992, Gaussian, Inc.),
 the Gaussian 90(TM) system (copyright 1990, Gaussian, Inc.),
 the Gaussian 88(TM) system (copyright 1988, Gaussian, Inc.),
 the Gaussian 86(TM) system (copyright 1986, Carnegie Mellon
 University), and the Gaussian 82(TM) system (copyright 1983,
 Carnegie Mellon University). Gaussian is a federally registered
 trademark of Gaussian, Inc.
  
 This software contains proprietary and confidential information,
 including trade secrets, belonging to Gaussian, Inc.
  
 This software is provided under written license and may be
 used, copied, transmitted, or stored only in accord with that
 written license.
  
 The following legend is applicable only to US Government
 contracts under FAR:
  
                    RESTRICTED RIGHTS LEGEND
  
 Use, reproduction and disclosure by the US Government is
 subject to restrictions as set forth in subparagraphs (a)
 and (c) of the Commercial Computer Software - Restricted
 Rights clause in FAR 52.227-19.
  
 Gaussian, Inc.
 340 Quinnipiac St., Bldg. 40, Wallingford CT 06492
  
  
 ---------------------------------------------------------------
 Warning -- This program may not be used in any manner that
 competes with the business of Gaussian, Inc. or will provide
 assistance to any competitor of Gaussian, Inc.  The licensee
 of this program is prohibited from giving any competitor of
 Gaussian, Inc. access to this program.  By using this program,
 the user acknowledges that Gaussian, Inc. is engaged in the
 business of creating and licensing software in the field of
 computational chemistry and represents and warrants to the
 licensee that it is not a competitor of Gaussian, Inc. and that
 it will not use this program in any manner prohibited above.
 ---------------------------------------------------------------
  

 Cite this work as:
 Gaussian 09, Revision C.01,
 M. J. Frisch, G. W. Trucks, H. B. Schlegel, G. E. Scuseria, 
 M. A. Robb, J. R. Cheeseman, G. Scalmani, V. Barone, B. Mennucci, 
 G. A. Petersson, H. Nakatsuji, M. Caricato, X. Li, H. P. Hratchian, 
 A. F. Izmaylov, J. Bloino, G. Zheng, J. L. Sonnenberg, M. Hada, 
 M. Ehara, K. Toyota, R. Fukuda, J. Hasegawa, M. Ishida, T. Nakajima, 
 Y. Honda, O. Kitao, H. Nakai, T. Vreven, J. A. Montgomery, Jr., 
 J. E. Peralta, F. Ogliaro, M. Bearpark, J. J. Heyd, E. Brothers, 
 K. N. Kudin, V. N. Staroverov, T. Keith, R. Kobayashi, J. Normand, 
 K. Raghavachari, A. Rendell, J. C. Burant, S. S. Iyengar, J. Tomasi, 
 M. Cossi, N. Rega, J. M. Millam, M. Klene, J. E. Knox, J. B. Cross, 
 V. Bakken, C. Adamo, J. Jaramillo, R. Gomperts, R. E. Stratmann, 
 O. Yazyev, A. J. Austin, R. Cammi, C. Pomelli, J. W. Ochterski, 
 R. L. Martin, K. Morokuma, V. G. Zakrzewski, G. A. Voth, 
 P. Salvador, J. J. Dannenberg, S. Dapprich, A. D. Daniels, 
 O. Farkas, J. B. Foresman, J. V. Ortiz, J. Cioslowski, 
 and D. J. Fox, Gaussian, Inc., Wallingford CT, 2010.
 
 ******************************************
 Gaussian 09:  AM64L-G09RevC.01 23-Sep-2011
                17-May-2024 
 ******************************************
 %nprocshared=4
 Will use up to    4 processors via shared memory.
 ------------------------------------------------
 # mpw1pw91/6-31+G** nmr scrf=(pcm,solvent=water)
 ------------------------------------------------
 1/38=1/1;
 2/12=2,17=6,18=5,40=1/2;
 3/5=1,6=6,7=111,11=2,16=1,25=1,30=1,70=2201,72=1,74=-7/1,2,8,3;
 4//1;
 5/5=2,38=5,53=1/2;
 8/6=1,10=90,11=11/1;
 10/13=100,45=16/2;
 6/7=2,8=2,9=2,10=2,28=1/1;
 99/9=1/99;
 -------
 comment
 -------
 Charge =  0 Multiplicity = 1
 Symbolic Z-Matrix:
 6                    -2.61622   0.43357   0.01168 
 6                    -1.27462   0.4701    0.75884 
 7                    -0.58768  -0.83966   0.44801 
 6                    -1.45649  -1.60477  -0.46762 
 6                    -2.86326  -1.07175  -0.18482 
 6                     0.7527   -0.53418  -0.06559 
 6                     1.06616   0.8329    0.56077 
 6                    -0.26649   1.57646   0.40602 
 1                    -3.41482   0.93365   0.56794 
 1                    -2.5211    0.9233   -0.96205 
 1                    -1.45445   0.52424   1.8401 
 1                    -1.36943  -2.68321  -0.29259 
 1                    -1.18542  -1.41948  -1.52103 
 1                    -3.26078  -1.5191    0.7344 
 1                    -3.56278  -1.29134  -0.99745 
 1                     0.73979  -0.40118  -1.16296 
 1                     1.29119   0.70702   1.63029 
 1                    -0.3509    2.43646   1.08339 
 8                    -0.40917   2.01118  -0.9496 
 1                     0.49752   2.2228   -1.24291 
 8                     2.12005   1.53568  -0.09207 
 1                     2.80447   0.85804  -0.26597 
 6                     1.80698  -1.58909   0.2564 
 1                     1.91712  -1.70792   1.33854 
 1                     1.53808  -2.56339  -0.1713 
 8                     3.09902  -1.17032  -0.22944 
 1                     3.07342  -1.23403  -1.19969 
 
                          Input orientation:                          
 ---------------------------------------------------------------------
 Center     Atomic      Atomic             Coordinates (Angstroms)
 Number     Number       Type             X           Y           Z
 ---------------------------------------------------------------------
      1          6           0       -2.616223    0.433565    0.011678
      2          6           0       -1.274624    0.470104    0.758843
      3          7           0       -0.587676   -0.839662    0.448011
      4          6           0       -1.456492   -1.604768   -0.467620
      5          6           0       -2.863260   -1.071751   -0.184817
      6          6           0        0.752704   -0.534178   -0.065593
      7          6           0        1.066164    0.832898    0.560770
      8          6           0       -0.266491    1.576456    0.406021
      9          1           0       -3.414824    0.933652    0.567937
     10          1           0       -2.521100    0.923296   -0.962045
     11          1           0       -1.454449    0.524241    1.840101
     12          1           0       -1.369434   -2.683209   -0.292585
     13          1           0       -1.185417   -1.419477   -1.521029
     14          1           0       -3.260775   -1.519104    0.734403
     15          1           0       -3.562776   -1.291338   -0.997450
     16          1           0        0.739791   -0.401180   -1.162958
     17          1           0        1.291191    0.707018    1.630288
     18          1           0       -0.350897    2.436463    1.083387
     19          8           0       -0.409167    2.011176   -0.949598
     20          1           0        0.497520    2.222804   -1.242906
     21          8           0        2.120054    1.535683   -0.092072
     22          1           0        2.804472    0.858042   -0.265971
     23          6           0        1.806982   -1.589092    0.256403
     24          1           0        1.917116   -1.707923    1.338535
     25          1           0        1.538081   -2.563393   -0.171296
     26          8           0        3.099019   -1.170316   -0.229444
     27          1           0        3.073423   -1.234025   -1.199692
 ---------------------------------------------------------------------
                    Distance matrix (angstroms):
                    1          2          3          4          5
     1  C    0.000000
     2  C    1.536059   0.000000
     3  N    2.434440   1.511291   0.000000
     4  C    2.393638   2.417102   1.476011   0.000000
     5  C    1.538055   2.406569   2.373314   1.530713   0.000000
     6  C    3.506019   2.407973   1.467559   2.487637   3.657649
     7  C    3.744455   2.377002   2.354858   3.655625   4.429894
     8  C    2.642527   1.537800   2.437734   3.507070   3.755702
     9  H    1.094200   2.198131   3.339430   3.369127   2.211900
    10  H    1.094085   2.172681   2.972273   2.787284   2.168264
    11  H    2.168195   1.097446   2.132942   3.139787   2.938066
    12  H    3.370659   3.325338   2.135016   1.096016   2.199983
    13  H    2.798243   2.962480   2.137896   1.103397   2.172909
    14  H    2.179609   2.811110   2.772926   2.169708   1.096863
    15  H    2.211242   3.379776   3.338351   2.194400   1.094492
    16  H    3.652314   2.917246   2.132992   2.599188   3.793205
    17  H    4.238226   2.720101   2.705576   4.158766   4.870122
    18  H    3.208093   2.196627   3.345559   4.467607   4.497541
    19  O    2.878195   2.458188   3.180008   3.795292   4.013963
    20  H    3.804044   3.196788   3.662724   4.366868   4.823742
    21  O    4.863923   3.658327   3.642218   4.774427   5.625010
    22  H    5.444374   4.223714   3.859875   4.925638   5.987810
    23  C    4.869884   3.740191   2.516495   3.342861   4.719478
    24  H    5.186298   3.907307   2.796586   3.828063   5.057402
    25  H    5.125766   4.240115   2.805999   3.158202   4.647255
    26  O    5.940923   4.774562   3.762977   4.582375   5.963261
    27  H    6.051475   5.064131   4.034116   4.603641   6.024990
                    6          7          8          9         10
     6  C    0.000000
     7  C    1.536061   0.000000
     8  C    2.390806   1.533882   0.000000
     9  H    4.463650   4.482126   3.217361   0.000000
    10  H    3.694002   3.898153   2.716889   1.771918   0.000000
    11  H    3.102168   2.843492   2.138922   2.372570   3.024733
    12  H    3.028750   4.361578   4.455253   4.243324   3.844657
    13  H    2.580380   3.804826   3.678799   3.856326   2.754106
    14  H    4.209286   4.927927   4.319267   2.463220   3.064371
    15  H    4.479399   5.326116   4.589060   2.724501   2.447641
    16  H    1.105471   2.144926   2.717599   4.694529   3.525339
    17  H    2.169458   1.100160   2.163591   4.829755   4.615250
    18  H    3.370875   2.202864   1.097980   3.451344   3.344136
    19  O    2.934320   2.417882   1.430748   3.535243   2.375689
    20  H    3.008677   2.347007   1.928844   4.499722   3.298435
    21  O    2.480861   1.425059   2.438310   5.606508   4.761531
    22  H    2.487605   1.925058   3.224671   6.275409   5.371266
    23  C    1.525787   2.550977   3.787132   5.807628   5.150631
    24  H    2.169126   2.790127   4.052760   6.000110   5.649225
    25  H    2.178464   3.506197   4.552815   6.107950   5.409181
    26  O    2.436537   2.961385   4.390356   6.891491   6.041991
    27  H    2.676136   3.376461   4.651037   7.065457   6.000766
                   11         12         13         14         15
    11  H    0.000000
    12  H    3.852702   0.000000
    13  H    3.891993   1.771992   0.000000
    14  H    2.942897   2.446838   3.066596   0.000000
    15  H    3.974049   2.691633   2.437702   1.772681   0.000000
    16  H    3.832683   3.227078   2.207163   4.566647   4.396801
    17  H    2.759704   4.719111   4.537220   5.145738   5.870215
    18  H    2.333889   5.398311   4.727333   4.922976   5.342523
    19  O    3.329566   4.836427   3.563492   4.840496   4.566633
    20  H    4.024951   5.334566   4.021920   5.660071   5.375448
    21  O    4.187288   5.478666   4.658436   6.242444   6.411421
    22  H    4.762916   5.473816   4.762507   6.590811   6.759937
    23  C    4.196571   3.404130   3.484607   5.090731   5.522237
    24  H    4.074503   3.796465   4.229186   5.216434   5.971565
    25  H    4.747045   2.912509   3.247732   4.993981   5.321597
    26  O    5.280967   4.718040   4.481815   6.441866   6.707011
    27  H    5.730049   4.760458   4.274970   6.629031   6.639527
                   16         17         18         19         20
    16  H    0.000000
    17  H    3.055220   0.000000
    18  H    3.779932   2.446739   0.000000
    19  O    2.680502   3.353783   2.077810   0.000000
    20  H    2.636357   3.344064   2.485377   0.976165   0.000000
    21  O    2.608325   2.083320   2.880748   2.712638   2.104560
    22  H    2.579367   2.430767   3.777371   3.482031   2.852894
    23  C    2.136496   2.725018   4.641706   4.396326   4.300369
    24  H    3.057963   2.511741   4.731270   4.947610   4.912200
    25  H    2.509148   3.741958   5.490084   5.032317   5.013860
    26  O    2.651221   3.201754   5.160843   4.790395   4.394106
    27  H    2.478067   3.866883   5.514608   4.766792   4.311242
                   21         22         23         24         25
    21  O    0.000000
    22  H    0.978706   0.000000
    23  C    3.159694   2.693757   0.000000
    24  H    3.550887   3.153731   1.094194   0.000000
    25  H    4.140941   3.649511   1.097496   1.776256   0.000000
    26  O    2.880916   2.049958   1.442491   2.035798   2.092982
    27  H    3.131616   2.306711   1.962182   2.829173   2.276421
                   26         27
    26  O    0.000000
    27  H    0.972674   0.000000
 Stoichiometry    C8H15NO3
 Framework group  C1[X(C8H15NO3)]
 Deg. of freedom    75
 Full point group                 C1      NOp   1
 Largest Abelian subgroup         C1      NOp   1
 Largest concise Abelian subgroup C1      NOp   1
                         Standard orientation:                         
 ---------------------------------------------------------------------
 Center     Atomic      Atomic             Coordinates (Angstroms)
 Number     Number       Type             X           Y           Z
 ---------------------------------------------------------------------
      1          6           0       -2.616223    0.433565    0.011678
      2          6           0       -1.274624    0.470104    0.758843
      3          7           0       -0.587676   -0.839662    0.448011
      4          6           0       -1.456492   -1.604768   -0.467620
      5          6           0       -2.863260   -1.071751   -0.184817
      6          6           0        0.752704   -0.534178   -0.065593
      7          6           0        1.066164    0.832898    0.560770
      8          6           0       -0.266491    1.576456    0.406021
      9          1           0       -3.414824    0.933652    0.567937
     10          1           0       -2.521100    0.923296   -0.962045
     11          1           0       -1.454449    0.524241    1.840101
     12          1           0       -1.369434   -2.683209   -0.292585
     13          1           0       -1.185417   -1.419477   -1.521029
     14          1           0       -3.260775   -1.519104    0.734403
     15          1           0       -3.562776   -1.291338   -0.997450
     16          1           0        0.739791   -0.401180   -1.162958
     17          1           0        1.291191    0.707018    1.630288
     18          1           0       -0.350897    2.436463    1.083387
     19          8           0       -0.409167    2.011176   -0.949598
     20          1           0        0.497520    2.222804   -1.242906
     21          8           0        2.120054    1.535683   -0.092072
     22          1           0        2.804472    0.858042   -0.265971
     23          6           0        1.806982   -1.589092    0.256403
     24          1           0        1.917116   -1.707923    1.338535
     25          1           0        1.538081   -2.563393   -0.171296
     26          8           0        3.099019   -1.170316   -0.229444
     27          1           0        3.073423   -1.234025   -1.199692
 ---------------------------------------------------------------------
 Rotational constants (GHZ):      1.4528352      0.7829447      0.5700973
 Standard basis: 6-31+G(d,p) (6D, 7F)
 There are   303 symmetry adapted basis functions of A   symmetry.
 Integral buffers will be    131072 words long.
 Raffenetti 2 integral format.
 Two-electron integral symmetry is turned on.
   303 basis functions,   489 primitive gaussians,   303 cartesian basis functions
    47 alpha electrons       47 beta electrons
       nuclear repulsion energy       808.3019803579 Hartrees.
 NAtoms=   27 NActive=   27 NUniq=   27 SFac= 1.00D+00 NAtFMM=   60 NAOKFM=F Big=F
 ------------------------------------------------------------------------------
 Polarizable Continuum Model (PCM)
 =================================
 Model                : PCM.
 Atomic radii         : UFF (Universal Force Field).
 Polarization charges : Total charges.
 Charge compensation  : None.
 Solution method      : Matrix inversion.
 Cavity type          : Scaled VdW (van der Waals Surface) (Alpha=1.100).
 Cavity algorithm     : GePol (No added spheres)
                        Default sphere list used, NSphG=   27.
                        Lebedev-Laikov grids with approx.  5.0 points / Ang**2.
                        Smoothing algorithm: Karplus/York (Gamma=1.0000).
                        Polarization charges: spherical gaussians, with
                                              point-specific exponents (IZeta= 3).
                        Self-potential: point-specific (ISelfS= 7).
                        Self-field    : sphere-specific E.n sum rule (ISelfD= 2).
 Solvent              : Water, Eps=  78.355300 Eps(inf)=   1.777849
 ------------------------------------------------------------------------------
 One-electron integrals computed using PRISM.
 NBasis=   303 RedAO= T  NBF=   303
 NBsUse=   303 1.00D-06 NBFU=   303
 Harris functional with IExCor=  908 diagonalized for initial guess.
 ExpMin= 4.38D-02 ExpMax= 5.48D+03 ExpMxC= 8.25D+02 IAcc=2 IRadAn=         4 AccDes= 0.00D+00
 HarFok:  IExCor=  908 AccDes= 0.00D+00 IRadAn=         4 IDoV= 1
 ScaDFX=  1.000000  1.000000  1.000000  1.000000
 FoFCou: FMM=F IPFlag=           0 FMFlag=      100000 FMFlg1=           0
         NFxFlg=           0 DoJE=T BraDBF=F KetDBF=T FulRan=T
         Omega=  0.000000  0.000000  1.000000  0.000000  0.000000 ICntrl=     500 IOpCl=  0
         NMat0=    1 NMatS0=    1 NMatT0=    0 NMatD0=    1 NMtDS0=    0 NMtDT0=    0
         I1Cent=           4 NGrid=           0.
 Petite list used in FoFCou.
 Initial guess orbital symmetries:
       Occupied  (A) (A) (A) (A) (A) (A) (A) (A) (A) (A) (A) (A)
                 (A) (A) (A) (A) (A) (A) (A) (A) (A) (A) (A) (A)
                 (A) (A) (A) (A) (A) (A) (A) (A) (A) (A) (A) (A)
                 (A) (A) (A) (A) (A) (A) (A) (A) (A) (A) (A)
       Virtual   (A) (A) (A) (A) (A) (A) (A) (A) (A) (A) (A) (A)
                 (A) (A) (A) (A) (A) (A) (A) (A) (A) (A) (A) (A)
                 (A) (A) (A) (A) (A) (A) (A) (A) (A) (A) (A) (A)
                 (A) (A) (A) (A) (A) (A) (A) (A) (A) (A) (A) (A)
                 (A) (A) (A) (A) (A) (A) (A) (A) (A) (A) (A) (A)
                 (A) (A) (A) (A) (A) (A) (A) (A) (A) (A) (A) (A)
                 (A) (A) (A) (A) (A) (A) (A) (A) (A) (A) (A) (A)
                 (A) (A) (A) (A) (A) (A) (A) (A) (A) (A) (A) (A)
                 (A) (A) (A) (A) (A) (A) (A) (A) (A) (A) (A) (A)
                 (A) (A) (A) (A) (A) (A) (A) (A) (A) (A) (A) (A)
                 (A) (A) (A) (A) (A) (A) (A) (A) (A) (A) (A) (A)
                 (A) (A) (A) (A) (A) (A) (A) (A) (A) (A) (A) (A)
                 (A) (A) (A) (A) (A) (A) (A) (A) (A) (A) (A) (A)
                 (A) (A) (A) (A) (A) (A) (A) (A) (A) (A) (A) (A)
                 (A) (A) (A) (A) (A) (A) (A) (A) (A) (A) (A) (A)
                 (A) (A) (A) (A) (A) (A) (A) (A) (A) (A) (A) (A)
                 (A) (A) (A) (A) (A) (A) (A) (A) (A) (A) (A) (A)
                 (A) (A) (A) (A) (A) (A) (A) (A) (A) (A) (A) (A)
                 (A) (A) (A) (A) (A) (A) (A) (A) (A) (A) (A) (A)
                 (A) (A) (A) (A) (A) (A) (A) (A) (A) (A) (A) (A)
                 (A) (A) (A) (A) (A) (A) (A) (A) (A) (A) (A) (A)
                 (A) (A) (A) (A)
 The electronic state of the initial guess is 1-A.
 Requested convergence on RMS density matrix=1.00D-08 within 128 cycles.
 Requested convergence on MAX density matrix=1.00D-06.
 Requested convergence on             energy=1.00D-06.
 No special actions if energy rises.
 Error on total polarization charges =  0.01452
 SCF Done:  E(RmPW1PW91) =  -594.201116562     A.U. after   13 cycles
             Convg  =    0.6569D-08             -V/T =  2.0094
 Range of M.O.s used for correlation:     1   303
 NBasis=   303 NAE=    47 NBE=    47 NFC=     0 NFV=     0
 NROrb=    303 NOA=    47 NOB=    47 NVA=   256 NVB=   256

 **** Warning!!: The largest alpha MO coefficient is  0.76148425D+02

 NEqPCM:  Using equilibrium solvation (IEInf=0, Eps=  78.3553, EpsInf=   1.7778)
          Differentiating once with respect to magnetic field using GIAOs.
          Electric field/nuclear overlap derivatives assumed to be zero.
 FoFCou: FMM=F IPFlag=           0 FMFlag=    10101102 FMFlg1=           0
         NFxFlg=    40000000 DoJE=F BraDBF=F KetDBF=T FulRan=T
         Omega=  0.000000  0.000000  1.000000  0.000000  0.000000 ICntrl=    6100 IOpCl=  0
         NMat0=    1 NMatS0=    1 NMatT0=    0 NMatD0=    1 NMtDS0=    0 NMtDT0=    0
         I1Cent=           7 NGrid=        1841.
 Symmetry not used in FoFCou.
          There are     3 degrees of freedom in the 1st order CPHF.  IDoFFX=0.
      3 vectors produced by pass  0 Test12= 4.01D-13 3.33D-08 XBig12= 4.59D+01 1.46D+00.
 AX will form     3 AO Fock derivatives at one time.
      3 vectors produced by pass  1 Test12= 4.01D-13 3.33D-08 XBig12= 1.13D-01 4.83D-02.
      3 vectors produced by pass  2 Test12= 4.01D-13 3.33D-08 XBig12= 2.58D-04 2.52D-03.
      3 vectors produced by pass  3 Test12= 4.01D-13 3.33D-08 XBig12= 1.09D-06 2.23D-04.
      3 vectors produced by pass  4 Test12= 4.01D-13 3.33D-08 XBig12= 3.42D-09 1.02D-05.
      3 vectors produced by pass  5 Test12= 4.01D-13 3.33D-08 XBig12= 9.49D-12 4.16D-07.
 Inverted reduced A of dimension    18 with in-core refinement.
 Calculating GIAO nuclear magnetic shielding tensors.
 SCF GIAO Magnetic shielding tensor (ppm):
      1  C    Isotropic =   170.6280   Anisotropy =    20.4649
   XX=   176.4100   YX=     2.9205   ZX=     8.3893
   XY=    -6.9936   YY=   182.1471   ZY=    10.7822
   XZ=     8.0524   YZ=     5.4234   ZZ=   153.3269
   Eigenvalues:   148.6239   178.9888   184.2712
      2  C    Isotropic =   127.2316   Anisotropy =    50.6227
   XX=   134.0817   YX=    -9.8024   ZX=     3.6845
   XY=   -10.6520   YY=   156.1073   ZY=    10.6170
   XZ=     2.0356   YZ=     8.0594   ZZ=    91.5057
   Eigenvalues:    89.7589   130.9557   160.9800
      3  N    Isotropic =   196.6995   Anisotropy =    78.5631
   XX=   247.4041   YX=   -11.1730   ZX=    -3.1916
   XY=     0.3498   YY=   214.8765   ZY=    37.2282
   XZ=    -3.1182   YZ=    30.0198   ZZ=   127.8180
   Eigenvalues:   116.3322   224.6915   249.0749
      4  C    Isotropic =   138.4532   Anisotropy =    56.9290
   XX=   150.2847   YX=    12.9156   ZX=    18.1782
   XY=    23.2121   YY=   126.6093   ZY=    17.2044
   XZ=    15.4447   YZ=    23.1591   ZZ=   138.4655
   Eigenvalues:   110.7557   128.1980   176.4058
      5  C    Isotropic =   164.4135   Anisotropy =    22.9659
   XX=   179.1463   YX=    -2.0007   ZX=     7.4883
   XY=    -0.4076   YY=   174.8911   ZY=    16.2066
   XZ=    -3.1725   YZ=    10.1568   ZZ=   139.2030
   Eigenvalues:   134.7296   178.7867   179.7240
      6  C    Isotropic =   125.3321   Anisotropy =    57.8213
   XX=   150.5950   YX=    20.7271   ZX=    -8.4362
   XY=    17.5890   YY=   107.3622   ZY=    -7.6404
   XZ=   -23.5280   YZ=    -1.7192   ZZ=   118.0390
   Eigenvalues:    99.9688   112.1479   163.8797
      7  C    Isotropic =   112.4595   Anisotropy =    42.4581
   XX=   130.1275   YX=    16.8054   ZX=   -13.6313
   XY=    10.1749   YY=   121.8556   ZY=    -0.3498
   XZ=    -1.9542   YZ=     1.1991   ZZ=    85.3953
   Eigenvalues:    83.8689   112.7447   140.7649
      8  C    Isotropic =   123.6616   Anisotropy =    29.2146
   XX=   114.2339   YX=     2.6893   ZX=     0.4300
   XY=     1.5650   YY=   119.2605   ZY=   -11.2664
   XZ=     7.6019   YZ=   -11.3003   ZZ=   137.4904
   Eigenvalues:   110.2887   117.5581   143.1380
      9  H    Isotropic =    29.9709   Anisotropy =    11.6362
   XX=    33.7598   YX=    -3.5455   ZX=    -2.9553
   XY=    -4.6063   YY=    29.6244   ZY=     2.7924
   XZ=    -3.3325   YZ=     2.4326   ZZ=    26.5285
   Eigenvalues:    24.9298    27.2546    37.7284
     10  H    Isotropic =    29.3892   Anisotropy =     7.0695
   XX=    29.4247   YX=     1.0614   ZX=     1.9715
   XY=     1.5241   YY=    29.2492   ZY=    -4.6718
   XZ=     2.2811   YZ=    -4.5963   ZZ=    29.4935
   Eigenvalues:    23.7125    30.3529    34.1022
     11  H    Isotropic =    27.9246   Anisotropy =     8.9595
   XX=    26.4172   YX=    -1.7217   ZX=    -2.3309
   XY=    -0.9850   YY=    25.3760   ZY=     3.1466
   XZ=    -2.5048   YZ=     2.1099   ZZ=    31.9806
   Eigenvalues:    24.2771    25.5991    33.8976
     12  H    Isotropic =    28.4938   Anisotropy =     9.6066
   XX=    27.0956   YX=     1.3288   ZX=     1.1143
   XY=     0.5455   YY=    34.6481   ZY=     0.9462
   XZ=     0.9309   YZ=     1.2714   ZZ=    23.7376
   Eigenvalues:    23.3899    27.1933    34.8982
     13  H    Isotropic =    29.2371   Anisotropy =     7.8392
   XX=    28.0969   YX=     0.2393   ZX=     1.3132
   XY=     0.6960   YY=    26.7957   ZY=     3.7312
   XZ=    -0.6556   YZ=     3.2696   ZZ=    32.8187
   Eigenvalues:    25.1611    28.0870    34.4632
     14  H    Isotropic =    29.5884   Anisotropy =    10.9727
   XX=    30.6075   YX=     3.0570   ZX=    -4.1722
   XY=     3.3779   YY=    29.8140   ZY=    -3.0863
   XZ=    -4.6429   YZ=    -3.3285   ZZ=    28.3439
   Eigenvalues:    24.8120    27.0498    36.9036
     15  H    Isotropic =    29.5037   Anisotropy =    11.6603
   XX=    32.6739   YX=     2.4278   ZX=     5.0577
   XY=     3.1417   YY=    27.6107   ZY=     2.6820
   XZ=     4.8640   YZ=     2.1917   ZZ=    28.2265
   Eigenvalues:    24.8331    26.4008    37.2773
     16  H    Isotropic =    28.9065   Anisotropy =     3.8614
   XX=    29.8493   YX=    -1.7672   ZX=    -1.3937
   XY=    -1.0005   YY=    28.3903   ZY=     0.1491
   XZ=    -1.5039   YZ=     1.0184   ZZ=    28.4799
   Eigenvalues:    27.3884    27.8503    31.4807
     17  H    Isotropic =    27.2710   Anisotropy =     4.1227
   XX=    27.6788   YX=     1.4289   ZX=    -0.3573
   XY=     1.1445   YY=    24.7754   ZY=    -0.1220
   XZ=     2.7006   YZ=    -0.0053   ZZ=    29.3587
   Eigenvalues:    24.2405    27.5530    30.0195
     18  H    Isotropic =    27.5879   Anisotropy =     9.0011
   XX=    23.2960   YX=    -0.5771   ZX=     0.2940
   XY=    -0.0294   YY=    29.1370   ZY=     3.0571
   XZ=    -0.3774   YZ=     4.5492   ZZ=    30.3306
   Eigenvalues:    23.2751    25.8999    33.5886
     19  O    Isotropic =   309.6173   Anisotropy =    44.1758
   XX=   321.4838   YX=    15.1125   ZX=   -23.9435
   XY=    13.9374   YY=   303.2386   ZY=    22.2385
   XZ=   -22.5308   YZ=    -3.9314   ZZ=   304.1294
   Eigenvalues:   277.8616   311.9224   339.0678
     20  H    Isotropic =    28.5538   Anisotropy =    17.8778
   XX=    37.8454   YX=     3.4686   ZX=    -3.3484
   XY=     2.7334   YY=    22.1993   ZY=    -6.8327
   XZ=    -4.7985   YZ=    -5.8906   ZZ=    25.6165
   Eigenvalues:    17.3209    27.8681    40.4723
     21  O    Isotropic =   292.7664   Anisotropy =    38.8575
   XX=   309.3889   YX=    -7.0124   ZX=   -14.1588
   XY=     6.0705   YY=   317.1372   ZY=     4.9089
   XZ=    12.2568   YZ=    15.0836   ZZ=   251.7731
   Eigenvalues:   250.2657   309.3621   318.6714
     22  H    Isotropic =    27.5846   Anisotropy =    21.4623
   XX=    32.8625   YX=    -7.7572   ZX=    -4.6795
   XY=    -8.2363   YY=    33.4135   ZY=     1.3670
   XZ=    -5.6398   YZ=     0.7035   ZZ=    16.4780
   Eigenvalues:    14.8905    25.9706    41.8929
     23  C    Isotropic =   126.3140   Anisotropy =    58.5062
   XX=   156.8710   YX=     3.8911   ZX=   -21.0149
   XY=     0.0798   YY=   114.0417   ZY=   -11.0121
   XZ=   -21.0783   YZ=   -10.4884   ZZ=   108.0293
   Eigenvalues:    95.3745   118.2494   165.3181
     24  H    Isotropic =    27.9936   Anisotropy =     4.5494
   XX=    28.7782   YX=    -0.6087   ZX=    -1.4593
   XY=    -0.9444   YY=    26.5260   ZY=    -3.5405
   XZ=     0.7075   YZ=    -2.9416   ZZ=    28.6766
   Eigenvalues:    24.0343    28.9200    31.0265
     25  H    Isotropic =    27.4078   Anisotropy =     5.4704
   XX=    29.4843   YX=     1.0060   ZX=    -0.4190
   XY=    -0.2534   YY=    30.9215   ZY=     1.3260
   XZ=    -1.3218   YZ=     0.3199   ZZ=    21.8176
   Eigenvalues:    21.6403    29.5283    31.0547
     26  O    Isotropic =   311.2872   Anisotropy =    62.2976
   XX=   291.5771   YX=    -7.9200   ZX=     6.7407
   XY=    -4.8091   YY=   289.6914   ZY=    -3.4502
   XZ=    -9.7749   YZ=    -3.7235   ZZ=   352.5931
   Eigenvalues:   283.9996   297.0431   352.8189
     27  H    Isotropic =    30.4202   Anisotropy =    16.9738
   XX=    28.1613   YX=    -0.0728   ZX=    -4.2452
   XY=    -0.6437   YY=    22.5342   ZY=     1.3745
   XZ=    -3.0448   YZ=     2.2758   ZZ=    40.5649
   Eigenvalues:    22.3513    27.1731    41.7360
 End of Minotr Frequency-dependent properties file   721 does not exist.
 End of Minotr Frequency-dependent properties file   722 does not exist.

 **********************************************************************

            Population analysis using the SCF density.

 **********************************************************************

 Orbital symmetries:
       Occupied  (A) (A) (A) (A) (A) (A) (A) (A) (A) (A) (A) (A)
                 (A) (A) (A) (A) (A) (A) (A) (A) (A) (A) (A) (A)
                 (A) (A) (A) (A) (A) (A) (A) (A) (A) (A) (A) (A)
                 (A) (A) (A) (A) (A) (A) (A) (A) (A) (A) (A)
       Virtual   (A) (A) (A) (A) (A) (A) (A) (A) (A) (A) (A) (A)
                 (A) (A) (A) (A) (A) (A) (A) (A) (A) (A) (A) (A)
                 (A) (A) (A) (A) (A) (A) (A) (A) (A) (A) (A) (A)
                 (A) (A) (A) (A) (A) (A) (A) (A) (A) (A) (A) (A)
                 (A) (A) (A) (A) (A) (A) (A) (A) (A) (A) (A) (A)
                 (A) (A) (A) (A) (A) (A) (A) (A) (A) (A) (A) (A)
                 (A) (A) (A) (A) (A) (A) (A) (A) (A) (A) (A) (A)
                 (A) (A) (A) (A) (A) (A) (A) (A) (A) (A) (A) (A)
                 (A) (A) (A) (A) (A) (A) (A) (A) (A) (A) (A) (A)
                 (A) (A) (A) (A) (A) (A) (A) (A) (A) (A) (A) (A)
                 (A) (A) (A) (A) (A) (A) (A) (A) (A) (A) (A) (A)
                 (A) (A) (A) (A) (A) (A) (A) (A) (A) (A) (A) (A)
                 (A) (A) (A) (A) (A) (A) (A) (A) (A) (A) (A) (A)
                 (A) (A) (A) (A) (A) (A) (A) (A) (A) (A) (A) (A)
                 (A) (A) (A) (A) (A) (A) (A) (A) (A) (A) (A) (A)
                 (A) (A) (A) (A) (A) (A) (A) (A) (A) (A) (A) (A)
                 (A) (A) (A) (A) (A) (A) (A) (A) (A) (A) (A) (A)
                 (A) (A) (A) (A) (A) (A) (A) (A) (A) (A) (A) (A)
                 (A) (A) (A) (A) (A) (A) (A) (A) (A) (A) (A) (A)
                 (A) (A) (A) (A) (A) (A) (A) (A) (A) (A) (A) (A)
                 (A) (A) (A) (A) (A) (A) (A) (A) (A) (A) (A) (A)
                 (A) (A) (A) (A)
 The electronic state is 1-A.
 Alpha  occ. eigenvalues --  -19.27089 -19.26047 -19.25116 -14.41423 -10.30654
 Alpha  occ. eigenvalues --  -10.30271 -10.30076 -10.28113 -10.27897 -10.26876
 Alpha  occ. eigenvalues --  -10.24594 -10.24367  -1.08062  -1.06601  -1.04594
 Alpha  occ. eigenvalues --   -0.96582  -0.83043  -0.79417  -0.75139  -0.71642
 Alpha  occ. eigenvalues --   -0.66927  -0.61742  -0.60398  -0.57859  -0.55138
 Alpha  occ. eigenvalues --   -0.54071  -0.52212  -0.51264  -0.49137  -0.47970
 Alpha  occ. eigenvalues --   -0.46118  -0.43979  -0.43164  -0.42591  -0.40889
 Alpha  occ. eigenvalues --   -0.39258  -0.39042  -0.37805  -0.37311  -0.35482
 Alpha  occ. eigenvalues --   -0.34903  -0.33951  -0.33651  -0.31046  -0.30347
 Alpha  occ. eigenvalues --   -0.29235  -0.23279
 Alpha virt. eigenvalues --    0.00737   0.01148   0.02024   0.02447   0.03994
 Alpha virt. eigenvalues --    0.04295   0.04744   0.04970   0.05548   0.07306
 Alpha virt. eigenvalues --    0.07404   0.08007   0.08786   0.09109   0.09641
 Alpha virt. eigenvalues --    0.10015   0.11284   0.11975   0.12443   0.13176
 Alpha virt. eigenvalues --    0.13313   0.14066   0.14474   0.15007   0.15694
 Alpha virt. eigenvalues --    0.15875   0.16590   0.16752   0.18163   0.18559
 Alpha virt. eigenvalues --    0.19023   0.19396   0.20321   0.20426   0.20606
 Alpha virt. eigenvalues --    0.20973   0.22300   0.22612   0.22784   0.23305
 Alpha virt. eigenvalues --    0.24074   0.24832   0.25122   0.25604   0.25936
 Alpha virt. eigenvalues --    0.26232   0.26683   0.27930   0.28255   0.28450
 Alpha virt. eigenvalues --    0.29512   0.30146   0.30688   0.31518   0.31789
 Alpha virt. eigenvalues --    0.32476   0.33073   0.33218   0.33696   0.34701
 Alpha virt. eigenvalues --    0.34965   0.35663   0.35775   0.36397   0.38248
 Alpha virt. eigenvalues --    0.38421   0.39214   0.40414   0.40860   0.41337
 Alpha virt. eigenvalues --    0.42124   0.43551   0.44441   0.44869   0.48342
 Alpha virt. eigenvalues --    0.51431   0.63134   0.65140   0.68158   0.68564
 Alpha virt. eigenvalues --    0.68652   0.70260   0.71957   0.72327   0.73070
 Alpha virt. eigenvalues --    0.75080   0.75368   0.77934   0.79667   0.81051
 Alpha virt. eigenvalues --    0.82329   0.85154   0.86633   0.87231   0.88246
 Alpha virt. eigenvalues --    0.89628   0.91630   0.92639   0.94650   0.95661
 Alpha virt. eigenvalues --    0.98530   0.99959   1.01880   1.02960   1.04829
 Alpha virt. eigenvalues --    1.05391   1.07463   1.07936   1.09907   1.11357
 Alpha virt. eigenvalues --    1.12590   1.13065   1.13972   1.14436   1.17042
 Alpha virt. eigenvalues --    1.17607   1.18424   1.20748   1.22294   1.23892
 Alpha virt. eigenvalues --    1.25795   1.27550   1.30544   1.31316   1.32472
 Alpha virt. eigenvalues --    1.34506   1.35267   1.38412   1.38758   1.40444
 Alpha virt. eigenvalues --    1.41883   1.44924   1.47724   1.50047   1.52407
 Alpha virt. eigenvalues --    1.54293   1.56308   1.58645   1.58906   1.61469
 Alpha virt. eigenvalues --    1.62788   1.64709   1.65899   1.67162   1.69770
 Alpha virt. eigenvalues --    1.71478   1.72989   1.75259   1.77160   1.79921
 Alpha virt. eigenvalues --    1.81398   1.81934   1.84089   1.86279   1.87244
 Alpha virt. eigenvalues --    1.88129   1.89129   1.91840   1.94176   1.94855
 Alpha virt. eigenvalues --    1.97054   1.99702   2.02262   2.03681   2.04630
 Alpha virt. eigenvalues --    2.05500   2.06871   2.08029   2.08829   2.11852
 Alpha virt. eigenvalues --    2.12173   2.15038   2.16150   2.16807   2.17591
 Alpha virt. eigenvalues --    2.18851   2.21572   2.24531   2.25542   2.29607
 Alpha virt. eigenvalues --    2.32589   2.34277   2.35232   2.37067   2.39903
 Alpha virt. eigenvalues --    2.42087   2.43272   2.43642   2.44984   2.47930
 Alpha virt. eigenvalues --    2.48740   2.49904   2.50855   2.52349   2.53078
 Alpha virt. eigenvalues --    2.54956   2.57741   2.58794   2.61264   2.63895
 Alpha virt. eigenvalues --    2.65052   2.66925   2.68554   2.69148   2.70162
 Alpha virt. eigenvalues --    2.72579   2.74298   2.75630   2.77123   2.78374
 Alpha virt. eigenvalues --    2.79298   2.81194   2.82805   2.84374   2.85693
 Alpha virt. eigenvalues --    2.87544   2.88382   2.90991   2.92490   2.95435
 Alpha virt. eigenvalues --    2.96698   2.99457   3.00728   3.02632   3.03693
 Alpha virt. eigenvalues --    3.06760   3.10873   3.13838   3.14314   3.32349
 Alpha virt. eigenvalues --    3.33331   3.36275   3.37164   3.41490   3.45163
 Alpha virt. eigenvalues --    3.46523   3.49361   3.52064   3.54393   3.56444
 Alpha virt. eigenvalues --    3.58134   3.58930   3.60042   3.64100   4.29250
 Alpha virt. eigenvalues --    4.32504   4.39569   4.46237   4.49321   4.53131
 Alpha virt. eigenvalues --    4.60656   4.69560   4.77849   4.79628   4.85735
 Alpha virt. eigenvalues --    5.02028
          Condensed to atoms (all electrons):
              1          2          3          4          5          6
     1  C    5.964137  -0.528529   0.036306  -0.218064   0.189679   0.164761
     2  C   -0.528529   8.741177  -0.257284  -0.201267   0.113602  -0.637908
     3  N    0.036306  -0.257284   7.386408   0.220896  -0.128027   0.138974
     4  C   -0.218064  -0.201267   0.220896   5.680265   0.085432  -0.079042
     5  C    0.189679   0.113602  -0.128027   0.085432   5.625723  -0.010870
     6  C    0.164761  -0.637908   0.138974  -0.079042  -0.010870   8.600708
     7  C   -0.141132   0.386197  -0.221723  -0.173472  -0.069983  -1.428666
     8  C    0.137697  -0.987055  -0.034088   0.181528  -0.072604   0.184214
     9  H    0.353607  -0.038957   0.011677   0.021107  -0.017777   0.007187
    10  H    0.510977  -0.214587   0.027502   0.017227  -0.074572   0.015323
    11  H    0.043646   0.142547  -0.011222   0.010228  -0.022337   0.044042
    12  H    0.025884   0.013166  -0.047318   0.372339  -0.027802  -0.013248
    13  H    0.014827  -0.009291  -0.092308   0.435208  -0.044286   0.012613
    14  H   -0.021448  -0.049573   0.015376  -0.032397   0.394254   0.007970
    15  H   -0.065990   0.044826   0.005706  -0.017323   0.378406  -0.006496
    16  H    0.004571   0.023166  -0.064378   0.036767   0.000028   0.397961
    17  H    0.010204  -0.028022   0.046777   0.013353   0.003090  -0.008865
    18  H   -0.006308  -0.081395   0.018446  -0.003056   0.004592   0.043669
    19  O    0.059868  -0.351494   0.041353  -0.002268  -0.009730   0.057884
    20  H   -0.010932   0.068799  -0.001846  -0.001765   0.004529  -0.013522
    21  O   -0.004034   0.048139   0.010513   0.001534   0.009475  -0.042095
    22  H    0.001396  -0.008011   0.001901  -0.000790  -0.000291  -0.074266
    23  C   -0.032915  -0.282593   0.007423  -0.143011   0.010447  -0.951552
    24  H    0.002127   0.002459   0.014866   0.011186  -0.002818  -0.041475
    25  H    0.000765   0.005075  -0.006944   0.002700   0.006838  -0.058378
    26  O    0.002513   0.013239   0.007892   0.007901   0.000800   0.092875
    27  H    0.000128  -0.000041   0.001265   0.003310  -0.000646   0.028559
              7          8          9         10         11         12
     1  C   -0.141132   0.137697   0.353607   0.510977   0.043646   0.025884
     2  C    0.386197  -0.987055  -0.038957  -0.214587   0.142547   0.013166
     3  N   -0.221723  -0.034088   0.011677   0.027502  -0.011222  -0.047318
     4  C   -0.173472   0.181528   0.021107   0.017227   0.010228   0.372339
     5  C   -0.069983  -0.072604  -0.017777  -0.074572  -0.022337  -0.027802
     6  C   -1.428666   0.184214   0.007187   0.015323   0.044042  -0.013248
     7  C    7.740860  -0.575798  -0.003073  -0.010659  -0.036902   0.006175
     8  C   -0.575798   6.595774   0.004601   0.051431   0.077929  -0.010192
     9  H   -0.003073   0.004601   0.520515  -0.024430  -0.004521  -0.000101
    10  H   -0.010659   0.051431  -0.024430   0.507080   0.003996  -0.000036
    11  H   -0.036902   0.077929  -0.004521   0.003996   0.562627   0.000199
    12  H    0.006175  -0.010192  -0.000101  -0.000036   0.000199   0.545106
    13  H    0.006233   0.005472  -0.000149   0.000997  -0.000501  -0.042755
    14  H   -0.001433   0.013851  -0.005069   0.004062   0.000874  -0.005944
    15  H    0.003128  -0.001324   0.000464  -0.005251  -0.000104   0.000696
    16  H   -0.071912  -0.001911  -0.000012  -0.000234  -0.000647  -0.001034
    17  H    0.251267  -0.002118   0.000003  -0.000013   0.000497   0.000012
    18  H    0.024912   0.300278   0.000352   0.000098  -0.001436   0.000004
    19  O   -0.115019   0.354544   0.000209   0.001418   0.007308   0.000123
    20  H   -0.055519  -0.010529   0.000002   0.000028  -0.000225  -0.000001
    21  O    0.199366  -0.164907   0.000023  -0.000222  -0.000616   0.000032
    22  H    0.072483   0.024667   0.000000   0.000001   0.000008   0.000000
    23  C    0.429178  -0.240803   0.001122   0.000993   0.015772   0.018041
    24  H   -0.044498  -0.000529   0.000000   0.000000  -0.000045   0.000058
    25  H   -0.000094  -0.012603   0.000000   0.000001   0.000009  -0.000251
    26  O   -0.078728   0.017043  -0.000002  -0.000009  -0.000109  -0.000008
    27  H   -0.048865   0.000704   0.000000   0.000000   0.000000   0.000003
             13         14         15         16         17         18
     1  C    0.014827  -0.021448  -0.065990   0.004571   0.010204  -0.006308
     2  C   -0.009291  -0.049573   0.044826   0.023166  -0.028022  -0.081395
     3  N   -0.092308   0.015376   0.005706  -0.064378   0.046777   0.018446
     4  C    0.435208  -0.032397  -0.017323   0.036767   0.013353  -0.003056
     5  C   -0.044286   0.394254   0.378406   0.000028   0.003090   0.004592
     6  C    0.012613   0.007970  -0.006496   0.397961  -0.008865   0.043669
     7  C    0.006233  -0.001433   0.003128  -0.071912   0.251267   0.024912
     8  C    0.005472   0.013851  -0.001324  -0.001911  -0.002118   0.300278
     9  H   -0.000149  -0.005069   0.000464  -0.000012   0.000003   0.000352
    10  H    0.000997   0.004062  -0.005251  -0.000234  -0.000013   0.000098
    11  H   -0.000501   0.000874  -0.000104  -0.000647   0.000497  -0.001436
    12  H   -0.042755  -0.005944   0.000696  -0.001034   0.000012   0.000004
    13  H    0.578769   0.004044  -0.004706   0.013465  -0.000021  -0.000013
    14  H    0.004044   0.522796  -0.024648  -0.000012  -0.000002  -0.000001
    15  H   -0.004706  -0.024648   0.515049  -0.000014   0.000000   0.000002
    16  H    0.013465  -0.000012  -0.000014   0.582970   0.004237  -0.000203
    17  H   -0.000021  -0.000002   0.000000   0.004237   0.563548  -0.003370
    18  H   -0.000013  -0.000001   0.000002  -0.000203  -0.003370   0.573166
    19  O   -0.000303   0.000005   0.000135   0.006075   0.006193  -0.046089
    20  H    0.000060   0.000001  -0.000001   0.001391   0.000830   0.000164
    21  O   -0.000174  -0.000010  -0.000009   0.009767  -0.031414  -0.000620
    22  H   -0.000002   0.000000   0.000000  -0.002502  -0.002948  -0.000142
    23  C   -0.027382  -0.000197   0.000658  -0.105453  -0.002033   0.018316
    24  H    0.000023  -0.000001   0.000000   0.004511   0.003309  -0.000009
    25  H   -0.000006   0.000002   0.000000  -0.005502   0.000079   0.000003
    26  O    0.000319  -0.000002  -0.000002  -0.001410  -0.001689  -0.000014
    27  H   -0.000003   0.000000   0.000000   0.003310   0.000081   0.000001
             19         20         21         22         23         24
     1  C    0.059868  -0.010932  -0.004034   0.001396  -0.032915   0.002127
     2  C   -0.351494   0.068799   0.048139  -0.008011  -0.282593   0.002459
     3  N    0.041353  -0.001846   0.010513   0.001901   0.007423   0.014866
     4  C   -0.002268  -0.001765   0.001534  -0.000790  -0.143011   0.011186
     5  C   -0.009730   0.004529   0.009475  -0.000291   0.010447  -0.002818
     6  C    0.057884  -0.013522  -0.042095  -0.074266  -0.951552  -0.041475
     7  C   -0.115019  -0.055519   0.199366   0.072483   0.429178  -0.044498
     8  C    0.354544  -0.010529  -0.164907   0.024667  -0.240803  -0.000529
     9  H    0.000209   0.000002   0.000023   0.000000   0.001122   0.000000
    10  H    0.001418   0.000028  -0.000222   0.000001   0.000993   0.000000
    11  H    0.007308  -0.000225  -0.000616   0.000008   0.015772  -0.000045
    12  H    0.000123  -0.000001   0.000032   0.000000   0.018041   0.000058
    13  H   -0.000303   0.000060  -0.000174  -0.000002  -0.027382   0.000023
    14  H    0.000005   0.000001  -0.000010   0.000000  -0.000197  -0.000001
    15  H    0.000135  -0.000001  -0.000009   0.000000   0.000658   0.000000
    16  H    0.006075   0.001391   0.009767  -0.002502  -0.105453   0.004511
    17  H    0.006193   0.000830  -0.031414  -0.002948  -0.002033   0.003309
    18  H   -0.046089   0.000164  -0.000620  -0.000142   0.018316  -0.000009
    19  O    8.274712   0.242857  -0.014049   0.000046   0.062669   0.000136
    20  H    0.242857   0.359928   0.028861  -0.001235  -0.000518   0.000000
    21  O   -0.014049   0.028861   8.337432   0.225931  -0.001883   0.002055
    22  H    0.000046  -0.001235   0.225931   0.336803  -0.022711  -0.000152
    23  C    0.062669  -0.000518  -0.001883  -0.022711   6.419216   0.430822
    24  H    0.000136   0.000000   0.002055  -0.000152   0.430822   0.517997
    25  H    0.000063   0.000002  -0.001144   0.000206   0.428587  -0.031787
    26  O   -0.000997  -0.000242  -0.020263   0.043139   0.019190  -0.052197
    27  H    0.000234   0.000004   0.002117  -0.004886   0.004780   0.005447
             25         26         27
     1  C    0.000765   0.002513   0.000128
     2  C    0.005075   0.013239  -0.000041
     3  N   -0.006944   0.007892   0.001265
     4  C    0.002700   0.007901   0.003310
     5  C    0.006838   0.000800  -0.000646
     6  C   -0.058378   0.092875   0.028559
     7  C   -0.000094  -0.078728  -0.048865
     8  C   -0.012603   0.017043   0.000704
     9  H    0.000000  -0.000002   0.000000
    10  H    0.000001  -0.000009   0.000000
    11  H    0.000009  -0.000109   0.000000
    12  H   -0.000251  -0.000008   0.000003
    13  H   -0.000006   0.000319  -0.000003
    14  H    0.000002  -0.000002   0.000000
    15  H    0.000000  -0.000002   0.000000
    16  H   -0.005502  -0.001410   0.003310
    17  H    0.000079  -0.001689   0.000081
    18  H    0.000003  -0.000014   0.000001
    19  O    0.000063  -0.000997   0.000234
    20  H    0.000002  -0.000242   0.000004
    21  O   -0.001144  -0.020263   0.002117
    22  H    0.000206   0.043139  -0.004886
    23  C    0.428587   0.019190   0.004780
    24  H   -0.031787  -0.052197   0.005447
    25  H    0.548055  -0.039279  -0.007743
    26  O   -0.039279   8.329609   0.263343
    27  H   -0.007743   0.263343   0.345121
 Mulliken atomic charges:
              1
     1  C   -0.493740
     2  C    0.073615
     3  N   -0.128143
     4  C   -0.228524
     5  C   -0.345151
     6  C   -0.430355
     7  C   -0.042322
     8  C    0.164728
     9  H    0.173223
    10  H    0.188881
    11  H    0.168982
    12  H    0.166855
    13  H    0.149868
    14  H    0.177502
    15  H    0.176796
    16  H    0.167005
    17  H    0.177016
    18  H    0.158654
    19  O   -0.575880
    20  H    0.388881
    21  O   -0.593804
    22  H    0.411354
    23  C   -0.056164
    24  H    0.178516
    25  H    0.171344
    26  O   -0.602914
    27  H    0.403777
 Sum of Mulliken atomic charges =   0.00000
 Mulliken charges with hydrogens summed into heavy atoms:
              1
     1  C   -0.131636
     2  C    0.242597
     3  N   -0.128143
     4  C    0.088199
     5  C    0.009147
     6  C   -0.263349
     7  C    0.134694
     8  C    0.323381
    19  O   -0.186999
    21  O   -0.182450
    23  C    0.293696
    26  O   -0.199137
 Sum of Mulliken charges with hydrogens summed into heavy atoms =   0.00000
 Electronic spatial extent (au):  <R**2>=           2073.8959
 Charge=              0.0000 electrons
 Dipole moment (field-independent basis, Debye):
    X=             -0.4864    Y=             -2.6008    Z=             -0.8475  Tot=              2.7783
 Quadrupole moment (field-independent basis, Debye-Ang):
   XX=            -74.9975   YY=            -77.1103   ZZ=            -69.9364
   XY=             -0.6382   XZ=             -6.3933   YZ=              6.2153
 Traceless Quadrupole moment (field-independent basis, Debye-Ang):
   XX=             -0.9828   YY=             -3.0956   ZZ=              4.0784
   XY=             -0.6382   XZ=             -6.3933   YZ=              6.2153
 Octapole moment (field-independent basis, Debye-Ang**2):
  XXX=            -12.7671  YYY=            -12.1342  ZZZ=             -7.3294  XYY=              2.8666
  XXY=             -2.4036  XXZ=            -17.1037  XZZ=             17.8903  YZZ=              0.9391
  YYZ=             -2.0470  XYZ=             -2.0317
 Hexadecapole moment (field-independent basis, Debye-Ang**3):
 XXXX=          -1658.3624 YYYY=           -845.3892 ZZZZ=           -226.6771 XXXY=             21.8844
 XXXZ=            -64.3145 YYYX=             -8.8867 YYYZ=              9.9868 ZZZX=            -17.2989
 ZZZY=              1.6580 XXYY=           -436.9659 XXZZ=           -268.5308 YYZZ=           -173.5055
 XXYZ=             17.5311 YYXZ=            -20.8725 ZZXY=             -8.6717
 N-N= 8.083019803579D+02 E-N=-3.002408463323D+03  KE= 5.886763614003D+02
 1\1\GINC-COMPUTE-3-1\SP\RmPW1PW91\6-31+G(d,p)\C8H15N1O3\MAMICHETTI.IQU
 IR\17-May-2024\0\\# mpw1pw91/6-31+G** nmr scrf=(pcm,solvent=water)\\co
 mment\\0,1\C,0,-2.616223,0.433565,0.011678\C,0,-1.274624,0.470104,0.75
 8843\N,0,-0.587676,-0.839662,0.448011\C,0,-1.456492,-1.604768,-0.46762
 \C,0,-2.86326,-1.071751,-0.184817\C,0,0.752704,-0.534178,-0.065593\C,0
 ,1.066164,0.832898,0.56077\C,0,-0.266491,1.576456,0.406021\H,0,-3.4148
 24,0.933652,0.567937\H,0,-2.5211,0.923296,-0.962045\H,0,-1.454449,0.52
 4241,1.840101\H,0,-1.369434,-2.683209,-0.292585\H,0,-1.185417,-1.41947
 7,-1.521029\H,0,-3.260775,-1.519104,0.734403\H,0,-3.562776,-1.291338,-
 0.99745\H,0,0.739791,-0.40118,-1.162958\H,0,1.291191,0.707018,1.630288
 \H,0,-0.350897,2.436463,1.083387\O,0,-0.409167,2.011176,-0.949598\H,0,
 0.49752,2.222804,-1.242906\O,0,2.120054,1.535683,-0.092072\H,0,2.80447
 2,0.858042,-0.265971\C,0,1.806982,-1.589092,0.256403\H,0,1.917116,-1.7
 07923,1.338535\H,0,1.538081,-2.563393,-0.171296\O,0,3.099019,-1.170316
 ,-0.229444\H,0,3.073423,-1.234025,-1.199692\\Version=AM64L-G09RevC.01\
 State=1-A\HF=-594.2011166\RMSD=6.569e-09\Dipole=-0.1913497,-1.0232221,
 -0.3334437\Quadrupole=-0.730685,-2.30148,3.032165,-0.474496,-4.7532515
 ,4.6209399\PG=C01 [X(C8H15N1O3)]\\@


 THE HURRIEDER I GO, THE BEHINDER I GET.
 Job cpu time:  0 days  0 hours  8 minutes 43.0 seconds.
 File lengths (MBytes):  RWF=    114 Int=      0 D2E=      0 Chk=      7 Scr=      1
 Normal termination of Gaussian 09 at Fri May 17 12:43:57 2024.
