 Entering Gaussian System, Link 0=g09
 Input=/home/mamichetti.iquir/Linux/01_Cardona_A1A3_R__S_R_R_048_OptB.gjc
 Output=/home/mamichetti.iquir/Linux/01_Cardona_A1A3_R__S_R_R_048_OptB.log
 Initial command:
 /opt/ohpc/pub/apps/software/Gaussian/09/AMD64.SSE4a-enabled/g09/l1.exe /local/mamichetti.iquir/Gau-405143.inp -scrdir=/local/mamichetti.iquir/
 Entering Link 1 = /opt/ohpc/pub/apps/software/Gaussian/09/AMD64.SSE4a-enabled/g09/l1.exe PID=    405144.
  
 Copyright (c) 1988,1990,1992,1993,1995,1998,2003,2009,2011,
            Gaussian, Inc.  All Rights Reserved.
  
 This is part of the Gaussian(R) 09 program.  It is based on
 the Gaussian(R) 03 system (copyright 2003, Gaussian, Inc.),
 the Gaussian(R) 98 system (copyright 1998, Gaussian, Inc.),
 the Gaussian(R) 94 system (copyright 1995, Gaussian, Inc.),
 the Gaussian 92(TM) system (copyright 1992, Gaussian, Inc.),
 the Gaussian 90(TM) system (copyright 1990, Gaussian, Inc.),
 the Gaussian 88(TM) system (copyright 1988, Gaussian, Inc.),
 the Gaussian 86(TM) system (copyright 1986, Carnegie Mellon
 University), and the Gaussian 82(TM) system (copyright 1983,
 Carnegie Mellon University). Gaussian is a federally registered
 trademark of Gaussian, Inc.
  
 This software contains proprietary and confidential information,
 including trade secrets, belonging to Gaussian, Inc.
  
 This software is provided under written license and may be
 used, copied, transmitted, or stored only in accord with that
 written license.
  
 The following legend is applicable only to US Government
 contracts under FAR:
  
                    RESTRICTED RIGHTS LEGEND
  
 Use, reproduction and disclosure by the US Government is
 subject to restrictions as set forth in subparagraphs (a)
 and (c) of the Commercial Computer Software - Restricted
 Rights clause in FAR 52.227-19.
  
 Gaussian, Inc.
 340 Quinnipiac St., Bldg. 40, Wallingford CT 06492
  
  
 ---------------------------------------------------------------
 Warning -- This program may not be used in any manner that
 competes with the business of Gaussian, Inc. or will provide
 assistance to any competitor of Gaussian, Inc.  The licensee
 of this program is prohibited from giving any competitor of
 Gaussian, Inc. access to this program.  By using this program,
 the user acknowledges that Gaussian, Inc. is engaged in the
 business of creating and licensing software in the field of
 computational chemistry and represents and warrants to the
 licensee that it is not a competitor of Gaussian, Inc. and that
 it will not use this program in any manner prohibited above.
 ---------------------------------------------------------------
  

 Cite this work as:
 Gaussian 09, Revision C.01,
 M. J. Frisch, G. W. Trucks, H. B. Schlegel, G. E. Scuseria, 
 M. A. Robb, J. R. Cheeseman, G. Scalmani, V. Barone, B. Mennucci, 
 G. A. Petersson, H. Nakatsuji, M. Caricato, X. Li, H. P. Hratchian, 
 A. F. Izmaylov, J. Bloino, G. Zheng, J. L. Sonnenberg, M. Hada, 
 M. Ehara, K. Toyota, R. Fukuda, J. Hasegawa, M. Ishida, T. Nakajima, 
 Y. Honda, O. Kitao, H. Nakai, T. Vreven, J. A. Montgomery, Jr., 
 J. E. Peralta, F. Ogliaro, M. Bearpark, J. J. Heyd, E. Brothers, 
 K. N. Kudin, V. N. Staroverov, T. Keith, R. Kobayashi, J. Normand, 
 K. Raghavachari, A. Rendell, J. C. Burant, S. S. Iyengar, J. Tomasi, 
 M. Cossi, N. Rega, J. M. Millam, M. Klene, J. E. Knox, J. B. Cross, 
 V. Bakken, C. Adamo, J. Jaramillo, R. Gomperts, R. E. Stratmann, 
 O. Yazyev, A. J. Austin, R. Cammi, C. Pomelli, J. W. Ochterski, 
 R. L. Martin, K. Morokuma, V. G. Zakrzewski, G. A. Voth, 
 P. Salvador, J. J. Dannenberg, S. Dapprich, A. D. Daniels, 
 O. Farkas, J. B. Foresman, J. V. Ortiz, J. Cioslowski, 
 and D. J. Fox, Gaussian, Inc., Wallingford CT, 2010.
 
 ******************************************
 Gaussian 09:  AM64L-G09RevC.01 23-Sep-2011
                17-May-2024 
 ******************************************
 %nprocshared=4
 Will use up to    4 processors via shared memory.
 ------------------------------------------------
 # mpw1pw91/6-31+G** nmr scrf=(pcm,solvent=water)
 ------------------------------------------------
 1/38=1/1;
 2/12=2,17=6,18=5,40=1/2;
 3/5=1,6=6,7=111,11=2,16=1,25=1,30=1,70=2201,72=1,74=-7/1,2,8,3;
 4//1;
 5/5=2,38=5,53=1/2;
 8/6=1,10=90,11=11/1;
 10/13=100,45=16/2;
 6/7=2,8=2,9=2,10=2,28=1/1;
 99/9=1/99;
 -------
 comment
 -------
 Charge =  0 Multiplicity = 1
 Symbolic Z-Matrix:
 6                    -2.63454   0.14043   0.19599 
 6                    -1.28532   0.31414   0.92689 
 7                    -0.48012  -0.93721   0.64752 
 6                    -1.32823  -1.82292  -0.18422 
 6                    -2.34312  -0.91236  -0.88468 
 6                     0.76765  -0.52083  -0.01531 
 6                     0.99768   0.89668   0.5323 
 6                    -0.4082    1.50254   0.47674 
 1                    -3.38562  -0.2385    0.89821 
 1                    -3.01281   1.08256  -0.2123 
 1                    -1.44514   0.40757   2.00719 
 1                    -1.85359  -2.53914   0.46125 
 1                    -0.70727  -2.40296  -0.87331 
 1                    -3.23909  -1.4492   -1.21369 
 1                    -1.88834  -0.4389   -1.76193 
 1                     0.65153  -0.44432  -1.11049 
 1                     1.33208   0.84189   1.57333 
 1                    -0.52473   2.37017   1.13458 
 8                    -0.60994   1.90157  -0.88682 
 1                    -1.36822   2.50703  -0.91029 
 8                     1.99585   1.63654  -0.16741 
 1                     1.59117   1.88472  -1.01966 
 6                     1.9471   -1.45042   0.25741 
 1                     2.14712  -1.48139   1.34023 
 1                     1.72447  -2.47216  -0.07014 
 8                     3.10777  -1.02573  -0.46863 
 1                     3.11168  -0.04947  -0.42344 
 
                          Input orientation:                          
 ---------------------------------------------------------------------
 Center     Atomic      Atomic             Coordinates (Angstroms)
 Number     Number       Type             X           Y           Z
 ---------------------------------------------------------------------
      1          6           0       -2.634544    0.140433    0.195988
      2          6           0       -1.285323    0.314138    0.926888
      3          7           0       -0.480116   -0.937206    0.647517
      4          6           0       -1.328230   -1.822916   -0.184216
      5          6           0       -2.343117   -0.912362   -0.884681
      6          6           0        0.767651   -0.520834   -0.015310
      7          6           0        0.997681    0.896682    0.532296
      8          6           0       -0.408204    1.502537    0.476736
      9          1           0       -3.385616   -0.238497    0.898212
     10          1           0       -3.012815    1.082565   -0.212299
     11          1           0       -1.445143    0.407574    2.007185
     12          1           0       -1.853590   -2.539141    0.461254
     13          1           0       -0.707269   -2.402962   -0.873308
     14          1           0       -3.239090   -1.449200   -1.213692
     15          1           0       -1.888339   -0.438902   -1.761927
     16          1           0        0.651526   -0.444319   -1.110488
     17          1           0        1.332077    0.841893    1.573333
     18          1           0       -0.524725    2.370168    1.134583
     19          8           0       -0.609944    1.901568   -0.886823
     20          1           0       -1.368216    2.507031   -0.910292
     21          8           0        1.995854    1.636536   -0.167406
     22          1           0        1.591174    1.884718   -1.019657
     23          6           0        1.947103   -1.450416    0.257409
     24          1           0        2.147122   -1.481391    1.340230
     25          1           0        1.724467   -2.472157   -0.070137
     26          8           0        3.107772   -1.025734   -0.468626
     27          1           0        3.111682   -0.049470   -0.423444
 ---------------------------------------------------------------------
                    Distance matrix (angstroms):
                    1          2          3          4          5
     1  C    0.000000
     2  C    1.544275   0.000000
     3  N    2.450866   1.514024   0.000000
     4  C    2.388671   2.409023   1.481742   0.000000
     5  C    1.536604   2.430023   2.412265   1.532891   0.000000
     6  C    3.472298   2.408240   1.472966   2.473189   3.253610
     7  C    3.725329   2.388968   2.358030   3.649584   4.054799
     8  C    2.625021   1.544107   2.446770   3.513110   3.380692
     9  H    1.095817   2.171971   2.998829   2.813338   2.172465
    10  H    1.094258   2.207364   3.351615   3.358636   2.209146
    11  H    2.183226   1.096045   2.142057   3.129056   3.303253
    12  H    2.803636   2.946344   2.118330   1.098004   2.167392
    13  H    3.365508   3.310209   2.124370   1.094026   2.213146
    14  H    2.208983   3.392440   3.367221   2.202469   1.095085
    15  H    2.173909   2.856646   2.834928   2.172185   1.095695
    16  H    3.584281   2.911622   2.148053   2.584172   3.039398
    17  H    4.257136   2.747217   2.703030   4.155408   4.756710
    18  H    3.209987   2.202023   3.343344   4.468423   4.261335
    19  O    2.893628   2.503122   3.229503   3.857638   3.304859
    20  H    2.903141   2.861972   3.883073   4.390584   3.555747
    21  O    4.879648   3.703017   3.663151   4.797669   5.083113
    22  H    4.730435   3.811823   3.877237   4.792435   4.829133
    23  C    4.850367   3.743051   2.511366   3.325898   4.472120
    24  H    5.177251   3.895697   2.770987   3.810334   5.043438
    25  H    5.088951   4.220940   2.780519   3.123057   4.431894
    26  O    5.897105   4.800208   3.758531   4.516027   5.467920
    27  H    5.782635   4.614029   3.851759   4.786978   5.541855
                    6          7          8          9         10
     6  C    0.000000
     7  C    1.536925   0.000000
     8  C    2.391396   1.531881   0.000000
     9  H    4.261908   4.542666   3.474741   0.000000
    10  H    4.111158   4.083265   2.726746   1.765622   0.000000
    11  H    3.138293   2.895153   2.148595   2.326513   2.799878
    12  H    3.342391   4.465386   4.292382   2.798392   3.861895
    13  H    2.540464   3.971175   4.143064   3.872562   4.231002
    14  H    4.283918   5.147996   4.425405   2.438731   2.732000
    15  H    3.179885   3.921270   3.312340   3.059140   2.445538
    16  H    1.103972   2.148685   2.726271   4.513951   4.070075
    17  H    2.167807   1.094797   2.160452   4.886682   4.703668
    18  H    3.369033   2.202642   1.095045   3.878879   3.108473
    19  O    2.919818   2.368154   1.434998   3.933266   2.626697
    20  H    3.811940   3.204958   1.963282   3.857268   2.284952
    21  O    2.487139   1.425944   2.492463   5.797543   5.039411
    22  H    2.733786   1.933134   2.526414   5.740619   4.742572
    23  C    1.526304   2.546730   3.783584   5.506112   5.589043
    24  H    2.159421   2.762101   4.022330   5.687825   5.967342
    25  H    2.173974   3.498603   4.543737   5.660379   5.924365
    26  O    2.436511   3.024899   4.432601   6.682221   6.478597
    27  H    2.425539   2.505522   3.950778   6.633053   6.231817
                   11         12         13         14         15
    11  H    0.000000
    12  H    3.352590   0.000000
    13  H    4.091554   1.764554   0.000000
    14  H    4.127942   2.431671   2.726837   0.000000
    15  H    3.888335   3.058553   2.458069   1.773638   0.000000
    16  H    3.852483   3.624122   2.395592   4.019618   2.622082
    17  H    2.844259   4.776671   4.546875   5.823417   4.809935
    18  H    2.336745   5.130358   5.181478   5.241159   4.259118
    19  O    3.362270   4.804567   4.305651   4.271639   2.806760
    20  H    3.595179   5.251721   4.954417   4.386797   3.110359
    21  O    4.252018   5.713993   4.911488   6.166127   4.683684
    22  H    4.534639   5.799140   4.867079   5.872317   4.249375
    23  C    4.245136   3.958806   3.038347   5.390801   4.451010
    24  H    4.113075   4.230500   3.727813   5.961110   5.195682
    25  H    4.759679   3.617921   2.561877   5.195292   4.477571
    26  O    5.377085   5.269743   4.076158   6.404460   5.194047
    27  H    5.184737   5.624507   4.508402   6.551034   5.190704
                   16         17         18         19         20
    16  H    0.000000
    17  H    3.052931   0.000000
    18  H    3.787512   2.444553   0.000000
    19  O    2.672923   3.308583   2.076760   0.000000
    20  H    3.581885   4.028978   2.216241   0.970625   0.000000
    21  O    2.650770   2.025396   2.930309   2.716245   3.553394
    22  H    2.513086   2.806815   3.058339   2.205187   3.026090
    23  C    2.135859   2.713778   4.634245   4.368473   5.293038
    24  H    3.052596   2.473112   4.692075   4.899550   5.773211
    25  H    2.519059   3.719932   5.473420   5.024532   5.921390
    26  O    2.604453   3.287966   5.224697   4.750305   5.719263
    27  H    2.584628   2.819333   4.637408   4.227502   5.180946
                   21         22         23         24         25
    21  O    0.000000
    22  H    0.975547   0.000000
    23  C    3.116427   3.588969   0.000000
    24  H    3.466600   4.148353   1.101575   0.000000
    25  H    4.118795   4.461134   1.095814   1.774652   0.000000
    26  O    2.900823   3.327827   1.433400   2.098197   2.040702
    27  H    2.037951   2.531501   1.944853   2.468060   2.814001
                   26         27
    26  O    0.000000
    27  H    0.977317   0.000000
 Stoichiometry    C8H15NO3
 Framework group  C1[X(C8H15NO3)]
 Deg. of freedom    75
 Full point group                 C1      NOp   1
 Largest Abelian subgroup         C1      NOp   1
 Largest concise Abelian subgroup C1      NOp   1
                         Standard orientation:                         
 ---------------------------------------------------------------------
 Center     Atomic      Atomic             Coordinates (Angstroms)
 Number     Number       Type             X           Y           Z
 ---------------------------------------------------------------------
      1          6           0       -2.634544    0.140433    0.195988
      2          6           0       -1.285323    0.314138    0.926888
      3          7           0       -0.480116   -0.937206    0.647517
      4          6           0       -1.328230   -1.822916   -0.184216
      5          6           0       -2.343117   -0.912362   -0.884681
      6          6           0        0.767651   -0.520834   -0.015310
      7          6           0        0.997681    0.896682    0.532296
      8          6           0       -0.408204    1.502537    0.476736
      9          1           0       -3.385616   -0.238496    0.898212
     10          1           0       -3.012815    1.082565   -0.212299
     11          1           0       -1.445143    0.407574    2.007185
     12          1           0       -1.853590   -2.539141    0.461254
     13          1           0       -0.707269   -2.402962   -0.873308
     14          1           0       -3.239090   -1.449199   -1.213692
     15          1           0       -1.888339   -0.438902   -1.761927
     16          1           0        0.651526   -0.444319   -1.110488
     17          1           0        1.332077    0.841893    1.573333
     18          1           0       -0.524725    2.370168    1.134583
     19          8           0       -0.609944    1.901568   -0.886823
     20          1           0       -1.368216    2.507031   -0.910292
     21          8           0        1.995854    1.636536   -0.167406
     22          1           0        1.591174    1.884718   -1.019657
     23          6           0        1.947103   -1.450416    0.257409
     24          1           0        2.147122   -1.481391    1.340230
     25          1           0        1.724467   -2.472157   -0.070137
     26          8           0        3.107772   -1.025734   -0.468626
     27          1           0        3.111682   -0.049470   -0.423444
 ---------------------------------------------------------------------
 Rotational constants (GHZ):      1.4176092      0.8172749      0.6043009
 Standard basis: 6-31+G(d,p) (6D, 7F)
 There are   303 symmetry adapted basis functions of A   symmetry.
 Integral buffers will be    131072 words long.
 Raffenetti 2 integral format.
 Two-electron integral symmetry is turned on.
   303 basis functions,   489 primitive gaussians,   303 cartesian basis functions
    47 alpha electrons       47 beta electrons
       nuclear repulsion energy       813.0430412726 Hartrees.
 NAtoms=   27 NActive=   27 NUniq=   27 SFac= 1.00D+00 NAtFMM=   60 NAOKFM=F Big=F
 ------------------------------------------------------------------------------
 Polarizable Continuum Model (PCM)
 =================================
 Model                : PCM.
 Atomic radii         : UFF (Universal Force Field).
 Polarization charges : Total charges.
 Charge compensation  : None.
 Solution method      : Matrix inversion.
 Cavity type          : Scaled VdW (van der Waals Surface) (Alpha=1.100).
 Cavity algorithm     : GePol (No added spheres)
                        Default sphere list used, NSphG=   27.
                        Lebedev-Laikov grids with approx.  5.0 points / Ang**2.
                        Smoothing algorithm: Karplus/York (Gamma=1.0000).
                        Polarization charges: spherical gaussians, with
                                              point-specific exponents (IZeta= 3).
                        Self-potential: point-specific (ISelfS= 7).
                        Self-field    : sphere-specific E.n sum rule (ISelfD= 2).
 Solvent              : Water, Eps=  78.355300 Eps(inf)=   1.777849
 ------------------------------------------------------------------------------
 One-electron integrals computed using PRISM.
 NBasis=   303 RedAO= T  NBF=   303
 NBsUse=   303 1.00D-06 NBFU=   303
 Harris functional with IExCor=  908 diagonalized for initial guess.
 ExpMin= 4.38D-02 ExpMax= 5.48D+03 ExpMxC= 8.25D+02 IAcc=2 IRadAn=         4 AccDes= 0.00D+00
 HarFok:  IExCor=  908 AccDes= 0.00D+00 IRadAn=         4 IDoV= 1
 ScaDFX=  1.000000  1.000000  1.000000  1.000000
 FoFCou: FMM=F IPFlag=           0 FMFlag=      100000 FMFlg1=           0
         NFxFlg=           0 DoJE=T BraDBF=F KetDBF=T FulRan=T
         Omega=  0.000000  0.000000  1.000000  0.000000  0.000000 ICntrl=     500 IOpCl=  0
         NMat0=    1 NMatS0=    1 NMatT0=    0 NMatD0=    1 NMtDS0=    0 NMtDT0=    0
         I1Cent=           4 NGrid=           0.
 Petite list used in FoFCou.
 Initial guess orbital symmetries:
       Occupied  (A) (A) (A) (A) (A) (A) (A) (A) (A) (A) (A) (A)
                 (A) (A) (A) (A) (A) (A) (A) (A) (A) (A) (A) (A)
                 (A) (A) (A) (A) (A) (A) (A) (A) (A) (A) (A) (A)
                 (A) (A) (A) (A) (A) (A) (A) (A) (A) (A) (A)
       Virtual   (A) (A) (A) (A) (A) (A) (A) (A) (A) (A) (A) (A)
                 (A) (A) (A) (A) (A) (A) (A) (A) (A) (A) (A) (A)
                 (A) (A) (A) (A) (A) (A) (A) (A) (A) (A) (A) (A)
                 (A) (A) (A) (A) (A) (A) (A) (A) (A) (A) (A) (A)
                 (A) (A) (A) (A) (A) (A) (A) (A) (A) (A) (A) (A)
                 (A) (A) (A) (A) (A) (A) (A) (A) (A) (A) (A) (A)
                 (A) (A) (A) (A) (A) (A) (A) (A) (A) (A) (A) (A)
                 (A) (A) (A) (A) (A) (A) (A) (A) (A) (A) (A) (A)
                 (A) (A) (A) (A) (A) (A) (A) (A) (A) (A) (A) (A)
                 (A) (A) (A) (A) (A) (A) (A) (A) (A) (A) (A) (A)
                 (A) (A) (A) (A) (A) (A) (A) (A) (A) (A) (A) (A)
                 (A) (A) (A) (A) (A) (A) (A) (A) (A) (A) (A) (A)
                 (A) (A) (A) (A) (A) (A) (A) (A) (A) (A) (A) (A)
                 (A) (A) (A) (A) (A) (A) (A) (A) (A) (A) (A) (A)
                 (A) (A) (A) (A) (A) (A) (A) (A) (A) (A) (A) (A)
                 (A) (A) (A) (A) (A) (A) (A) (A) (A) (A) (A) (A)
                 (A) (A) (A) (A) (A) (A) (A) (A) (A) (A) (A) (A)
                 (A) (A) (A) (A) (A) (A) (A) (A) (A) (A) (A) (A)
                 (A) (A) (A) (A) (A) (A) (A) (A) (A) (A) (A) (A)
                 (A) (A) (A) (A) (A) (A) (A) (A) (A) (A) (A) (A)
                 (A) (A) (A) (A) (A) (A) (A) (A) (A) (A) (A) (A)
                 (A) (A) (A) (A)
 The electronic state of the initial guess is 1-A.
 Requested convergence on RMS density matrix=1.00D-08 within 128 cycles.
 Requested convergence on MAX density matrix=1.00D-06.
 Requested convergence on             energy=1.00D-06.
 No special actions if energy rises.
 Error on total polarization charges =  0.01454
 SCF Done:  E(RmPW1PW91) =  -594.200280269     A.U. after   13 cycles
             Convg  =    0.5504D-08             -V/T =  2.0094
 Range of M.O.s used for correlation:     1   303
 NBasis=   303 NAE=    47 NBE=    47 NFC=     0 NFV=     0
 NROrb=    303 NOA=    47 NOB=    47 NVA=   256 NVB=   256

 **** Warning!!: The largest alpha MO coefficient is  0.89673937D+02

 NEqPCM:  Using equilibrium solvation (IEInf=0, Eps=  78.3553, EpsInf=   1.7778)
          Differentiating once with respect to magnetic field using GIAOs.
          Electric field/nuclear overlap derivatives assumed to be zero.
 FoFCou: FMM=F IPFlag=           0 FMFlag=    10101102 FMFlg1=           0
         NFxFlg=    40000000 DoJE=F BraDBF=F KetDBF=T FulRan=T
         Omega=  0.000000  0.000000  1.000000  0.000000  0.000000 ICntrl=    6100 IOpCl=  0
         NMat0=    1 NMatS0=    1 NMatT0=    0 NMatD0=    1 NMtDS0=    0 NMtDT0=    0
         I1Cent=           7 NGrid=        1798.
 Symmetry not used in FoFCou.
          There are     3 degrees of freedom in the 1st order CPHF.  IDoFFX=0.
      3 vectors produced by pass  0 Test12= 4.01D-13 3.33D-08 XBig12= 3.33D+01 1.09D+00.
 AX will form     3 AO Fock derivatives at one time.
      3 vectors produced by pass  1 Test12= 4.01D-13 3.33D-08 XBig12= 8.18D-02 4.39D-02.
      3 vectors produced by pass  2 Test12= 4.01D-13 3.33D-08 XBig12= 1.54D-04 2.09D-03.
      3 vectors produced by pass  3 Test12= 4.01D-13 3.33D-08 XBig12= 6.25D-07 1.41D-04.
      3 vectors produced by pass  4 Test12= 4.01D-13 3.33D-08 XBig12= 2.26D-09 7.28D-06.
      3 vectors produced by pass  5 Test12= 4.01D-13 3.33D-08 XBig12= 7.56D-12 6.03D-07.
 Inverted reduced A of dimension    18 with in-core refinement.
 Calculating GIAO nuclear magnetic shielding tensors.
 SCF GIAO Magnetic shielding tensor (ppm):
      1  C    Isotropic =   167.1251   Anisotropy =    24.6563
   XX=   172.8182   YX=    -8.3944   ZX=    10.5367
   XY=    -5.2710   YY=   165.3878   ZY=    16.9218
   XZ=     5.3566   YZ=    21.5225   ZZ=   163.1693
   Eigenvalues:   141.5218   176.2908   183.5626
      2  C    Isotropic =   128.0251   Anisotropy =    51.7366
   XX=   132.3279   YX=   -15.8336   ZX=    10.1010
   XY=   -15.0819   YY=   154.0454   ZY=    11.8846
   XZ=     1.1291   YZ=     5.7720   ZZ=    97.7021
   Eigenvalues:    94.5404   127.0188   162.5162
      3  N    Isotropic =   197.5464   Anisotropy =    67.7983
   XX=   231.1532   YX=   -18.9133   ZX=    -3.2594
   XY=    -3.4745   YY=   219.7106   ZY=    37.4453
   XZ=    -4.0192   YZ=    25.3949   ZZ=   141.7754
   Eigenvalues:   130.6852   219.2087   242.7452
      4  C    Isotropic =   141.8216   Anisotropy =    53.9860
   XX=   142.5926   YX=    18.8585   ZX=    18.7898
   XY=     6.1710   YY=   147.7598   ZY=    21.3429
   XZ=    30.5120   YZ=    12.1900   ZZ=   135.1125
   Eigenvalues:   113.1334   134.5192   177.8123
      5  C    Isotropic =   168.6968   Anisotropy =    23.7456
   XX=   166.3942   YX=    -4.8014   ZX=    12.2959
   XY=    -6.6861   YY=   176.2786   ZY=     9.2519
   XZ=    18.7564   YZ=    14.7613   ZZ=   163.4176
   Eigenvalues:   144.1808   177.3824   184.5272
      6  C    Isotropic =   128.1395   Anisotropy =    54.5699
   XX=   146.1761   YX=    21.8518   ZX=   -10.3404
   XY=    14.1853   YY=   119.8679   ZY=    -8.6007
   XZ=   -31.8462   YZ=     1.4620   ZZ=   118.3746
   Eigenvalues:   104.0966   115.8026   164.5195
      7  C    Isotropic =   114.8856   Anisotropy =    46.5008
   XX=   123.1460   YX=    15.8139   ZX=   -21.1077
   XY=    12.3925   YY=   131.5801   ZY=    -7.1946
   XZ=   -11.8098   YZ=    -3.6861   ZZ=    89.9307
   Eigenvalues:    83.1541   115.6166   145.8861
      8  C    Isotropic =   120.4661   Anisotropy =    22.3218
   XX=   120.0311   YX=     8.5992   ZX=     2.9799
   XY=     9.7400   YY=   111.6717   ZY=   -12.0440
   XZ=     8.1741   YZ=   -10.8637   ZZ=   129.6955
   Eigenvalues:   100.3116   125.7394   135.3473
      9  H    Isotropic =    29.8665   Anisotropy =    12.5364
   XX=    34.9428   YX=     1.3482   ZX=    -4.8350
   XY=     1.9926   YY=    24.8671   ZY=     0.2948
   XZ=    -5.4203   YZ=     0.3336   ZZ=    29.7896
   Eigenvalues:    24.2115    27.1638    38.2240
     10  H    Isotropic =    29.7530   Anisotropy =     9.0821
   XX=    31.5192   YX=    -3.3184   ZX=     1.3913
   XY=    -3.6006   YY=    32.5281   ZY=    -1.6559
   XZ=     0.7637   YZ=    -1.0991   ZZ=    25.2116
   Eigenvalues:    24.9217    28.5295    35.8077
     11  H    Isotropic =    28.0556   Anisotropy =     9.0894
   XX=    26.5494   YX=    -1.1570   ZX=    -2.2787
   XY=    -0.6620   YY=    24.7496   ZY=     2.3255
   XZ=    -2.4240   YZ=     1.4824   ZZ=    32.8679
   Eigenvalues:    24.2382    25.8136    34.1152
     12  H    Isotropic =    28.9386   Anisotropy =    12.2051
   XX=    27.7924   YX=     5.3578   ZX=     0.0050
   XY=     4.4427   YY=    33.5095   ZY=    -3.6121
   XZ=     0.7922   YZ=    -3.5325   ZZ=    25.5139
   Eigenvalues:    22.8096    26.9309    37.0753
     13  H    Isotropic =    28.7817   Anisotropy =     8.6559
   XX=    28.5182   YX=    -1.4198   ZX=     1.2522
   XY=    -1.6245   YY=    31.9662   ZY=     4.7985
   XZ=    -0.3874   YZ=     4.1539   ZZ=    25.8606
   Eigenvalues:    23.2626    28.5302    34.5523
     14  H    Isotropic =    30.0827   Anisotropy =    12.7700
   XX=    33.3350   YX=     3.6953   ZX=     4.3781
   XY=     4.2833   YY=    28.9539   ZY=     3.3921
   XZ=     4.6654   YZ=     3.1173   ZZ=    27.9593
   Eigenvalues:    24.9447    26.7075    38.5960
     15  H    Isotropic =    29.7848   Anisotropy =     7.7437
   XX=    27.1129   YX=     0.5046   ZX=    -0.9993
   XY=     0.5524   YY=    27.6281   ZY=    -1.6879
   XZ=    -0.1731   YZ=    -1.1395   ZZ=    34.6135
   Eigenvalues:    26.7718    27.6353    34.9473
     16  H    Isotropic =    28.8152   Anisotropy =     4.1512
   XX=    30.7910   YX=    -0.4287   ZX=    -1.2156
   XY=     0.1033   YY=    27.2418   ZY=    -0.0490
   XZ=    -1.8934   YZ=     0.8307   ZZ=    28.4128
   Eigenvalues:    27.0815    27.7815    31.5826
     17  H    Isotropic =    27.6095   Anisotropy =     4.0801
   XX=    27.9599   YX=     1.6254   ZX=    -0.1387
   XY=     1.2169   YY=    25.6536   ZY=     0.1845
   XZ=     2.8781   YZ=     0.3952   ZZ=    29.2148
   Eigenvalues:    24.9482    27.5507    30.3295
     18  H    Isotropic =    27.6196   Anisotropy =     8.5794
   XX=    23.4882   YX=    -0.0593   ZX=     0.7101
   XY=    -0.1544   YY=    28.9653   ZY=     2.8242
   XZ=     0.2131   YZ=     4.3229   ZZ=    30.4054
   Eigenvalues:    23.4259    26.0937    33.3392
     19  O    Isotropic =   308.5320   Anisotropy =    35.7694
   XX=   314.7508   YX=   -21.4853   ZX=     9.6322
   XY=   -18.9483   YY=   306.8996   ZY=    24.3248
   XZ=    -6.2899   YZ=    -4.3907   ZZ=   303.9456
   Eigenvalues:   285.8591   307.3586   332.3783
     20  H    Isotropic =    29.4597   Anisotropy =    20.6069
   XX=    32.5929   YX=    -9.5719   ZX=     1.2592
   XY=    -9.9214   YY=    32.3479   ZY=    -5.3482
   XZ=     2.0678   YZ=    -3.7406   ZZ=    23.4383
   Eigenvalues:    20.5718    24.6098    43.1976
     21  O    Isotropic =   299.4169   Anisotropy =    33.0912
   XX=   289.7594   YX=    -1.5305   ZX=    12.9046
   XY=    25.5004   YY=   316.9419   ZY=   -13.3863
   XZ=    24.5232   YZ=    -1.4933   ZZ=   291.5495
   Eigenvalues:   268.0067   308.7663   321.4777
     22  H    Isotropic =    28.6948   Anisotropy =    14.1862
   XX=    29.3656   YX=     1.1155   ZX=     2.9242
   XY=    -1.0274   YY=    22.7599   ZY=    -6.8323
   XZ=     2.9041   YZ=    -7.2920   ZZ=    33.9589
   Eigenvalues:    19.1726    28.7596    38.1522
     23  C    Isotropic =   125.6574   Anisotropy =    58.7553
   XX=   153.0971   YX=     6.2043   ZX=   -22.7208
   XY=     3.3555   YY=   106.9031   ZY=   -10.6352
   XZ=   -21.2821   YZ=    -9.8472   ZZ=   116.9721
   Eigenvalues:    98.9227   113.2220   164.8276
     24  H    Isotropic =    27.8605   Anisotropy =     4.3408
   XX=    28.7172   YX=    -0.4117   ZX=    -1.2351
   XY=    -0.6998   YY=    25.5753   ZY=    -3.0098
   XZ=     1.1659   YZ=    -2.4366   ZZ=    29.2889
   Eigenvalues:    24.0805    28.7466    30.7543
     25  H    Isotropic =    27.7219   Anisotropy =     4.6163
   XX=    29.1755   YX=     0.7751   ZX=    -0.6664
   XY=    -0.5357   YY=    30.7837   ZY=     0.6491
   XZ=    -1.8443   YZ=    -0.0332   ZZ=    23.2067
   Eigenvalues:    22.9399    29.4264    30.7995
     26  O    Isotropic =   315.0073   Anisotropy =    40.3323
   XX=   309.2068   YX=   -14.4003   ZX=    -2.7141
   XY=    -7.9943   YY=   337.9340   ZY=    -6.0452
   XZ=     3.5565   YZ=     1.6249   ZZ=   297.8810
   Eigenvalues:   297.7549   305.3714   341.8955
     27  H    Isotropic =    28.1465   Anisotropy =    20.2807
   XX=    26.5541   YX=    -1.0783   ZX=    -3.8340
   XY=    -1.2871   YY=    41.5604   ZY=     0.5288
   XZ=    -4.1587   YZ=     0.0126   ZZ=    16.3250
   Eigenvalues:    14.9482    27.8243    41.6670
 End of Minotr Frequency-dependent properties file   721 does not exist.
 End of Minotr Frequency-dependent properties file   722 does not exist.

 **********************************************************************

            Population analysis using the SCF density.

 **********************************************************************

 Orbital symmetries:
       Occupied  (A) (A) (A) (A) (A) (A) (A) (A) (A) (A) (A) (A)
                 (A) (A) (A) (A) (A) (A) (A) (A) (A) (A) (A) (A)
                 (A) (A) (A) (A) (A) (A) (A) (A) (A) (A) (A) (A)
                 (A) (A) (A) (A) (A) (A) (A) (A) (A) (A) (A)
       Virtual   (A) (A) (A) (A) (A) (A) (A) (A) (A) (A) (A) (A)
                 (A) (A) (A) (A) (A) (A) (A) (A) (A) (A) (A) (A)
                 (A) (A) (A) (A) (A) (A) (A) (A) (A) (A) (A) (A)
                 (A) (A) (A) (A) (A) (A) (A) (A) (A) (A) (A) (A)
                 (A) (A) (A) (A) (A) (A) (A) (A) (A) (A) (A) (A)
                 (A) (A) (A) (A) (A) (A) (A) (A) (A) (A) (A) (A)
                 (A) (A) (A) (A) (A) (A) (A) (A) (A) (A) (A) (A)
                 (A) (A) (A) (A) (A) (A) (A) (A) (A) (A) (A) (A)
                 (A) (A) (A) (A) (A) (A) (A) (A) (A) (A) (A) (A)
                 (A) (A) (A) (A) (A) (A) (A) (A) (A) (A) (A) (A)
                 (A) (A) (A) (A) (A) (A) (A) (A) (A) (A) (A) (A)
                 (A) (A) (A) (A) (A) (A) (A) (A) (A) (A) (A) (A)
                 (A) (A) (A) (A) (A) (A) (A) (A) (A) (A) (A) (A)
                 (A) (A) (A) (A) (A) (A) (A) (A) (A) (A) (A) (A)
                 (A) (A) (A) (A) (A) (A) (A) (A) (A) (A) (A) (A)
                 (A) (A) (A) (A) (A) (A) (A) (A) (A) (A) (A) (A)
                 (A) (A) (A) (A) (A) (A) (A) (A) (A) (A) (A) (A)
                 (A) (A) (A) (A) (A) (A) (A) (A) (A) (A) (A) (A)
                 (A) (A) (A) (A) (A) (A) (A) (A) (A) (A) (A) (A)
                 (A) (A) (A) (A) (A) (A) (A) (A) (A) (A) (A) (A)
                 (A) (A) (A) (A) (A) (A) (A) (A) (A) (A) (A) (A)
                 (A) (A) (A) (A)
 The electronic state is 1-A.
 Alpha  occ. eigenvalues --  -19.26897 -19.26543 -19.24763 -14.41526 -10.30958
 Alpha  occ. eigenvalues --  -10.30881 -10.29248 -10.28020 -10.27928 -10.26864
 Alpha  occ. eigenvalues --  -10.24845 -10.24286  -1.08539  -1.05944  -1.04701
 Alpha  occ. eigenvalues --   -0.96569  -0.82777  -0.79591  -0.74925  -0.71755
 Alpha  occ. eigenvalues --   -0.66910  -0.62824  -0.60062  -0.58461  -0.55948
 Alpha  occ. eigenvalues --   -0.53202  -0.52294  -0.50482  -0.48872  -0.47089
 Alpha  occ. eigenvalues --   -0.45305  -0.44939  -0.43921  -0.42103  -0.40519
 Alpha  occ. eigenvalues --   -0.40204  -0.39069  -0.38322  -0.36417  -0.35772
 Alpha  occ. eigenvalues --   -0.35188  -0.34541  -0.34096  -0.30629  -0.29555
 Alpha  occ. eigenvalues --   -0.29354  -0.23507
 Alpha virt. eigenvalues --    0.00212   0.01701   0.02009   0.02110   0.04080
 Alpha virt. eigenvalues --    0.04174   0.04561   0.04800   0.05537   0.07110
 Alpha virt. eigenvalues --    0.07481   0.08089   0.08548   0.09021   0.09644
 Alpha virt. eigenvalues --    0.10138   0.11341   0.11893   0.12612   0.12719
 Alpha virt. eigenvalues --    0.13405   0.14258   0.14383   0.14528   0.15362
 Alpha virt. eigenvalues --    0.15727   0.16002   0.16683   0.18138   0.18674
 Alpha virt. eigenvalues --    0.19187   0.19539   0.20166   0.20596   0.20767
 Alpha virt. eigenvalues --    0.21260   0.21761   0.22307   0.22872   0.23659
 Alpha virt. eigenvalues --    0.23726   0.24321   0.24771   0.25274   0.25700
 Alpha virt. eigenvalues --    0.26090   0.26383   0.27159   0.27660   0.28477
 Alpha virt. eigenvalues --    0.29259   0.29625   0.29862   0.31118   0.31972
 Alpha virt. eigenvalues --    0.32628   0.32968   0.33302   0.34449   0.35514
 Alpha virt. eigenvalues --    0.35825   0.36003   0.36498   0.37505   0.38142
 Alpha virt. eigenvalues --    0.39163   0.39883   0.40607   0.41060   0.41801
 Alpha virt. eigenvalues --    0.42878   0.43462   0.43934   0.44606   0.47460
 Alpha virt. eigenvalues --    0.49044   0.63800   0.67107   0.67594   0.68419
 Alpha virt. eigenvalues --    0.70140   0.70589   0.71677   0.72495   0.74419
 Alpha virt. eigenvalues --    0.76678   0.77898   0.79500   0.80101   0.81887
 Alpha virt. eigenvalues --    0.82947   0.83962   0.84598   0.86423   0.87462
 Alpha virt. eigenvalues --    0.88971   0.89755   0.92252   0.94457   0.97493
 Alpha virt. eigenvalues --    0.99591   1.00636   1.02596   1.03300   1.03728
 Alpha virt. eigenvalues --    1.05154   1.07531   1.09220   1.09735   1.11491
 Alpha virt. eigenvalues --    1.12012   1.12965   1.13668   1.14089   1.14761
 Alpha virt. eigenvalues --    1.15918   1.17973   1.21423   1.23761   1.24761
 Alpha virt. eigenvalues --    1.27158   1.28600   1.30267   1.30956   1.33497
 Alpha virt. eigenvalues --    1.34700   1.35184   1.38101   1.39282   1.40379
 Alpha virt. eigenvalues --    1.42244   1.43707   1.45184   1.47553   1.51377
 Alpha virt. eigenvalues --    1.55126   1.56795   1.58273   1.60354   1.63197
 Alpha virt. eigenvalues --    1.63483   1.64696   1.66495   1.71112   1.72788
 Alpha virt. eigenvalues --    1.73252   1.75723   1.76224   1.77566   1.79173
 Alpha virt. eigenvalues --    1.81583   1.82101   1.83148   1.84181   1.87330
 Alpha virt. eigenvalues --    1.87997   1.90433   1.91640   1.93076   1.95503
 Alpha virt. eigenvalues --    1.96160   1.97427   2.02212   2.02452   2.04739
 Alpha virt. eigenvalues --    2.05456   2.06478   2.06943   2.08283   2.11391
 Alpha virt. eigenvalues --    2.13632   2.15682   2.16614   2.18248   2.19085
 Alpha virt. eigenvalues --    2.20866   2.21771   2.25005   2.26492   2.29259
 Alpha virt. eigenvalues --    2.32113   2.33407   2.35706   2.37061   2.40488
 Alpha virt. eigenvalues --    2.41789   2.43587   2.43920   2.47579   2.48525
 Alpha virt. eigenvalues --    2.49828   2.50306   2.52469   2.54156   2.55644
 Alpha virt. eigenvalues --    2.56978   2.57981   2.60076   2.61155   2.61661
 Alpha virt. eigenvalues --    2.63296   2.66526   2.66798   2.68699   2.69930
 Alpha virt. eigenvalues --    2.71015   2.73299   2.74330   2.76363   2.77589
 Alpha virt. eigenvalues --    2.79426   2.82140   2.82626   2.82974   2.84516
 Alpha virt. eigenvalues --    2.86726   2.88283   2.91352   2.92311   2.96810
 Alpha virt. eigenvalues --    2.98398   2.99251   3.01797   3.02893   3.04035
 Alpha virt. eigenvalues --    3.05939   3.08593   3.12852   3.14374   3.33109
 Alpha virt. eigenvalues --    3.33980   3.37007   3.39049   3.41408   3.44594
 Alpha virt. eigenvalues --    3.48256   3.48773   3.53775   3.55326   3.56053
 Alpha virt. eigenvalues --    3.56952   3.59015   3.61761   3.65400   4.29357
 Alpha virt. eigenvalues --    4.34526   4.40199   4.46290   4.50899   4.54718
 Alpha virt. eigenvalues --    4.60357   4.68931   4.78871   4.81810   4.86409
 Alpha virt. eigenvalues --    5.03103
          Condensed to atoms (all electrons):
              1          2          3          4          5          6
     1  C    5.760338  -0.221974  -0.005129  -0.043664   0.188016  -0.012273
     2  C   -0.221974   7.585430  -0.127461  -0.278334  -0.023797  -0.188109
     3  N   -0.005129  -0.127461   7.343010   0.229301  -0.166323   0.029069
     4  C   -0.043664  -0.278334   0.229301   5.781363   0.190299  -0.108950
     5  C    0.188016  -0.023797  -0.166323   0.190299   5.371832   0.107176
     6  C   -0.012273  -0.188109   0.029069  -0.108950   0.107176   9.100062
     7  C    0.004514  -0.030829  -0.141139  -0.459727  -0.024666  -1.990615
     8  C   -0.086220  -0.634659  -0.100880   0.176292   0.043200   0.270099
     9  H    0.428058  -0.072744   0.007743   0.001771  -0.055201   0.015009
    10  H    0.381348  -0.110708   0.016726   0.027966  -0.017272  -0.009284
    11  H    0.002342   0.220103  -0.014703  -0.004240   0.013905   0.002042
    12  H    0.002145  -0.012564  -0.028571   0.387504  -0.050180  -0.000456
    13  H    0.024861   0.027111  -0.061695   0.352785  -0.024470   0.028542
    14  H   -0.031208   0.023304   0.014674  -0.041883   0.366087  -0.000435
    15  H   -0.047675  -0.003005   0.007949  -0.068582   0.424281   0.019914
    16  H    0.019232   0.007777  -0.068425   0.076397  -0.021490   0.391747
    17  H    0.011357  -0.012460   0.036949   0.015036  -0.002139  -0.056203
    18  H    0.016195  -0.033750   0.016736   0.001231  -0.006888   0.011862
    19  O    0.068933  -0.176036   0.051059   0.003540  -0.029183   0.090063
    20  H   -0.002569  -0.052636  -0.002703   0.000117   0.000127  -0.002568
    21  O    0.002840   0.010371   0.014722   0.006537  -0.001678  -0.086526
    22  H    0.005440   0.004309   0.004342   0.002440  -0.001999  -0.046830
    23  C    0.070503  -0.019207   0.054245  -0.026193  -0.072198  -1.074562
    24  H    0.001890  -0.002151   0.021208   0.020957  -0.002289  -0.011334
    25  H    0.002135   0.003676  -0.008415  -0.002140  -0.002910  -0.134021
    26  O   -0.000124   0.005580  -0.002673   0.011585  -0.000349   0.042092
    27  H   -0.000031   0.004701   0.000916  -0.001890  -0.000103  -0.081453
              7          8          9         10         11         12
     1  C    0.004514  -0.086220   0.428058   0.381348   0.002342   0.002145
     2  C   -0.030829  -0.634659  -0.072744  -0.110708   0.220103  -0.012564
     3  N   -0.141139  -0.100880   0.007743   0.016726  -0.014703  -0.028571
     4  C   -0.459727   0.176292   0.001771   0.027966  -0.004240   0.387504
     5  C   -0.024666   0.043200  -0.055201  -0.017272   0.013905  -0.050180
     6  C   -1.990615   0.270099   0.015009  -0.009284   0.002042  -0.000456
     7  C    8.929657  -0.627463  -0.003693  -0.006385  -0.003716   0.011379
     8  C   -0.627463   6.434761   0.010263   0.048190   0.049596  -0.006260
     9  H   -0.003693   0.010263   0.517869  -0.024311  -0.007008   0.001456
    10  H   -0.006385   0.048190  -0.024311   0.531181   0.002980  -0.000012
    11  H   -0.003716   0.049596  -0.007008   0.002980   0.559742   0.000923
    12  H    0.011379  -0.006260   0.001456  -0.000012   0.000923   0.548324
    13  H    0.026651  -0.020076  -0.000108  -0.000147  -0.000166  -0.029303
    14  H    0.005977   0.000633  -0.004848   0.000739  -0.000050  -0.002984
    15  H    0.008337  -0.012186   0.004034  -0.005498  -0.000109   0.004020
    16  H   -0.132446  -0.006144  -0.000006  -0.000051  -0.000551  -0.000328
    17  H    0.346747  -0.027357   0.000003  -0.000005   0.000232   0.000012
    18  H    0.009190   0.301517   0.000000   0.000100  -0.002483   0.000005
    19  O   -0.223583   0.171345   0.000386   0.001707   0.009104   0.000258
    20  H    0.023637   0.054283  -0.000051   0.002160   0.000047  -0.000001
    21  O    0.178151  -0.048472   0.000020  -0.000063  -0.000514   0.000006
    22  H    0.060035  -0.055283   0.000000   0.000001  -0.000013   0.000000
    23  C    0.353478  -0.157155   0.000790  -0.001293   0.003291   0.009843
    24  H   -0.098713   0.001235   0.000000   0.000000  -0.000019   0.000027
    25  H    0.030106  -0.008648   0.000000   0.000000   0.000006  -0.000181
    26  O   -0.077958  -0.005499  -0.000001  -0.000004  -0.000047  -0.000010
    27  H    0.031874   0.003916   0.000000   0.000000   0.000001   0.000000
             13         14         15         16         17         18
     1  C    0.024861  -0.031208  -0.047675   0.019232   0.011357   0.016195
     2  C    0.027111   0.023304  -0.003005   0.007777  -0.012460  -0.033750
     3  N   -0.061695   0.014674   0.007949  -0.068425   0.036949   0.016736
     4  C    0.352785  -0.041883  -0.068582   0.076397   0.015036   0.001231
     5  C   -0.024470   0.366087   0.424281  -0.021490  -0.002139  -0.006888
     6  C    0.028542  -0.000435   0.019914   0.391747  -0.056203   0.011862
     7  C    0.026651   0.005977   0.008337  -0.132446   0.346747   0.009190
     8  C   -0.020076   0.000633  -0.012186  -0.006144  -0.027357   0.301517
     9  H   -0.000108  -0.004848   0.004034  -0.000006   0.000003   0.000000
    10  H   -0.000147   0.000739  -0.005498  -0.000051  -0.000005   0.000100
    11  H   -0.000166  -0.000050  -0.000109  -0.000551   0.000232  -0.002483
    12  H   -0.029303  -0.002984   0.004020  -0.000328   0.000012   0.000005
    13  H    0.530966   0.001052  -0.005545   0.000747  -0.000024   0.000005
    14  H    0.001052   0.521954  -0.023688  -0.000162   0.000000   0.000004
    15  H   -0.005545  -0.023688   0.511950   0.000051   0.000002   0.000022
    16  H    0.000747  -0.000162   0.000051   0.559314   0.004160  -0.000157
    17  H   -0.000024   0.000000   0.000002   0.004160   0.517985  -0.004512
    18  H    0.000005   0.000004   0.000022  -0.000157  -0.004512   0.549340
    19  O    0.000365   0.000498   0.000411   0.003483   0.008501  -0.037074
    20  H   -0.000003  -0.000005  -0.000219   0.000011  -0.000168  -0.008300
    21  O   -0.000052  -0.000009  -0.000024   0.000347  -0.045016   0.002210
    22  H   -0.000003   0.000000   0.000011   0.002317   0.005663  -0.000125
    23  C   -0.017971  -0.000356   0.005084  -0.025595   0.004005   0.010713
    24  H   -0.000027   0.000000   0.000000   0.004687   0.004349   0.000001
    25  H    0.001484   0.000001  -0.000009  -0.005443   0.000034   0.000002
    26  O   -0.000053  -0.000003  -0.000004   0.009984  -0.000896  -0.000033
    27  H   -0.000005   0.000000   0.000000  -0.002984  -0.000933   0.000009
             19         20         21         22         23         24
     1  C    0.068933  -0.002569   0.002840   0.005440   0.070503   0.001890
     2  C   -0.176036  -0.052636   0.010371   0.004309  -0.019207  -0.002151
     3  N    0.051059  -0.002703   0.014722   0.004342   0.054245   0.021208
     4  C    0.003540   0.000117   0.006537   0.002440  -0.026193   0.020957
     5  C   -0.029183   0.000127  -0.001678  -0.001999  -0.072198  -0.002289
     6  C    0.090063  -0.002568  -0.086526  -0.046830  -1.074562  -0.011334
     7  C   -0.223583   0.023637   0.178151   0.060035   0.353478  -0.098713
     8  C    0.171345   0.054283  -0.048472  -0.055283  -0.157155   0.001235
     9  H    0.000386  -0.000051   0.000020   0.000000   0.000790   0.000000
    10  H    0.001707   0.002160  -0.000063   0.000001  -0.001293   0.000000
    11  H    0.009104   0.000047  -0.000514  -0.000013   0.003291  -0.000019
    12  H    0.000258  -0.000001   0.000006   0.000000   0.009843   0.000027
    13  H    0.000365  -0.000003  -0.000052  -0.000003  -0.017971  -0.000027
    14  H    0.000498  -0.000005  -0.000009   0.000000  -0.000356   0.000000
    15  H    0.000411  -0.000219  -0.000024   0.000011   0.005084   0.000000
    16  H    0.003483   0.000011   0.000347   0.002317  -0.025595   0.004687
    17  H    0.008501  -0.000168  -0.045016   0.005663   0.004005   0.004349
    18  H   -0.037074  -0.008300   0.002210  -0.000125   0.010713   0.000001
    19  O    8.403807   0.241907   0.000476   0.021810   0.028868   0.000188
    20  H    0.241907   0.345958  -0.000844  -0.000331  -0.002587   0.000000
    21  O    0.000476  -0.000844   8.261064   0.258375   0.011963   0.003473
    22  H    0.021810  -0.000331   0.258375   0.338728   0.001469  -0.000037
    23  C    0.028868  -0.002587   0.011963   0.001469   5.938475   0.421324
    24  H    0.000188   0.000000   0.003473  -0.000037   0.421324   0.576592
    25  H    0.000023   0.000000  -0.001233   0.000016   0.507700  -0.041434
    26  O   -0.000133   0.000019  -0.006422  -0.000329   0.161795  -0.051779
    27  H   -0.000569  -0.000002   0.018248  -0.002410   0.025019  -0.003108
             25         26         27
     1  C    0.002135  -0.000124  -0.000031
     2  C    0.003676   0.005580   0.004701
     3  N   -0.008415  -0.002673   0.000916
     4  C   -0.002140   0.011585  -0.001890
     5  C   -0.002910  -0.000349  -0.000103
     6  C   -0.134021   0.042092  -0.081453
     7  C    0.030106  -0.077958   0.031874
     8  C   -0.008648  -0.005499   0.003916
     9  H    0.000000  -0.000001   0.000000
    10  H    0.000000  -0.000004   0.000000
    11  H    0.000006  -0.000047   0.000001
    12  H   -0.000181  -0.000010   0.000000
    13  H    0.001484  -0.000053  -0.000005
    14  H    0.000001  -0.000003   0.000000
    15  H   -0.000009  -0.000004   0.000000
    16  H   -0.005443   0.009984  -0.002984
    17  H    0.000034  -0.000896  -0.000933
    18  H    0.000002  -0.000033   0.000009
    19  O    0.000023  -0.000133  -0.000569
    20  H    0.000000   0.000019  -0.000002
    21  O   -0.001233  -0.006422   0.018248
    22  H    0.000016  -0.000329  -0.002410
    23  C    0.507700   0.161795   0.025019
    24  H   -0.041434  -0.051779  -0.003108
    25  H    0.552678  -0.058432   0.005755
    26  O   -0.058432   8.279207   0.252206
    27  H    0.005755   0.252206   0.355367
 Mulliken atomic charges:
              1
     1  C   -0.539283
     2  C    0.108063
     3  N   -0.120533
     4  C   -0.249519
     5  C   -0.201787
     6  C   -0.304059
     7  C   -0.198799
     8  C    0.230972
     9  H    0.180569
    10  H    0.161937
    11  H    0.169306
    12  H    0.164948
    13  H    0.165080
    14  H    0.170709
    15  H    0.180477
    16  H    0.183529
    17  H    0.194678
    18  H    0.174178
    19  O   -0.640154
    20  H    0.404722
    21  O   -0.577952
    22  H    0.402404
    23  C   -0.211448
    24  H    0.154961
    25  H    0.159247
    26  O   -0.557720
    27  H    0.395474
 Sum of Mulliken atomic charges =   0.00000
 Mulliken charges with hydrogens summed into heavy atoms:
              1
     1  C   -0.196776
     2  C    0.277368
     3  N   -0.120533
     4  C    0.080509
     5  C    0.149399
     6  C   -0.120530
     7  C   -0.004121
     8  C    0.405150
    19  O   -0.235432
    21  O   -0.175548
    23  C    0.102760
    26  O   -0.162247
 Sum of Mulliken charges with hydrogens summed into heavy atoms =   0.00000
 Electronic spatial extent (au):  <R**2>=           2005.8946
 Charge=              0.0000 electrons
 Dipole moment (field-independent basis, Debye):
    X=             -6.0818    Y=              2.6035    Z=              0.4926  Tot=              6.6340
 Quadrupole moment (field-independent basis, Debye-Ang):
   XX=            -82.4160   YY=            -69.7169   ZZ=            -73.0681
   XY=             -0.2863   XZ=              2.4791   YZ=              0.4640
 Traceless Quadrupole moment (field-independent basis, Debye-Ang):
   XX=             -7.3490   YY=              5.3501   ZZ=              1.9989
   XY=             -0.2863   XZ=              2.4791   YZ=              0.4640
 Octapole moment (field-independent basis, Debye-Ang**2):
  XXX=            -56.2469  YYY=             20.2965  ZZZ=             -3.3655  XYY=            -22.3078
  XXY=             23.4893  XXZ=              6.0386  XZZ=              4.4401  YZZ=             12.2221
  YYZ=             -8.0189  XYZ=             -6.6059
 Hexadecapole moment (field-independent basis, Debye-Ang**3):
 XXXX=          -1656.5090 YYYY=           -760.7486 ZZZZ=           -277.5795 XXXY=             62.8037
 XXXZ=             23.9025 YYYX=            -48.0051 YYYZ=            -16.1238 ZZZX=             -2.8111
 ZZZY=             -3.8493 XXYY=           -396.5661 XXZZ=           -290.7288 YYZZ=           -177.0583
 XXYZ=            -34.1869 YYXZ=              6.0020 ZZXY=              6.7446
 N-N= 8.130430412726D+02 E-N=-3.011725778149D+03  KE= 5.886701391799D+02
 1\1\GINC-COMPUTE-3-1\SP\RmPW1PW91\6-31+G(d,p)\C8H15N1O3\MAMICHETTI.IQU
 IR\17-May-2024\0\\# mpw1pw91/6-31+G** nmr scrf=(pcm,solvent=water)\\co
 mment\\0,1\C,0,-2.634544,0.140433,0.195988\C,0,-1.285323,0.314138,0.92
 6888\N,0,-0.480116,-0.937206,0.647517\C,0,-1.32823,-1.822916,-0.184216
 \C,0,-2.343117,-0.912362,-0.884681\C,0,0.767651,-0.520834,-0.01531\C,0
 ,0.997681,0.896682,0.532296\C,0,-0.408204,1.502537,0.476736\H,0,-3.385
 616,-0.238497,0.898212\H,0,-3.012815,1.082565,-0.212299\H,0,-1.445143,
 0.407574,2.007185\H,0,-1.85359,-2.539141,0.461254\H,0,-0.707269,-2.402
 962,-0.873308\H,0,-3.23909,-1.4492,-1.213692\H,0,-1.888339,-0.438902,-
 1.761927\H,0,0.651526,-0.444319,-1.110488\H,0,1.332077,0.841893,1.5733
 33\H,0,-0.524725,2.370168,1.134583\O,0,-0.609944,1.901568,-0.886823\H,
 0,-1.368216,2.507031,-0.910292\O,0,1.995854,1.636536,-0.167406\H,0,1.5
 91174,1.884718,-1.019657\C,0,1.947103,-1.450416,0.257409\H,0,2.147122,
 -1.481391,1.34023\H,0,1.724467,-2.472157,-0.070137\O,0,3.107772,-1.025
 734,-0.468626\H,0,3.111682,-0.04947,-0.423444\\Version=AM64L-G09RevC.0
 1\State=1-A\HF=-594.2002803\RMSD=5.504e-09\Dipole=-2.3927826,1.0242907
 ,0.1938052\Quadrupole=-5.4637767,3.9776362,1.4861404,-0.2128624,1.8431
 263,0.3449483\PG=C01 [X(C8H15N1O3)]\\@


 WE THE UNWILLING
 LED BY THE UNQUALIFIED
 HAVE BEEN DOING THE UNBELIEVABLE SO LONG WITH SO LITTLE
 THAT WE NOW ATTEMPT THE IMPOSSIBLE WITH NOTHING.

                                    -- ANONYMOUS
 Job cpu time:  0 days  0 hours  8 minutes 31.3 seconds.
 File lengths (MBytes):  RWF=    111 Int=      0 D2E=      0 Chk=      7 Scr=      1
 Normal termination of Gaussian 09 at Fri May 17 12:24:53 2024.
