 Entering Gaussian System, Link 0=g09
 Input=/home/mamichetti.iquir/Linux/01_Cardona_A1A3_R__S_R_R_017_OptB.gjc
 Output=/home/mamichetti.iquir/Linux/01_Cardona_A1A3_R__S_R_R_017_OptB.log
 Initial command:
 /opt/ohpc/pub/apps/software/Gaussian/09/AMD64.SSE4a-enabled/g09/l1.exe /local/mamichetti.iquir/Gau-403735.inp -scrdir=/local/mamichetti.iquir/
 Entering Link 1 = /opt/ohpc/pub/apps/software/Gaussian/09/AMD64.SSE4a-enabled/g09/l1.exe PID=    403740.
  
 Copyright (c) 1988,1990,1992,1993,1995,1998,2003,2009,2011,
            Gaussian, Inc.  All Rights Reserved.
  
 This is part of the Gaussian(R) 09 program.  It is based on
 the Gaussian(R) 03 system (copyright 2003, Gaussian, Inc.),
 the Gaussian(R) 98 system (copyright 1998, Gaussian, Inc.),
 the Gaussian(R) 94 system (copyright 1995, Gaussian, Inc.),
 the Gaussian 92(TM) system (copyright 1992, Gaussian, Inc.),
 the Gaussian 90(TM) system (copyright 1990, Gaussian, Inc.),
 the Gaussian 88(TM) system (copyright 1988, Gaussian, Inc.),
 the Gaussian 86(TM) system (copyright 1986, Carnegie Mellon
 University), and the Gaussian 82(TM) system (copyright 1983,
 Carnegie Mellon University). Gaussian is a federally registered
 trademark of Gaussian, Inc.
  
 This software contains proprietary and confidential information,
 including trade secrets, belonging to Gaussian, Inc.
  
 This software is provided under written license and may be
 used, copied, transmitted, or stored only in accord with that
 written license.
  
 The following legend is applicable only to US Government
 contracts under FAR:
  
                    RESTRICTED RIGHTS LEGEND
  
 Use, reproduction and disclosure by the US Government is
 subject to restrictions as set forth in subparagraphs (a)
 and (c) of the Commercial Computer Software - Restricted
 Rights clause in FAR 52.227-19.
  
 Gaussian, Inc.
 340 Quinnipiac St., Bldg. 40, Wallingford CT 06492
  
  
 ---------------------------------------------------------------
 Warning -- This program may not be used in any manner that
 competes with the business of Gaussian, Inc. or will provide
 assistance to any competitor of Gaussian, Inc.  The licensee
 of this program is prohibited from giving any competitor of
 Gaussian, Inc. access to this program.  By using this program,
 the user acknowledges that Gaussian, Inc. is engaged in the
 business of creating and licensing software in the field of
 computational chemistry and represents and warrants to the
 licensee that it is not a competitor of Gaussian, Inc. and that
 it will not use this program in any manner prohibited above.
 ---------------------------------------------------------------
  

 Cite this work as:
 Gaussian 09, Revision C.01,
 M. J. Frisch, G. W. Trucks, H. B. Schlegel, G. E. Scuseria, 
 M. A. Robb, J. R. Cheeseman, G. Scalmani, V. Barone, B. Mennucci, 
 G. A. Petersson, H. Nakatsuji, M. Caricato, X. Li, H. P. Hratchian, 
 A. F. Izmaylov, J. Bloino, G. Zheng, J. L. Sonnenberg, M. Hada, 
 M. Ehara, K. Toyota, R. Fukuda, J. Hasegawa, M. Ishida, T. Nakajima, 
 Y. Honda, O. Kitao, H. Nakai, T. Vreven, J. A. Montgomery, Jr., 
 J. E. Peralta, F. Ogliaro, M. Bearpark, J. J. Heyd, E. Brothers, 
 K. N. Kudin, V. N. Staroverov, T. Keith, R. Kobayashi, J. Normand, 
 K. Raghavachari, A. Rendell, J. C. Burant, S. S. Iyengar, J. Tomasi, 
 M. Cossi, N. Rega, J. M. Millam, M. Klene, J. E. Knox, J. B. Cross, 
 V. Bakken, C. Adamo, J. Jaramillo, R. Gomperts, R. E. Stratmann, 
 O. Yazyev, A. J. Austin, R. Cammi, C. Pomelli, J. W. Ochterski, 
 R. L. Martin, K. Morokuma, V. G. Zakrzewski, G. A. Voth, 
 P. Salvador, J. J. Dannenberg, S. Dapprich, A. D. Daniels, 
 O. Farkas, J. B. Foresman, J. V. Ortiz, J. Cioslowski, 
 and D. J. Fox, Gaussian, Inc., Wallingford CT, 2010.
 
 ******************************************
 Gaussian 09:  AM64L-G09RevC.01 23-Sep-2011
                17-May-2024 
 ******************************************
 %nprocshared=4
 Will use up to    4 processors via shared memory.
 ------------------------------------------------
 # mpw1pw91/6-31+G** nmr scrf=(pcm,solvent=water)
 ------------------------------------------------
 1/38=1/1;
 2/12=2,17=6,18=5,40=1/2;
 3/5=1,6=6,7=111,11=2,16=1,25=1,30=1,70=2201,72=1,74=-7/1,2,8,3;
 4//1;
 5/5=2,38=5,53=1/2;
 8/6=1,10=90,11=11/1;
 10/13=100,45=16/2;
 6/7=2,8=2,9=2,10=2,28=1/1;
 99/9=1/99;
 -------
 comment
 -------
 Charge =  0 Multiplicity = 1
 Symbolic Z-Matrix:
 6                    -2.47426   0.34371   0.34549 
 6                    -1.02374   0.31105   0.84981 
 7                    -0.36348  -0.84385   0.13758 
 6                    -1.3533   -1.45618  -0.77151 
 6                    -2.70693  -1.09201  -0.15468 
 6                     0.87731  -0.36479  -0.49359 
 6                     1.24139   0.87966   0.34183 
 6                    -0.12716   1.53393   0.5826 
 1                    -3.17879   0.6497    1.12449 
 1                    -2.56611   1.04452  -0.49092 
 1                    -1.0068    0.11772   1.9302 
 1                    -1.20358  -2.5387   -0.85318 
 1                    -1.26973  -1.03429  -1.78736 
 1                    -2.93254  -1.75991   0.68536 
 1                    -3.52601  -1.16881  -0.87646 
 1                     0.70753  -0.04334  -1.53597 
 1                     1.66904   0.56386   1.29834 
 1                    -0.12003   2.23644   1.42255 
 8                    -0.43745   2.23194  -0.63269 
 1                    -1.1481    2.8645   -0.44031 
 8                     2.18858   1.73969  -0.27247 
 1                     1.68293   2.23774  -0.94132 
 6                     1.95315  -1.4496   -0.50198 
 1                     1.67069  -2.24601  -1.20743 
 1                     2.90644  -1.0276   -0.83806 
 8                     2.1595   -1.98959   0.80459 
 1                     1.25562  -2.07976   1.16376 
 
                          Input orientation:                          
 ---------------------------------------------------------------------
 Center     Atomic      Atomic             Coordinates (Angstroms)
 Number     Number       Type             X           Y           Z
 ---------------------------------------------------------------------
      1          6           0       -2.474260    0.343705    0.345490
      2          6           0       -1.023738    0.311049    0.849811
      3          7           0       -0.363480   -0.843852    0.137584
      4          6           0       -1.353299   -1.456180   -0.771511
      5          6           0       -2.706931   -1.092013   -0.154680
      6          6           0        0.877309   -0.364786   -0.493594
      7          6           0        1.241393    0.879658    0.341826
      8          6           0       -0.127160    1.533932    0.582601
      9          1           0       -3.178788    0.649699    1.124494
     10          1           0       -2.566108    1.044515   -0.490920
     11          1           0       -1.006805    0.117718    1.930203
     12          1           0       -1.203579   -2.538704   -0.853178
     13          1           0       -1.269725   -1.034289   -1.787356
     14          1           0       -2.932537   -1.759910    0.685359
     15          1           0       -3.526010   -1.168814   -0.876457
     16          1           0        0.707525   -0.043341   -1.535971
     17          1           0        1.669041    0.563860    1.298338
     18          1           0       -0.120028    2.236442    1.422551
     19          8           0       -0.437454    2.231938   -0.632692
     20          1           0       -1.148097    2.864503   -0.440312
     21          8           0        2.188581    1.739686   -0.272470
     22          1           0        1.682934    2.237738   -0.941318
     23          6           0        1.953151   -1.449596   -0.501976
     24          1           0        1.670689   -2.246006   -1.207427
     25          1           0        2.906440   -1.027597   -0.838064
     26          8           0        2.159498   -1.989587    0.804587
     27          1           0        1.255617   -2.079756    1.163759
 ---------------------------------------------------------------------
                    Distance matrix (angstroms):
                    1          2          3          4          5
     1  C    0.000000
     2  C    1.536040   0.000000
     3  N    2.430825   1.508975   0.000000
     4  C    2.396629   2.420825   1.476869   0.000000
     5  C    1.538048   2.410544   2.374608   1.531476   0.000000
     6  C    3.526902   2.423937   1.472225   2.498798   3.672941
     7  C    3.754109   2.390017   2.363857   3.664435   4.441089
     8  C    2.642298   1.539707   2.430585   3.503970   3.754249
     9  H    1.094001   2.198721   3.336262   3.370752   2.211899
    10  H    1.095058   2.171275   2.968588   2.793405   2.167404
    11  H    2.171591   1.097684   2.133534   3.145866   2.949680
    12  H    3.370418   3.324696   2.135392   1.095876   2.200200
    13  H    2.810481   2.970706   2.136104   1.103140   2.175896
    14  H    2.179616   2.821246   2.781955   2.169957   1.096654
    15  H    2.210666   3.381030   3.336986   2.194144   1.094418
    16  H    3.716646   2.968976   2.142115   2.612950   3.829646
    17  H    4.257151   2.741560   2.731327   4.183225   4.899215
    18  H    3.207011   2.202694   3.346434   4.468817   4.500926
    19  O    2.944629   2.496269   3.171637   3.802664   4.053106
    20  H    2.954762   2.863566   3.834251   4.338214   4.262108
    21  O    4.906396   3.690462   3.654563   4.796615   5.656716
    22  H    4.746103   3.774433   3.853315   4.784619   5.565695
    23  C    4.851401   3.713363   2.478456   3.317424   4.686667
    24  H    5.128231   4.246257   2.812994   3.155686   4.647960
    25  H    5.677429   4.481874   3.417313   4.281762   5.655183
    26  O    5.208333   3.927845   2.850091   3.886946   5.040631
    27  H    4.522688   3.318128   2.280783   3.307652   4.291352
                    6          7          8          9         10
     6  C    0.000000
     7  C    1.542441   0.000000
     8  C    2.402558   1.535899   0.000000
     9  H    4.483226   4.494825   3.223034   0.000000
    10  H    3.720653   3.900988   2.709325   1.772236   0.000000
    11  H    3.107650   2.856202   2.143704   2.376906   3.025263
    12  H    3.030728   4.369339   4.450450   4.240112   3.850607
    13  H    2.594573   3.808192   3.676671   3.867713   2.771783
    14  H    4.225071   4.950457   4.327828   2.461645   3.063120
    15  H    4.492467   5.329970   4.581033   2.726052   2.443128
    16  H    1.103949   2.159413   2.769989   4.760442   3.604474
    17  H    2.168004   1.094315   2.163252   4.851704   4.622657
    18  H    3.381225   2.205062   1.095028   3.458700   3.326465
    19  O    2.913919   2.365771   1.435420   3.620234   2.441565
    20  H    3.812272   3.203281   1.964455   3.387873   2.307742
    21  O    2.489404   1.419216   2.477123   5.652277   4.810203
    22  H    2.760909   1.919843   2.468626   5.515958   4.436327
    23  C    1.527848   2.577601   3.795450   5.778343   5.161823
    24  H    2.162868   3.514862   4.552405   6.110678   5.412149
    25  H    2.162256   2.793232   4.216924   6.610216   5.861991
    26  O    2.443207   3.047890   4.206337   5.963679   5.763286
    27  H    2.414758   3.071467   3.912615   5.207246   5.206209
                   11         12         13         14         15
    11  H    0.000000
    12  H    3.852598   0.000000
    13  H    3.900832   1.772097   0.000000
    14  H    2.963708   2.441907   3.066886   0.000000
    15  H    3.984834   2.696447   2.436936   1.772251   0.000000
    16  H    3.870301   3.216421   2.225913   4.596843   4.429951
    17  H    2.785399   4.744141   4.551037   5.191355   5.892406
    18  H    2.352249   5.399541   4.724721   4.942114   5.336845
    19  O    3.370833   4.836795   3.562887   4.888512   4.600404
    20  H    3.630996   5.419242   4.126730   5.082967   4.702376
    21  O    4.206310   5.490773   4.685050   6.276182   6.440553
    22  H    4.469319   5.581588   4.487776   6.319006   6.224299
    23  C    4.139240   3.357744   3.494512   5.037460   5.499116
    24  H    4.754039   2.910770   3.232740   5.000862   5.317477
    25  H    4.928340   4.379033   4.282704   6.078713   6.434114
    26  O    3.966512   3.789459   4.403446   5.098606   5.985364
    27  H    3.245748   3.213458   4.022367   4.227505   5.277902
                   16         17         18         19         20
    16  H    0.000000
    17  H    3.053934   0.000000
    18  H    3.825586   2.452290   0.000000
    19  O    2.702551   3.308879   2.079616   0.000000
    20  H    3.619304   4.031393   2.218478   0.970650   0.000000
    21  O    2.639914   2.029760   2.906809   2.695947   3.525167
    22  H    2.551148   2.796090   2.972970   2.142739   2.942546
    23  C    2.144361   2.715852   4.646370   4.391557   5.313473
    24  H    2.426388   3.764865   5.496889   4.982627   5.886537
    25  H    2.508199   2.937364   4.992378   4.674224   5.634352
    26  O    3.372582   2.646588   4.841223   5.160543   6.004344
    27  H    3.425775   2.679130   4.537503   4.968343   5.726830
                   21         22         23         24         25
    21  O    0.000000
    22  H    0.975240   0.000000
    23  C    3.206185   3.723234   0.000000
    24  H    4.126512   4.491650   1.100779   0.000000
    25  H    2.914288   3.488559   1.095353   1.774269   0.000000
    26  O    3.881800   4.598432   1.428732   2.086357   2.044908
    27  H    4.185847   4.822313   1.912676   2.412975   2.799920
                   26         27
    26  O    0.000000
    27  H    0.976799   0.000000
 Stoichiometry    C8H15NO3
 Framework group  C1[X(C8H15NO3)]
 Deg. of freedom    75
 Full point group                 C1      NOp   1
 Largest Abelian subgroup         C1      NOp   1
 Largest concise Abelian subgroup C1      NOp   1
                         Standard orientation:                         
 ---------------------------------------------------------------------
 Center     Atomic      Atomic             Coordinates (Angstroms)
 Number     Number       Type             X           Y           Z
 ---------------------------------------------------------------------
      1          6           0       -2.474260    0.343704    0.345490
      2          6           0       -1.023738    0.311049    0.849811
      3          7           0       -0.363480   -0.843852    0.137584
      4          6           0       -1.353299   -1.456180   -0.771511
      5          6           0       -2.706931   -1.092014   -0.154680
      6          6           0        0.877309   -0.364786   -0.493594
      7          6           0        1.241393    0.879658    0.341826
      8          6           0       -0.127160    1.533932    0.582601
      9          1           0       -3.178788    0.649698    1.124494
     10          1           0       -2.566108    1.044514   -0.490920
     11          1           0       -1.006805    0.117718    1.930203
     12          1           0       -1.203578   -2.538704   -0.853178
     13          1           0       -1.269725   -1.034289   -1.787356
     14          1           0       -2.932537   -1.759911    0.685359
     15          1           0       -3.526010   -1.168815   -0.876457
     16          1           0        0.707525   -0.043341   -1.535971
     17          1           0        1.669041    0.563860    1.298338
     18          1           0       -0.120028    2.236442    1.422551
     19          8           0       -0.437454    2.231938   -0.632692
     20          1           0       -1.148098    2.864503   -0.440312
     21          8           0        2.188581    1.739686   -0.272470
     22          1           0        1.682934    2.237738   -0.941318
     23          6           0        1.953151   -1.449596   -0.501976
     24          1           0        1.670689   -2.246006   -1.207427
     25          1           0        2.906440   -1.027596   -0.838064
     26          8           0        2.159498   -1.989587    0.804587
     27          1           0        1.255617   -2.079756    1.163759
 ---------------------------------------------------------------------
 Rotational constants (GHZ):      1.2056974      0.9085041      0.6023652
 Standard basis: 6-31+G(d,p) (6D, 7F)
 There are   303 symmetry adapted basis functions of A   symmetry.
 Integral buffers will be    131072 words long.
 Raffenetti 2 integral format.
 Two-electron integral symmetry is turned on.
   303 basis functions,   489 primitive gaussians,   303 cartesian basis functions
    47 alpha electrons       47 beta electrons
       nuclear repulsion energy       810.6415690904 Hartrees.
 NAtoms=   27 NActive=   27 NUniq=   27 SFac= 1.00D+00 NAtFMM=   60 NAOKFM=F Big=F
 ------------------------------------------------------------------------------
 Polarizable Continuum Model (PCM)
 =================================
 Model                : PCM.
 Atomic radii         : UFF (Universal Force Field).
 Polarization charges : Total charges.
 Charge compensation  : None.
 Solution method      : Matrix inversion.
 Cavity type          : Scaled VdW (van der Waals Surface) (Alpha=1.100).
 Cavity algorithm     : GePol (No added spheres)
                        Default sphere list used, NSphG=   27.
                        Lebedev-Laikov grids with approx.  5.0 points / Ang**2.
                        Smoothing algorithm: Karplus/York (Gamma=1.0000).
                        Polarization charges: spherical gaussians, with
                                              point-specific exponents (IZeta= 3).
                        Self-potential: point-specific (ISelfS= 7).
                        Self-field    : sphere-specific E.n sum rule (ISelfD= 2).
 Solvent              : Water, Eps=  78.355300 Eps(inf)=   1.777849
 ------------------------------------------------------------------------------
 One-electron integrals computed using PRISM.
 NBasis=   303 RedAO= T  NBF=   303
 NBsUse=   303 1.00D-06 NBFU=   303
 Harris functional with IExCor=  908 diagonalized for initial guess.
 ExpMin= 4.38D-02 ExpMax= 5.48D+03 ExpMxC= 8.25D+02 IAcc=2 IRadAn=         4 AccDes= 0.00D+00
 HarFok:  IExCor=  908 AccDes= 0.00D+00 IRadAn=         4 IDoV= 1
 ScaDFX=  1.000000  1.000000  1.000000  1.000000
 FoFCou: FMM=F IPFlag=           0 FMFlag=      100000 FMFlg1=           0
         NFxFlg=           0 DoJE=T BraDBF=F KetDBF=T FulRan=T
         Omega=  0.000000  0.000000  1.000000  0.000000  0.000000 ICntrl=     500 IOpCl=  0
         NMat0=    1 NMatS0=    1 NMatT0=    0 NMatD0=    1 NMtDS0=    0 NMtDT0=    0
         I1Cent=           4 NGrid=           0.
 Petite list used in FoFCou.
 Initial guess orbital symmetries:
       Occupied  (A) (A) (A) (A) (A) (A) (A) (A) (A) (A) (A) (A)
                 (A) (A) (A) (A) (A) (A) (A) (A) (A) (A) (A) (A)
                 (A) (A) (A) (A) (A) (A) (A) (A) (A) (A) (A) (A)
                 (A) (A) (A) (A) (A) (A) (A) (A) (A) (A) (A)
       Virtual   (A) (A) (A) (A) (A) (A) (A) (A) (A) (A) (A) (A)
                 (A) (A) (A) (A) (A) (A) (A) (A) (A) (A) (A) (A)
                 (A) (A) (A) (A) (A) (A) (A) (A) (A) (A) (A) (A)
                 (A) (A) (A) (A) (A) (A) (A) (A) (A) (A) (A) (A)
                 (A) (A) (A) (A) (A) (A) (A) (A) (A) (A) (A) (A)
                 (A) (A) (A) (A) (A) (A) (A) (A) (A) (A) (A) (A)
                 (A) (A) (A) (A) (A) (A) (A) (A) (A) (A) (A) (A)
                 (A) (A) (A) (A) (A) (A) (A) (A) (A) (A) (A) (A)
                 (A) (A) (A) (A) (A) (A) (A) (A) (A) (A) (A) (A)
                 (A) (A) (A) (A) (A) (A) (A) (A) (A) (A) (A) (A)
                 (A) (A) (A) (A) (A) (A) (A) (A) (A) (A) (A) (A)
                 (A) (A) (A) (A) (A) (A) (A) (A) (A) (A) (A) (A)
                 (A) (A) (A) (A) (A) (A) (A) (A) (A) (A) (A) (A)
                 (A) (A) (A) (A) (A) (A) (A) (A) (A) (A) (A) (A)
                 (A) (A) (A) (A) (A) (A) (A) (A) (A) (A) (A) (A)
                 (A) (A) (A) (A) (A) (A) (A) (A) (A) (A) (A) (A)
                 (A) (A) (A) (A) (A) (A) (A) (A) (A) (A) (A) (A)
                 (A) (A) (A) (A) (A) (A) (A) (A) (A) (A) (A) (A)
                 (A) (A) (A) (A) (A) (A) (A) (A) (A) (A) (A) (A)
                 (A) (A) (A) (A) (A) (A) (A) (A) (A) (A) (A) (A)
                 (A) (A) (A) (A) (A) (A) (A) (A) (A) (A) (A) (A)
                 (A) (A) (A) (A)
 The electronic state of the initial guess is 1-A.
 Requested convergence on RMS density matrix=1.00D-08 within 128 cycles.
 Requested convergence on MAX density matrix=1.00D-06.
 Requested convergence on             energy=1.00D-06.
 No special actions if energy rises.
 Error on total polarization charges =  0.01407
 SCF Done:  E(RmPW1PW91) =  -594.204085500     A.U. after   13 cycles
             Convg  =    0.5854D-08             -V/T =  2.0094
 Range of M.O.s used for correlation:     1   303
 NBasis=   303 NAE=    47 NBE=    47 NFC=     0 NFV=     0
 NROrb=    303 NOA=    47 NOB=    47 NVA=   256 NVB=   256

 **** Warning!!: The largest alpha MO coefficient is  0.60476926D+02

 NEqPCM:  Using equilibrium solvation (IEInf=0, Eps=  78.3553, EpsInf=   1.7778)
          Differentiating once with respect to magnetic field using GIAOs.
          Electric field/nuclear overlap derivatives assumed to be zero.
 FoFCou: FMM=F IPFlag=           0 FMFlag=    10101102 FMFlg1=           0
         NFxFlg=    40000000 DoJE=F BraDBF=F KetDBF=T FulRan=T
         Omega=  0.000000  0.000000  1.000000  0.000000  0.000000 ICntrl=    6100 IOpCl=  0
         NMat0=    1 NMatS0=    1 NMatT0=    0 NMatD0=    1 NMtDS0=    0 NMtDT0=    0
         I1Cent=           7 NGrid=        1860.
 Symmetry not used in FoFCou.
          There are     3 degrees of freedom in the 1st order CPHF.  IDoFFX=0.
      3 vectors produced by pass  0 Test12= 4.01D-13 3.33D-08 XBig12= 3.01D+01 9.82D-01.
 AX will form     3 AO Fock derivatives at one time.
      3 vectors produced by pass  1 Test12= 4.01D-13 3.33D-08 XBig12= 7.52D-02 4.48D-02.
      3 vectors produced by pass  2 Test12= 4.01D-13 3.33D-08 XBig12= 1.53D-04 2.24D-03.
      3 vectors produced by pass  3 Test12= 4.01D-13 3.33D-08 XBig12= 6.02D-07 1.37D-04.
      3 vectors produced by pass  4 Test12= 4.01D-13 3.33D-08 XBig12= 1.97D-09 9.54D-06.
      3 vectors produced by pass  5 Test12= 4.01D-13 3.33D-08 XBig12= 6.48D-12 5.58D-07.
      1 vectors produced by pass  6 Test12= 4.01D-13 3.33D-08 XBig12= 2.39D-14 3.75D-08.
 Inverted reduced A of dimension    19 with in-core refinement.
 Calculating GIAO nuclear magnetic shielding tensors.
 SCF GIAO Magnetic shielding tensor (ppm):
      1  C    Isotropic =   170.0758   Anisotropy =    19.4901
   XX=   178.5583   YX=     2.7047   ZX=     4.8559
   XY=    -5.3231   YY=   175.8891   ZY=    17.4409
   XZ=     3.1327   YZ=    10.2957   ZZ=   155.7801
   Eigenvalues:   148.1378   179.0204   183.0692
      2  C    Isotropic =   127.6072   Anisotropy =    48.9336
   XX=   134.5952   YX=    -8.2656   ZX=    -4.2084
   XY=    -8.2576   YY=   147.5919   ZY=    23.2423
   XZ=    -7.1252   YZ=    21.3533   ZZ=   100.6346
   Eigenvalues:    91.6170   130.9750   160.2296
      3  N    Isotropic =   202.1996   Anisotropy =    68.2364
   XX=   243.9116   YX=     3.8358   ZX=   -18.8432
   XY=    13.7755   YY=   206.7215   ZY=    59.5916
   XZ=   -15.2919   YZ=    54.5536   ZZ=   155.9655
   Eigenvalues:   116.0268   242.8814   247.6905
      4  C    Isotropic =   139.6851   Anisotropy =    56.2970
   XX=   155.2852   YX=    13.3904   ZX=    17.8196
   XY=    23.1066   YY=   121.2632   ZY=    10.2003
   XZ=    17.3101   YZ=    18.5878   ZZ=   142.5070
   Eigenvalues:   111.5591   130.2798   177.2165
      5  C    Isotropic =   165.1670   Anisotropy =    22.8620
   XX=   179.0579   YX=    -0.3236   ZX=     0.0509
   XY=     4.1819   YY=   168.0207   ZY=    22.0625
   XZ=    -9.0756   YZ=    16.3529   ZZ=   148.4226
   Eigenvalues:   136.1097   178.9831   180.4084
      6  C    Isotropic =   122.8088   Anisotropy =    50.9274
   XX=   140.5644   YX=    18.2769   ZX=    -3.6931
   XY=    27.2548   YY=   114.1354   ZY=   -14.2077
   XZ=   -13.6644   YZ=    -1.7819   ZZ=   113.7266
   Eigenvalues:   100.4040   111.2620   156.7604
      7  C    Isotropic =   120.1853   Anisotropy =    57.6787
   XX=   138.3745   YX=    25.6183   ZX=   -27.2885
   XY=    17.7506   YY=   128.9218   ZY=     2.2360
   XZ=   -13.3616   YZ=     7.0352   ZZ=    93.2596
   Eigenvalues:    81.9340   119.9841   158.6378
      8  C    Isotropic =   121.3833   Anisotropy =    28.1951
   XX=   120.5063   YX=     5.2663   ZX=     3.5883
   XY=     2.6315   YY=   118.0274   ZY=   -18.3245
   XZ=    12.0579   YZ=   -16.0977   ZZ=   125.6162
   Eigenvalues:   100.8942   123.0757   140.1800
      9  H    Isotropic =    29.9041   Anisotropy =    11.6674
   XX=    32.6672   YX=    -1.9340   ZX=    -4.6908
   XY=    -2.9763   YY=    27.8198   ZY=     3.4677
   XZ=    -5.2527   YZ=     2.7203   ZZ=    29.2252
   Eigenvalues:    24.9365    27.0933    37.6823
     10  H    Isotropic =    29.6967   Anisotropy =     7.1813
   XX=    30.1852   YX=    -0.2742   ZX=     1.9584
   XY=    -0.0170   YY=    31.9416   ZY=    -3.8916
   XZ=     2.4622   YZ=    -4.0090   ZZ=    26.9634
   Eigenvalues:    24.1892    30.4168    34.4843
     11  H    Isotropic =    28.0267   Anisotropy =     8.6109
   XX=    25.9618   YX=    -1.0297   ZX=    -1.5404
   XY=    -0.5670   YY=    24.8029   ZY=     1.4921
   XZ=    -1.5836   YZ=     0.4144   ZZ=    33.3152
   Eigenvalues:    24.3932    25.9195    33.7673
     12  H    Isotropic =    28.3935   Anisotropy =     9.7719
   XX=    27.2339   YX=     1.0742   ZX=     1.0119
   XY=     0.3607   YY=    33.5752   ZY=     3.4282
   XZ=     1.0670   YZ=     3.6326   ZZ=    24.3715
   Eigenvalues:    23.0351    27.2373    34.9081
     13  H    Isotropic =    29.2700   Anisotropy =     8.4423
   XX=    28.0607   YX=     0.4018   ZX=     2.1650
   XY=     1.1664   YY=    25.5757   ZY=     1.9492
   XZ=     0.9382   YZ=     1.4039   ZZ=    34.1736
   Eigenvalues:    25.1701    27.7418    34.8982
     14  H    Isotropic =    29.5123   Anisotropy =    10.9818
   XX=    28.9286   YX=     3.3122   ZX=    -3.5188
   XY=     3.7646   YY=    31.6159   ZY=    -3.3667
   XZ=    -3.7228   YZ=    -3.6092   ZZ=    27.9925
   Eigenvalues:    24.7864    26.9171    36.8335
     15  H    Isotropic =    29.4805   Anisotropy =    11.7318
   XX=    33.9530   YX=     1.9017   ZX=     4.6167
   XY=     2.6779   YY=    26.8072   ZY=     2.2402
   XZ=     4.7570   YZ=     1.8052   ZZ=    27.6811
   Eigenvalues:    24.7846    26.3551    37.3016
     16  H    Isotropic =    29.0165   Anisotropy =     2.7550
   XX=    28.2860   YX=    -0.3992   ZX=    -1.7535
   XY=    -1.0872   YY=    28.6471   ZY=    -0.6315
   XZ=    -0.9308   YZ=    -0.6732   ZZ=    30.1165
   Eigenvalues:    27.0076    29.1888    30.8532
     17  H    Isotropic =    27.2079   Anisotropy =     3.3624
   XX=    26.6129   YX=     1.4898   ZX=     1.0657
   XY=     0.2190   YY=    27.4741   ZY=    -0.7009
   XZ=     3.5928   YZ=    -0.6807   ZZ=    27.5367
   Eigenvalues:    24.3177    27.8565    29.4495
     18  H    Isotropic =    27.6109   Anisotropy =     8.2796
   XX=    23.5720   YX=     0.0589   ZX=     1.1765
   XY=     0.1431   YY=    27.6727   ZY=     1.8660
   XZ=     1.1035   YZ=     3.6509   ZZ=    31.5880
   Eigenvalues:    23.3897    26.3125    33.1306
     19  O    Isotropic =   303.3285   Anisotropy =    42.8776
   XX=   305.6377   YX=   -19.5829   ZX=    -3.8898
   XY=   -16.8465   YY=   304.7442   ZY=    24.1187
   XZ=   -12.6303   YZ=     6.0041   ZZ=   299.6035
   Eigenvalues:   284.0735   293.9983   331.9136
     20  H    Isotropic =    29.7167   Anisotropy =    20.8231
   XX=    31.3613   YX=   -10.2084   ZX=    -1.4792
   XY=   -10.4565   YY=    34.8734   ZY=    -2.2229
   XZ=    -1.2727   YZ=    -0.4261   ZZ=    22.9153
   Eigenvalues:    20.8648    24.6864    43.5988
     21  O    Isotropic =   306.1173   Anisotropy =    34.3906
   XX=   301.5651   YX=    -0.7521   ZX=    14.1951
   XY=    25.5597   YY=   323.4453   ZY=   -10.9414
   XZ=    19.7073   YZ=    -4.2376   ZZ=   293.3414
   Eigenvalues:   276.0349   313.2726   329.0444
     22  H    Isotropic =    28.7948   Anisotropy =    14.8242
   XX=    30.6837   YX=    -1.2657   ZX=     2.9076
   XY=    -2.9158   YY=    27.0101   ZY=    -8.7843
   XZ=     2.2945   YZ=   -10.0196   ZZ=    28.6905
   Eigenvalues:    18.4070    29.2997    38.6775
     23  C    Isotropic =   135.8871   Anisotropy =    57.5486
   XX=   115.6934   YX=    -7.0621   ZX=     7.8467
   XY=    -7.7267   YY=   127.8629   ZY=   -19.8687
   XZ=     9.7057   YZ=   -17.9895   ZZ=   164.1051
   Eigenvalues:   112.2013   121.2072   174.2529
     24  H    Isotropic =    27.8134   Anisotropy =     7.7623
   XX=    25.0453   YX=    -1.9357   ZX=     0.9071
   XY=    -2.3458   YY=    27.6127   ZY=     2.3675
   XZ=     0.7266   YZ=     4.4549   ZZ=    30.7824
   Eigenvalues:    22.9765    27.4755    32.9883
     25  H    Isotropic =    27.8822   Anisotropy =     6.4978
   XX=    29.7711   YX=    -1.2513   ZX=    -2.7048
   XY=     0.5149   YY=    26.6316   ZY=    -1.6412
   XZ=    -4.1396   YZ=    -1.3644   ZZ=    27.2439
   Eigenvalues:    24.0426    27.3899    32.2141
     26  O    Isotropic =   329.0864   Anisotropy =    51.4943
   XX=   352.8296   YX=     5.1681   ZX=   -22.1628
   XY=    -3.3998   YY=   307.1009   ZY=    15.4639
   XZ=   -16.6393   YZ=    -1.2851   ZZ=   327.3287
   Eigenvalues:   303.6360   320.2072   363.4159
     27  H    Isotropic =    29.0463   Anisotropy =    16.4721
   XX=    38.2973   YX=    -0.7537   ZX=    -4.2971
   XY=    -1.8492   YY=    23.2056   ZY=    -6.7361
   XZ=    -5.5669   YZ=    -5.2840   ZZ=    25.6359
   Eigenvalues:    17.4434    29.6678    40.0277
 End of Minotr Frequency-dependent properties file   721 does not exist.
 End of Minotr Frequency-dependent properties file   722 does not exist.

 **********************************************************************

            Population analysis using the SCF density.

 **********************************************************************

 Orbital symmetries:
       Occupied  (A) (A) (A) (A) (A) (A) (A) (A) (A) (A) (A) (A)
                 (A) (A) (A) (A) (A) (A) (A) (A) (A) (A) (A) (A)
                 (A) (A) (A) (A) (A) (A) (A) (A) (A) (A) (A) (A)
                 (A) (A) (A) (A) (A) (A) (A) (A) (A) (A) (A)
       Virtual   (A) (A) (A) (A) (A) (A) (A) (A) (A) (A) (A) (A)
                 (A) (A) (A) (A) (A) (A) (A) (A) (A) (A) (A) (A)
                 (A) (A) (A) (A) (A) (A) (A) (A) (A) (A) (A) (A)
                 (A) (A) (A) (A) (A) (A) (A) (A) (A) (A) (A) (A)
                 (A) (A) (A) (A) (A) (A) (A) (A) (A) (A) (A) (A)
                 (A) (A) (A) (A) (A) (A) (A) (A) (A) (A) (A) (A)
                 (A) (A) (A) (A) (A) (A) (A) (A) (A) (A) (A) (A)
                 (A) (A) (A) (A) (A) (A) (A) (A) (A) (A) (A) (A)
                 (A) (A) (A) (A) (A) (A) (A) (A) (A) (A) (A) (A)
                 (A) (A) (A) (A) (A) (A) (A) (A) (A) (A) (A) (A)
                 (A) (A) (A) (A) (A) (A) (A) (A) (A) (A) (A) (A)
                 (A) (A) (A) (A) (A) (A) (A) (A) (A) (A) (A) (A)
                 (A) (A) (A) (A) (A) (A) (A) (A) (A) (A) (A) (A)
                 (A) (A) (A) (A) (A) (A) (A) (A) (A) (A) (A) (A)
                 (A) (A) (A) (A) (A) (A) (A) (A) (A) (A) (A) (A)
                 (A) (A) (A) (A) (A) (A) (A) (A) (A) (A) (A) (A)
                 (A) (A) (A) (A) (A) (A) (A) (A) (A) (A) (A) (A)
                 (A) (A) (A) (A) (A) (A) (A) (A) (A) (A) (A) (A)
                 (A) (A) (A) (A) (A) (A) (A) (A) (A) (A) (A) (A)
                 (A) (A) (A) (A) (A) (A) (A) (A) (A) (A) (A) (A)
                 (A) (A) (A) (A) (A) (A) (A) (A) (A) (A) (A) (A)
                 (A) (A) (A) (A)
 The electronic state is 1-A.
 Alpha  occ. eigenvalues --  -19.26585 -19.25647 -19.24787 -14.41656 -10.30714
 Alpha  occ. eigenvalues --  -10.30393 -10.29119 -10.28005 -10.27834 -10.27017
 Alpha  occ. eigenvalues --  -10.24760 -10.24708  -1.08071  -1.05322  -1.05010
 Alpha  occ. eigenvalues --   -0.96507  -0.82908  -0.79533  -0.74905  -0.71729
 Alpha  occ. eigenvalues --   -0.66692  -0.61995  -0.60576  -0.57830  -0.56116
 Alpha  occ. eigenvalues --   -0.53092  -0.51043  -0.49740  -0.49297  -0.48365
 Alpha  occ. eigenvalues --   -0.45747  -0.44652  -0.43791  -0.41894  -0.40018
 Alpha  occ. eigenvalues --   -0.39809  -0.39191  -0.37828  -0.36674  -0.35740
 Alpha  occ. eigenvalues --   -0.35110  -0.34438  -0.33061  -0.31033  -0.30161
 Alpha  occ. eigenvalues --   -0.28551  -0.23599
 Alpha virt. eigenvalues --    0.00241   0.01561   0.02013   0.02283   0.04220
 Alpha virt. eigenvalues --    0.04272   0.04629   0.05016   0.05565   0.07245
 Alpha virt. eigenvalues --    0.07484   0.08261   0.08607   0.09072   0.09374
 Alpha virt. eigenvalues --    0.09967   0.11375   0.12040   0.12302   0.13108
 Alpha virt. eigenvalues --    0.13512   0.14119   0.14765   0.15202   0.15542
 Alpha virt. eigenvalues --    0.16423   0.16535   0.16762   0.17658   0.18799
 Alpha virt. eigenvalues --    0.19060   0.19414   0.19935   0.20554   0.21079
 Alpha virt. eigenvalues --    0.21295   0.21953   0.22108   0.22692   0.23156
 Alpha virt. eigenvalues --    0.23826   0.24218   0.24964   0.25808   0.26194
 Alpha virt. eigenvalues --    0.26547   0.27171   0.27255   0.28612   0.28671
 Alpha virt. eigenvalues --    0.29404   0.29883   0.30584   0.31575   0.31813
 Alpha virt. eigenvalues --    0.32907   0.33264   0.33522   0.34215   0.34692
 Alpha virt. eigenvalues --    0.35418   0.35847   0.36132   0.37588   0.38157
 Alpha virt. eigenvalues --    0.39453   0.39747   0.40558   0.40730   0.41421
 Alpha virt. eigenvalues --    0.42259   0.43263   0.44693   0.45830   0.47720
 Alpha virt. eigenvalues --    0.48846   0.64982   0.65762   0.67318   0.67948
 Alpha virt. eigenvalues --    0.69540   0.70757   0.71393   0.72891   0.74427
 Alpha virt. eigenvalues --    0.75499   0.76792   0.77838   0.80264   0.81683
 Alpha virt. eigenvalues --    0.82523   0.83529   0.86580   0.87027   0.89620
 Alpha virt. eigenvalues --    0.91084   0.92373   0.93535   0.94951   0.96438
 Alpha virt. eigenvalues --    0.99012   0.99777   1.02177   1.02402   1.05178
 Alpha virt. eigenvalues --    1.05774   1.06817   1.09014   1.10054   1.10591
 Alpha virt. eigenvalues --    1.11500   1.12540   1.13663   1.14492   1.16308
 Alpha virt. eigenvalues --    1.17440   1.18793   1.20576   1.22814   1.24693
 Alpha virt. eigenvalues --    1.27225   1.27396   1.29934   1.31841   1.32579
 Alpha virt. eigenvalues --    1.35580   1.36332   1.37688   1.39736   1.41221
 Alpha virt. eigenvalues --    1.43236   1.45014   1.46730   1.48055   1.50511
 Alpha virt. eigenvalues --    1.53805   1.55754   1.58697   1.59295   1.61385
 Alpha virt. eigenvalues --    1.62679   1.64104   1.65934   1.69276   1.70366
 Alpha virt. eigenvalues --    1.70815   1.73967   1.76623   1.77453   1.79853
 Alpha virt. eigenvalues --    1.81774   1.83299   1.83940   1.85952   1.87615
 Alpha virt. eigenvalues --    1.89164   1.90807   1.93261   1.94550   1.95504
 Alpha virt. eigenvalues --    1.98165   1.98936   2.01917   2.04608   2.05010
 Alpha virt. eigenvalues --    2.05811   2.06645   2.08915   2.09905   2.12098
 Alpha virt. eigenvalues --    2.13821   2.15734   2.16344   2.16755   2.19454
 Alpha virt. eigenvalues --    2.19800   2.23392   2.24128   2.26849   2.28321
 Alpha virt. eigenvalues --    2.28920   2.30197   2.34994   2.38285   2.40047
 Alpha virt. eigenvalues --    2.42244   2.44216   2.45640   2.46666   2.47488
 Alpha virt. eigenvalues --    2.49512   2.50600   2.51316   2.53530   2.54935
 Alpha virt. eigenvalues --    2.56976   2.60101   2.61395   2.61890   2.63032
 Alpha virt. eigenvalues --    2.64851   2.66602   2.67778   2.67986   2.68843
 Alpha virt. eigenvalues --    2.70803   2.72244   2.74580   2.75760   2.78279
 Alpha virt. eigenvalues --    2.78442   2.80064   2.83123   2.84115   2.85006
 Alpha virt. eigenvalues --    2.86382   2.86854   2.90219   2.92503   2.95284
 Alpha virt. eigenvalues --    2.98439   3.01151   3.01732   3.02671   3.05785
 Alpha virt. eigenvalues --    3.07284   3.08654   3.11945   3.15128   3.32031
 Alpha virt. eigenvalues --    3.35109   3.36285   3.36941   3.43834   3.46386
 Alpha virt. eigenvalues --    3.48749   3.50320   3.51271   3.53698   3.55720
 Alpha virt. eigenvalues --    3.57188   3.58323   3.61513   3.63731   4.28310
 Alpha virt. eigenvalues --    4.32278   4.38202   4.46577   4.50155   4.52126
 Alpha virt. eigenvalues --    4.58422   4.72870   4.79096   4.79900   4.90722
 Alpha virt. eigenvalues --    5.00806
          Condensed to atoms (all electrons):
              1          2          3          4          5          6
     1  C    5.888397  -0.580896   0.075589  -0.251739   0.249609  -0.047291
     2  C   -0.580896   8.569711  -0.161645  -0.197530   0.106594  -0.509044
     3  N    0.075589  -0.161645   7.682716   0.247108  -0.171040  -0.784021
     4  C   -0.251739  -0.197530   0.247108   5.595842   0.203946  -0.290274
     5  C    0.249609   0.106594  -0.171040   0.203946   5.428798   0.088048
     6  C   -0.047291  -0.509044  -0.784021  -0.290274   0.088048  10.726097
     7  C    0.162697  -0.004578   0.236448  -0.006230  -0.134103  -2.287485
     8  C    0.036825  -1.086806  -0.235931   0.100751  -0.019166   0.913744
     9  H    0.377303  -0.053119   0.011475   0.024682  -0.030161   0.005194
    10  H    0.490189  -0.209350   0.029043   0.014726  -0.054155   0.002563
    11  H    0.055800   0.118038  -0.013149   0.011063  -0.018668   0.053650
    12  H    0.029216   0.006696  -0.054498   0.374517  -0.028134   0.006140
    13  H    0.011468  -0.008273  -0.078255   0.446431  -0.044341  -0.026391
    14  H   -0.024945  -0.046324   0.016052  -0.036196   0.406172   0.003536
    15  H   -0.069280   0.051170   0.003246  -0.021846   0.380987  -0.003879
    16  H    0.001564   0.029594  -0.018053   0.031594   0.002200   0.132958
    17  H    0.011041  -0.000787   0.060170   0.010085   0.000252  -0.251249
    18  H   -0.000978  -0.049598   0.018415   0.002800  -0.000212   0.026326
    19  O    0.035025  -0.112252   0.049092   0.022316  -0.013286   0.025338
    20  H    0.006340  -0.063821  -0.003589  -0.002362  -0.000487   0.001199
    21  O    0.002773   0.024978   0.010254  -0.003398   0.001738  -0.138266
    22  H    0.003850   0.009083   0.009437   0.002048  -0.000416  -0.092712
    23  C    0.002562   0.174549   0.227516  -0.030864  -0.009103  -1.372144
    24  H    0.001050  -0.007879  -0.016288   0.016810   0.005932  -0.015917
    25  H    0.000445   0.013586   0.019006  -0.004623  -0.001282  -0.248344
    26  O    0.005936  -0.017010   0.048405   0.001116  -0.001167  -0.222661
    27  H    0.000798   0.021125   0.051474   0.006482  -0.004895  -0.101373
              7          8          9         10         11         12
     1  C    0.162697   0.036825   0.377303   0.490189   0.055800   0.029216
     2  C   -0.004578  -1.086806  -0.053119  -0.209350   0.118038   0.006696
     3  N    0.236448  -0.235931   0.011475   0.029043  -0.013149  -0.054498
     4  C   -0.006230   0.100751   0.024682   0.014726   0.011063   0.374517
     5  C   -0.134103  -0.019166  -0.030161  -0.054155  -0.018668  -0.028134
     6  C   -2.287485   0.913744   0.005194   0.002563   0.053650   0.006140
     7  C    8.065559  -0.735791  -0.006572  -0.004203  -0.055971   0.001719
     8  C   -0.735791   6.593686   0.014449   0.043453   0.118400  -0.007932
     9  H   -0.006572   0.014449   0.513395  -0.024981  -0.004693  -0.000102
    10  H   -0.004203   0.043453  -0.024981   0.525606   0.004181  -0.000037
    11  H   -0.055971   0.118400  -0.004693   0.004181   0.558694   0.000178
    12  H    0.001719  -0.007932  -0.000102  -0.000037   0.000178   0.540468
    13  H    0.017387  -0.000243  -0.000149   0.001271  -0.000458  -0.041643
    14  H   -0.000567   0.011265  -0.005128   0.004097   0.000750  -0.006018
    15  H    0.002261  -0.002255   0.000510  -0.005585  -0.000110   0.000716
    16  H    0.082727  -0.047911  -0.000008  -0.000139  -0.000583  -0.001008
    17  H    0.538024  -0.098912   0.000002  -0.000011   0.000064   0.000006
    18  H   -0.041215   0.367386   0.000248   0.000222  -0.001932   0.000004
    19  O   -0.150457   0.104963  -0.001184   0.010397   0.005867   0.000064
    20  H    0.017616   0.063139   0.000042   0.000364   0.000082  -0.000001
    21  O    0.304521  -0.073903   0.000017  -0.000154  -0.000503   0.000011
    22  H    0.107652  -0.083352   0.000000   0.000000  -0.000017   0.000000
    23  C    0.225787  -0.210347   0.000302  -0.001401  -0.003317   0.010217
    24  H   -0.011292  -0.004736   0.000000   0.000001   0.000009   0.000063
    25  H    0.052607  -0.016599   0.000000   0.000000  -0.000004  -0.000010
    26  O    0.045800  -0.023548   0.000002   0.000026   0.001486   0.001237
    27  H   -0.003329  -0.011609  -0.000001  -0.000001  -0.000627  -0.000387
             13         14         15         16         17         18
     1  C    0.011468  -0.024945  -0.069280   0.001564   0.011041  -0.000978
     2  C   -0.008273  -0.046324   0.051170   0.029594  -0.000787  -0.049598
     3  N   -0.078255   0.016052   0.003246  -0.018053   0.060170   0.018415
     4  C    0.446431  -0.036196  -0.021846   0.031594   0.010085   0.002800
     5  C   -0.044341   0.406172   0.380987   0.002200   0.000252  -0.000212
     6  C   -0.026391   0.003536  -0.003879   0.132958  -0.251249   0.026326
     7  C    0.017387  -0.000567   0.002261   0.082727   0.538024  -0.041215
     8  C   -0.000243   0.011265  -0.002255  -0.047911  -0.098912   0.367386
     9  H   -0.000149  -0.005128   0.000510  -0.000008   0.000002   0.000248
    10  H    0.001271   0.004097  -0.005585  -0.000139  -0.000011   0.000222
    11  H   -0.000458   0.000750  -0.000110  -0.000583   0.000064  -0.001932
    12  H   -0.041643  -0.006018   0.000716  -0.001008   0.000006   0.000004
    13  H    0.572886   0.004030  -0.004517   0.012742  -0.000013  -0.000014
    14  H    0.004030   0.519537  -0.024505  -0.000009  -0.000002  -0.000001
    15  H   -0.004517  -0.024505   0.514500  -0.000016   0.000000   0.000002
    16  H    0.012742  -0.000009  -0.000016   0.589387   0.004453  -0.000202
    17  H   -0.000013  -0.000002   0.000000   0.004453   0.526053  -0.004377
    18  H   -0.000014  -0.000001   0.000002  -0.000202  -0.004377   0.548111
    19  O    0.000834   0.000094   0.000171   0.008981   0.009564  -0.038206
    20  H    0.000021   0.000000   0.000001  -0.000033  -0.000180  -0.008161
    21  O   -0.000026  -0.000006  -0.000008   0.001716  -0.047412   0.002201
    22  H   -0.000003   0.000000   0.000000   0.002816   0.006444  -0.000212
    23  C   -0.015194  -0.001159   0.000987   0.001169   0.032529   0.006083
    24  H    0.000120   0.000004   0.000000  -0.001702   0.000127   0.000003
    25  H    0.000006   0.000000   0.000000   0.001657   0.000605  -0.000003
    26  O   -0.000269   0.000050  -0.000007   0.009352   0.013123   0.000223
    27  H    0.000114  -0.000003  -0.000001   0.000720   0.000004  -0.000015
             19         20         21         22         23         24
     1  C    0.035025   0.006340   0.002773   0.003850   0.002562   0.001050
     2  C   -0.112252  -0.063821   0.024978   0.009083   0.174549  -0.007879
     3  N    0.049092  -0.003589   0.010254   0.009437   0.227516  -0.016288
     4  C    0.022316  -0.002362  -0.003398   0.002048  -0.030864   0.016810
     5  C   -0.013286  -0.000487   0.001738  -0.000416  -0.009103   0.005932
     6  C    0.025338   0.001199  -0.138266  -0.092712  -1.372144  -0.015917
     7  C   -0.150457   0.017616   0.304521   0.107652   0.225787  -0.011292
     8  C    0.104963   0.063139  -0.073903  -0.083352  -0.210347  -0.004736
     9  H   -0.001184   0.000042   0.000017   0.000000   0.000302   0.000000
    10  H    0.010397   0.000364  -0.000154   0.000000  -0.001401   0.000001
    11  H    0.005867   0.000082  -0.000503  -0.000017  -0.003317   0.000009
    12  H    0.000064  -0.000001   0.000011   0.000000   0.010217   0.000063
    13  H    0.000834   0.000021  -0.000026  -0.000003  -0.015194   0.000120
    14  H    0.000094   0.000000  -0.000006   0.000000  -0.001159   0.000004
    15  H    0.000171   0.000001  -0.000008   0.000000   0.000987   0.000000
    16  H    0.008981  -0.000033   0.001716   0.002816   0.001169  -0.001702
    17  H    0.009564  -0.000180  -0.047412   0.006444   0.032529   0.000127
    18  H   -0.038206  -0.008161   0.002201  -0.000212   0.006083   0.000003
    19  O    8.396128   0.241293   0.002384   0.025008   0.031103   0.000180
    20  H    0.241293   0.347887  -0.001031  -0.000403  -0.002834   0.000000
    21  O    0.002384  -0.001031   8.170362   0.258531   0.009080  -0.000532
    22  H    0.025008  -0.000403   0.258531   0.356234   0.010499  -0.000010
    23  C    0.031103  -0.002834   0.009080   0.010499   6.045564   0.388625
    24  H    0.000180   0.000000  -0.000532  -0.000010   0.388625   0.587073
    25  H   -0.000065   0.000000   0.007566  -0.000006   0.555603  -0.040208
    26  O    0.001349  -0.000006  -0.001471   0.000330   0.266668  -0.049893
    27  H    0.000000   0.000000   0.000475  -0.000005   0.043950  -0.003495
             25         26         27
     1  C    0.000445   0.005936   0.000798
     2  C    0.013586  -0.017010   0.021125
     3  N    0.019006   0.048405   0.051474
     4  C   -0.004623   0.001116   0.006482
     5  C   -0.001282  -0.001167  -0.004895
     6  C   -0.248344  -0.222661  -0.101373
     7  C    0.052607   0.045800  -0.003329
     8  C   -0.016599  -0.023548  -0.011609
     9  H    0.000000   0.000002  -0.000001
    10  H    0.000000   0.000026  -0.000001
    11  H   -0.000004   0.001486  -0.000627
    12  H   -0.000010   0.001237  -0.000387
    13  H    0.000006  -0.000269   0.000114
    14  H    0.000000   0.000050  -0.000003
    15  H    0.000000  -0.000007  -0.000001
    16  H    0.001657   0.009352   0.000720
    17  H    0.000605   0.013123   0.000004
    18  H   -0.000003   0.000223  -0.000015
    19  O   -0.000065   0.001349   0.000000
    20  H    0.000000  -0.000006   0.000000
    21  O    0.007566  -0.001471   0.000475
    22  H   -0.000006   0.000330  -0.000005
    23  C    0.555603   0.266668   0.043950
    24  H   -0.040208  -0.049893  -0.003495
    25  H    0.543297  -0.053390   0.006262
    26  O   -0.053390   8.289435   0.248659
    27  H    0.006262   0.248659   0.357007
 Mulliken atomic charges:
              1
     1  C   -0.473348
     2  C   -0.016213
     3  N   -0.258977
     4  C   -0.267254
     5  C   -0.343660
     6  C    0.406258
     7  C   -0.419016
     8  C    0.290980
     9  H    0.178478
    10  H    0.173878
    11  H    0.171767
    12  H    0.168518
    13  H    0.152479
    14  H    0.179277
    15  H    0.177457
    16  H    0.156033
    17  H    0.190396
    18  H    0.173100
    19  O   -0.654702
    20  H    0.404925
    21  O   -0.529895
    22  H    0.385203
    23  C   -0.386429
    24  H    0.151955
    25  H    0.163893
    26  O   -0.563776
    27  H    0.388671
 Sum of Mulliken atomic charges =   0.00000
 Mulliken charges with hydrogens summed into heavy atoms:
              1
     1  C   -0.120991
     2  C    0.155554
     3  N   -0.258977
     4  C    0.053743
     5  C    0.013074
     6  C    0.562292
     7  C   -0.228621
     8  C    0.464081
    19  O   -0.249778
    21  O   -0.144692
    23  C   -0.070581
    26  O   -0.175105
 Sum of Mulliken charges with hydrogens summed into heavy atoms =   0.00000
 Electronic spatial extent (au):  <R**2>=           2010.1080
 Charge=              0.0000 electrons
 Dipole moment (field-independent basis, Debye):
    X=             -6.4307    Y=              1.9987    Z=             -0.4960  Tot=              6.7524
 Quadrupole moment (field-independent basis, Debye-Ang):
   XX=            -82.0368   YY=            -71.8619   ZZ=            -70.7234
   XY=             -1.3530   XZ=             -4.8155   YZ=              4.4430
 Traceless Quadrupole moment (field-independent basis, Debye-Ang):
   XX=             -7.1627   YY=              3.0121   ZZ=              4.1506
   XY=             -1.3530   XZ=             -4.8155   YZ=              4.4430
 Octapole moment (field-independent basis, Debye-Ang**2):
  XXX=            -41.7151  YYY=             35.7900  ZZZ=              2.8622  XYY=            -31.8308
  XXY=             10.7001  XXZ=            -12.6332  XZZ=              1.8100  YZZ=              4.7726
  YYZ=             -6.6619  XYZ=              5.0590
 Hexadecapole moment (field-independent basis, Debye-Ang**3):
 XXXX=          -1446.0188 YYYY=           -886.1413 ZZZZ=           -272.5796 XXXY=             -5.5639
 XXXZ=            -24.9304 YYYX=            -16.5535 YYYZ=             -9.3905 ZZZX=             -2.2781
 ZZZY=            -12.3391 XXYY=           -428.7907 XXZZ=           -271.3597 YYZZ=           -195.1573
 XXYZ=             15.6302 YYXZ=            -21.9429 ZZXY=              8.3093
 N-N= 8.106415690904D+02 E-N=-3.007048223683D+03  KE= 5.886643753033D+02
 1\1\GINC-COMPUTE-3-1\SP\RmPW1PW91\6-31+G(d,p)\C8H15N1O3\MAMICHETTI.IQU
 IR\17-May-2024\0\\# mpw1pw91/6-31+G** nmr scrf=(pcm,solvent=water)\\co
 mment\\0,1\C,0,-2.47426,0.343705,0.34549\C,0,-1.023738,0.311049,0.8498
 11\N,0,-0.36348,-0.843852,0.137584\C,0,-1.353299,-1.45618,-0.771511\C,
 0,-2.706931,-1.092013,-0.15468\C,0,0.877309,-0.364786,-0.493594\C,0,1.
 241393,0.879658,0.341826\C,0,-0.12716,1.533932,0.582601\H,0,-3.178788,
 0.649699,1.124494\H,0,-2.566108,1.044515,-0.49092\H,0,-1.006805,0.1177
 18,1.930203\H,0,-1.203579,-2.538704,-0.853178\H,0,-1.269725,-1.034289,
 -1.787356\H,0,-2.932537,-1.75991,0.685359\H,0,-3.52601,-1.168814,-0.87
 6457\H,0,0.707525,-0.043341,-1.535971\H,0,1.669041,0.56386,1.298338\H,
 0,-0.120028,2.236442,1.422551\O,0,-0.437454,2.231938,-0.632692\H,0,-1.
 148097,2.864503,-0.440312\O,0,2.188581,1.739686,-0.27247\H,0,1.682934,
 2.237738,-0.941318\C,0,1.953151,-1.449596,-0.501976\H,0,1.670689,-2.24
 6006,-1.207427\H,0,2.90644,-1.027597,-0.838064\O,0,2.159498,-1.989587,
 0.804587\H,0,1.255617,-2.079756,1.163759\\Version=AM64L-G09RevC.01\Sta
 te=1-A\HF=-594.2040855\RMSD=5.854e-09\Dipole=-2.5300221,0.7863578,-0.1
 951585\Quadrupole=-5.3253244,2.2394335,3.085891,-1.0058872,-3.5801709,
 3.3032862\PG=C01 [X(C8H15N1O3)]\\@


  THE LARGE PRINT GIVETH,
  AND THE SMALL PRINT TAKETH AWAY.

                     -- TOM WAITS
 Job cpu time:  0 days  0 hours  8 minutes 46.6 seconds.
 File lengths (MBytes):  RWF=    115 Int=      0 D2E=      0 Chk=      7 Scr=      1
 Normal termination of Gaussian 09 at Fri May 17 12:10:03 2024.
