 Entering Gaussian System, Link 0=g09
 Input=/home/mamichetti.iquir/Linux/01_Cardona_A1A3_R__S_R_R_034_OptB.gjc
 Output=/home/mamichetti.iquir/Linux/01_Cardona_A1A3_R__S_R_R_034_OptB.log
 Initial command:
 /opt/ohpc/pub/apps/software/Gaussian/09/AMD64.SSE4a-enabled/g09/l1.exe /local/mamichetti.iquir/Gau-406969.inp -scrdir=/local/mamichetti.iquir/
 Entering Link 1 = /opt/ohpc/pub/apps/software/Gaussian/09/AMD64.SSE4a-enabled/g09/l1.exe PID=    406970.
  
 Copyright (c) 1988,1990,1992,1993,1995,1998,2003,2009,2011,
            Gaussian, Inc.  All Rights Reserved.
  
 This is part of the Gaussian(R) 09 program.  It is based on
 the Gaussian(R) 03 system (copyright 2003, Gaussian, Inc.),
 the Gaussian(R) 98 system (copyright 1998, Gaussian, Inc.),
 the Gaussian(R) 94 system (copyright 1995, Gaussian, Inc.),
 the Gaussian 92(TM) system (copyright 1992, Gaussian, Inc.),
 the Gaussian 90(TM) system (copyright 1990, Gaussian, Inc.),
 the Gaussian 88(TM) system (copyright 1988, Gaussian, Inc.),
 the Gaussian 86(TM) system (copyright 1986, Carnegie Mellon
 University), and the Gaussian 82(TM) system (copyright 1983,
 Carnegie Mellon University). Gaussian is a federally registered
 trademark of Gaussian, Inc.
  
 This software contains proprietary and confidential information,
 including trade secrets, belonging to Gaussian, Inc.
  
 This software is provided under written license and may be
 used, copied, transmitted, or stored only in accord with that
 written license.
  
 The following legend is applicable only to US Government
 contracts under FAR:
  
                    RESTRICTED RIGHTS LEGEND
  
 Use, reproduction and disclosure by the US Government is
 subject to restrictions as set forth in subparagraphs (a)
 and (c) of the Commercial Computer Software - Restricted
 Rights clause in FAR 52.227-19.
  
 Gaussian, Inc.
 340 Quinnipiac St., Bldg. 40, Wallingford CT 06492
  
  
 ---------------------------------------------------------------
 Warning -- This program may not be used in any manner that
 competes with the business of Gaussian, Inc. or will provide
 assistance to any competitor of Gaussian, Inc.  The licensee
 of this program is prohibited from giving any competitor of
 Gaussian, Inc. access to this program.  By using this program,
 the user acknowledges that Gaussian, Inc. is engaged in the
 business of creating and licensing software in the field of
 computational chemistry and represents and warrants to the
 licensee that it is not a competitor of Gaussian, Inc. and that
 it will not use this program in any manner prohibited above.
 ---------------------------------------------------------------
  

 Cite this work as:
 Gaussian 09, Revision C.01,
 M. J. Frisch, G. W. Trucks, H. B. Schlegel, G. E. Scuseria, 
 M. A. Robb, J. R. Cheeseman, G. Scalmani, V. Barone, B. Mennucci, 
 G. A. Petersson, H. Nakatsuji, M. Caricato, X. Li, H. P. Hratchian, 
 A. F. Izmaylov, J. Bloino, G. Zheng, J. L. Sonnenberg, M. Hada, 
 M. Ehara, K. Toyota, R. Fukuda, J. Hasegawa, M. Ishida, T. Nakajima, 
 Y. Honda, O. Kitao, H. Nakai, T. Vreven, J. A. Montgomery, Jr., 
 J. E. Peralta, F. Ogliaro, M. Bearpark, J. J. Heyd, E. Brothers, 
 K. N. Kudin, V. N. Staroverov, T. Keith, R. Kobayashi, J. Normand, 
 K. Raghavachari, A. Rendell, J. C. Burant, S. S. Iyengar, J. Tomasi, 
 M. Cossi, N. Rega, J. M. Millam, M. Klene, J. E. Knox, J. B. Cross, 
 V. Bakken, C. Adamo, J. Jaramillo, R. Gomperts, R. E. Stratmann, 
 O. Yazyev, A. J. Austin, R. Cammi, C. Pomelli, J. W. Ochterski, 
 R. L. Martin, K. Morokuma, V. G. Zakrzewski, G. A. Voth, 
 P. Salvador, J. J. Dannenberg, S. Dapprich, A. D. Daniels, 
 O. Farkas, J. B. Foresman, J. V. Ortiz, J. Cioslowski, 
 and D. J. Fox, Gaussian, Inc., Wallingford CT, 2010.
 
 ******************************************
 Gaussian 09:  AM64L-G09RevC.01 23-Sep-2011
                17-May-2024 
 ******************************************
 %nprocshared=4
 Will use up to    4 processors via shared memory.
 ------------------------------------------------
 # mpw1pw91/6-31+G** nmr scrf=(pcm,solvent=water)
 ------------------------------------------------
 1/38=1/1;
 2/12=2,17=6,18=5,40=1/2;
 3/5=1,6=6,7=111,11=2,16=1,25=1,30=1,70=2201,72=1,74=-7/1,2,8,3;
 4//1;
 5/5=2,38=5,53=1/2;
 8/6=1,10=90,11=11/1;
 10/13=100,45=16/2;
 6/7=2,8=2,9=2,10=2,28=1/1;
 99/9=1/99;
 -------
 comment
 -------
 Charge =  0 Multiplicity = 1
 Symbolic Z-Matrix:
 6                    -1.89323   1.13109  -0.36066 
 6                    -0.70205   0.33836  -0.92884 
 7                     0.50881   0.81792  -0.1732 
 6                     0.07372   1.9086    0.73928 
 6                    -1.22613   2.42671   0.12269 
 6                     1.14017  -0.34676   0.50131 
 6                     0.09349  -1.46113   0.52377 
 6                    -0.72295  -1.19731  -0.75963 
 1                    -2.67605   1.29507  -1.10723 
 1                    -2.34012   0.60584   0.48889 
 1                    -0.58795   0.58248  -1.99093 
 1                     0.84995   2.67786   0.81869 
 1                    -0.1196    1.52487   1.75123 
 1                    -1.01046   3.08709  -0.72629 
 1                    -1.83435   2.98521   0.84093 
 1                     1.42682  -0.06381   1.51952 
 1                     0.54625  -2.46312   0.52018 
 1                    -0.22147  -1.67263  -1.60917 
 8                    -2.06246  -1.68626  -0.65562 
 1                    -2.03158  -2.6448   -0.81543 
 8                    -0.75205  -1.31295   1.66851 
 1                    -1.63086  -1.61383   1.36407 
 6                     2.41322  -0.7464   -0.25798 
 1                     3.00006  -1.46319   0.32528 
 1                     2.15621  -1.22215  -1.21763 
 8                     3.22524   0.40609  -0.47502 
 1                     2.56815   1.08571  -0.73235 
 
                          Input orientation:                          
 ---------------------------------------------------------------------
 Center     Atomic      Atomic             Coordinates (Angstroms)
 Number     Number       Type             X           Y           Z
 ---------------------------------------------------------------------
      1          6           0       -1.893234    1.131090   -0.360662
      2          6           0       -0.702047    0.338355   -0.928843
      3          7           0        0.508812    0.817915   -0.173197
      4          6           0        0.073719    1.908602    0.739280
      5          6           0       -1.226125    2.426709    0.122693
      6          6           0        1.140171   -0.346762    0.501309
      7          6           0        0.093494   -1.461134    0.523774
      8          6           0       -0.722954   -1.197314   -0.759628
      9          1           0       -2.676048    1.295073   -1.107228
     10          1           0       -2.340116    0.605839    0.488894
     11          1           0       -0.587947    0.582478   -1.990929
     12          1           0        0.849945    2.677858    0.818694
     13          1           0       -0.119597    1.524871    1.751228
     14          1           0       -1.010461    3.087086   -0.726288
     15          1           0       -1.834348    2.985208    0.840925
     16          1           0        1.426822   -0.063805    1.519524
     17          1           0        0.546254   -2.463115    0.520177
     18          1           0       -0.221474   -1.672627   -1.609169
     19          8           0       -2.062461   -1.686256   -0.655620
     20          1           0       -2.031579   -2.644796   -0.815425
     21          8           0       -0.752047   -1.312947    1.668512
     22          1           0       -1.630857   -1.613832    1.364067
     23          6           0        2.413218   -0.746399   -0.257982
     24          1           0        3.000059   -1.463191    0.325283
     25          1           0        2.156209   -1.222151   -1.217628
     26          8           0        3.225239    0.406091   -0.475024
     27          1           0        2.568154    1.085714   -0.732347
 ---------------------------------------------------------------------
                    Distance matrix (angstroms):
                    1          2          3          4          5
     1  C    0.000000
     2  C    1.539540   0.000000
     3  N    2.429619   1.505709   0.000000
     4  C    2.383968   2.418703   1.487117   0.000000
     5  C    1.535349   2.396165   2.384486   1.529120   0.000000
     6  C    3.482612   2.430738   1.486622   2.506116   3.665358
     7  C    3.383628   2.445637   2.419157   3.376678   4.125237
     8  C    2.636322   1.545105   2.433577   3.539509   3.763670
     9  H    1.094097   2.200866   3.353122   3.368565   2.212596
    10  H    1.094229   2.182841   2.932530   2.754357   2.165790
    11  H    2.159287   1.095738   2.135992   3.106517   2.876779
    12  H    3.362797   3.306938   2.135324   1.095714   2.203987
    13  H    2.785845   2.988285   2.144317   1.099390   2.165604
    14  H    2.176899   2.773386   2.786259   2.170751   1.096986
    15  H    2.210211   3.379351   3.349030   2.193201   1.094401
    16  H    3.998205   3.269299   2.117894   2.515961   3.897682
    17  H    4.432301   3.392071   3.353704   4.402636   5.216292
    18  H    3.494908   2.176659   2.966165   4.292733   4.562151
    19  O    2.837794   2.454471   3.621471   4.408176   4.268690
    20  H    3.805688   3.267982   4.342397   5.251935   5.220056
    21  O    3.375377   3.078238   3.085811   3.453077   4.074228
    22  H    3.252404   3.151374   3.585353   3.962762   4.246268
    23  C    4.699046   3.366247   2.465974   3.676522   4.843382
    24  H    5.580782   4.303950   3.414416   4.483731   5.747434
    25  H    4.761315   3.269282   2.822521   4.238852   5.152749
    26  O    5.170829   3.954000   2.763996   3.696505   4.924917
    27  H    4.477074   3.360263   2.150640   3.010820   4.114112
                    6          7          8          9         10
     6  C    0.000000
     7  C    1.529007   0.000000
     8  C    2.405127   1.543797   0.000000
     9  H    4.454946   4.234053   3.185498   0.000000
    10  H    3.608324   3.193126   2.724955   1.770734   0.000000
    11  H    3.171928   3.311260   2.168407   2.376738   3.036472
    12  H    3.055043   4.217873   4.470131   4.248988   3.818183
    13  H    2.579210   3.235472   3.752163   3.841747   2.714556
    14  H    4.233618   4.844345   4.294165   2.476006   3.066144
    15  H    4.479411   4.856657   4.614158   2.712990   2.457870
    16  H    1.094986   2.172973   3.331803   5.057659   3.962378
    17  H    2.198191   1.099532   2.202508   5.211109   4.213145
    18  H    2.840090   2.166421   1.095045   3.883828   3.752588
    19  O    3.659178   2.467750   1.429742   3.077135   2.576956
    20  H    4.132160   2.776769   1.952131   4.002881   3.516116
    21  O    2.424122   1.430847   2.431066   4.267116   2.755939
    22  H    3.166767   1.924265   2.346882   3.957455   2.489160
    23  C    1.535214   2.550119   3.207888   5.548825   4.998055
    24  H    2.176369   2.913335   3.886972   6.471344   5.729321
    25  H    2.180226   2.710053   2.915469   5.449708   5.144969
    26  O    2.422297   3.780470   4.270847   6.001263   5.651744
    27  H    2.369183   3.766725   4.005540   5.261751   5.080632
                   11         12         13         14         15
    11  H    0.000000
    12  H    3.788421   0.000000
    13  H    3.887312   1.771725   0.000000
    14  H    2.837410   2.452661   3.061411   0.000000
    15  H    3.917400   2.701923   2.429322   1.773507   0.000000
    16  H    4.098812   2.888021   2.229123   4.572979   4.515773
    17  H    4.107031   5.158580   4.226450   5.897607   5.954357
    18  H    2.316364   5.095996   4.639681   4.904778   5.504521
    19  O    3.017349   5.449881   4.458584   4.888404   4.910627
    20  H    3.725746   6.269304   5.256378   5.822808   5.871911
    21  O    4.124448   4.383502   2.908616   5.016187   4.508926
    22  H    4.143361   4.987024   3.505033   5.181998   4.633169
    23  C    3.711605   3.915174   3.951043   5.161056   5.759714
    24  H    4.735334   4.691986   4.549075   6.155899   6.589813
    25  H    3.374177   4.589445   4.641070   5.370171   6.153378
    26  O    4.107246   3.532231   4.170827   5.019165   5.829493
    27  H    3.434858   2.809429   3.685785   4.100245   5.046314
                   16         17         18         19         20
    16  H    0.000000
    17  H    2.744227   0.000000
    18  H    3.885088   2.397580   0.000000
    19  O    4.420260   2.965030   2.073325   0.000000
    20  H    4.906530   2.908963   2.202640   0.972260   0.000000
    21  O    2.515954   2.080179   3.339771   2.694092   3.095314
    22  H    3.431640   2.484601   3.290889   2.066558   2.444105
    23  C    2.144397   2.652961   3.102452   4.590550   4.865272
    24  H    2.420654   2.656876   3.763541   5.161496   5.292900
    25  H    3.060355   2.674306   2.451450   4.281171   4.441087
    26  O    2.726413   4.049658   4.181768   5.689491   6.087522
    27  H    2.773978   4.272129   4.019861   5.397435   5.922934
                   21         22         23         24         25
    21  O    0.000000
    22  H    0.977510   0.000000
    23  C    3.748501   4.442750   0.000000
    24  H    3.988124   4.748384   1.094701   0.000000
    25  H    4.098292   4.600047   1.101505   1.775037   0.000000
    26  O    4.834112   5.571715   1.426436   2.045828   2.084576
    27  H    4.747782   5.414258   1.898859   2.793213   2.394042
                   26         27
    26  O    0.000000
    27  H    0.979726   0.000000
 Stoichiometry    C8H15NO3
 Framework group  C1[X(C8H15NO3)]
 Deg. of freedom    75
 Full point group                 C1      NOp   1
 Largest Abelian subgroup         C1      NOp   1
 Largest concise Abelian subgroup C1      NOp   1
                         Standard orientation:                         
 ---------------------------------------------------------------------
 Center     Atomic      Atomic             Coordinates (Angstroms)
 Number     Number       Type             X           Y           Z
 ---------------------------------------------------------------------
      1          6           0       -1.893234    1.131090   -0.360662
      2          6           0       -0.702047    0.338355   -0.928843
      3          7           0        0.508812    0.817915   -0.173197
      4          6           0        0.073719    1.908602    0.739280
      5          6           0       -1.226125    2.426709    0.122693
      6          6           0        1.140171   -0.346762    0.501309
      7          6           0        0.093494   -1.461134    0.523774
      8          6           0       -0.722954   -1.197314   -0.759628
      9          1           0       -2.676048    1.295073   -1.107228
     10          1           0       -2.340116    0.605839    0.488894
     11          1           0       -0.587947    0.582478   -1.990929
     12          1           0        0.849945    2.677858    0.818694
     13          1           0       -0.119597    1.524871    1.751228
     14          1           0       -1.010461    3.087086   -0.726288
     15          1           0       -1.834348    2.985208    0.840925
     16          1           0        1.426822   -0.063805    1.519524
     17          1           0        0.546254   -2.463115    0.520177
     18          1           0       -0.221474   -1.672627   -1.609169
     19          8           0       -2.062461   -1.686256   -0.655620
     20          1           0       -2.031579   -2.644796   -0.815425
     21          8           0       -0.752047   -1.312947    1.668512
     22          1           0       -1.630857   -1.613832    1.364067
     23          6           0        2.413218   -0.746399   -0.257982
     24          1           0        3.000059   -1.463191    0.325283
     25          1           0        2.156209   -1.222151   -1.217628
     26          8           0        3.225239    0.406091   -0.475024
     27          1           0        2.568154    1.085714   -0.732347
 ---------------------------------------------------------------------
 Rotational constants (GHZ):      1.1780934      0.8978627      0.6520663
 Standard basis: 6-31+G(d,p) (6D, 7F)
 There are   303 symmetry adapted basis functions of A   symmetry.
 Integral buffers will be    131072 words long.
 Raffenetti 2 integral format.
 Two-electron integral symmetry is turned on.
   303 basis functions,   489 primitive gaussians,   303 cartesian basis functions
    47 alpha electrons       47 beta electrons
       nuclear repulsion energy       814.7785357180 Hartrees.
 NAtoms=   27 NActive=   27 NUniq=   27 SFac= 1.00D+00 NAtFMM=   60 NAOKFM=F Big=F
 ------------------------------------------------------------------------------
 Polarizable Continuum Model (PCM)
 =================================
 Model                : PCM.
 Atomic radii         : UFF (Universal Force Field).
 Polarization charges : Total charges.
 Charge compensation  : None.
 Solution method      : Matrix inversion.
 Cavity type          : Scaled VdW (van der Waals Surface) (Alpha=1.100).
 Cavity algorithm     : GePol (No added spheres)
                        Default sphere list used, NSphG=   27.
                        Lebedev-Laikov grids with approx.  5.0 points / Ang**2.
                        Smoothing algorithm: Karplus/York (Gamma=1.0000).
                        Polarization charges: spherical gaussians, with
                                              point-specific exponents (IZeta= 3).
                        Self-potential: point-specific (ISelfS= 7).
                        Self-field    : sphere-specific E.n sum rule (ISelfD= 2).
 Solvent              : Water, Eps=  78.355300 Eps(inf)=   1.777849
 ------------------------------------------------------------------------------
 One-electron integrals computed using PRISM.
 NBasis=   303 RedAO= T  NBF=   303
 NBsUse=   303 1.00D-06 NBFU=   303
 Harris functional with IExCor=  908 diagonalized for initial guess.
 ExpMin= 4.38D-02 ExpMax= 5.48D+03 ExpMxC= 8.25D+02 IAcc=2 IRadAn=         4 AccDes= 0.00D+00
 HarFok:  IExCor=  908 AccDes= 0.00D+00 IRadAn=         4 IDoV= 1
 ScaDFX=  1.000000  1.000000  1.000000  1.000000
 FoFCou: FMM=F IPFlag=           0 FMFlag=      100000 FMFlg1=           0
         NFxFlg=           0 DoJE=T BraDBF=F KetDBF=T FulRan=T
         Omega=  0.000000  0.000000  1.000000  0.000000  0.000000 ICntrl=     500 IOpCl=  0
         NMat0=    1 NMatS0=    1 NMatT0=    0 NMatD0=    1 NMtDS0=    0 NMtDT0=    0
         I1Cent=           4 NGrid=           0.
 Petite list used in FoFCou.
 Initial guess orbital symmetries:
       Occupied  (A) (A) (A) (A) (A) (A) (A) (A) (A) (A) (A) (A)
                 (A) (A) (A) (A) (A) (A) (A) (A) (A) (A) (A) (A)
                 (A) (A) (A) (A) (A) (A) (A) (A) (A) (A) (A) (A)
                 (A) (A) (A) (A) (A) (A) (A) (A) (A) (A) (A)
       Virtual   (A) (A) (A) (A) (A) (A) (A) (A) (A) (A) (A) (A)
                 (A) (A) (A) (A) (A) (A) (A) (A) (A) (A) (A) (A)
                 (A) (A) (A) (A) (A) (A) (A) (A) (A) (A) (A) (A)
                 (A) (A) (A) (A) (A) (A) (A) (A) (A) (A) (A) (A)
                 (A) (A) (A) (A) (A) (A) (A) (A) (A) (A) (A) (A)
                 (A) (A) (A) (A) (A) (A) (A) (A) (A) (A) (A) (A)
                 (A) (A) (A) (A) (A) (A) (A) (A) (A) (A) (A) (A)
                 (A) (A) (A) (A) (A) (A) (A) (A) (A) (A) (A) (A)
                 (A) (A) (A) (A) (A) (A) (A) (A) (A) (A) (A) (A)
                 (A) (A) (A) (A) (A) (A) (A) (A) (A) (A) (A) (A)
                 (A) (A) (A) (A) (A) (A) (A) (A) (A) (A) (A) (A)
                 (A) (A) (A) (A) (A) (A) (A) (A) (A) (A) (A) (A)
                 (A) (A) (A) (A) (A) (A) (A) (A) (A) (A) (A) (A)
                 (A) (A) (A) (A) (A) (A) (A) (A) (A) (A) (A) (A)
                 (A) (A) (A) (A) (A) (A) (A) (A) (A) (A) (A) (A)
                 (A) (A) (A) (A) (A) (A) (A) (A) (A) (A) (A) (A)
                 (A) (A) (A) (A) (A) (A) (A) (A) (A) (A) (A) (A)
                 (A) (A) (A) (A) (A) (A) (A) (A) (A) (A) (A) (A)
                 (A) (A) (A) (A) (A) (A) (A) (A) (A) (A) (A) (A)
                 (A) (A) (A) (A) (A) (A) (A) (A) (A) (A) (A) (A)
                 (A) (A) (A) (A) (A) (A) (A) (A) (A) (A) (A) (A)
                 (A) (A) (A) (A)
 The electronic state of the initial guess is 1-A.
 Requested convergence on RMS density matrix=1.00D-08 within 128 cycles.
 Requested convergence on MAX density matrix=1.00D-06.
 Requested convergence on             energy=1.00D-06.
 No special actions if energy rises.
 Error on total polarization charges =  0.01409
 SCF Done:  E(RmPW1PW91) =  -594.199467999     A.U. after   13 cycles
             Convg  =    0.3398D-08             -V/T =  2.0094
 Range of M.O.s used for correlation:     1   303
 NBasis=   303 NAE=    47 NBE=    47 NFC=     0 NFV=     0
 NROrb=    303 NOA=    47 NOB=    47 NVA=   256 NVB=   256

 **** Warning!!: The largest alpha MO coefficient is  0.62384108D+02

 NEqPCM:  Using equilibrium solvation (IEInf=0, Eps=  78.3553, EpsInf=   1.7778)
          Differentiating once with respect to magnetic field using GIAOs.
          Electric field/nuclear overlap derivatives assumed to be zero.
 FoFCou: FMM=F IPFlag=           0 FMFlag=    10101102 FMFlg1=           0
         NFxFlg=    40000000 DoJE=F BraDBF=F KetDBF=T FulRan=T
         Omega=  0.000000  0.000000  1.000000  0.000000  0.000000 ICntrl=    6100 IOpCl=  0
         NMat0=    1 NMatS0=    1 NMatT0=    0 NMatD0=    1 NMtDS0=    0 NMtDT0=    0
         I1Cent=           7 NGrid=        1844.
 Symmetry not used in FoFCou.
          There are     3 degrees of freedom in the 1st order CPHF.  IDoFFX=0.
      3 vectors produced by pass  0 Test12= 4.01D-13 3.33D-08 XBig12= 3.19D+01 9.45D-01.
 AX will form     3 AO Fock derivatives at one time.
      3 vectors produced by pass  1 Test12= 4.01D-13 3.33D-08 XBig12= 7.14D-02 3.37D-02.
      3 vectors produced by pass  2 Test12= 4.01D-13 3.33D-08 XBig12= 1.48D-04 2.38D-03.
      3 vectors produced by pass  3 Test12= 4.01D-13 3.33D-08 XBig12= 5.57D-07 1.76D-04.
      3 vectors produced by pass  4 Test12= 4.01D-13 3.33D-08 XBig12= 1.67D-09 7.33D-06.
      3 vectors produced by pass  5 Test12= 4.01D-13 3.33D-08 XBig12= 5.87D-12 4.66D-07.
 Inverted reduced A of dimension    18 with in-core refinement.
 Calculating GIAO nuclear magnetic shielding tensors.
 SCF GIAO Magnetic shielding tensor (ppm):
      1  C    Isotropic =   166.3120   Anisotropy =    18.3607
   XX=   172.9306   YX=    -6.4497   ZX=     5.9407
   XY=     1.6524   YY=   171.5461   ZY=    14.6818
   XZ=     2.1455   YZ=    11.2851   ZZ=   154.4593
   Eigenvalues:   146.6218   173.7617   178.5525
      2  C    Isotropic =   128.2804   Anisotropy =    57.3879
   XX=   150.8652   YX=     6.2388   ZX=    28.7216
   XY=    14.3429   YY=   135.0551   ZY=    11.1396
   XZ=    16.5131   YZ=    17.9828   ZZ=    98.9210
   Eigenvalues:    88.1594   130.1428   166.5390
      3  N    Isotropic =   198.1405   Anisotropy =    80.9308
   XX=   199.8533   YX=   -23.2571   ZX=    47.7315
   XY=   -21.8549   YY=   212.1764   ZY=    20.6570
   XZ=    70.4870   YZ=    11.9284   ZZ=   182.3919
   Eigenvalues:   123.1132   219.2140   252.0944
      4  C    Isotropic =   136.4302   Anisotropy =    61.8775
   XX=   127.3370   YX=   -19.5664   ZX=    -4.1591
   XY=   -31.4485   YY=   149.0101   ZY=    21.1475
   XZ=     3.9475   YZ=    31.8321   ZZ=   132.9436
   Eigenvalues:   101.5698   130.0390   177.6819
      5  C    Isotropic =   165.9867   Anisotropy =    20.9419
   XX=   172.5286   YX=    -2.7569   ZX=    11.8617
   XY=    -8.2841   YY=   174.8547   ZY=    16.6369
   XZ=    14.6083   YZ=     7.8248   ZZ=   150.5769
   Eigenvalues:   139.2957   178.7165   179.9480
      6  C    Isotropic =   122.7670   Anisotropy =    31.2352
   XX=   119.0399   YX=     2.2024   ZX=    10.7541
   XY=   -14.9950   YY=   133.4089   ZY=   -15.8647
   XZ=    -4.1733   YZ=   -12.9126   ZZ=   115.8521
   Eigenvalues:   107.7684   116.9420   143.5904
      7  C    Isotropic =   118.5535   Anisotropy =    26.7394
   XX=   119.8249   YX=     3.4577   ZX=   -20.0255
   XY=     3.7616   YY=   112.3717   ZY=    -0.0189
   XZ=    -7.9269   YZ=    -4.0705   ZZ=   123.4639
   Eigenvalues:   107.1534   112.1272   136.3797
      8  C    Isotropic =   119.9506   Anisotropy =    47.1081
   XX=   138.3468   YX=    18.2374   ZX=    11.8036
   XY=    21.5169   YY=   118.3940   ZY=   -14.6833
   XZ=    17.4803   YZ=   -11.9154   ZZ=   103.1111
   Eigenvalues:    85.3048   123.1911   151.3560
      9  H    Isotropic =    29.9174   Anisotropy =    10.7615
   XX=    33.1949   YX=    -1.8707   ZX=     5.4706
   XY=    -1.4834   YY=    28.1059   ZY=    -0.2790
   XZ=     5.4820   YZ=    -0.5950   ZZ=    28.4515
   Eigenvalues:    24.7567    27.9038    37.0918
     10  H    Isotropic =    29.4841   Anisotropy =     6.3369
   XX=    29.9759   YX=     0.4725   ZX=    -3.7153
   XY=     0.4476   YY=    31.2709   ZY=    -1.7911
   XZ=    -4.2248   YZ=    -1.8910   ZZ=    27.2054
   Eigenvalues:    24.1638    30.5797    33.7086
     11  H    Isotropic =    27.7832   Anisotropy =     8.5453
   XX=    25.4761   YX=     0.1151   ZX=     0.8743
   XY=     0.0773   YY=    24.4686   ZY=    -0.6922
   XZ=     0.4976   YZ=    -0.0905   ZZ=    33.4050
   Eigenvalues:    24.4354    25.4342    33.4801
     12  H    Isotropic =    28.3012   Anisotropy =     9.4441
   XX=    28.5926   YX=     2.1108   ZX=     0.9746
   XY=     3.1406   YY=    31.6756   ZY=     3.2475
   XZ=     1.4324   YZ=     4.0043   ZZ=    24.6354
   Eigenvalues:    23.1004    27.2059    34.5973
     13  H    Isotropic =    28.5210   Anisotropy =     7.8729
   XX=    24.4703   YX=    -1.1572   ZX=    -0.7086
   XY=    -1.5601   YY=    28.2679   ZY=     2.7175
   XZ=    -0.0339   YZ=     1.6154   ZZ=    32.8249
   Eigenvalues:    24.0221    27.7714    33.7696
     14  H    Isotropic =    29.6916   Anisotropy =    11.0971
   XX=    26.6586   YX=     0.3401   ZX=     0.7770
   XY=     0.1279   YY=    34.1550   ZY=    -4.8463
   XZ=     0.7680   YZ=    -5.3264   ZZ=    28.2614
   Eigenvalues:    24.9645    27.0207    37.0897
     15  H    Isotropic =    29.5915   Anisotropy =    11.7668
   XX=    29.0464   YX=    -3.7162   ZX=    -2.4089
   XY=    -4.5115   YY=    31.8720   ZY=     4.4736
   XZ=    -2.7775   YZ=     4.1428   ZZ=    27.8559
   Eigenvalues:    25.1104    26.2280    37.4360
     16  H    Isotropic =    28.4604   Anisotropy =     6.8043
   XX=    29.0050   YX=    -1.2492   ZX=     3.3541
   XY=    -1.1531   YY=    25.9855   ZY=    -1.8487
   XZ=     2.3071   YZ=    -0.4378   ZZ=    30.3908
   Eigenvalues:    25.5572    26.8275    32.9966
     17  H    Isotropic =    27.9300   Anisotropy =     7.5087
   XX=    27.5370   YX=    -3.8261   ZX=    -1.7478
   XY=    -2.5502   YY=    30.9359   ZY=    -0.9376
   XZ=    -2.8726   YZ=    -0.0282   ZZ=    25.3172
   Eigenvalues:    23.2023    27.6520    32.9358
     18  H    Isotropic =    27.0946   Anisotropy =     5.6405
   XX=    27.5318   YX=     0.2094   ZX=    -3.1643
   XY=     1.2266   YY=    26.2546   ZY=     3.3303
   XZ=    -0.3842   YZ=     3.9829   ZZ=    27.4974
   Eigenvalues:    22.5765    27.8524    30.8550
     19  O    Isotropic =   313.4818   Anisotropy =   102.7155
   XX=   279.1228   YX=    -7.4500   ZX=    -1.4696
   XY=    32.6476   YY=   379.0828   ZY=     7.6265
   XZ=     7.4172   YZ=    14.6894   ZZ=   282.2399
   Eigenvalues:   276.9430   281.5436   381.9588
     20  H    Isotropic =    30.0997   Anisotropy =    22.9493
   XX=    25.9114   YX=     4.0096   ZX=     0.5184
   XY=     4.0503   YY=    43.5621   ZY=     5.1880
   XZ=     1.0522   YZ=     4.4135   ZZ=    20.8255
   Eigenvalues:    19.8532    25.0466    45.3992
     21  O    Isotropic =   302.5264   Anisotropy =    44.0526
   XX=   321.8929   YX=    19.3161   ZX=     5.5761
   XY=     5.8905   YY=   298.6807   ZY=    24.5901
   XZ=    12.8403   YZ=     2.4477   ZZ=   287.0057
   Eigenvalues:   278.1011   297.5833   331.8949
     22  H    Isotropic =    28.4731   Anisotropy =    16.3116
   XX=    36.1789   YX=     6.6817   ZX=     3.6660
   XY=     6.8708   YY=    20.6239   ZY=    -0.7901
   XZ=     2.0022   YZ=     0.4477   ZZ=    28.6165
   Eigenvalues:    17.9571    28.1147    39.3475
     23  C    Isotropic =   133.6501   Anisotropy =    50.9846
   XX=   135.8944   YX=    18.4577   ZX=    -7.3133
   XY=    25.8842   YY=   149.3637   ZY=    -1.7583
   XZ=   -12.0933   YZ=    -8.0767   ZZ=   115.6923
   Eigenvalues:   111.1208   122.1897   167.6399
     24  H    Isotropic =    28.2349   Anisotropy =     6.9051
   XX=    29.9409   YX=    -1.3489   ZX=     0.3703
   XY=    -2.9919   YY=    29.9916   ZY=    -2.4126
   XZ=     1.1147   YZ=    -2.6767   ZZ=    24.7721
   Eigenvalues:    23.7337    28.1326    32.8383
     25  H    Isotropic =    28.6306   Anisotropy =     5.7714
   XX=    29.6091   YX=     2.2983   ZX=    -1.0977
   XY=     1.7918   YY=    28.7983   ZY=     5.1232
   XZ=    -2.2875   YZ=     3.2490   ZZ=    27.4844
   Eigenvalues:    22.8835    30.5300    32.4782
     26  O    Isotropic =   314.1256   Anisotropy =    43.5698
   XX=   330.7390   YX=   -13.4663   ZX=    -0.5602
   XY=   -17.2112   YY=   323.9844   ZY=    -1.2536
   XZ=     8.1520   YZ=    18.2010   ZZ=   287.6534
   Eigenvalues:   284.5789   314.6257   343.1721
     27  H    Isotropic =    28.4401   Anisotropy =    17.2075
   XX=    34.8372   YX=    -5.1974   ZX=     1.0425
   XY=    -7.0198   YY=    30.9172   ZY=    -5.3386
   XZ=    -0.8452   YZ=    -5.9806   ZZ=    19.5658
   Eigenvalues:    16.9110    28.4975    39.9118
 End of Minotr Frequency-dependent properties file   721 does not exist.
 End of Minotr Frequency-dependent properties file   722 does not exist.

 **********************************************************************

            Population analysis using the SCF density.

 **********************************************************************

 Orbital symmetries:
       Occupied  (A) (A) (A) (A) (A) (A) (A) (A) (A) (A) (A) (A)
                 (A) (A) (A) (A) (A) (A) (A) (A) (A) (A) (A) (A)
                 (A) (A) (A) (A) (A) (A) (A) (A) (A) (A) (A) (A)
                 (A) (A) (A) (A) (A) (A) (A) (A) (A) (A) (A)
       Virtual   (A) (A) (A) (A) (A) (A) (A) (A) (A) (A) (A) (A)
                 (A) (A) (A) (A) (A) (A) (A) (A) (A) (A) (A) (A)
                 (A) (A) (A) (A) (A) (A) (A) (A) (A) (A) (A) (A)
                 (A) (A) (A) (A) (A) (A) (A) (A) (A) (A) (A) (A)
                 (A) (A) (A) (A) (A) (A) (A) (A) (A) (A) (A) (A)
                 (A) (A) (A) (A) (A) (A) (A) (A) (A) (A) (A) (A)
                 (A) (A) (A) (A) (A) (A) (A) (A) (A) (A) (A) (A)
                 (A) (A) (A) (A) (A) (A) (A) (A) (A) (A) (A) (A)
                 (A) (A) (A) (A) (A) (A) (A) (A) (A) (A) (A) (A)
                 (A) (A) (A) (A) (A) (A) (A) (A) (A) (A) (A) (A)
                 (A) (A) (A) (A) (A) (A) (A) (A) (A) (A) (A) (A)
                 (A) (A) (A) (A) (A) (A) (A) (A) (A) (A) (A) (A)
                 (A) (A) (A) (A) (A) (A) (A) (A) (A) (A) (A) (A)
                 (A) (A) (A) (A) (A) (A) (A) (A) (A) (A) (A) (A)
                 (A) (A) (A) (A) (A) (A) (A) (A) (A) (A) (A) (A)
                 (A) (A) (A) (A) (A) (A) (A) (A) (A) (A) (A) (A)
                 (A) (A) (A) (A) (A) (A) (A) (A) (A) (A) (A) (A)
                 (A) (A) (A) (A) (A) (A) (A) (A) (A) (A) (A) (A)
                 (A) (A) (A) (A) (A) (A) (A) (A) (A) (A) (A) (A)
                 (A) (A) (A) (A) (A) (A) (A) (A) (A) (A) (A) (A)
                 (A) (A) (A) (A) (A) (A) (A) (A) (A) (A) (A) (A)
                 (A) (A) (A) (A)
 The electronic state is 1-A.
 Alpha  occ. eigenvalues --  -19.27237 -19.25225 -19.24708 -14.41815 -10.31078
 Alpha  occ. eigenvalues --  -10.30388 -10.29313 -10.28145 -10.28061 -10.26859
 Alpha  occ. eigenvalues --  -10.24571 -10.24436  -1.08396  -1.05311  -1.04885
 Alpha  occ. eigenvalues --   -0.96260  -0.82978  -0.79121  -0.75335  -0.71282
 Alpha  occ. eigenvalues --   -0.66765  -0.61270  -0.60937  -0.57935  -0.55231
 Alpha  occ. eigenvalues --   -0.53420  -0.52468  -0.50747  -0.49291  -0.46744
 Alpha  occ. eigenvalues --   -0.46269  -0.44399  -0.44065  -0.42037  -0.40132
 Alpha  occ. eigenvalues --   -0.40035  -0.38578  -0.37159  -0.36597  -0.35380
 Alpha  occ. eigenvalues --   -0.34859  -0.34451  -0.34203  -0.31311  -0.29324
 Alpha  occ. eigenvalues --   -0.28897  -0.23833
 Alpha virt. eigenvalues --    0.00110   0.01388   0.01992   0.02483   0.03708
 Alpha virt. eigenvalues --    0.04366   0.04678   0.04904   0.05560   0.07089
 Alpha virt. eigenvalues --    0.07794   0.08687   0.08945   0.09036   0.09396
 Alpha virt. eigenvalues --    0.10428   0.11056   0.12002   0.12356   0.12471
 Alpha virt. eigenvalues --    0.13226   0.13520   0.14581   0.15112   0.15624
 Alpha virt. eigenvalues --    0.16036   0.16560   0.16677   0.17261   0.18190
 Alpha virt. eigenvalues --    0.18732   0.19295   0.19803   0.20344   0.21080
 Alpha virt. eigenvalues --    0.21346   0.22030   0.22258   0.22799   0.23410
 Alpha virt. eigenvalues --    0.23647   0.23945   0.24804   0.25194   0.26115
 Alpha virt. eigenvalues --    0.26708   0.27608   0.27929   0.28511   0.28931
 Alpha virt. eigenvalues --    0.29402   0.30322   0.30525   0.31206   0.31750
 Alpha virt. eigenvalues --    0.32154   0.33027   0.33795   0.34426   0.34841
 Alpha virt. eigenvalues --    0.35591   0.36056   0.37625   0.37988   0.38449
 Alpha virt. eigenvalues --    0.38954   0.39703   0.40829   0.41341   0.42649
 Alpha virt. eigenvalues --    0.43922   0.44040   0.44736   0.47838   0.48081
 Alpha virt. eigenvalues --    0.49860   0.65256   0.66803   0.67714   0.68616
 Alpha virt. eigenvalues --    0.70151   0.70530   0.72030   0.72615   0.74610
 Alpha virt. eigenvalues --    0.75047   0.77002   0.77853   0.80489   0.81788
 Alpha virt. eigenvalues --    0.82567   0.83729   0.84133   0.85886   0.87026
 Alpha virt. eigenvalues --    0.88910   0.93260   0.94331   0.94671   0.96398
 Alpha virt. eigenvalues --    0.98003   1.00444   1.01634   1.02684   1.04796
 Alpha virt. eigenvalues --    1.07100   1.07904   1.09369   1.10223   1.10831
 Alpha virt. eigenvalues --    1.11732   1.13329   1.13785   1.14520   1.14975
 Alpha virt. eigenvalues --    1.16671   1.17577   1.18956   1.24034   1.24858
 Alpha virt. eigenvalues --    1.26850   1.28970   1.31359   1.31930   1.33852
 Alpha virt. eigenvalues --    1.34389   1.36062   1.39426   1.39948   1.41299
 Alpha virt. eigenvalues --    1.43488   1.44735   1.48541   1.51393   1.52501
 Alpha virt. eigenvalues --    1.53671   1.58169   1.58854   1.60072   1.62461
 Alpha virt. eigenvalues --    1.63553   1.64456   1.65946   1.68405   1.70081
 Alpha virt. eigenvalues --    1.73534   1.74614   1.76277   1.78622   1.79663
 Alpha virt. eigenvalues --    1.79908   1.83294   1.84304   1.86114   1.87644
 Alpha virt. eigenvalues --    1.87991   1.88889   1.91633   1.93206   1.93836
 Alpha virt. eigenvalues --    1.96350   1.97505   2.00820   2.03577   2.04535
 Alpha virt. eigenvalues --    2.05863   2.06745   2.09045   2.10528   2.11863
 Alpha virt. eigenvalues --    2.12870   2.14742   2.16177   2.19698   2.20328
 Alpha virt. eigenvalues --    2.20673   2.22473   2.24666   2.25906   2.27827
 Alpha virt. eigenvalues --    2.30662   2.32255   2.36279   2.37515   2.38718
 Alpha virt. eigenvalues --    2.40123   2.43405   2.44853   2.47291   2.47997
 Alpha virt. eigenvalues --    2.50269   2.51096   2.53578   2.55510   2.56017
 Alpha virt. eigenvalues --    2.58165   2.58319   2.59391   2.61999   2.62878
 Alpha virt. eigenvalues --    2.63297   2.65257   2.67085   2.69668   2.70616
 Alpha virt. eigenvalues --    2.70939   2.72606   2.76344   2.77403   2.79054
 Alpha virt. eigenvalues --    2.79901   2.80644   2.82013   2.83979   2.85483
 Alpha virt. eigenvalues --    2.86553   2.88909   2.91641   2.92366   2.95048
 Alpha virt. eigenvalues --    2.96909   2.99248   3.00280   3.01874   3.03251
 Alpha virt. eigenvalues --    3.08814   3.09413   3.10335   3.13019   3.32557
 Alpha virt. eigenvalues --    3.34042   3.36485   3.37465   3.43416   3.45257
 Alpha virt. eigenvalues --    3.48168   3.51112   3.52655   3.53350   3.54535
 Alpha virt. eigenvalues --    3.57189   3.58271   3.59616   3.64236   4.30828
 Alpha virt. eigenvalues --    4.32579   4.38306   4.48835   4.51867   4.55879
 Alpha virt. eigenvalues --    4.62408   4.73612   4.77924   4.83833   4.86352
 Alpha virt. eigenvalues --    4.95748
          Condensed to atoms (all electrons):
              1          2          3          4          5          6
     1  C    6.112961  -0.986263   0.130873  -0.082159  -0.029599   0.442992
     2  C   -0.986263   8.866927  -0.350315  -0.485492   0.536148  -1.270328
     3  N    0.130873  -0.350315   7.493404   0.149416  -0.231579   0.068064
     4  C   -0.082159  -0.485492   0.149416   5.531915   0.079236   0.125476
     5  C   -0.029599   0.536148  -0.231579   0.079236   5.726533  -0.053352
     6  C    0.442992  -1.270328   0.068064   0.125476  -0.053352   9.883514
     7  C   -0.447071   1.179839  -0.150163  -0.241375   0.159719  -2.709783
     8  C    0.225264  -1.026933   0.059373   0.236208  -0.235495   0.141685
     9  H    0.381527  -0.067874   0.015647   0.029424  -0.025080   0.002821
    10  H    0.514473  -0.204324   0.033478   0.023293  -0.090430   0.004089
    11  H    0.060385   0.179955  -0.014017   0.014350  -0.028210   0.042451
    12  H    0.032195  -0.001003  -0.056166   0.403613  -0.044416  -0.000746
    13  H   -0.000144   0.009535  -0.070430   0.424054  -0.023404  -0.023567
    14  H   -0.010358  -0.043398   0.017749  -0.028416   0.379676   0.002056
    15  H   -0.076190   0.057196   0.003350  -0.029852   0.394783  -0.008803
    16  H   -0.006434   0.023840  -0.052148   0.009350   0.011357   0.293894
    17  H    0.000896   0.002986   0.014237  -0.004987  -0.001804  -0.119442
    18  H   -0.012490  -0.013023   0.009923   0.000746   0.001162   0.002576
    19  O    0.017412  -0.188534   0.026779  -0.006807   0.018411   0.136321
    20  H   -0.001435   0.034521  -0.002108   0.000281  -0.001654   0.004917
    21  O    0.023474  -0.011396   0.032518  -0.000492  -0.044098  -0.072764
    22  H   -0.001718   0.000404  -0.005263  -0.003274   0.007107   0.027829
    23  C    0.040092  -0.099651   0.061438  -0.017612  -0.056284  -0.557555
    24  H    0.001817  -0.003171   0.003614  -0.003150  -0.000764  -0.103111
    25  H   -0.005581   0.044005   0.016292   0.000736   0.003674  -0.215862
    26  O    0.007574  -0.035623   0.000444  -0.016088  -0.002256  -0.112655
    27  H   -0.000289   0.021523   0.054780  -0.002955   0.000090  -0.078121
              7          8          9         10         11         12
     1  C   -0.447071   0.225264   0.381527   0.514473   0.060385   0.032195
     2  C    1.179839  -1.026933  -0.067874  -0.204324   0.179955  -0.001003
     3  N   -0.150163   0.059373   0.015647   0.033478  -0.014017  -0.056166
     4  C   -0.241375   0.236208   0.029424   0.023293   0.014350   0.403613
     5  C    0.159719  -0.235495  -0.025080  -0.090430  -0.028210  -0.044416
     6  C   -2.709783   0.141685   0.002821   0.004089   0.042451  -0.000746
     7  C    8.167121  -0.592264  -0.009214  -0.005421  -0.011909  -0.005360
     8  C   -0.592264   6.657485   0.011227   0.045667   0.021552  -0.002199
     9  H   -0.009214   0.011227   0.519312  -0.023786  -0.004681  -0.000103
    10  H   -0.005421   0.045667  -0.023786   0.518513   0.004101  -0.000056
    11  H   -0.011909   0.021552  -0.004681   0.004101   0.555414   0.000184
    12  H   -0.005360  -0.002199  -0.000103  -0.000056   0.000184   0.549424
    13  H    0.011887   0.000532  -0.000117   0.001173  -0.000429  -0.041366
    14  H    0.001109   0.005232  -0.004786   0.004191   0.001035  -0.006344
    15  H    0.004423  -0.004070   0.000107  -0.005241  -0.000104   0.000908
    16  H    0.065506   0.006627   0.000003  -0.000009  -0.000206  -0.000219
    17  H    0.319454   0.056655   0.000006  -0.000052  -0.000089   0.000009
    18  H   -0.026730   0.346517  -0.000045   0.000021  -0.007811   0.000004
    19  O   -0.141783   0.156936   0.000843   0.002032   0.008855   0.000070
    20  H   -0.048656   0.027962  -0.000031  -0.000021  -0.000282   0.000000
    21  O    0.245215  -0.033559   0.000767   0.000934  -0.000570   0.000387
    22  H    0.012295  -0.069732   0.000010  -0.000331  -0.000050  -0.000006
    23  C    0.148490   0.035624  -0.000011  -0.000759   0.007113   0.005182
    24  H   -0.005390   0.006189   0.000000   0.000000   0.000001  -0.000009
    25  H    0.144326  -0.041721   0.000000   0.000000  -0.000218   0.000006
    26  O    0.016410   0.017119   0.000009   0.000044   0.001993   0.003486
    27  H    0.014456  -0.010773  -0.000002  -0.000001  -0.000383  -0.001270
             13         14         15         16         17         18
     1  C   -0.000144  -0.010358  -0.076190  -0.006434   0.000896  -0.012490
     2  C    0.009535  -0.043398   0.057196   0.023840   0.002986  -0.013023
     3  N   -0.070430   0.017749   0.003350  -0.052148   0.014237   0.009923
     4  C    0.424054  -0.028416  -0.029852   0.009350  -0.004987   0.000746
     5  C   -0.023404   0.379676   0.394783   0.011357  -0.001804   0.001162
     6  C   -0.023567   0.002056  -0.008803   0.293894  -0.119442   0.002576
     7  C    0.011887   0.001109   0.004423   0.065506   0.319454  -0.026730
     8  C    0.000532   0.005232  -0.004070   0.006627   0.056655   0.346517
     9  H   -0.000117  -0.004786   0.000107   0.000003   0.000006  -0.000045
    10  H    0.001173   0.004191  -0.005241  -0.000009  -0.000052   0.000021
    11  H   -0.000429   0.001035  -0.000104  -0.000206  -0.000089  -0.007811
    12  H   -0.041366  -0.006344   0.000908  -0.000219   0.000009   0.000004
    13  H    0.553372   0.003974  -0.004564   0.004926  -0.000127   0.000005
    14  H    0.003974   0.525032  -0.024350  -0.000010   0.000000   0.000005
    15  H   -0.004564  -0.024350   0.515171  -0.000014   0.000000   0.000002
    16  H    0.004926  -0.000010  -0.000014   0.528779  -0.000960  -0.000209
    17  H   -0.000127   0.000000   0.000000  -0.000960   0.577339  -0.003059
    18  H    0.000005   0.000005   0.000002  -0.000209  -0.003059   0.550658
    19  O   -0.000157   0.000155  -0.000018  -0.001310  -0.006119  -0.030322
    20  H    0.000001   0.000000   0.000000   0.000005   0.001770  -0.008099
    21  O   -0.002206  -0.000050   0.000073  -0.006708  -0.048706   0.006645
    22  H    0.000201  -0.000001  -0.000003   0.000153  -0.000295   0.000966
    23  C   -0.007847   0.000735   0.000510  -0.058451   0.049116   0.002630
    24  H    0.000011   0.000000   0.000000  -0.005393   0.001539   0.000094
    25  H   -0.000005   0.000000   0.000000   0.004841  -0.001507  -0.000766
    26  O   -0.000929   0.000018  -0.000005   0.005060   0.000297  -0.000692
    27  H    0.000330   0.000014  -0.000003  -0.000166  -0.000001   0.000030
             19         20         21         22         23         24
     1  C    0.017412  -0.001435   0.023474  -0.001718   0.040092   0.001817
     2  C   -0.188534   0.034521  -0.011396   0.000404  -0.099651  -0.003171
     3  N    0.026779  -0.002108   0.032518  -0.005263   0.061438   0.003614
     4  C   -0.006807   0.000281  -0.000492  -0.003274  -0.017612  -0.003150
     5  C    0.018411  -0.001654  -0.044098   0.007107  -0.056284  -0.000764
     6  C    0.136321   0.004917  -0.072764   0.027829  -0.557555  -0.103111
     7  C   -0.141783  -0.048656   0.245215   0.012295   0.148490  -0.005390
     8  C    0.156936   0.027962  -0.033559  -0.069732   0.035624   0.006189
     9  H    0.000843  -0.000031   0.000767   0.000010  -0.000011   0.000000
    10  H    0.002032  -0.000021   0.000934  -0.000331  -0.000759   0.000000
    11  H    0.008855  -0.000282  -0.000570  -0.000050   0.007113   0.000001
    12  H    0.000070   0.000000   0.000387  -0.000006   0.005182  -0.000009
    13  H   -0.000157   0.000001  -0.002206   0.000201  -0.007847   0.000011
    14  H    0.000155   0.000000  -0.000050  -0.000001   0.000735   0.000000
    15  H   -0.000018   0.000000   0.000073  -0.000003   0.000510   0.000000
    16  H   -0.001310   0.000005  -0.006708   0.000153  -0.058451  -0.005393
    17  H   -0.006119   0.001770  -0.048706  -0.000295   0.049116   0.001539
    18  H   -0.030322  -0.008099   0.006645   0.000966   0.002630   0.000094
    19  O    8.376096   0.232045  -0.021129   0.039723  -0.003713   0.000079
    20  H    0.232045   0.354504   0.000446  -0.002565   0.000532  -0.000001
    21  O   -0.021129   0.000446   8.227676   0.244758   0.012943  -0.000107
    22  H    0.039723  -0.002565   0.244758   0.364673  -0.002558  -0.000005
    23  C   -0.003713   0.000532   0.012943  -0.002558   5.502845   0.491656
    24  H    0.000079  -0.000001  -0.000107  -0.000005   0.491656   0.539234
    25  H   -0.001079   0.000013  -0.001039   0.000013   0.402324  -0.040800
    26  O    0.000225  -0.000004  -0.000907  -0.000017   0.238073  -0.057781
    27  H   -0.000004   0.000000   0.000002   0.000001   0.021187   0.006681
             25         26         27
     1  C   -0.005581   0.007574  -0.000289
     2  C    0.044005  -0.035623   0.021523
     3  N    0.016292   0.000444   0.054780
     4  C    0.000736  -0.016088  -0.002955
     5  C    0.003674  -0.002256   0.000090
     6  C   -0.215862  -0.112655  -0.078121
     7  C    0.144326   0.016410   0.014456
     8  C   -0.041721   0.017119  -0.010773
     9  H    0.000000   0.000009  -0.000002
    10  H    0.000000   0.000044  -0.000001
    11  H   -0.000218   0.001993  -0.000383
    12  H    0.000006   0.003486  -0.001270
    13  H   -0.000005  -0.000929   0.000330
    14  H    0.000000   0.000018   0.000014
    15  H    0.000000  -0.000005  -0.000003
    16  H    0.004841   0.005060  -0.000166
    17  H   -0.001507   0.000297  -0.000001
    18  H   -0.000766  -0.000692   0.000030
    19  O   -0.001079   0.000225  -0.000004
    20  H    0.000013  -0.000004   0.000000
    21  O   -0.001039  -0.000907   0.000002
    22  H    0.000013  -0.000017   0.000001
    23  C    0.402324   0.238073   0.021187
    24  H   -0.040800  -0.057781   0.006681
    25  H    0.600482  -0.047419  -0.003813
    26  O   -0.047419   8.289622   0.228685
    27  H   -0.003813   0.228685   0.363397
 Mulliken atomic charges:
              1
     1  C   -0.332204
     2  C   -0.169551
     3  N   -0.259190
     4  C   -0.105438
     5  C   -0.449471
     6  C    0.147405
     7  C   -0.095131
     8  C   -0.041108
     9  H    0.174027
    10  H    0.178423
    11  H    0.171568
    12  H    0.163794
    13  H    0.165290
    14  H    0.176734
    15  H    0.176693
    16  H    0.177892
    17  H    0.162844
    18  H    0.181258
    19  O   -0.615008
    20  H    0.407860
    21  O   -0.552107
    22  H    0.387682
    23  C   -0.216049
    24  H    0.168768
    25  H    0.143099
    26  O   -0.534683
    27  H    0.386605
 Sum of Mulliken atomic charges =   0.00000
 Mulliken charges with hydrogens summed into heavy atoms:
              1
     1  C    0.020246
     2  C    0.002017
     3  N   -0.259190
     4  C    0.223645
     5  C   -0.096044
     6  C    0.325296
     7  C    0.067713
     8  C    0.140150
    19  O   -0.207147
    21  O   -0.164425
    23  C    0.095818
    26  O   -0.148079
 Sum of Mulliken charges with hydrogens summed into heavy atoms =   0.00000
 Electronic spatial extent (au):  <R**2>=           1959.6081
 Charge=              0.0000 electrons
 Dipole moment (field-independent basis, Debye):
    X=             -3.1968    Y=             -2.3387    Z=             -1.7175  Tot=              4.3173
 Quadrupole moment (field-independent basis, Debye-Ang):
   XX=            -88.1974   YY=            -60.1248   ZZ=            -76.1630
   XY=             -1.5538   XZ=              2.5251   YZ=              4.6297
 Traceless Quadrupole moment (field-independent basis, Debye-Ang):
   XX=            -13.3690   YY=             14.7036   ZZ=             -1.3346
   XY=             -1.5538   XZ=              2.5251   YZ=              4.6297
 Octapole moment (field-independent basis, Debye-Ang**2):
  XXX=            -59.3670  YYY=            -34.6750  ZZZ=            -13.2793  XYY=            -12.1263
  XXY=            -18.3910  XXZ=             15.1029  XZZ=             -0.3731  YZZ=              1.7824
  YYZ=             -9.3400  XYZ=             -2.0050
 Hexadecapole moment (field-independent basis, Debye-Ang**3):
 XXXX=          -1477.6841 YYYY=           -832.3218 ZZZZ=           -385.3296 XXXY=            -14.4065
 XXXZ=             16.6959 YYYX=             77.7555 YYYZ=             25.2166 ZZZX=              3.8440
 ZZZY=             16.6476 XXYY=           -309.6140 XXZZ=           -262.7759 YYZZ=           -214.2456
 XXYZ=             -8.6007 YYXZ=              5.8247 ZZXY=              5.5116
 N-N= 8.147785357180D+02 E-N=-3.015274176901D+03  KE= 5.886630897064D+02
 1\1\GINC-COMPUTE-3-1\SP\RmPW1PW91\6-31+G(d,p)\C8H15N1O3\MAMICHETTI.IQU
 IR\17-May-2024\0\\# mpw1pw91/6-31+G** nmr scrf=(pcm,solvent=water)\\co
 mment\\0,1\C,0,-1.893234,1.13109,-0.360662\C,0,-0.702047,0.338355,-0.9
 28843\N,0,0.508812,0.817915,-0.173197\C,0,0.073719,1.908602,0.73928\C,
 0,-1.226125,2.426709,0.122693\C,0,1.140171,-0.346762,0.501309\C,0,0.09
 3494,-1.461134,0.523774\C,0,-0.722954,-1.197314,-0.759628\H,0,-2.67604
 8,1.295073,-1.107228\H,0,-2.340116,0.605839,0.488894\H,0,-0.587947,0.5
 82478,-1.990929\H,0,0.849945,2.677858,0.818694\H,0,-0.119597,1.524871,
 1.751228\H,0,-1.010461,3.087086,-0.726288\H,0,-1.834348,2.985208,0.840
 925\H,0,1.426822,-0.063805,1.519524\H,0,0.546254,-2.463115,0.520177\H,
 0,-0.221474,-1.672627,-1.609169\O,0,-2.062461,-1.686256,-0.65562\H,0,-
 2.031579,-2.644796,-0.815425\O,0,-0.752047,-1.312947,1.668512\H,0,-1.6
 30857,-1.613832,1.364067\C,0,2.413218,-0.746399,-0.257982\H,0,3.000059
 ,-1.463191,0.325283\H,0,2.156209,-1.222151,-1.217628\O,0,3.225239,0.40
 6091,-0.475024\H,0,2.568154,1.085714,-0.732347\\Version=AM64L-G09RevC.
 01\State=1-A\HF=-594.199468\RMSD=3.398e-09\Dipole=-1.2577181,-0.920107
 2,-0.675728\Quadrupole=-9.939516,10.9317541,-0.9922381,-1.1551935,1.87
 73752,3.4420385\PG=C01 [X(C8H15N1O3)]\\@


 ... SUBJECTS WHICH DISCLOSE THEIR FULL POWER, MEANING AND BEAUTY AS SOON
 AS THEY ARE PRESENTED TO THE MIND HAVE VERY LITTLE OF THOSE QUALITIES
 TO DISCLOSE.
                           -- CHARLES DUTTON (1882)
 Job cpu time:  0 days  0 hours  9 minutes  6.8 seconds.
 File lengths (MBytes):  RWF=    114 Int=      0 D2E=      0 Chk=      7 Scr=      1
 Normal termination of Gaussian 09 at Fri May 17 12:42:17 2024.
