 Entering Gaussian System, Link 0=g09
 Input=/home/mamichetti.iquir/Linux/01_Cardona_A1A3_R__S_R_R_021_OptB.gjc
 Output=/home/mamichetti.iquir/Linux/01_Cardona_A1A3_R__S_R_R_021_OptB.log
 Initial command:
 /opt/ohpc/pub/apps/software/Gaussian/09/AMD64.SSE4a-enabled/g09/l1.exe /local/mamichetti.iquir/Gau-404328.inp -scrdir=/local/mamichetti.iquir/
 Entering Link 1 = /opt/ohpc/pub/apps/software/Gaussian/09/AMD64.SSE4a-enabled/g09/l1.exe PID=    404329.
  
 Copyright (c) 1988,1990,1992,1993,1995,1998,2003,2009,2011,
            Gaussian, Inc.  All Rights Reserved.
  
 This is part of the Gaussian(R) 09 program.  It is based on
 the Gaussian(R) 03 system (copyright 2003, Gaussian, Inc.),
 the Gaussian(R) 98 system (copyright 1998, Gaussian, Inc.),
 the Gaussian(R) 94 system (copyright 1995, Gaussian, Inc.),
 the Gaussian 92(TM) system (copyright 1992, Gaussian, Inc.),
 the Gaussian 90(TM) system (copyright 1990, Gaussian, Inc.),
 the Gaussian 88(TM) system (copyright 1988, Gaussian, Inc.),
 the Gaussian 86(TM) system (copyright 1986, Carnegie Mellon
 University), and the Gaussian 82(TM) system (copyright 1983,
 Carnegie Mellon University). Gaussian is a federally registered
 trademark of Gaussian, Inc.
  
 This software contains proprietary and confidential information,
 including trade secrets, belonging to Gaussian, Inc.
  
 This software is provided under written license and may be
 used, copied, transmitted, or stored only in accord with that
 written license.
  
 The following legend is applicable only to US Government
 contracts under FAR:
  
                    RESTRICTED RIGHTS LEGEND
  
 Use, reproduction and disclosure by the US Government is
 subject to restrictions as set forth in subparagraphs (a)
 and (c) of the Commercial Computer Software - Restricted
 Rights clause in FAR 52.227-19.
  
 Gaussian, Inc.
 340 Quinnipiac St., Bldg. 40, Wallingford CT 06492
  
  
 ---------------------------------------------------------------
 Warning -- This program may not be used in any manner that
 competes with the business of Gaussian, Inc. or will provide
 assistance to any competitor of Gaussian, Inc.  The licensee
 of this program is prohibited from giving any competitor of
 Gaussian, Inc. access to this program.  By using this program,
 the user acknowledges that Gaussian, Inc. is engaged in the
 business of creating and licensing software in the field of
 computational chemistry and represents and warrants to the
 licensee that it is not a competitor of Gaussian, Inc. and that
 it will not use this program in any manner prohibited above.
 ---------------------------------------------------------------
  

 Cite this work as:
 Gaussian 09, Revision C.01,
 M. J. Frisch, G. W. Trucks, H. B. Schlegel, G. E. Scuseria, 
 M. A. Robb, J. R. Cheeseman, G. Scalmani, V. Barone, B. Mennucci, 
 G. A. Petersson, H. Nakatsuji, M. Caricato, X. Li, H. P. Hratchian, 
 A. F. Izmaylov, J. Bloino, G. Zheng, J. L. Sonnenberg, M. Hada, 
 M. Ehara, K. Toyota, R. Fukuda, J. Hasegawa, M. Ishida, T. Nakajima, 
 Y. Honda, O. Kitao, H. Nakai, T. Vreven, J. A. Montgomery, Jr., 
 J. E. Peralta, F. Ogliaro, M. Bearpark, J. J. Heyd, E. Brothers, 
 K. N. Kudin, V. N. Staroverov, T. Keith, R. Kobayashi, J. Normand, 
 K. Raghavachari, A. Rendell, J. C. Burant, S. S. Iyengar, J. Tomasi, 
 M. Cossi, N. Rega, J. M. Millam, M. Klene, J. E. Knox, J. B. Cross, 
 V. Bakken, C. Adamo, J. Jaramillo, R. Gomperts, R. E. Stratmann, 
 O. Yazyev, A. J. Austin, R. Cammi, C. Pomelli, J. W. Ochterski, 
 R. L. Martin, K. Morokuma, V. G. Zakrzewski, G. A. Voth, 
 P. Salvador, J. J. Dannenberg, S. Dapprich, A. D. Daniels, 
 O. Farkas, J. B. Foresman, J. V. Ortiz, J. Cioslowski, 
 and D. J. Fox, Gaussian, Inc., Wallingford CT, 2010.
 
 ******************************************
 Gaussian 09:  AM64L-G09RevC.01 23-Sep-2011
                17-May-2024 
 ******************************************
 %nprocshared=4
 Will use up to    4 processors via shared memory.
 ------------------------------------------------
 # mpw1pw91/6-31+G** nmr scrf=(pcm,solvent=water)
 ------------------------------------------------
 1/38=1/1;
 2/12=2,17=6,18=5,40=1/2;
 3/5=1,6=6,7=111,11=2,16=1,25=1,30=1,70=2201,72=1,74=-7/1,2,8,3;
 4//1;
 5/5=2,38=5,53=1/2;
 8/6=1,10=90,11=11/1;
 10/13=100,45=16/2;
 6/7=2,8=2,9=2,10=2,28=1/1;
 99/9=1/99;
 -------
 comment
 -------
 Charge =  0 Multiplicity = 1
 Symbolic Z-Matrix:
 6                    -2.4091   -0.76448   0.32992 
 6                    -1.20599  -0.03417   0.96254 
 7                     0.019    -0.85015   0.6219 
 6                    -0.4347   -2.00451  -0.19297 
 6                    -1.78671  -1.60419  -0.79591 
 6                     0.98135   0.03777  -0.06728 
 6                     0.60496   1.44808   0.42711 
 6                    -0.92848   1.39381   0.45899 
 1                    -2.87385  -1.41995   1.07525 
 1                    -3.17737  -0.07006  -0.02386 
 1                    -1.32134   0.01641   2.05186 
 1                    -0.56051  -2.884     0.45281 
 1                     0.3208   -2.25721  -0.94158 
 1                    -2.39849  -2.46781  -1.07715 
 1                    -1.63632  -0.98782  -1.68896 
 1                     0.84196   0.01503  -1.16149 
 1                     0.9859    1.60076   1.44302 
 1                    -1.36366   2.15334   1.11671 
 8                    -1.35294   1.6321   -0.89306 
 1                    -2.28561   1.89926  -0.86959 
 8                     1.11996   2.50618  -0.36753 
 1                     0.5188    2.56027  -1.1341 
 6                     2.43973  -0.29802   0.22425 
 1                     3.07405   0.47558  -0.22178 
 1                     2.61184  -0.29674   1.30992 
 8                     2.87565  -1.53623  -0.35115 
 1                     2.42307  -2.24821   0.12974 
 
                          Input orientation:                          
 ---------------------------------------------------------------------
 Center     Atomic      Atomic             Coordinates (Angstroms)
 Number     Number       Type             X           Y           Z
 ---------------------------------------------------------------------
      1          6           0       -2.409097   -0.764481    0.329920
      2          6           0       -1.205992   -0.034169    0.962541
      3          7           0        0.019003   -0.850146    0.621903
      4          6           0       -0.434704   -2.004510   -0.192968
      5          6           0       -1.786705   -1.604187   -0.795913
      6          6           0        0.981346    0.037771   -0.067282
      7          6           0        0.604962    1.448084    0.427106
      8          6           0       -0.928482    1.393805    0.458989
      9          1           0       -2.873849   -1.419954    1.075250
     10          1           0       -3.177373   -0.070062   -0.023860
     11          1           0       -1.321345    0.016407    2.051856
     12          1           0       -0.560514   -2.884000    0.452808
     13          1           0        0.320799   -2.257208   -0.941580
     14          1           0       -2.398486   -2.467814   -1.077146
     15          1           0       -1.636319   -0.987818   -1.688956
     16          1           0        0.841961    0.015027   -1.161491
     17          1           0        0.985898    1.600763    1.443017
     18          1           0       -1.363659    2.153337    1.116713
     19          8           0       -1.352941    1.632098   -0.893059
     20          1           0       -2.285608    1.899256   -0.869590
     21          8           0        1.119957    2.506181   -0.367534
     22          1           0        0.518799    2.560269   -1.134103
     23          6           0        2.439732   -0.298019    0.224248
     24          1           0        3.074049    0.475583   -0.221784
     25          1           0        2.611838   -0.296736    1.309916
     26          8           0        2.875653   -1.536228   -0.351151
     27          1           0        2.423074   -2.248211    0.129742
 ---------------------------------------------------------------------
                    Distance matrix (angstroms):
                    1          2          3          4          5
     1  C    0.000000
     2  C    1.543058   0.000000
     3  N    2.447093   1.510783   0.000000
     4  C    2.389417   2.410877   1.484056   0.000000
     5  C    1.536222   2.427827   2.416477   1.533528   0.000000
     6  C    3.506634   2.418710   1.479688   2.488354   3.299854
     7  C    3.740246   2.400691   2.379738   3.658661   4.065981
     8  C    2.620511   1.539378   2.441226   3.495341   3.361440
     9  H    1.095973   2.171371   2.983085   2.810607   2.171883
    10  H    1.094361   2.204681   3.352963   3.360494   2.209878
    11  H    2.181296   1.096573   2.142945   3.147931   3.309482
    12  H    2.815088   2.966143   2.121555   1.098343   2.168126
    13  H    3.361142   3.301313   2.124943   1.093188   2.211160
    14  H    2.209364   3.391901   3.368660   2.202921   1.095089
    15  H    2.173229   2.850450   2.845894   2.171525   1.095469
    16  H    3.660781   2.950939   2.146224   2.578069   3.108920
    17  H    4.284782   2.776372   2.759723   4.206251   4.792895
    18  H    3.197756   2.198593   3.343277   4.457119   4.237463
    19  O    2.890456   2.498258   3.215412   3.815522   3.266669
    20  H    2.923965   2.874092   3.885228   4.372991   3.539554
    21  O    4.861882   3.692224   3.668244   4.774283   5.052457
    22  H    4.665823   3.755253   3.868370   4.757322   4.772045
    23  C    4.872360   3.729075   2.514538   3.368763   4.539777
    24  H    5.648630   4.470036   3.435502   4.296864   5.318082
    25  H    5.137019   3.842582   2.739054   3.802180   5.048874
    26  O    5.384054   4.543324   3.094833   3.347054   4.684017
    27  H    5.058795   4.331934   2.824246   2.886248   4.358193
                    6          7          8          9         10
     6  C    0.000000
     7  C    1.541125   0.000000
     8  C    2.400673   1.534736   0.000000
     9  H    4.277016   4.554982   3.475841   0.000000
    10  H    4.160343   4.100512   2.726456   1.767025   0.000000
    11  H    3.129471   2.898305   2.142147   2.329627   2.785842
    12  H    3.344334   4.486195   4.293606   2.807558   3.872133
    13  H    2.543157   3.960207   4.105142   3.869674   4.226467
    14  H    4.326782   5.159237   4.408256   2.440653   2.732268
    15  H    3.245586   3.928699   3.284331   3.059258   2.447380
    16  H    1.103285   2.152548   2.767933   4.568307   4.178096
    17  H    2.173469   1.095673   2.162405   4.915041   4.719768
    18  H    3.372909   2.201910   1.094929   3.879536   3.087712
    19  O    2.944942   2.368561   1.437005   3.937312   2.642235
    20  H    3.844712   3.200058   1.965297   3.891733   2.321361
    21  O    2.490464   1.419944   2.473181   5.783308   5.022169
    22  H    2.777598   1.918789   2.448102   5.677453   4.670436
    23  C    1.524675   2.540946   3.776538   5.497007   5.627201
    24  H    2.143585   2.731887   4.162552   6.375959   6.278310
    25  H    2.160341   2.802017   4.014458   5.604413   5.945192
    26  O    2.479204   3.829862   4.869586   5.924940   6.236657
    27  H    2.709818   4.129958   4.960404   5.444023   6.011068
                   11         12         13         14         15
    11  H    0.000000
    12  H    3.398261   0.000000
    13  H    4.102026   1.764624   0.000000
    14  H    4.137903   2.427367   2.730795   0.000000
    15  H    3.886046   3.056144   2.449537   1.773583   0.000000
    16  H    3.873693   3.602396   2.341585   4.083150   2.725030
    17  H    2.864304   4.846133   4.583950   5.861621   4.835910
    18  H    2.332971   5.143984   5.150425   5.219092   4.220542
    19  O    3.359164   4.778539   4.234438   4.235131   2.752765
    20  H    3.606906   5.253972   4.906601   4.373456   3.070527
    21  O    4.244099   5.705348   4.863955   6.133809   4.642332
    22  H    4.472997   5.772631   4.825386   5.813382   4.188236
    23  C    4.193413   3.967495   3.112467   5.459853   4.555257
    24  H    4.969886   4.995190   3.945458   6.272469   5.146038
    25  H    4.014780   4.182390   3.763183   5.959446   5.245728
    26  O    5.079361   3.777576   2.719503   5.404763   4.737971
    27  H    4.779507   3.067637   2.359528   4.975163   4.623302
                   16         17         18         19         20
    16  H    0.000000
    17  H    3.052661   0.000000
    18  H    3.824571   2.435617   0.000000
    19  O    2.739447   3.305813   2.076292   0.000000
    20  H    3.662951   4.017462   2.204529   0.970460   0.000000
    21  O    2.629353   2.028755   2.914762   2.674962   3.495467
    22  H    2.565822   2.789333   2.962333   2.103096   2.893372
    23  C    2.138023   2.684102   4.612095   4.399784   5.324785
    24  H    2.465234   2.897925   4.929471   4.624541   5.583227
    25  H    3.055734   2.502379   4.673838   4.928790   5.792893
    26  O    2.683085   4.078103   5.808552   5.311587   6.221732
    27  H    3.047859   4.313324   5.889574   5.510101   6.353883
                   21         22         23         24         25
    21  O    0.000000
    22  H    0.975676   0.000000
    23  C    3.155242   3.702014   0.000000
    24  H    2.821887   3.421629   1.095337   0.000000
    25  H    3.591085   4.303082   1.099226   1.776576   0.000000
    26  O    4.407245   4.790518   1.433273   2.025705   2.089278
    27  H    4.954759   5.324007   1.952552   2.822480   2.288383
                   26         27
    26  O    0.000000
    27  H    0.971085   0.000000
 Stoichiometry    C8H15NO3
 Framework group  C1[X(C8H15NO3)]
 Deg. of freedom    75
 Full point group                 C1      NOp   1
 Largest Abelian subgroup         C1      NOp   1
 Largest concise Abelian subgroup C1      NOp   1
                         Standard orientation:                         
 ---------------------------------------------------------------------
 Center     Atomic      Atomic             Coordinates (Angstroms)
 Number     Number       Type             X           Y           Z
 ---------------------------------------------------------------------
      1          6           0       -2.409097   -0.764481    0.329920
      2          6           0       -1.205992   -0.034169    0.962541
      3          7           0        0.019003   -0.850146    0.621903
      4          6           0       -0.434704   -2.004510   -0.192968
      5          6           0       -1.786705   -1.604187   -0.795913
      6          6           0        0.981346    0.037771   -0.067282
      7          6           0        0.604962    1.448084    0.427106
      8          6           0       -0.928482    1.393805    0.458989
      9          1           0       -2.873849   -1.419954    1.075250
     10          1           0       -3.177373   -0.070062   -0.023860
     11          1           0       -1.321345    0.016407    2.051856
     12          1           0       -0.560514   -2.884000    0.452808
     13          1           0        0.320799   -2.257208   -0.941580
     14          1           0       -2.398486   -2.467814   -1.077146
     15          1           0       -1.636319   -0.987818   -1.688956
     16          1           0        0.841961    0.015027   -1.161491
     17          1           0        0.985898    1.600763    1.443017
     18          1           0       -1.363659    2.153337    1.116713
     19          8           0       -1.352941    1.632098   -0.893059
     20          1           0       -2.285608    1.899256   -0.869590
     21          8           0        1.119957    2.506181   -0.367534
     22          1           0        0.518799    2.560269   -1.134103
     23          6           0        2.439732   -0.298019    0.224248
     24          1           0        3.074049    0.475583   -0.221784
     25          1           0        2.611838   -0.296736    1.309916
     26          8           0        2.875653   -1.536228   -0.351151
     27          1           0        2.423074   -2.248211    0.129742
 ---------------------------------------------------------------------
 Rotational constants (GHZ):      1.1505733      0.9448934      0.6019046
 Standard basis: 6-31+G(d,p) (6D, 7F)
 There are   303 symmetry adapted basis functions of A   symmetry.
 Integral buffers will be    131072 words long.
 Raffenetti 2 integral format.
 Two-electron integral symmetry is turned on.
   303 basis functions,   489 primitive gaussians,   303 cartesian basis functions
    47 alpha electrons       47 beta electrons
       nuclear repulsion energy       810.1622730790 Hartrees.
 NAtoms=   27 NActive=   27 NUniq=   27 SFac= 1.00D+00 NAtFMM=   60 NAOKFM=F Big=F
 ------------------------------------------------------------------------------
 Polarizable Continuum Model (PCM)
 =================================
 Model                : PCM.
 Atomic radii         : UFF (Universal Force Field).
 Polarization charges : Total charges.
 Charge compensation  : None.
 Solution method      : Matrix inversion.
 Cavity type          : Scaled VdW (van der Waals Surface) (Alpha=1.100).
 Cavity algorithm     : GePol (No added spheres)
                        Default sphere list used, NSphG=   27.
                        Lebedev-Laikov grids with approx.  5.0 points / Ang**2.
                        Smoothing algorithm: Karplus/York (Gamma=1.0000).
                        Polarization charges: spherical gaussians, with
                                              point-specific exponents (IZeta= 3).
                        Self-potential: point-specific (ISelfS= 7).
                        Self-field    : sphere-specific E.n sum rule (ISelfD= 2).
 Solvent              : Water, Eps=  78.355300 Eps(inf)=   1.777849
 ------------------------------------------------------------------------------
 One-electron integrals computed using PRISM.
 NBasis=   303 RedAO= T  NBF=   303
 NBsUse=   303 1.00D-06 NBFU=   303
 Harris functional with IExCor=  908 diagonalized for initial guess.
 ExpMin= 4.38D-02 ExpMax= 5.48D+03 ExpMxC= 8.25D+02 IAcc=2 IRadAn=         4 AccDes= 0.00D+00
 HarFok:  IExCor=  908 AccDes= 0.00D+00 IRadAn=         4 IDoV= 1
 ScaDFX=  1.000000  1.000000  1.000000  1.000000
 FoFCou: FMM=F IPFlag=           0 FMFlag=      100000 FMFlg1=           0
         NFxFlg=           0 DoJE=T BraDBF=F KetDBF=T FulRan=T
         Omega=  0.000000  0.000000  1.000000  0.000000  0.000000 ICntrl=     500 IOpCl=  0
         NMat0=    1 NMatS0=    1 NMatT0=    0 NMatD0=    1 NMtDS0=    0 NMtDT0=    0
         I1Cent=           4 NGrid=           0.
 Petite list used in FoFCou.
 Initial guess orbital symmetries:
       Occupied  (A) (A) (A) (A) (A) (A) (A) (A) (A) (A) (A) (A)
                 (A) (A) (A) (A) (A) (A) (A) (A) (A) (A) (A) (A)
                 (A) (A) (A) (A) (A) (A) (A) (A) (A) (A) (A) (A)
                 (A) (A) (A) (A) (A) (A) (A) (A) (A) (A) (A)
       Virtual   (A) (A) (A) (A) (A) (A) (A) (A) (A) (A) (A) (A)
                 (A) (A) (A) (A) (A) (A) (A) (A) (A) (A) (A) (A)
                 (A) (A) (A) (A) (A) (A) (A) (A) (A) (A) (A) (A)
                 (A) (A) (A) (A) (A) (A) (A) (A) (A) (A) (A) (A)
                 (A) (A) (A) (A) (A) (A) (A) (A) (A) (A) (A) (A)
                 (A) (A) (A) (A) (A) (A) (A) (A) (A) (A) (A) (A)
                 (A) (A) (A) (A) (A) (A) (A) (A) (A) (A) (A) (A)
                 (A) (A) (A) (A) (A) (A) (A) (A) (A) (A) (A) (A)
                 (A) (A) (A) (A) (A) (A) (A) (A) (A) (A) (A) (A)
                 (A) (A) (A) (A) (A) (A) (A) (A) (A) (A) (A) (A)
                 (A) (A) (A) (A) (A) (A) (A) (A) (A) (A) (A) (A)
                 (A) (A) (A) (A) (A) (A) (A) (A) (A) (A) (A) (A)
                 (A) (A) (A) (A) (A) (A) (A) (A) (A) (A) (A) (A)
                 (A) (A) (A) (A) (A) (A) (A) (A) (A) (A) (A) (A)
                 (A) (A) (A) (A) (A) (A) (A) (A) (A) (A) (A) (A)
                 (A) (A) (A) (A) (A) (A) (A) (A) (A) (A) (A) (A)
                 (A) (A) (A) (A) (A) (A) (A) (A) (A) (A) (A) (A)
                 (A) (A) (A) (A) (A) (A) (A) (A) (A) (A) (A) (A)
                 (A) (A) (A) (A) (A) (A) (A) (A) (A) (A) (A) (A)
                 (A) (A) (A) (A) (A) (A) (A) (A) (A) (A) (A) (A)
                 (A) (A) (A) (A) (A) (A) (A) (A) (A) (A) (A) (A)
                 (A) (A) (A) (A)
 The electronic state of the initial guess is 1-A.
 Requested convergence on RMS density matrix=1.00D-08 within 128 cycles.
 Requested convergence on MAX density matrix=1.00D-06.
 Requested convergence on             energy=1.00D-06.
 No special actions if energy rises.
 Error on total polarization charges =  0.01439
 SCF Done:  E(RmPW1PW91) =  -594.198664381     A.U. after   13 cycles
             Convg  =    0.4220D-08             -V/T =  2.0094
 Range of M.O.s used for correlation:     1   303
 NBasis=   303 NAE=    47 NBE=    47 NFC=     0 NFV=     0
 NROrb=    303 NOA=    47 NOB=    47 NVA=   256 NVB=   256

 **** Warning!!: The largest alpha MO coefficient is  0.71615064D+02

 NEqPCM:  Using equilibrium solvation (IEInf=0, Eps=  78.3553, EpsInf=   1.7778)
          Differentiating once with respect to magnetic field using GIAOs.
          Electric field/nuclear overlap derivatives assumed to be zero.
 FoFCou: FMM=F IPFlag=           0 FMFlag=    10101102 FMFlg1=           0
         NFxFlg=    40000000 DoJE=F BraDBF=F KetDBF=T FulRan=T
         Omega=  0.000000  0.000000  1.000000  0.000000  0.000000 ICntrl=    6100 IOpCl=  0
         NMat0=    1 NMatS0=    1 NMatT0=    0 NMatD0=    1 NMtDS0=    0 NMtDT0=    0
         I1Cent=           7 NGrid=        1810.
 Symmetry not used in FoFCou.
          There are     3 degrees of freedom in the 1st order CPHF.  IDoFFX=0.
      3 vectors produced by pass  0 Test12= 4.01D-13 3.33D-08 XBig12= 3.24D+01 1.10D+00.
 AX will form     3 AO Fock derivatives at one time.
      3 vectors produced by pass  1 Test12= 4.01D-13 3.33D-08 XBig12= 8.31D-02 5.04D-02.
      3 vectors produced by pass  2 Test12= 4.01D-13 3.33D-08 XBig12= 1.67D-04 2.28D-03.
      3 vectors produced by pass  3 Test12= 4.01D-13 3.33D-08 XBig12= 5.93D-07 1.29D-04.
      3 vectors produced by pass  4 Test12= 4.01D-13 3.33D-08 XBig12= 1.71D-09 8.36D-06.
      3 vectors produced by pass  5 Test12= 4.01D-13 3.33D-08 XBig12= 5.25D-12 3.64D-07.
      1 vectors produced by pass  6 Test12= 4.01D-13 3.33D-08 XBig12= 2.37D-14 3.35D-08.
 Inverted reduced A of dimension    19 with in-core refinement.
 Calculating GIAO nuclear magnetic shielding tensors.
 SCF GIAO Magnetic shielding tensor (ppm):
      1  C    Isotropic =   167.4838   Anisotropy =    23.4948
   XX=   176.5260   YX=    -1.6458   ZX=     1.6294
   XY=     1.3180   YY=   162.1131   ZY=    18.8597
   XZ=    -4.9447   YZ=    20.9520   ZZ=   163.8122
   Eigenvalues:   143.0071   176.2973   183.1470
      2  C    Isotropic =   127.5922   Anisotropy =    52.6019
   XX=   147.6617   YX=   -18.6037   ZX=     1.1987
   XY=   -17.4076   YY=   138.8070   ZY=    15.5614
   XZ=    -4.4190   YZ=     4.9083   ZZ=    96.3078
   Eigenvalues:    93.8451   126.2713   162.6601
      3  N    Isotropic =   191.5871   Anisotropy =    71.0617
   XX=   234.3994   YX=    -0.7355   ZX=   -19.0710
   XY=    11.6873   YY=   194.6783   ZY=    22.1147
   XZ=   -22.1397   YZ=    21.6912   ZZ=   145.6837
   Eigenvalues:   132.8879   202.9118   238.9616
      4  C    Isotropic =   139.8264   Anisotropy =    57.1914
   XX=   136.5750   YX=    15.5853   ZX=     7.6979
   XY=     3.2728   YY=   154.2642   ZY=    28.9697
   XZ=    21.4165   YZ=    26.1038   ZZ=   128.6401
   Eigenvalues:   108.8931   132.6321   177.9540
      5  C    Isotropic =   168.4410   Anisotropy =    24.5898
   XX=   173.4802   YX=    -4.3645   ZX=     6.6761
   XY=    -6.8272   YY=   169.9171   ZY=    14.0533
   XZ=    10.8178   YZ=    22.6123   ZZ=   161.9256
   Eigenvalues:   143.5898   176.8990   184.8341
      6  C    Isotropic =   123.6340   Anisotropy =    41.3174
   XX=   118.7724   YX=    10.4807   ZX=    -5.2772
   XY=    21.2265   YY=   139.1654   ZY=   -13.4786
   XZ=   -25.2658   YZ=     5.4362   ZZ=   112.9642
   Eigenvalues:    98.8600   120.8630   151.1789
      7  C    Isotropic =   120.5029   Anisotropy =    53.7011
   XX=   118.9015   YX=    11.4432   ZX=   -21.6229
   XY=     7.3874   YY=   145.5230   ZY=   -19.9343
   XZ=   -14.5974   YZ=   -12.1459   ZZ=    97.0843
   Eigenvalues:    85.2492   119.9559   156.3037
      8  C    Isotropic =   120.0459   Anisotropy =    23.2816
   XX=   112.2184   YX=     9.2228   ZX=     8.7582
   XY=     9.7037   YY=   118.7690   ZY=   -11.1449
   XZ=    12.2579   YZ=    -6.7270   ZZ=   129.1504
   Eigenvalues:    99.1689   125.4019   135.5670
      9  H    Isotropic =    29.8687   Anisotropy =    12.5471
   XX=    31.1886   YX=     4.3539   ZX=    -4.6341
   XY=     4.9706   YY=    27.8494   ZY=    -2.2594
   XZ=    -5.1581   YZ=    -2.4155   ZZ=    30.5681
   Eigenvalues:    24.3262    27.0465    38.2334
     10  H    Isotropic =    29.7502   Anisotropy =     9.1897
   XX=    34.5262   YX=    -2.5754   ZX=     1.2280
   XY=    -2.9305   YY=    29.6101   ZY=    -0.8364
   XZ=     0.5659   YZ=    -0.6643   ZZ=    25.1142
   Eigenvalues:    24.9671    28.4068    35.8766
     11  H    Isotropic =    28.0221   Anisotropy =     9.0698
   XX=    26.5327   YX=    -0.2497   ZX=    -2.6410
   XY=    -0.0219   YY=    24.4463   ZY=     1.3355
   XZ=    -2.5181   YZ=     0.5161   ZZ=    33.0874
   Eigenvalues:    24.3353    25.6624    34.0687
     12  H    Isotropic =    28.7178   Anisotropy =    11.6748
   XX=    25.6124   YX=     1.4876   ZX=     1.3606
   XY=     0.3898   YY=    35.8111   ZY=    -3.1726
   XZ=     2.5428   YZ=    -2.4384   ZZ=    24.7300
   Eigenvalues:    22.5771    27.0753    36.5010
     13  H    Isotropic =    28.6536   Anisotropy =     7.5051
   XX=    31.1852   YX=    -1.5190   ZX=    -0.6921
   XY=    -1.6313   YY=    28.9606   ZY=     4.9503
   XZ=    -1.6564   YZ=     3.9255   ZZ=    25.8149
   Eigenvalues:    22.6790    29.6247    33.6570
     14  H    Isotropic =    30.0896   Anisotropy =    12.7768
   XX=    30.0431   YX=     4.2937   ZX=     2.4635
   XY=     4.9009   YY=    32.7150   ZY=     4.4497
   XZ=     2.9570   YZ=     4.4839   ZZ=    27.5108
   Eigenvalues:    24.9419    26.7194    38.6074
     15  H    Isotropic =    29.7541   Anisotropy =     7.6916
   XX=    26.7869   YX=    -0.1092   ZX=     0.3266
   XY=    -0.0549   YY=    27.9914   ZY=    -2.0282
   XZ=     0.9668   YZ=    -1.0476   ZZ=    34.4839
   Eigenvalues:    26.7308    27.6497    34.8818
     16  H    Isotropic =    28.8135   Anisotropy =     4.5458
   XX=    29.9861   YX=     0.8327   ZX=    -1.5214
   XY=     0.1852   YY=    27.7647   ZY=    -2.3910
   XZ=    -2.2806   YZ=    -0.9330   ZZ=    28.6897
   Eigenvalues:    26.3022    28.2943    31.8441
     17  H    Isotropic =    27.9412   Anisotropy =     4.7320
   XX=    26.0801   YX=     1.6222   ZX=     0.3294
   XY=     0.8243   YY=    28.2749   ZY=     0.6781
   XZ=     2.8927   YZ=     1.8826   ZZ=    29.4685
   Eigenvalues:    25.2588    27.4688    31.0958
     18  H    Isotropic =    27.6537   Anisotropy =     8.5705
   XX=    24.4575   YX=    -1.8583   ZX=    -0.1354
   XY=    -2.1746   YY=    28.1052   ZY=     2.9745
   XZ=    -1.3458   YZ=     4.1661   ZZ=    30.3985
   Eigenvalues:    23.4352    26.1586    33.3674
     19  O    Isotropic =   309.4793   Anisotropy =    35.1290
   XX=   329.3280   YX=   -12.6836   ZX=    -0.3581
   XY=    -7.5666   YY=   293.3536   ZY=    28.7402
   XZ=    -3.3629   YZ=    -5.6139   ZZ=   305.7563
   Eigenvalues:   285.0311   310.5082   332.8986
     20  H    Isotropic =    29.4943   Anisotropy =    20.7636
   XX=    39.9503   YX=    -6.6859   ZX=     2.4584
   XY=    -7.2301   YY=    25.1944   ZY=    -3.9846
   XZ=     2.6312   YZ=    -2.2366   ZZ=    23.3381
   Eigenvalues:    20.6455    24.5007    43.3366
     21  O    Isotropic =   308.9678   Anisotropy =    30.3111
   XX=   293.2104   YX=   -11.3449   ZX=    19.8691
   XY=    12.1663   YY=   326.5189   ZY=    -8.7139
   XZ=    24.1353   YZ=    -1.3063   ZZ=   307.1740
   Eigenvalues:   276.8893   320.8388   329.1752
     22  H    Isotropic =    28.7237   Anisotropy =    14.8572
   XX=    30.2404   YX=     3.5908   ZX=     6.5036
   XY=     1.6711   YY=    23.5027   ZY=    -5.2153
   XZ=     6.9533   YZ=    -5.7842   ZZ=    32.4279
   Eigenvalues:    18.2483    29.2942    38.6284
     23  C    Isotropic =   124.7716   Anisotropy =    49.8905
   XX=   126.7550   YX=   -14.7701   ZX=     2.7468
   XY=   -20.7425   YY=   137.5389   ZY=    24.3796
   XZ=    -1.1864   YZ=    21.2151   ZZ=   110.0210
   Eigenvalues:    94.0637   122.2192   158.0320
     24  H    Isotropic =    27.7106   Anisotropy =     5.2786
   XX=    30.6842   YX=    -0.1984   ZX=    -1.3478
   XY=     1.4431   YY=    30.1415   ZY=    -0.4585
   XZ=    -1.5258   YZ=     0.9497   ZZ=    22.3061
   Eigenvalues:    22.0518    29.8504    31.2297
     25  H    Isotropic =    28.0201   Anisotropy =     5.5394
   XX=    27.6563   YX=    -2.1938   ZX=     2.4731
   XY=    -1.4418   YY=    27.8258   ZY=     4.4004
   XZ=     3.0522   YZ=     2.0004   ZZ=    28.5783
   Eigenvalues:    22.8282    29.5190    31.7130
     26  O    Isotropic =   307.3934   Anisotropy =    22.8111
   XX=   300.3533   YX=    14.9567   ZX=     4.1425
   XY=     2.2201   YY=   311.9429   ZY=    -4.4720
   XZ=   -13.2167   YZ=   -10.6344   ZZ=   309.8841
   Eigenvalues:   295.7671   303.8123   322.6008
     27  H    Isotropic =    30.0586   Anisotropy =    14.5267
   XX=    28.6371   YX=     1.8520   ZX=    -4.7027
   XY=     2.6819   YY=    36.8720   ZY=    -4.9105
   XZ=    -3.7880   YZ=    -4.7406   ZZ=    24.6668
   Eigenvalues:    21.3610    29.0719    39.7431
 End of Minotr Frequency-dependent properties file   721 does not exist.
 End of Minotr Frequency-dependent properties file   722 does not exist.

 **********************************************************************

            Population analysis using the SCF density.

 **********************************************************************

 Orbital symmetries:
       Occupied  (A) (A) (A) (A) (A) (A) (A) (A) (A) (A) (A) (A)
                 (A) (A) (A) (A) (A) (A) (A) (A) (A) (A) (A) (A)
                 (A) (A) (A) (A) (A) (A) (A) (A) (A) (A) (A) (A)
                 (A) (A) (A) (A) (A) (A) (A) (A) (A) (A) (A)
       Virtual   (A) (A) (A) (A) (A) (A) (A) (A) (A) (A) (A) (A)
                 (A) (A) (A) (A) (A) (A) (A) (A) (A) (A) (A) (A)
                 (A) (A) (A) (A) (A) (A) (A) (A) (A) (A) (A) (A)
                 (A) (A) (A) (A) (A) (A) (A) (A) (A) (A) (A) (A)
                 (A) (A) (A) (A) (A) (A) (A) (A) (A) (A) (A) (A)
                 (A) (A) (A) (A) (A) (A) (A) (A) (A) (A) (A) (A)
                 (A) (A) (A) (A) (A) (A) (A) (A) (A) (A) (A) (A)
                 (A) (A) (A) (A) (A) (A) (A) (A) (A) (A) (A) (A)
                 (A) (A) (A) (A) (A) (A) (A) (A) (A) (A) (A) (A)
                 (A) (A) (A) (A) (A) (A) (A) (A) (A) (A) (A) (A)
                 (A) (A) (A) (A) (A) (A) (A) (A) (A) (A) (A) (A)
                 (A) (A) (A) (A) (A) (A) (A) (A) (A) (A) (A) (A)
                 (A) (A) (A) (A) (A) (A) (A) (A) (A) (A) (A) (A)
                 (A) (A) (A) (A) (A) (A) (A) (A) (A) (A) (A) (A)
                 (A) (A) (A) (A) (A) (A) (A) (A) (A) (A) (A) (A)
                 (A) (A) (A) (A) (A) (A) (A) (A) (A) (A) (A) (A)
                 (A) (A) (A) (A) (A) (A) (A) (A) (A) (A) (A) (A)
                 (A) (A) (A) (A) (A) (A) (A) (A) (A) (A) (A) (A)
                 (A) (A) (A) (A) (A) (A) (A) (A) (A) (A) (A) (A)
                 (A) (A) (A) (A) (A) (A) (A) (A) (A) (A) (A) (A)
                 (A) (A) (A) (A) (A) (A) (A) (A) (A) (A) (A) (A)
                 (A) (A) (A) (A)
 The electronic state is 1-A.
 Alpha  occ. eigenvalues --  -19.26547 -19.25647 -19.25540 -14.41291 -10.30722
 Alpha  occ. eigenvalues --  -10.30661 -10.29267 -10.27873 -10.27648 -10.26777
 Alpha  occ. eigenvalues --  -10.24786 -10.24214  -1.08092  -1.05578  -1.05089
 Alpha  occ. eigenvalues --   -0.96168  -0.82634  -0.79341  -0.75285  -0.71706
 Alpha  occ. eigenvalues --   -0.66340  -0.62454  -0.60103  -0.57990  -0.55994
 Alpha  occ. eigenvalues --   -0.53301  -0.52258  -0.50248  -0.48816  -0.47133
 Alpha  occ. eigenvalues --   -0.45389  -0.44977  -0.43347  -0.42203  -0.40548
 Alpha  occ. eigenvalues --   -0.39290  -0.38674  -0.38040  -0.36150  -0.35687
 Alpha  occ. eigenvalues --   -0.34775  -0.34534  -0.34020  -0.30599  -0.30369
 Alpha  occ. eigenvalues --   -0.28910  -0.23205
 Alpha virt. eigenvalues --    0.00177   0.01390   0.01891   0.02496   0.03524
 Alpha virt. eigenvalues --    0.04239   0.04603   0.05097   0.05462   0.06771
 Alpha virt. eigenvalues --    0.07591   0.08148   0.08353   0.09117   0.09567
 Alpha virt. eigenvalues --    0.10588   0.11450   0.12010   0.12390   0.12727
 Alpha virt. eigenvalues --    0.13170   0.13919   0.14345   0.14960   0.15294
 Alpha virt. eigenvalues --    0.15475   0.16020   0.16511   0.18207   0.18517
 Alpha virt. eigenvalues --    0.19147   0.19583   0.19840   0.20576   0.20924
 Alpha virt. eigenvalues --    0.21477   0.21952   0.22263   0.23092   0.23376
 Alpha virt. eigenvalues --    0.23724   0.24478   0.24854   0.25116   0.25670
 Alpha virt. eigenvalues --    0.26455   0.27068   0.27517   0.27998   0.28834
 Alpha virt. eigenvalues --    0.29136   0.29631   0.30357   0.31368   0.31686
 Alpha virt. eigenvalues --    0.32408   0.32617   0.33570   0.33992   0.34966
 Alpha virt. eigenvalues --    0.35164   0.36463   0.36786   0.37544   0.38552
 Alpha virt. eigenvalues --    0.38890   0.39909   0.40254   0.41237   0.42210
 Alpha virt. eigenvalues --    0.43032   0.44004   0.44233   0.44511   0.45447
 Alpha virt. eigenvalues --    0.48301   0.64258   0.66818   0.67275   0.68984
 Alpha virt. eigenvalues --    0.69424   0.70463   0.72054   0.72961   0.73998
 Alpha virt. eigenvalues --    0.76865   0.78462   0.79309   0.81012   0.82213
 Alpha virt. eigenvalues --    0.83431   0.84639   0.86002   0.86552   0.87234
 Alpha virt. eigenvalues --    0.89128   0.90984   0.91450   0.94421   0.96374
 Alpha virt. eigenvalues --    0.99248   1.00338   1.02929   1.03324   1.03714
 Alpha virt. eigenvalues --    1.04081   1.06660   1.08617   1.09203   1.10968
 Alpha virt. eigenvalues --    1.12461   1.12640   1.13118   1.14080   1.15655
 Alpha virt. eigenvalues --    1.16527   1.18562   1.19969   1.22219   1.24953
 Alpha virt. eigenvalues --    1.28632   1.28790   1.29242   1.32357   1.33862
 Alpha virt. eigenvalues --    1.33964   1.36400   1.39224   1.39572   1.41660
 Alpha virt. eigenvalues --    1.42583   1.45205   1.46019   1.48416   1.50818
 Alpha virt. eigenvalues --    1.55508   1.56940   1.58551   1.59573   1.61634
 Alpha virt. eigenvalues --    1.62667   1.63844   1.66754   1.69853   1.71760
 Alpha virt. eigenvalues --    1.72612   1.73702   1.76559   1.76778   1.78996
 Alpha virt. eigenvalues --    1.81140   1.81810   1.83604   1.84435   1.87172
 Alpha virt. eigenvalues --    1.88085   1.90095   1.91095   1.92870   1.93796
 Alpha virt. eigenvalues --    1.96618   1.97304   2.01662   2.03563   2.04974
 Alpha virt. eigenvalues --    2.05528   2.07500   2.08179   2.09738   2.10202
 Alpha virt. eigenvalues --    2.14663   2.15624   2.15818   2.18827   2.19741
 Alpha virt. eigenvalues --    2.20884   2.24306   2.26722   2.28222   2.30636
 Alpha virt. eigenvalues --    2.31075   2.32696   2.35360   2.35995   2.40179
 Alpha virt. eigenvalues --    2.41455   2.43347   2.44738   2.47021   2.47467
 Alpha virt. eigenvalues --    2.48398   2.50009   2.50464   2.54369   2.54916
 Alpha virt. eigenvalues --    2.56730   2.58885   2.60026   2.61112   2.62081
 Alpha virt. eigenvalues --    2.65207   2.66123   2.68657   2.69486   2.70733
 Alpha virt. eigenvalues --    2.71000   2.72425   2.73784   2.77107   2.77855
 Alpha virt. eigenvalues --    2.77941   2.80003   2.82496   2.83347   2.85456
 Alpha virt. eigenvalues --    2.85845   2.88792   2.90619   2.92738   2.96934
 Alpha virt. eigenvalues --    2.98560   3.00010   3.02545   3.03177   3.04126
 Alpha virt. eigenvalues --    3.05570   3.07012   3.12198   3.12744   3.32850
 Alpha virt. eigenvalues --    3.34978   3.37089   3.39113   3.40139   3.44711
 Alpha virt. eigenvalues --    3.47683   3.49172   3.53934   3.55593   3.56222
 Alpha virt. eigenvalues --    3.56985   3.59038   3.60522   3.62406   4.30453
 Alpha virt. eigenvalues --    4.33419   4.36578   4.45959   4.50102   4.55759
 Alpha virt. eigenvalues --    4.61907   4.67549   4.80041   4.80489   4.88092
 Alpha virt. eigenvalues --    5.02242
          Condensed to atoms (all electrons):
              1          2          3          4          5          6
     1  C    5.766849  -0.210967   0.015496  -0.013006   0.176264  -0.153190
     2  C   -0.210967   8.075397  -0.147040  -0.282480  -0.025958  -0.539118
     3  N    0.015496  -0.147040   7.417944   0.148434  -0.133847  -0.407831
     4  C   -0.013006  -0.282480   0.148434   5.883374   0.073845  -0.171716
     5  C    0.176264  -0.025958  -0.133847   0.073845   5.453372   0.100379
     6  C   -0.153190  -0.539118  -0.407831  -0.171716   0.100379  10.166118
     7  C    0.067729   0.262722   0.196099  -0.381286   0.031934  -2.174913
     8  C   -0.138957  -1.093651  -0.188751   0.231534   0.026622   1.090339
     9  H    0.427252  -0.078725   0.009998  -0.001747  -0.051287   0.013714
    10  H    0.385074  -0.119544   0.017851   0.027454  -0.020016  -0.004834
    11  H    0.008991   0.194643  -0.010368  -0.005098   0.017070   0.009665
    12  H    0.005127  -0.028757  -0.028686   0.375524  -0.039283   0.009872
    13  H    0.022219   0.036201  -0.060875   0.386026  -0.032532   0.011015
    14  H   -0.032507   0.022708   0.012988  -0.029258   0.357013   0.001077
    15  H   -0.050549  -0.005413   0.010760  -0.082331   0.439262   0.013433
    16  H    0.016789   0.010671  -0.068602   0.069993  -0.019831   0.329262
    17  H    0.015196  -0.010121   0.043358   0.013678  -0.003478  -0.149753
    18  H    0.016557  -0.028074   0.015983   0.000461  -0.006603   0.000554
    19  O    0.081579  -0.174476   0.049749   0.010636  -0.037878   0.100044
    20  H   -0.002274  -0.057514  -0.002257  -0.000667   0.001180  -0.004471
    21  O    0.000209   0.014797   0.007236  -0.002666  -0.000817  -0.203372
    22  H    0.006665   0.005467   0.006328   0.003571  -0.002971  -0.052376
    23  C    0.087917   0.084940   0.224836   0.024668  -0.071427  -1.568361
    24  H    0.000274   0.013798   0.011727  -0.006576   0.001247  -0.211850
    25  H    0.003524  -0.003166   0.012549   0.015062  -0.002716  -0.102788
    26  O    0.004585   0.021614   0.021877  -0.012355  -0.003410  -0.107569
    27  H   -0.000236   0.010987   0.018297  -0.006489   0.005877  -0.083173
              7          8          9         10         11         12
     1  C    0.067729  -0.138957   0.427252   0.385074   0.008991   0.005127
     2  C    0.262722  -1.093651  -0.078725  -0.119544   0.194643  -0.028757
     3  N    0.196099  -0.188751   0.009998   0.017851  -0.010368  -0.028686
     4  C   -0.381286   0.231534  -0.001747   0.027454  -0.005098   0.375524
     5  C    0.031934   0.026622  -0.051287  -0.020016   0.017070  -0.039283
     6  C   -2.174913   1.090339   0.013714  -0.004834   0.009665   0.009872
     7  C    8.457339  -1.259883  -0.001994  -0.004904  -0.008671   0.013742
     8  C   -1.259883   7.151350   0.013242   0.049898   0.058060  -0.003987
     9  H   -0.001994   0.013242   0.519615  -0.024186  -0.006965   0.001486
    10  H   -0.004904   0.049898  -0.024186   0.529985   0.002900  -0.000010
    11  H   -0.008671   0.058060  -0.006965   0.002900   0.564000   0.000867
    12  H    0.013742  -0.003987   0.001486  -0.000010   0.000867   0.552026
    13  H    0.015815  -0.021658  -0.000110  -0.000148  -0.000179  -0.031302
    14  H    0.004076   0.000417  -0.004860   0.000751  -0.000055  -0.003156
    15  H    0.015917  -0.010440   0.004067  -0.005458  -0.000105   0.004050
    16  H   -0.069208   0.001691  -0.000003  -0.000030  -0.000530  -0.000346
    17  H    0.424628  -0.062335   0.000003  -0.000006   0.000335   0.000011
    18  H    0.025684   0.291822  -0.000005   0.000119  -0.002419   0.000005
    19  O   -0.211124   0.120607   0.000272   0.001313   0.009281   0.000287
    20  H    0.021078   0.064142  -0.000035   0.001809   0.000051  -0.000001
    21  O    0.370870  -0.075970   0.000020  -0.000074  -0.000414   0.000007
    22  H    0.062076  -0.068559   0.000000   0.000001  -0.000019   0.000000
    23  C    0.302442  -0.337708   0.000911  -0.001038   0.001705   0.008276
    24  H    0.056055  -0.017025   0.000000   0.000000  -0.000006  -0.000003
    25  H    0.003621  -0.007658   0.000000   0.000000  -0.000012   0.000016
    26  O    0.043823  -0.034818  -0.000012  -0.000001   0.000042  -0.000283
    27  H    0.012707  -0.003784   0.000000   0.000000  -0.000010  -0.000365
             13         14         15         16         17         18
     1  C    0.022219  -0.032507  -0.050549   0.016789   0.015196   0.016557
     2  C    0.036201   0.022708  -0.005413   0.010671  -0.010121  -0.028074
     3  N   -0.060875   0.012988   0.010760  -0.068602   0.043358   0.015983
     4  C    0.386026  -0.029258  -0.082331   0.069993   0.013678   0.000461
     5  C   -0.032532   0.357013   0.439262  -0.019831  -0.003478  -0.006603
     6  C    0.011015   0.001077   0.013433   0.329262  -0.149753   0.000554
     7  C    0.015815   0.004076   0.015917  -0.069208   0.424628   0.025684
     8  C   -0.021658   0.000417  -0.010440   0.001691  -0.062335   0.291822
     9  H   -0.000110  -0.004860   0.004067  -0.000003   0.000003  -0.000005
    10  H   -0.000148   0.000751  -0.005458  -0.000030  -0.000006   0.000119
    11  H   -0.000179  -0.000055  -0.000105  -0.000530   0.000335  -0.002419
    12  H   -0.031302  -0.003156   0.004050  -0.000346   0.000011   0.000005
    13  H    0.529776   0.000972  -0.005741   0.001917  -0.000017   0.000005
    14  H    0.000972   0.524059  -0.024192  -0.000145   0.000000   0.000004
    15  H   -0.005741  -0.024192   0.511915   0.000197   0.000003   0.000023
    16  H    0.001917  -0.000145   0.000197   0.563575   0.004152  -0.000174
    17  H   -0.000017   0.000000   0.000003   0.004152   0.535781  -0.004594
    18  H    0.000005   0.000004   0.000023  -0.000174  -0.004594   0.550340
    19  O    0.000424   0.000477   0.000135   0.003379   0.009019  -0.037266
    20  H   -0.000003  -0.000007  -0.000179  -0.000006  -0.000169  -0.008516
    21  O   -0.000024  -0.000009  -0.000010  -0.003266  -0.052937   0.002288
    22  H   -0.000003   0.000000   0.000013   0.002509   0.006371  -0.000129
    23  C   -0.021938   0.000009   0.003747  -0.015110   0.044724   0.009982
    24  H   -0.000026   0.000000   0.000000  -0.002404  -0.000030  -0.000001
    25  H    0.000105   0.000000   0.000001   0.004592   0.003711   0.000002
    26  O    0.005102   0.000038  -0.000177  -0.000400   0.000035   0.000033
    27  H    0.000159  -0.000004   0.000000   0.000118   0.000014   0.000000
             19         20         21         22         23         24
     1  C    0.081579  -0.002274   0.000209   0.006665   0.087917   0.000274
     2  C   -0.174476  -0.057514   0.014797   0.005467   0.084940   0.013798
     3  N    0.049749  -0.002257   0.007236   0.006328   0.224836   0.011727
     4  C    0.010636  -0.000667  -0.002666   0.003571   0.024668  -0.006576
     5  C   -0.037878   0.001180  -0.000817  -0.002971  -0.071427   0.001247
     6  C    0.100044  -0.004471  -0.203372  -0.052376  -1.568361  -0.211850
     7  C   -0.211124   0.021078   0.370870   0.062076   0.302442   0.056055
     8  C    0.120607   0.064142  -0.075970  -0.068559  -0.337708  -0.017025
     9  H    0.000272  -0.000035   0.000020   0.000000   0.000911   0.000000
    10  H    0.001313   0.001809  -0.000074   0.000001  -0.001038   0.000000
    11  H    0.009281   0.000051  -0.000414  -0.000019   0.001705  -0.000006
    12  H    0.000287  -0.000001   0.000007   0.000000   0.008276  -0.000003
    13  H    0.000424  -0.000003  -0.000024  -0.000003  -0.021938  -0.000026
    14  H    0.000477  -0.000007  -0.000009   0.000000   0.000009   0.000000
    15  H    0.000135  -0.000179  -0.000010   0.000013   0.003747   0.000000
    16  H    0.003379  -0.000006  -0.003266   0.002509  -0.015110  -0.002404
    17  H    0.009019  -0.000169  -0.052937   0.006371   0.044724  -0.000030
    18  H   -0.037266  -0.008516   0.002288  -0.000129   0.009982  -0.000001
    19  O    8.419274   0.239288  -0.000779   0.024177   0.035900  -0.000283
    20  H    0.239288   0.345488  -0.001134  -0.000410  -0.002620   0.000000
    21  O   -0.000779  -0.001134   8.194097   0.253953   0.031537   0.005244
    22  H    0.024177  -0.000410   0.253953   0.355074   0.010011  -0.000094
    23  C    0.035900  -0.002620   0.031537   0.010011   6.345247   0.526978
    24  H   -0.000283   0.000000   0.005244  -0.000094   0.526978   0.542517
    25  H    0.000223   0.000000  -0.000057   0.000002   0.431943  -0.033236
    26  O    0.000569  -0.000004  -0.000295  -0.000010   0.180190  -0.061495
    27  H   -0.000040   0.000000   0.000063   0.000001   0.038803   0.006714
             25         26         27
     1  C    0.003524   0.004585  -0.000236
     2  C   -0.003166   0.021614   0.010987
     3  N    0.012549   0.021877   0.018297
     4  C    0.015062  -0.012355  -0.006489
     5  C   -0.002716  -0.003410   0.005877
     6  C   -0.102788  -0.107569  -0.083173
     7  C    0.003621   0.043823   0.012707
     8  C   -0.007658  -0.034818  -0.003784
     9  H    0.000000  -0.000012   0.000000
    10  H    0.000000  -0.000001   0.000000
    11  H   -0.000012   0.000042  -0.000010
    12  H    0.000016  -0.000283  -0.000365
    13  H    0.000105   0.005102   0.000159
    14  H    0.000000   0.000038  -0.000004
    15  H    0.000001  -0.000177   0.000000
    16  H    0.004592  -0.000400   0.000118
    17  H    0.003711   0.000035   0.000014
    18  H    0.000002   0.000033   0.000000
    19  O    0.000223   0.000569  -0.000040
    20  H    0.000000  -0.000004   0.000000
    21  O   -0.000057  -0.000295   0.000063
    22  H    0.000002  -0.000010   0.000001
    23  C    0.431943   0.180190   0.038803
    24  H   -0.033236  -0.061495   0.006714
    25  H    0.561429  -0.042405  -0.006883
    26  O   -0.042405   8.276050   0.257409
    27  H   -0.006883   0.257409   0.375205
 Mulliken atomic charges:
              1
     1  C   -0.506610
     2  C    0.051060
     3  N   -0.193252
     4  C   -0.268586
     5  C   -0.232009
     6  C    0.089843
     7  C   -0.276373
     8  C    0.225462
     9  H    0.179351
    10  H    0.163094
    11  H    0.167240
    12  H    0.164884
    13  H    0.164819
    14  H    0.169603
    15  H    0.181072
    16  H    0.171211
    17  H    0.182421
    18  H    0.173918
    19  O   -0.644787
    20  H    0.407233
    21  O   -0.538496
    22  H    0.388350
    23  C   -0.376563
    24  H    0.168477
    25  H    0.162141
    26  O   -0.548134
    27  H    0.374630
 Sum of Mulliken atomic charges =   0.00000
 Mulliken charges with hydrogens summed into heavy atoms:
              1
     1  C   -0.164166
     2  C    0.218300
     3  N   -0.193252
     4  C    0.061117
     5  C    0.118667
     6  C    0.261055
     7  C   -0.093952
     8  C    0.399380
    19  O   -0.237554
    21  O   -0.150147
    23  C   -0.045945
    26  O   -0.173503
 Sum of Mulliken charges with hydrogens summed into heavy atoms =   0.00000
 Electronic spatial extent (au):  <R**2>=           2005.7247
 Charge=              0.0000 electrons
 Dipole moment (field-independent basis, Debye):
    X=             -5.9003    Y=             -0.2716    Z=              1.4956  Tot=              6.0929
 Quadrupole moment (field-independent basis, Debye-Ang):
   XX=            -75.8314   YY=            -73.8843   ZZ=            -73.0664
   XY=             -3.8899   XZ=              3.5053   YZ=             -0.2409
 Traceless Quadrupole moment (field-independent basis, Debye-Ang):
   XX=             -1.5707   YY=              0.3763   ZZ=              1.1943
   XY=             -3.8899   XZ=              3.5053   YZ=             -0.2409
 Octapole moment (field-independent basis, Debye-Ang**2):
  XXX=            -53.7343  YYY=            -20.7032  ZZZ=             -3.8906  XYY=            -23.8758
  XXY=             22.8372  XXZ=              9.8957  XZZ=             -0.2428  YZZ=             11.5978
  YYZ=             -0.5751  XYZ=             -3.8759
 Hexadecapole moment (field-independent basis, Debye-Ang**3):
 XXXX=          -1371.5494 YYYY=          -1021.1808 ZZZZ=           -270.4954 XXXY=              2.8968
 XXXZ=             50.0583 YYYX=            -85.7474 YYYZ=            -25.1268 ZZZX=             -0.7109
 ZZZY=             -9.2010 XXYY=           -384.7355 XXZZ=           -259.7727 YYZZ=           -202.7715
 XXYZ=            -28.9742 YYXZ=             15.5136 ZZXY=              1.0575
 N-N= 8.101622730790D+02 E-N=-3.006169814865D+03  KE= 5.886581621283D+02
 1\1\GINC-COMPUTE-3-1\SP\RmPW1PW91\6-31+G(d,p)\C8H15N1O3\MAMICHETTI.IQU
 IR\17-May-2024\0\\# mpw1pw91/6-31+G** nmr scrf=(pcm,solvent=water)\\co
 mment\\0,1\C,0,-2.409097,-0.764481,0.32992\C,0,-1.205992,-0.034169,0.9
 62541\N,0,0.019003,-0.850146,0.621903\C,0,-0.434704,-2.00451,-0.192968
 \C,0,-1.786705,-1.604187,-0.795913\C,0,0.981346,0.037771,-0.067282\C,0
 ,0.604962,1.448084,0.427106\C,0,-0.928482,1.393805,0.458989\H,0,-2.873
 849,-1.419954,1.07525\H,0,-3.177373,-0.070062,-0.02386\H,0,-1.321345,0
 .016407,2.051856\H,0,-0.560514,-2.884,0.452808\H,0,0.320799,-2.257208,
 -0.94158\H,0,-2.398486,-2.467814,-1.077146\H,0,-1.636319,-0.987818,-1.
 688956\H,0,0.841961,0.015027,-1.161491\H,0,0.985898,1.600763,1.443017\
 H,0,-1.363659,2.153337,1.116713\O,0,-1.352941,1.632098,-0.893059\H,0,-
 2.285608,1.899256,-0.86959\O,0,1.119957,2.506181,-0.367534\H,0,0.51879
 9,2.560269,-1.134103\C,0,2.439732,-0.298019,0.224248\H,0,3.074049,0.47
 5583,-0.221784\H,0,2.611838,-0.296736,1.309916\O,0,2.875653,-1.536228,
 -0.351151\H,0,2.423074,-2.248211,0.129742\\Version=AM64L-G09RevC.01\St
 ate=1-A\HF=-594.1986644\RMSD=4.220e-09\Dipole=-2.3213532,-0.1068613,0.
 5884119\Quadrupole=-1.1677625,0.2798025,0.88796,-2.892051,2.6061295,-0
 .1790725\PG=C01 [X(C8H15N1O3)]\\@


 Until you make peace with who you are,
 you'll never be content with what you have.
                           -- Doris Mortman
 Job cpu time:  0 days  0 hours  8 minutes 39.6 seconds.
 File lengths (MBytes):  RWF=    112 Int=      0 D2E=      0 Chk=      7 Scr=      1
 Normal termination of Gaussian 09 at Fri May 17 12:15:15 2024.
