 Entering Gaussian System, Link 0=g09
 Input=/home/mamichetti.iquir/Linux/01_Cardona_A1A3_R__S_R_R_001_OptB.gjc
 Output=/home/mamichetti.iquir/Linux/01_Cardona_A1A3_R__S_R_R_001_OptB.log
 Initial command:
 /opt/ohpc/pub/apps/software/Gaussian/09/AMD64.SSE4a-enabled/g09/l1.exe /local/mamichetti.iquir/Gau-403733.inp -scrdir=/local/mamichetti.iquir/
 Entering Link 1 = /opt/ohpc/pub/apps/software/Gaussian/09/AMD64.SSE4a-enabled/g09/l1.exe PID=    403741.
  
 Copyright (c) 1988,1990,1992,1993,1995,1998,2003,2009,2011,
            Gaussian, Inc.  All Rights Reserved.
  
 This is part of the Gaussian(R) 09 program.  It is based on
 the Gaussian(R) 03 system (copyright 2003, Gaussian, Inc.),
 the Gaussian(R) 98 system (copyright 1998, Gaussian, Inc.),
 the Gaussian(R) 94 system (copyright 1995, Gaussian, Inc.),
 the Gaussian 92(TM) system (copyright 1992, Gaussian, Inc.),
 the Gaussian 90(TM) system (copyright 1990, Gaussian, Inc.),
 the Gaussian 88(TM) system (copyright 1988, Gaussian, Inc.),
 the Gaussian 86(TM) system (copyright 1986, Carnegie Mellon
 University), and the Gaussian 82(TM) system (copyright 1983,
 Carnegie Mellon University). Gaussian is a federally registered
 trademark of Gaussian, Inc.
  
 This software contains proprietary and confidential information,
 including trade secrets, belonging to Gaussian, Inc.
  
 This software is provided under written license and may be
 used, copied, transmitted, or stored only in accord with that
 written license.
  
 The following legend is applicable only to US Government
 contracts under FAR:
  
                    RESTRICTED RIGHTS LEGEND
  
 Use, reproduction and disclosure by the US Government is
 subject to restrictions as set forth in subparagraphs (a)
 and (c) of the Commercial Computer Software - Restricted
 Rights clause in FAR 52.227-19.
  
 Gaussian, Inc.
 340 Quinnipiac St., Bldg. 40, Wallingford CT 06492
  
  
 ---------------------------------------------------------------
 Warning -- This program may not be used in any manner that
 competes with the business of Gaussian, Inc. or will provide
 assistance to any competitor of Gaussian, Inc.  The licensee
 of this program is prohibited from giving any competitor of
 Gaussian, Inc. access to this program.  By using this program,
 the user acknowledges that Gaussian, Inc. is engaged in the
 business of creating and licensing software in the field of
 computational chemistry and represents and warrants to the
 licensee that it is not a competitor of Gaussian, Inc. and that
 it will not use this program in any manner prohibited above.
 ---------------------------------------------------------------
  

 Cite this work as:
 Gaussian 09, Revision C.01,
 M. J. Frisch, G. W. Trucks, H. B. Schlegel, G. E. Scuseria, 
 M. A. Robb, J. R. Cheeseman, G. Scalmani, V. Barone, B. Mennucci, 
 G. A. Petersson, H. Nakatsuji, M. Caricato, X. Li, H. P. Hratchian, 
 A. F. Izmaylov, J. Bloino, G. Zheng, J. L. Sonnenberg, M. Hada, 
 M. Ehara, K. Toyota, R. Fukuda, J. Hasegawa, M. Ishida, T. Nakajima, 
 Y. Honda, O. Kitao, H. Nakai, T. Vreven, J. A. Montgomery, Jr., 
 J. E. Peralta, F. Ogliaro, M. Bearpark, J. J. Heyd, E. Brothers, 
 K. N. Kudin, V. N. Staroverov, T. Keith, R. Kobayashi, J. Normand, 
 K. Raghavachari, A. Rendell, J. C. Burant, S. S. Iyengar, J. Tomasi, 
 M. Cossi, N. Rega, J. M. Millam, M. Klene, J. E. Knox, J. B. Cross, 
 V. Bakken, C. Adamo, J. Jaramillo, R. Gomperts, R. E. Stratmann, 
 O. Yazyev, A. J. Austin, R. Cammi, C. Pomelli, J. W. Ochterski, 
 R. L. Martin, K. Morokuma, V. G. Zakrzewski, G. A. Voth, 
 P. Salvador, J. J. Dannenberg, S. Dapprich, A. D. Daniels, 
 O. Farkas, J. B. Foresman, J. V. Ortiz, J. Cioslowski, 
 and D. J. Fox, Gaussian, Inc., Wallingford CT, 2010.
 
 ******************************************
 Gaussian 09:  AM64L-G09RevC.01 23-Sep-2011
                17-May-2024 
 ******************************************
 %nprocshared=4
 Will use up to    4 processors via shared memory.
 ------------------------------------------------
 # mpw1pw91/6-31+G** nmr scrf=(pcm,solvent=water)
 ------------------------------------------------
 1/38=1/1;
 2/12=2,17=6,18=5,40=1/2;
 3/5=1,6=6,7=111,11=2,16=1,25=1,30=1,70=2201,72=1,74=-7/1,2,8,3;
 4//1;
 5/5=2,38=5,53=1/2;
 8/6=1,10=90,11=11/1;
 10/13=100,45=16/2;
 6/7=2,8=2,9=2,10=2,28=1/1;
 99/9=1/99;
 -------
 comment
 -------
 Charge =  0 Multiplicity = 1
 Symbolic Z-Matrix:
 6                    -2.47622  -0.14077   0.55611 
 6                    -1.01475   0.08625   1.00232 
 7                    -0.18748  -0.95527   0.28788 
 6                    -1.10853  -1.76927  -0.54206 
 6                    -2.34998  -0.89924  -0.77479 
 6                     0.87548  -0.26154  -0.47357 
 6                     1.05793   1.05276   0.30301 
 6                    -0.38313   1.44263   0.65034 
 1                    -2.98931  -0.76498   1.29639 
 1                    -3.03274   0.79591   0.46744 
 1                    -0.92045  -0.0548    2.08475 
 1                    -1.38321  -2.68134   0.00373 
 1                    -0.60925  -2.07967  -1.46507 
 1                    -3.239    -1.49057  -1.01719 
 1                    -2.17238  -0.19754  -1.59691 
 1                     0.56594  -0.01292  -1.50067 
 1                     1.62192   0.8621    1.22527 
 1                    -0.43232   2.14413   1.49345 
 8                    -1.01328   2.02559  -0.49543 
 1                    -0.31418   2.53636  -0.94418 
 8                     1.6599    2.10759  -0.44237 
 1                     2.50506   1.78583  -0.79814 
 6                     2.12483  -1.14274  -0.53477 
 1                     1.95222  -1.97792  -1.23092 
 1                     2.98141  -0.5706   -0.91133 
 8                     2.45897  -1.63261   0.76316 
 1                     1.58007  -1.82018   1.1559 
 
                          Input orientation:                          
 ---------------------------------------------------------------------
 Center     Atomic      Atomic             Coordinates (Angstroms)
 Number     Number       Type             X           Y           Z
 ---------------------------------------------------------------------
      1          6           0       -2.476219   -0.140773    0.556106
      2          6           0       -1.014747    0.086252    1.002317
      3          7           0       -0.187484   -0.955273    0.287878
      4          6           0       -1.108529   -1.769270   -0.542061
      5          6           0       -2.349976   -0.899238   -0.774792
      6          6           0        0.875480   -0.261536   -0.473566
      7          6           0        1.057930    1.052761    0.303005
      8          6           0       -0.383129    1.442631    0.650339
      9          1           0       -2.989310   -0.764980    1.296387
     10          1           0       -3.032740    0.795909    0.467438
     11          1           0       -0.920454   -0.054797    2.084746
     12          1           0       -1.383209   -2.681343    0.003727
     13          1           0       -0.609252   -2.079671   -1.465065
     14          1           0       -3.239004   -1.490571   -1.017192
     15          1           0       -2.172384   -0.197535   -1.596913
     16          1           0        0.565944   -0.012915   -1.500673
     17          1           0        1.621924    0.862103    1.225273
     18          1           0       -0.432316    2.144129    1.493450
     19          8           0       -1.013280    2.025591   -0.495431
     20          1           0       -0.314181    2.536361   -0.944184
     21          8           0        1.659902    2.107587   -0.442371
     22          1           0        2.505057    1.785825   -0.798139
     23          6           0        2.124834   -1.142740   -0.534766
     24          1           0        1.952218   -1.977917   -1.230923
     25          1           0        2.981408   -0.570599   -0.911333
     26          8           0        2.458972   -1.632607    0.763161
     27          1           0        1.580071   -1.820179    1.155896
 ---------------------------------------------------------------------
                    Distance matrix (angstroms):
                    1          2          3          4          5
     1  C    0.000000
     2  C    1.544845   0.000000
     3  N    2.444108   1.509822   0.000000
     4  C    2.393439   2.415960   1.483143   0.000000
     5  C    1.537041   2.431490   2.410141   1.533724   0.000000
     6  C    3.508375   2.423251   1.480189   2.492839   3.301661
     7  C    3.738822   2.391478   2.362940   3.656712   4.072563
     8  C    2.626228   1.537073   2.433023   3.502047   3.373994
     9  H    1.095862   2.170247   2.983878   2.815284   2.171763
    10  H    1.093138   2.204995   3.345798   3.361818   2.209712
    11  H    2.182782   1.095645   2.139354   3.142436   3.306595
    12  H    2.820335   2.965220   2.118919   1.097821   2.171780
    13  H    3.366010   3.308115   2.124845   1.094332   2.213599
    14  H    2.208860   3.392950   3.361774   2.200533   1.094899
    15  H    2.175093   2.859485   2.840146   2.171371   1.095358
    16  H    3.674431   2.961989   2.157454   2.609134   3.132900
    17  H    4.271805   2.757479   2.730480   4.183655   4.783155
    18  H    3.205765   2.194378   3.334612   4.462652   4.252579
    19  O    2.817633   2.450365   3.190778   3.796343   3.227913
    20  H    3.753975   3.206664   3.704799   4.396720   3.997061
    21  O    4.812440   3.650571   3.650645   4.764889   5.023009
    22  H    5.509888   4.303395   3.992847   5.075656   5.548104
    23  C    4.833594   3.705403   2.461443   3.293513   4.487854
    24  H    5.116603   4.248651   2.816182   3.144239   4.458753
    25  H    5.667788   4.479148   3.409979   4.277939   5.343248
    26  O    5.159898   3.883091   2.772797   3.801229   5.101873
    27  H    4.430986   3.223530   2.150760   3.180286   4.474479
                    6          7          8          9         10
     6  C    0.000000
     7  C    1.537442   0.000000
     8  C    2.398217   1.532740   0.000000
     9  H    4.280513   4.546553   3.476076   0.000000
    10  H    4.156665   4.102023   2.733522   1.767885   0.000000
    11  H    3.132584   2.883624   2.142086   2.325088   2.793052
    12  H    3.344391   4.471270   4.292485   2.814778   3.876501
    13  H    2.548159   3.964555   4.114933   3.875397   4.228099
    14  H    4.328399   5.164794   4.420447   2.437515   2.733983
    15  H    3.248920   3.950678   3.307827   3.059501   2.447180
    16  H    1.101169   2.151969   2.765177   4.585736   4.180692
    17  H    2.169285   1.097733   2.165133   4.890392   4.716417
    18  H    3.371455   2.197516   1.097887   3.878140   3.103643
    19  O    2.966284   2.423594   1.431685   3.860388   2.552930
    20  H    3.076524   2.374708   1.934813   4.803678   3.523125
    21  O    2.495803   1.424996   2.410427   5.734988   4.956727
    22  H    2.636770   1.960632   3.249229   6.409502   5.766178
    23  C    1.530082   2.580769   3.791899   5.445208   5.600298
    24  H    2.163081   3.512506   4.548971   5.681304   5.952172
    25  H    2.173038   2.794581   4.220429   6.368774   6.319678
    26  O    2.432442   3.063636   4.188956   5.542642   6.011992
    27  H    2.362406   3.042012   3.841311   4.691740   5.347515
                   11         12         13         14         15
    11  H    0.000000
    12  H    3.382828   0.000000
    13  H    4.098551   1.765890   0.000000
    14  H    4.130271   2.429854   2.731890   0.000000
    15  H    3.891313   3.058455   2.450143   1.773611   0.000000
    16  H    3.881541   3.630830   2.377779   4.110335   2.746231
    17  H    2.836033   4.804062   4.568380   5.847422   4.846064
    18  H    2.328773   5.138935   5.159903   5.233724   4.249891
    19  O    3.315712   4.747761   4.237523   4.193981   2.738444
    20  H    4.031883   5.409787   4.654690   4.977560   3.369445
    21  O    4.209568   5.691518   4.871149   6.105443   4.618763
    22  H    4.840769   5.976386   5.008570   6.616418   5.142977
    23  C    4.161639   3.868286   3.036202   5.396710   4.526329
    24  H    4.790020   3.625499   2.574161   5.218426   4.507333
    25  H    4.946420   4.933808   3.934051   6.288965   5.212559
    26  O    3.956841   4.054497   3.818227   5.971328   5.392480
    27  H    3.198744   3.293953   3.424895   5.296644   4.928676
                   16         17         18         19         20
    16  H    0.000000
    17  H    3.051480   0.000000
    18  H    3.822844   2.436270   0.000000
    19  O    2.767664   3.355418   2.075384   0.000000
    20  H    2.753744   3.355322   2.471813   0.975195   0.000000
    21  O    2.610225   2.081756   2.850634   2.674966   2.081506
    22  H    2.736636   2.393195   3.742716   3.539465   2.921085
    23  C    2.153977   2.714784   4.632082   4.459555   4.433080
    24  H    2.419866   3.769311   5.486299   5.036189   5.059396
    25  H    2.548097   2.909625   4.980586   4.782333   4.529369
    26  O    3.366289   2.671661   4.812131   5.198365   5.290151
    27  H    3.369275   2.683505   4.458630   4.923647   5.194032
                   21         22         23         24         25
    21  O    0.000000
    22  H    0.971797   0.000000
    23  C    3.284711   2.964866   0.000000
    24  H    4.171164   3.828666   1.100887   0.000000
    25  H    3.023075   2.406752   1.096753   1.772544   0.000000
    26  O    4.010096   3.758385   1.426966   2.086243   2.050544
    27  H    4.241247   4.204416   1.901060   2.420801   2.792603
                   26         27
    26  O    0.000000
    27  H    0.980760   0.000000
 Stoichiometry    C8H15NO3
 Framework group  C1[X(C8H15NO3)]
 Deg. of freedom    75
 Full point group                 C1      NOp   1
 Largest Abelian subgroup         C1      NOp   1
 Largest concise Abelian subgroup C1      NOp   1
                         Standard orientation:                         
 ---------------------------------------------------------------------
 Center     Atomic      Atomic             Coordinates (Angstroms)
 Number     Number       Type             X           Y           Z
 ---------------------------------------------------------------------
      1          6           0       -2.476219   -0.140773    0.556106
      2          6           0       -1.014747    0.086252    1.002317
      3          7           0       -0.187484   -0.955273    0.287878
      4          6           0       -1.108529   -1.769270   -0.542061
      5          6           0       -2.349976   -0.899238   -0.774792
      6          6           0        0.875480   -0.261536   -0.473566
      7          6           0        1.057930    1.052761    0.303005
      8          6           0       -0.383129    1.442631    0.650339
      9          1           0       -2.989310   -0.764980    1.296387
     10          1           0       -3.032740    0.795909    0.467438
     11          1           0       -0.920454   -0.054797    2.084746
     12          1           0       -1.383209   -2.681343    0.003727
     13          1           0       -0.609252   -2.079671   -1.465065
     14          1           0       -3.239004   -1.490571   -1.017192
     15          1           0       -2.172384   -0.197535   -1.596913
     16          1           0        0.565944   -0.012915   -1.500673
     17          1           0        1.621924    0.862103    1.225273
     18          1           0       -0.432316    2.144129    1.493450
     19          8           0       -1.013280    2.025591   -0.495431
     20          1           0       -0.314181    2.536361   -0.944184
     21          8           0        1.659902    2.107587   -0.442371
     22          1           0        2.505057    1.785825   -0.798139
     23          6           0        2.124834   -1.142740   -0.534766
     24          1           0        1.952218   -1.977917   -1.230923
     25          1           0        2.981408   -0.570599   -0.911333
     26          8           0        2.458972   -1.632607    0.763161
     27          1           0        1.580071   -1.820179    1.155896
 ---------------------------------------------------------------------
 Rotational constants (GHZ):      1.2280262      0.9279636      0.6339965
 Standard basis: 6-31+G(d,p) (6D, 7F)
 There are   303 symmetry adapted basis functions of A   symmetry.
 Integral buffers will be    131072 words long.
 Raffenetti 2 integral format.
 Two-electron integral symmetry is turned on.
   303 basis functions,   489 primitive gaussians,   303 cartesian basis functions
    47 alpha electrons       47 beta electrons
       nuclear repulsion energy       816.7787552181 Hartrees.
 NAtoms=   27 NActive=   27 NUniq=   27 SFac= 1.00D+00 NAtFMM=   60 NAOKFM=F Big=F
 ------------------------------------------------------------------------------
 Polarizable Continuum Model (PCM)
 =================================
 Model                : PCM.
 Atomic radii         : UFF (Universal Force Field).
 Polarization charges : Total charges.
 Charge compensation  : None.
 Solution method      : Matrix inversion.
 Cavity type          : Scaled VdW (van der Waals Surface) (Alpha=1.100).
 Cavity algorithm     : GePol (No added spheres)
                        Default sphere list used, NSphG=   27.
                        Lebedev-Laikov grids with approx.  5.0 points / Ang**2.
                        Smoothing algorithm: Karplus/York (Gamma=1.0000).
                        Polarization charges: spherical gaussians, with
                                              point-specific exponents (IZeta= 3).
                        Self-potential: point-specific (ISelfS= 7).
                        Self-field    : sphere-specific E.n sum rule (ISelfD= 2).
 Solvent              : Water, Eps=  78.355300 Eps(inf)=   1.777849
 ------------------------------------------------------------------------------
 One-electron integrals computed using PRISM.
 NBasis=   303 RedAO= T  NBF=   303
 NBsUse=   303 1.00D-06 NBFU=   303
 Harris functional with IExCor=  908 diagonalized for initial guess.
 ExpMin= 4.38D-02 ExpMax= 5.48D+03 ExpMxC= 8.25D+02 IAcc=2 IRadAn=         4 AccDes= 0.00D+00
 HarFok:  IExCor=  908 AccDes= 0.00D+00 IRadAn=         4 IDoV= 1
 ScaDFX=  1.000000  1.000000  1.000000  1.000000
 FoFCou: FMM=F IPFlag=           0 FMFlag=      100000 FMFlg1=           0
         NFxFlg=           0 DoJE=T BraDBF=F KetDBF=T FulRan=T
         Omega=  0.000000  0.000000  1.000000  0.000000  0.000000 ICntrl=     500 IOpCl=  0
         NMat0=    1 NMatS0=    1 NMatT0=    0 NMatD0=    1 NMtDS0=    0 NMtDT0=    0
         I1Cent=           4 NGrid=           0.
 Petite list used in FoFCou.
 Initial guess orbital symmetries:
       Occupied  (A) (A) (A) (A) (A) (A) (A) (A) (A) (A) (A) (A)
                 (A) (A) (A) (A) (A) (A) (A) (A) (A) (A) (A) (A)
                 (A) (A) (A) (A) (A) (A) (A) (A) (A) (A) (A) (A)
                 (A) (A) (A) (A) (A) (A) (A) (A) (A) (A) (A)
       Virtual   (A) (A) (A) (A) (A) (A) (A) (A) (A) (A) (A) (A)
                 (A) (A) (A) (A) (A) (A) (A) (A) (A) (A) (A) (A)
                 (A) (A) (A) (A) (A) (A) (A) (A) (A) (A) (A) (A)
                 (A) (A) (A) (A) (A) (A) (A) (A) (A) (A) (A) (A)
                 (A) (A) (A) (A) (A) (A) (A) (A) (A) (A) (A) (A)
                 (A) (A) (A) (A) (A) (A) (A) (A) (A) (A) (A) (A)
                 (A) (A) (A) (A) (A) (A) (A) (A) (A) (A) (A) (A)
                 (A) (A) (A) (A) (A) (A) (A) (A) (A) (A) (A) (A)
                 (A) (A) (A) (A) (A) (A) (A) (A) (A) (A) (A) (A)
                 (A) (A) (A) (A) (A) (A) (A) (A) (A) (A) (A) (A)
                 (A) (A) (A) (A) (A) (A) (A) (A) (A) (A) (A) (A)
                 (A) (A) (A) (A) (A) (A) (A) (A) (A) (A) (A) (A)
                 (A) (A) (A) (A) (A) (A) (A) (A) (A) (A) (A) (A)
                 (A) (A) (A) (A) (A) (A) (A) (A) (A) (A) (A) (A)
                 (A) (A) (A) (A) (A) (A) (A) (A) (A) (A) (A) (A)
                 (A) (A) (A) (A) (A) (A) (A) (A) (A) (A) (A) (A)
                 (A) (A) (A) (A) (A) (A) (A) (A) (A) (A) (A) (A)
                 (A) (A) (A) (A) (A) (A) (A) (A) (A) (A) (A) (A)
                 (A) (A) (A) (A) (A) (A) (A) (A) (A) (A) (A) (A)
                 (A) (A) (A) (A) (A) (A) (A) (A) (A) (A) (A) (A)
                 (A) (A) (A) (A) (A) (A) (A) (A) (A) (A) (A) (A)
                 (A) (A) (A) (A)
 The electronic state of the initial guess is 1-A.
 Requested convergence on RMS density matrix=1.00D-08 within 128 cycles.
 Requested convergence on MAX density matrix=1.00D-06.
 Requested convergence on             energy=1.00D-06.
 No special actions if energy rises.
 Error on total polarization charges =  0.01417
 SCF Done:  E(RmPW1PW91) =  -594.201586704     A.U. after   12 cycles
             Convg  =    0.9358D-08             -V/T =  2.0094
 Range of M.O.s used for correlation:     1   303
 NBasis=   303 NAE=    47 NBE=    47 NFC=     0 NFV=     0
 NROrb=    303 NOA=    47 NOB=    47 NVA=   256 NVB=   256

 **** Warning!!: The largest alpha MO coefficient is  0.77952521D+02

 NEqPCM:  Using equilibrium solvation (IEInf=0, Eps=  78.3553, EpsInf=   1.7778)
          Differentiating once with respect to magnetic field using GIAOs.
          Electric field/nuclear overlap derivatives assumed to be zero.
 FoFCou: FMM=F IPFlag=           0 FMFlag=    10101102 FMFlg1=           0
         NFxFlg=    40000000 DoJE=F BraDBF=F KetDBF=T FulRan=T
         Omega=  0.000000  0.000000  1.000000  0.000000  0.000000 ICntrl=    6100 IOpCl=  0
         NMat0=    1 NMatS0=    1 NMatT0=    0 NMatD0=    1 NMtDS0=    0 NMtDT0=    0
         I1Cent=           7 NGrid=        1815.
 Symmetry not used in FoFCou.
          There are     3 degrees of freedom in the 1st order CPHF.  IDoFFX=0.
      3 vectors produced by pass  0 Test12= 4.01D-13 3.33D-08 XBig12= 3.18D+01 1.15D+00.
 AX will form     3 AO Fock derivatives at one time.
      3 vectors produced by pass  1 Test12= 4.01D-13 3.33D-08 XBig12= 7.89D-02 5.46D-02.
      3 vectors produced by pass  2 Test12= 4.01D-13 3.33D-08 XBig12= 1.81D-04 2.93D-03.
      3 vectors produced by pass  3 Test12= 4.01D-13 3.33D-08 XBig12= 7.51D-07 1.48D-04.
      3 vectors produced by pass  4 Test12= 4.01D-13 3.33D-08 XBig12= 2.66D-09 9.37D-06.
      3 vectors produced by pass  5 Test12= 4.01D-13 3.33D-08 XBig12= 7.56D-12 6.86D-07.
 Inverted reduced A of dimension    18 with in-core refinement.
 Calculating GIAO nuclear magnetic shielding tensors.
 SCF GIAO Magnetic shielding tensor (ppm):
      1  C    Isotropic =   167.4293   Anisotropy =    23.9844
   XX=   177.5740   YX=    -2.7194   ZX=     5.3045
   XY=    -0.3138   YY=   154.8373   ZY=    17.2073
   XZ=    -0.2989   YZ=    21.5895   ZZ=   169.8764
   Eigenvalues:   141.3556   177.5133   183.4189
      2  C    Isotropic =   128.4605   Anisotropy =    52.8161
   XX=   136.1673   YX=   -16.3944   ZX=    -3.9555
   XY=   -11.5854   YY=   143.5030   ZY=    27.1043
   XZ=   -11.5127   YZ=    18.9952   ZZ=   105.7113
   Eigenvalues:    94.7748   126.9355   163.6712
      3  N    Isotropic =   199.7814   Anisotropy =    78.3512
   XX=   224.0280   YX=    -2.7550   ZX=   -29.8481
   XY=    14.2551   YY=   213.2681   ZY=    60.2953
   XZ=   -28.7533   YZ=    46.1343   ZZ=   162.0480
   Eigenvalues:   120.9964   226.3322   252.0155
      4  C    Isotropic =   142.3932   Anisotropy =    54.5927
   XX=   150.7977   YX=    17.9671   ZX=    17.4614
   XY=     5.4138   YY=   142.5361   ZY=    25.0624
   XZ=    27.6231   YZ=    14.0849   ZZ=   133.8458
   Eigenvalues:   113.8831   134.5082   178.7883
      5  C    Isotropic =   168.2948   Anisotropy =    22.5907
   XX=   173.7525   YX=    -2.8799   ZX=     8.2913
   XY=    -7.4844   YY=   167.4226   ZY=    13.5506
   XZ=    12.7513   YZ=    18.4588   ZZ=   163.7091
   Eigenvalues:   144.9728   176.5562   183.3553
      6  C    Isotropic =   124.8263   Anisotropy =    48.8425
   XX=   128.3335   YX=    22.1294   ZX=    -4.2307
   XY=    26.9846   YY=   130.1758   ZY=   -10.1472
   XZ=   -23.2515   YZ=     3.3450   ZZ=   115.9695
   Eigenvalues:   100.3043   116.7865   157.3880
      7  C    Isotropic =   122.2924   Anisotropy =    53.9840
   XX=   126.7573   YX=    23.3218   ZX=   -25.0641
   XY=    17.8561   YY=   137.1939   ZY=    -7.9502
   XZ=   -14.2070   YZ=    -2.7067   ZZ=   102.9260
   Eigenvalues:    91.0708   117.5248   158.2818
      8  C    Isotropic =   120.6068   Anisotropy =    23.0644
   XX=   118.8252   YX=    -2.1777   ZX=     4.8040
   XY=    -2.6785   YY=   121.5599   ZY=   -11.9661
   XZ=    10.3846   YZ=   -10.9843   ZZ=   121.4353
   Eigenvalues:   108.4118   117.4255   135.9831
      9  H    Isotropic =    29.8246   Anisotropy =    12.4581
   XX=    31.9175   YX=     3.2802   ZX=    -4.7848
   XY=     3.9857   YY=    25.8674   ZY=    -2.2812
   XZ=    -5.0623   YZ=    -2.1077   ZZ=    31.6889
   Eigenvalues:    24.1626    27.1812    38.1300
     10  H    Isotropic =    29.3239   Anisotropy =     9.3123
   XX=    32.1291   YX=    -3.4850   ZX=    -0.9559
   XY=    -3.7943   YY=    31.1936   ZY=     0.6224
   XZ=    -1.4353   YZ=     1.1397   ZZ=    24.6490
   Eigenvalues:    24.4433    27.9963    35.5321
     11  H    Isotropic =    28.0050   Anisotropy =     8.9109
   XX=    25.9339   YX=    -0.6526   ZX=    -0.9463
   XY=    -0.1620   YY=    24.2909   ZY=     0.5711
   XZ=    -1.2685   YZ=    -0.3887   ZZ=    33.7903
   Eigenvalues:    24.1924    25.8770    33.9456
     12  H    Isotropic =    28.8622   Anisotropy =    12.0989
   XX=    27.2592   YX=     3.7059   ZX=     0.9137
   XY=     2.8124   YY=    35.6670   ZY=    -1.9485
   XZ=     1.7763   YZ=    -1.8746   ZZ=    23.6604
   Eigenvalues:    22.5363    27.1222    36.9281
     13  H    Isotropic =    28.7719   Anisotropy =     8.7195
   XX=    28.6101   YX=    -0.8220   ZX=     0.0362
   XY=    -0.4804   YY=    28.9039   ZY=     6.0589
   XZ=    -0.7474   YZ=     5.2346   ZZ=    28.8015
   Eigenvalues:    23.1978    28.5329    34.5848
     14  H    Isotropic =    30.0295   Anisotropy =    12.8110
   XX=    34.2053   YX=     4.1711   ZX=     3.4075
   XY=     4.7014   YY=    28.5060   ZY=     2.9983
   XZ=     3.9575   YZ=     2.9210   ZZ=    27.3773
   Eigenvalues:    24.9286    26.5898    38.5702
     15  H    Isotropic =    29.6931   Anisotropy =     7.9661
   XX=    27.0867   YX=    -0.0363   ZX=     1.0863
   XY=    -0.2974   YY=    28.6321   ZY=    -3.1183
   XZ=     2.1070   YZ=    -2.6158   ZZ=    33.3605
   Eigenvalues:    26.4641    27.6114    35.0038
     16  H    Isotropic =    28.7701   Anisotropy =     2.9869
   XX=    28.9518   YX=    -0.1022   ZX=    -1.3937
   XY=    -0.1389   YY=    27.5516   ZY=    -1.0324
   XZ=    -0.7054   YZ=    -1.2114   ZZ=    29.8070
   Eigenvalues:    26.9394    28.6096    30.7614
     17  H    Isotropic =    27.3033   Anisotropy =     3.8578
   XX=    26.8203   YX=     1.3901   ZX=     1.6645
   XY=     0.5201   YY=    27.6932   ZY=    -0.8988
   XZ=     3.7967   YZ=    -0.2740   ZZ=    27.3964
   Eigenvalues:    24.0303    28.0044    29.8752
     18  H    Isotropic =    27.4607   Anisotropy =     8.7055
   XX=    23.8048   YX=    -0.5771   ZX=     1.6623
   XY=    -0.4817   YY=    27.6547   ZY=     2.8517
   XZ=     0.6493   YZ=     4.2860   ZZ=    30.9227
   Eigenvalues:    23.2229    25.8949    33.2644
     19  O    Isotropic =   315.4019   Anisotropy =    46.2121
   XX=   308.6443   YX=    22.0993   ZX=   -22.0433
   XY=    27.0764   YY=   313.3301   ZY=    12.5376
   XZ=   -11.8796   YZ=   -21.3429   ZZ=   324.2313
   Eigenvalues:   283.7578   316.2379   346.2100
     20  H    Isotropic =    28.8507   Anisotropy =    18.7218
   XX=    33.4641   YX=     5.2641   ZX=    -3.2280
   XY=     4.7480   YY=    28.1639   ZY=    -9.6152
   XZ=    -4.8268   YZ=    -9.1944   ZZ=    24.9240
   Eigenvalues:    16.9992    28.2210    41.3319
     21  O    Isotropic =   306.9155   Anisotropy =    27.6088
   XX=   320.1789   YX=    -0.8844   ZX=   -22.3239
   XY=     4.2844   YY=   307.9837   ZY=     6.8580
   XZ=    -3.4717   YZ=    -3.4371   ZZ=   292.5839
   Eigenvalues:   287.2572   308.1678   325.3214
     22  H    Isotropic =    29.6770   Anisotropy =    19.2591
   XX=    38.7623   YX=    -1.2259   ZX=    -8.3384
   XY=    -1.5086   YY=    27.3316   ZY=    -0.8568
   XZ=    -8.6210   YZ=    -0.3205   ZZ=    22.9370
   Eigenvalues:    19.1077    27.4069    42.5163
     23  C    Isotropic =   136.1371   Anisotropy =    54.7499
   XX=   120.1267   YX=    -8.0323   ZX=    12.1855
   XY=    -8.5247   YY=   126.2684   ZY=   -16.6147
   XZ=    15.5757   YZ=   -14.4069   ZZ=   162.0164
   Eigenvalues:   114.1008   121.6736   172.6371
     24  H    Isotropic =    27.8991   Anisotropy =     8.0669
   XX=    25.9151   YX=    -1.9770   ZX=     0.7543
   XY=    -2.2672   YY=    26.7504   ZY=     2.7770
   XZ=     0.1806   YZ=     4.7326   ZZ=    31.0317
   Eigenvalues:    23.0506    27.3697    33.2770
     25  H    Isotropic =    28.1557   Anisotropy =     6.6294
   XX=    29.9281   YX=    -0.7332   ZX=    -2.4949
   XY=     1.1868   YY=    26.8527   ZY=    -2.1315
   XZ=    -3.9866   YZ=    -1.8985   ZZ=    27.6862
   Eigenvalues:    24.3665    27.5252    32.5753
     26  O    Isotropic =   329.5944   Anisotropy =    48.9238
   XX=   351.9565   YX=     7.0179   ZX=   -21.5077
   XY=     3.4634   YY=   308.5073   ZY=    17.5925
   XZ=   -15.7606   YZ=    -0.8999   ZZ=   328.3194
   Eigenvalues:   302.3463   324.2266   362.2103
     27  H    Isotropic =    28.2378   Anisotropy =    17.5223
   XX=    38.5089   YX=     0.1972   ZX=    -3.4138
   XY=    -0.5647   YY=    21.4672   ZY=    -7.0165
   XZ=    -5.2685   YZ=    -5.7002   ZZ=    24.7373
   Eigenvalues:    16.1714    28.6227    39.9194
 End of Minotr Frequency-dependent properties file   721 does not exist.
 End of Minotr Frequency-dependent properties file   722 does not exist.

 **********************************************************************

            Population analysis using the SCF density.

 **********************************************************************

 Orbital symmetries:
       Occupied  (A) (A) (A) (A) (A) (A) (A) (A) (A) (A) (A) (A)
                 (A) (A) (A) (A) (A) (A) (A) (A) (A) (A) (A) (A)
                 (A) (A) (A) (A) (A) (A) (A) (A) (A) (A) (A) (A)
                 (A) (A) (A) (A) (A) (A) (A) (A) (A) (A) (A)
       Virtual   (A) (A) (A) (A) (A) (A) (A) (A) (A) (A) (A) (A)
                 (A) (A) (A) (A) (A) (A) (A) (A) (A) (A) (A) (A)
                 (A) (A) (A) (A) (A) (A) (A) (A) (A) (A) (A) (A)
                 (A) (A) (A) (A) (A) (A) (A) (A) (A) (A) (A) (A)
                 (A) (A) (A) (A) (A) (A) (A) (A) (A) (A) (A) (A)
                 (A) (A) (A) (A) (A) (A) (A) (A) (A) (A) (A) (A)
                 (A) (A) (A) (A) (A) (A) (A) (A) (A) (A) (A) (A)
                 (A) (A) (A) (A) (A) (A) (A) (A) (A) (A) (A) (A)
                 (A) (A) (A) (A) (A) (A) (A) (A) (A) (A) (A) (A)
                 (A) (A) (A) (A) (A) (A) (A) (A) (A) (A) (A) (A)
                 (A) (A) (A) (A) (A) (A) (A) (A) (A) (A) (A) (A)
                 (A) (A) (A) (A) (A) (A) (A) (A) (A) (A) (A) (A)
                 (A) (A) (A) (A) (A) (A) (A) (A) (A) (A) (A) (A)
                 (A) (A) (A) (A) (A) (A) (A) (A) (A) (A) (A) (A)
                 (A) (A) (A) (A) (A) (A) (A) (A) (A) (A) (A) (A)
                 (A) (A) (A) (A) (A) (A) (A) (A) (A) (A) (A) (A)
                 (A) (A) (A) (A) (A) (A) (A) (A) (A) (A) (A) (A)
                 (A) (A) (A) (A) (A) (A) (A) (A) (A) (A) (A) (A)
                 (A) (A) (A) (A) (A) (A) (A) (A) (A) (A) (A) (A)
                 (A) (A) (A) (A) (A) (A) (A) (A) (A) (A) (A) (A)
                 (A) (A) (A) (A) (A) (A) (A) (A) (A) (A) (A) (A)
                 (A) (A) (A) (A)
 The electronic state is 1-A.
 Alpha  occ. eigenvalues --  -19.27059 -19.25100 -19.24735 -14.41984 -10.30854
 Alpha  occ. eigenvalues --  -10.30378 -10.29548 -10.28290 -10.28060 -10.27014
 Alpha  occ. eigenvalues --  -10.24572 -10.24200  -1.08317  -1.05292  -1.04924
 Alpha  occ. eigenvalues --   -0.96482  -0.82616  -0.79508  -0.75170  -0.71822
 Alpha  occ. eigenvalues --   -0.66903  -0.62057  -0.60003  -0.57891  -0.54943
 Alpha  occ. eigenvalues --   -0.54280  -0.51877  -0.50022  -0.49000  -0.48452
 Alpha  occ. eigenvalues --   -0.45740  -0.44784  -0.43047  -0.42726  -0.40967
 Alpha  occ. eigenvalues --   -0.39522  -0.38616  -0.37870  -0.36307  -0.35463
 Alpha  occ. eigenvalues --   -0.34790  -0.34221  -0.32961  -0.31282  -0.29942
 Alpha  occ. eigenvalues --   -0.28691  -0.24133
 Alpha virt. eigenvalues --    0.00252   0.01323   0.01978   0.02353   0.03999
 Alpha virt. eigenvalues --    0.04208   0.04424   0.04947   0.05540   0.07257
 Alpha virt. eigenvalues --    0.07603   0.08131   0.08619   0.08847   0.09632
 Alpha virt. eigenvalues --    0.10300   0.11235   0.11887   0.12449   0.12670
 Alpha virt. eigenvalues --    0.13482   0.14235   0.14481   0.14637   0.15239
 Alpha virt. eigenvalues --    0.16182   0.16340   0.16872   0.17269   0.18261
 Alpha virt. eigenvalues --    0.18920   0.19376   0.19688   0.20563   0.20821
 Alpha virt. eigenvalues --    0.21189   0.21833   0.22106   0.22426   0.23296
 Alpha virt. eigenvalues --    0.23642   0.24622   0.25063   0.25302   0.25768
 Alpha virt. eigenvalues --    0.26312   0.26887   0.27866   0.27933   0.28635
 Alpha virt. eigenvalues --    0.29519   0.29613   0.30038   0.31188   0.32073
 Alpha virt. eigenvalues --    0.32626   0.33448   0.34090   0.34597   0.34931
 Alpha virt. eigenvalues --    0.35570   0.36401   0.37161   0.37756   0.38021
 Alpha virt. eigenvalues --    0.38594   0.39452   0.40812   0.41583   0.41984
 Alpha virt. eigenvalues --    0.43326   0.44084   0.45006   0.45423   0.46601
 Alpha virt. eigenvalues --    0.47993   0.64487   0.65751   0.67651   0.68628
 Alpha virt. eigenvalues --    0.69639   0.70464   0.73226   0.74167   0.75347
 Alpha virt. eigenvalues --    0.76299   0.78405   0.79020   0.80524   0.82025
 Alpha virt. eigenvalues --    0.82607   0.83985   0.84228   0.86556   0.87510
 Alpha virt. eigenvalues --    0.88228   0.90002   0.91429   0.93941   0.97323
 Alpha virt. eigenvalues --    0.99038   1.00790   1.02517   1.03250   1.04352
 Alpha virt. eigenvalues --    1.04874   1.06829   1.09324   1.09785   1.11374
 Alpha virt. eigenvalues --    1.12340   1.12434   1.13721   1.14605   1.16237
 Alpha virt. eigenvalues --    1.17389   1.18525   1.19940   1.24237   1.24975
 Alpha virt. eigenvalues --    1.25765   1.29575   1.30244   1.32959   1.33465
 Alpha virt. eigenvalues --    1.34262   1.35535   1.36487   1.38094   1.40844
 Alpha virt. eigenvalues --    1.41378   1.44547   1.47207   1.49335   1.52954
 Alpha virt. eigenvalues --    1.54026   1.56856   1.58780   1.60497   1.62550
 Alpha virt. eigenvalues --    1.63431   1.64319   1.67265   1.68661   1.72411
 Alpha virt. eigenvalues --    1.73851   1.75002   1.76489   1.78367   1.80928
 Alpha virt. eigenvalues --    1.82329   1.83318   1.84207   1.86252   1.87718
 Alpha virt. eigenvalues --    1.88539   1.90425   1.91693   1.93892   1.95488
 Alpha virt. eigenvalues --    1.97465   2.00538   2.03132   2.03948   2.05170
 Alpha virt. eigenvalues --    2.05429   2.06975   2.07951   2.09120   2.11518
 Alpha virt. eigenvalues --    2.14256   2.16031   2.17121   2.17825   2.19876
 Alpha virt. eigenvalues --    2.20044   2.23004   2.23953   2.25188   2.30176
 Alpha virt. eigenvalues --    2.31569   2.33928   2.35532   2.36017   2.40385
 Alpha virt. eigenvalues --    2.42279   2.44121   2.46053   2.47357   2.48450
 Alpha virt. eigenvalues --    2.49711   2.50522   2.52656   2.53814   2.55981
 Alpha virt. eigenvalues --    2.56272   2.57583   2.59713   2.60864   2.62265
 Alpha virt. eigenvalues --    2.65080   2.65954   2.68033   2.68620   2.70306
 Alpha virt. eigenvalues --    2.71943   2.72389   2.75230   2.75606   2.77177
 Alpha virt. eigenvalues --    2.78841   2.79218   2.81301   2.83146   2.85950
 Alpha virt. eigenvalues --    2.86928   2.88042   2.90178   2.95425   2.96197
 Alpha virt. eigenvalues --    2.98681   2.99815   3.01184   3.03124   3.04057
 Alpha virt. eigenvalues --    3.05929   3.08905   3.10382   3.16442   3.33245
 Alpha virt. eigenvalues --    3.33872   3.36944   3.39227   3.42697   3.44592
 Alpha virt. eigenvalues --    3.47130   3.48907   3.51852   3.53846   3.55693
 Alpha virt. eigenvalues --    3.57205   3.59210   3.61073   3.64044   4.30646
 Alpha virt. eigenvalues --    4.32627   4.40364   4.49012   4.49483   4.55933
 Alpha virt. eigenvalues --    4.61651   4.72563   4.79876   4.81466   4.89058
 Alpha virt. eigenvalues --    5.02278
          Condensed to atoms (all electrons):
              1          2          3          4          5          6
     1  C    5.938450  -0.548735   0.064398   0.180761  -0.020474  -0.049823
     2  C   -0.548735   8.507425  -0.170895  -0.445762   0.225493  -0.840390
     3  N    0.064398  -0.170895   7.612916   0.249977  -0.173359  -0.425949
     4  C    0.180761  -0.445762   0.249977   6.033909  -0.097072  -0.503498
     5  C   -0.020474   0.225493  -0.173359  -0.097072   5.670072   0.207600
     6  C   -0.049823  -0.840390  -0.425949  -0.503498   0.207600   9.302510
     7  C   -0.059454   0.358488  -0.087452  -0.232867  -0.036166  -0.502366
     8  C   -0.057030  -0.701191  -0.257187   0.010223   0.110191   0.852840
     9  H    0.409548  -0.065105   0.011258  -0.002997  -0.040110   0.010727
    10  H    0.421984  -0.130725   0.014864   0.028277  -0.032435   0.007466
    11  H    0.018953   0.209760  -0.020779  -0.006107   0.013166   0.032516
    12  H    0.001919  -0.019896  -0.031377   0.375091  -0.029596   0.010421
    13  H    0.022379   0.024656  -0.063046   0.360040  -0.016244   0.037196
    14  H   -0.026823   0.021080   0.011565  -0.036584   0.356833   0.004190
    15  H   -0.062573  -0.002270   0.011857  -0.077588   0.450767   0.013461
    16  H    0.016977   0.030655  -0.013773   0.082751  -0.022006   0.178878
    17  H    0.013729  -0.016494   0.074450   0.020567  -0.003668  -0.196133
    18  H    0.033754  -0.116546   0.026357   0.008513  -0.017801   0.026863
    19  O    0.095867  -0.415842   0.066821   0.040442  -0.064782   0.032082
    20  H   -0.000459   0.068755  -0.000641   0.003610  -0.004761  -0.034928
    21  O    0.003986   0.030421   0.026275   0.014840  -0.002151  -0.093122
    22  H   -0.001483  -0.002234  -0.003639  -0.002396   0.001422   0.012139
    23  C    0.120077  -0.148767   0.264407   0.225678  -0.201624  -1.678160
    24  H    0.006643  -0.016707  -0.008641   0.027374  -0.008471  -0.079387
    25  H   -0.001143   0.017151   0.012303  -0.001986   0.001221  -0.145627
    26  O    0.013124  -0.021097   0.049048   0.007851  -0.009291  -0.241679
    27  H   -0.001221   0.028507   0.057285   0.012153  -0.000189  -0.081165
              7          8          9         10         11         12
     1  C   -0.059454  -0.057030   0.409548   0.421984   0.018953   0.001919
     2  C    0.358488  -0.701191  -0.065105  -0.130725   0.209760  -0.019896
     3  N   -0.087452  -0.257187   0.011258   0.014864  -0.020779  -0.031377
     4  C   -0.232867   0.010223  -0.002997   0.028277  -0.006107   0.375091
     5  C   -0.036166   0.110191  -0.040110  -0.032435   0.013166  -0.029596
     6  C   -0.502366   0.852840   0.010727   0.007466   0.032516   0.010421
     7  C    6.802200  -0.627745  -0.002895  -0.009560  -0.022619   0.007200
     8  C   -0.627745   6.452872   0.009252   0.037957   0.045485  -0.003445
     9  H   -0.002895   0.009252   0.527019  -0.025134  -0.007716   0.001354
    10  H   -0.009560   0.037957  -0.025134   0.507123   0.002628  -0.000037
    11  H   -0.022619   0.045485  -0.007716   0.002628   0.555478   0.000775
    12  H    0.007200  -0.003445   0.001354  -0.000037   0.000775   0.544468
    13  H    0.019485  -0.015097  -0.000111  -0.000138  -0.000172  -0.029983
    14  H    0.004636   0.001021  -0.005161   0.000730  -0.000055  -0.003413
    15  H    0.004034  -0.001553   0.004085  -0.005331  -0.000114   0.003924
    16  H   -0.067999  -0.016536  -0.000005  -0.000036  -0.000497  -0.000259
    17  H    0.356016  -0.031595   0.000003  -0.000005   0.000424   0.000015
    18  H    0.025074   0.310150   0.000001   0.000351  -0.001350   0.000006
    19  O   -0.109700   0.337556  -0.000285   0.000436   0.009657   0.000168
    20  H   -0.030840  -0.024843   0.000000  -0.000016  -0.000248   0.000000
    21  O    0.246501  -0.177775   0.000022  -0.000022  -0.000508   0.000019
    22  H    0.018904   0.034927   0.000000   0.000000   0.000006   0.000000
    23  C    0.146736  -0.335178   0.000174   0.000290   0.000999   0.004816
    24  H    0.005435  -0.005550   0.000000   0.000000   0.000008  -0.000066
    25  H    0.010465  -0.010597   0.000000   0.000000  -0.000003   0.000003
    26  O    0.046091  -0.033311   0.000020   0.000004   0.001347   0.001280
    27  H   -0.035629  -0.006197   0.000002  -0.000002  -0.000845  -0.000283
             13         14         15         16         17         18
     1  C    0.022379  -0.026823  -0.062573   0.016977   0.013729   0.033754
     2  C    0.024656   0.021080  -0.002270   0.030655  -0.016494  -0.116546
     3  N   -0.063046   0.011565   0.011857  -0.013773   0.074450   0.026357
     4  C    0.360040  -0.036584  -0.077588   0.082751   0.020567   0.008513
     5  C   -0.016244   0.356833   0.450767  -0.022006  -0.003668  -0.017801
     6  C    0.037196   0.004190   0.013461   0.178878  -0.196133   0.026863
     7  C    0.019485   0.004636   0.004034  -0.067999   0.356016   0.025074
     8  C   -0.015097   0.001021  -0.001553  -0.016536  -0.031595   0.310150
     9  H   -0.000111  -0.005161   0.004085  -0.000005   0.000003   0.000001
    10  H   -0.000138   0.000730  -0.005331  -0.000036  -0.000005   0.000351
    11  H   -0.000172  -0.000055  -0.000114  -0.000497   0.000424  -0.001350
    12  H   -0.029983  -0.003413   0.003924  -0.000259   0.000015   0.000006
    13  H    0.529597   0.001032  -0.005656   0.001090  -0.000021   0.000005
    14  H    0.001032   0.524662  -0.024500  -0.000138   0.000000   0.000004
    15  H   -0.005656  -0.024500   0.509446   0.000208   0.000002   0.000023
    16  H    0.001090  -0.000138   0.000208   0.569696   0.004643  -0.000161
    17  H   -0.000021   0.000000   0.000002   0.004643   0.557597  -0.003552
    18  H    0.000005   0.000004   0.000023  -0.000161  -0.003552   0.574692
    19  O    0.000586   0.000541  -0.001615   0.004585   0.007618  -0.042631
    20  H   -0.000006   0.000000   0.000062   0.001351   0.000704  -0.000662
    21  O   -0.000108  -0.000014   0.000023   0.011120  -0.025630   0.000842
    22  H   -0.000002   0.000000  -0.000001  -0.002021  -0.004946  -0.000171
    23  C   -0.032728   0.000644   0.000503   0.030966   0.046470   0.016315
    24  H    0.001648   0.000001   0.000003  -0.001265   0.000145   0.000004
    25  H   -0.000047   0.000000  -0.000001   0.000593   0.000288  -0.000005
    26  O   -0.000472   0.000011   0.000048   0.009173   0.014166   0.000283
    27  H    0.000105  -0.000003   0.000000   0.000900  -0.000273  -0.000026
             19         20         21         22         23         24
     1  C    0.095867  -0.000459   0.003986  -0.001483   0.120077   0.006643
     2  C   -0.415842   0.068755   0.030421  -0.002234  -0.148767  -0.016707
     3  N    0.066821  -0.000641   0.026275  -0.003639   0.264407  -0.008641
     4  C    0.040442   0.003610   0.014840  -0.002396   0.225678   0.027374
     5  C   -0.064782  -0.004761  -0.002151   0.001422  -0.201624  -0.008471
     6  C    0.032082  -0.034928  -0.093122   0.012139  -1.678160  -0.079387
     7  C   -0.109700  -0.030840   0.246501   0.018904   0.146736   0.005435
     8  C    0.337556  -0.024843  -0.177775   0.034927  -0.335178  -0.005550
     9  H   -0.000285   0.000000   0.000022   0.000000   0.000174   0.000000
    10  H    0.000436  -0.000016  -0.000022   0.000000   0.000290   0.000000
    11  H    0.009657  -0.000248  -0.000508   0.000006   0.000999   0.000008
    12  H    0.000168   0.000000   0.000019   0.000000   0.004816  -0.000066
    13  H    0.000586  -0.000006  -0.000108  -0.000002  -0.032728   0.001648
    14  H    0.000541   0.000000  -0.000014   0.000000   0.000644   0.000001
    15  H   -0.001615   0.000062   0.000023  -0.000001   0.000503   0.000003
    16  H    0.004585   0.001351   0.011120  -0.002021   0.030966  -0.001265
    17  H    0.007618   0.000704  -0.025630  -0.004946   0.046470   0.000145
    18  H   -0.042631  -0.000662   0.000842  -0.000171   0.016315   0.000004
    19  O    8.309378   0.244279  -0.004876  -0.000947   0.069049   0.000314
    20  H    0.244279   0.357960   0.025727  -0.000871   0.003776  -0.000002
    21  O   -0.004876   0.025727   8.283927   0.226080  -0.005158   0.000504
    22  H   -0.000947  -0.000871   0.226080   0.369620  -0.031822  -0.000212
    23  C    0.069049   0.003776  -0.005158  -0.031822   6.550868   0.436836
    24  H    0.000314  -0.000002   0.000504  -0.000212   0.436836   0.581572
    25  H   -0.000322   0.000008  -0.000666   0.003812   0.496682  -0.040661
    26  O    0.001476   0.000059   0.002393  -0.002227   0.293093  -0.050545
    27  H   -0.000122   0.000001   0.000421   0.000026   0.037740  -0.003097
             25         26         27
     1  C   -0.001143   0.013124  -0.001221
     2  C    0.017151  -0.021097   0.028507
     3  N    0.012303   0.049048   0.057285
     4  C   -0.001986   0.007851   0.012153
     5  C    0.001221  -0.009291  -0.000189
     6  C   -0.145627  -0.241679  -0.081165
     7  C    0.010465   0.046091  -0.035629
     8  C   -0.010597  -0.033311  -0.006197
     9  H    0.000000   0.000020   0.000002
    10  H    0.000000   0.000004  -0.000002
    11  H   -0.000003   0.001347  -0.000845
    12  H    0.000003   0.001280  -0.000283
    13  H   -0.000047  -0.000472   0.000105
    14  H    0.000000   0.000011  -0.000003
    15  H   -0.000001   0.000048   0.000000
    16  H    0.000593   0.009173   0.000900
    17  H    0.000288   0.014166  -0.000273
    18  H   -0.000005   0.000283  -0.000026
    19  O   -0.000322   0.001476  -0.000122
    20  H    0.000008   0.000059   0.000001
    21  O   -0.000666   0.002393   0.000421
    22  H    0.003812  -0.002227   0.000026
    23  C    0.496682   0.293093   0.037740
    24  H   -0.040661  -0.050545  -0.003097
    25  H    0.557259  -0.057257   0.006423
    26  O   -0.057257   8.294170   0.240248
    27  H    0.006423   0.240248   0.352699
 Mulliken atomic charges:
              1
     1  C   -0.533331
     2  C    0.140265
     3  N   -0.297045
     4  C   -0.275199
     5  C   -0.256564
     6  C    0.143337
     7  C   -0.225974
     8  C    0.102356
     9  H    0.176056
    10  H    0.181329
    11  H    0.169812
    12  H    0.166898
    13  H    0.166012
    14  H    0.169739
    15  H    0.182757
    16  H    0.181112
    17  H    0.185481
    18  H    0.159667
    19  O   -0.579736
    20  H    0.391986
    21  O   -0.563072
    22  H    0.386035
    23  C   -0.312683
    24  H    0.154118
    25  H    0.152107
    26  O   -0.558004
    27  H    0.392541
 Sum of Mulliken atomic charges =   0.00000
 Mulliken charges with hydrogens summed into heavy atoms:
              1
     1  C   -0.175946
     2  C    0.310077
     3  N   -0.297045
     4  C    0.057711
     5  C    0.095933
     6  C    0.324449
     7  C   -0.040493
     8  C    0.262023
    19  O   -0.187751
    21  O   -0.177037
    23  C   -0.006458
    26  O   -0.165463
 Sum of Mulliken charges with hydrogens summed into heavy atoms =   0.00000
 Electronic spatial extent (au):  <R**2>=           1949.2853
 Charge=              0.0000 electrons
 Dipole moment (field-independent basis, Debye):
    X=             -0.5787    Y=             -0.4430    Z=             -1.2636  Tot=              1.4587
 Quadrupole moment (field-independent basis, Debye-Ang):
   XX=            -76.4753   YY=            -79.2970   ZZ=            -69.6839
   XY=              9.8982   XZ=             -8.2127   YZ=              3.3383
 Traceless Quadrupole moment (field-independent basis, Debye-Ang):
   XX=             -1.3232   YY=             -4.1449   ZZ=              5.4682
   XY=              9.8982   XZ=             -8.2127   YZ=              3.3383
 Octapole moment (field-independent basis, Debye-Ang**2):
  XXX=              1.5771  YYY=             -1.5087  ZZZ=              0.0545  XYY=             -7.8675
  XXY=             17.4858  XXZ=            -18.5897  XZZ=              4.0307  YZZ=              5.4956
  YYZ=             -5.5123  XYZ=              1.9880
 Hexadecapole moment (field-independent basis, Debye-Ang**3):
 XXXX=          -1307.9852 YYYY=           -932.7985 ZZZZ=           -301.6450 XXXY=             98.6203
 XXXZ=            -67.6012 YYYX=             16.9657 YYYZ=            -12.4092 ZZZX=             -2.6138
 ZZZY=            -14.5091 XXYY=           -410.3948 XXZZ=           -269.1265 YYZZ=           -186.7735
 XXYZ=             10.6553 YYXZ=            -17.3622 ZZXY=              4.6948
 N-N= 8.167787552181D+02 E-N=-3.019215127845D+03  KE= 5.886612263544D+02
 1\1\GINC-COMPUTE-3-1\SP\RmPW1PW91\6-31+G(d,p)\C8H15N1O3\MAMICHETTI.IQU
 IR\17-May-2024\0\\# mpw1pw91/6-31+G** nmr scrf=(pcm,solvent=water)\\co
 mment\\0,1\C,0,-2.476219,-0.140773,0.556106\C,0,-1.014747,0.086252,1.0
 02317\N,0,-0.187484,-0.955273,0.287878\C,0,-1.108529,-1.76927,-0.54206
 1\C,0,-2.349976,-0.899238,-0.774792\C,0,0.87548,-0.261536,-0.473566\C,
 0,1.05793,1.052761,0.303005\C,0,-0.383129,1.442631,0.650339\H,0,-2.989
 31,-0.76498,1.296387\H,0,-3.03274,0.795909,0.467438\H,0,-0.920454,-0.0
 54797,2.084746\H,0,-1.383209,-2.681343,0.003727\H,0,-0.609252,-2.07967
 1,-1.465065\H,0,-3.239004,-1.490571,-1.017192\H,0,-2.172384,-0.197535,
 -1.596913\H,0,0.565944,-0.012915,-1.500673\H,0,1.621924,0.862103,1.225
 273\H,0,-0.432316,2.144129,1.49345\O,0,-1.01328,2.025591,-0.495431\H,0
 ,-0.314181,2.536361,-0.944184\O,0,1.659902,2.107587,-0.442371\H,0,2.50
 5057,1.785825,-0.798139\C,0,2.124834,-1.14274,-0.534766\H,0,1.952218,-
 1.977917,-1.230923\H,0,2.981408,-0.570599,-0.911333\O,0,2.458972,-1.63
 2607,0.763161\H,0,1.580071,-1.820179,1.155896\\Version=AM64L-G09RevC.0
 1\State=1-A\HF=-594.2015867\RMSD=9.358e-09\Dipole=-0.2276748,-0.174295
 7,-0.4971342\Quadrupole=-0.9837912,-3.0816488,4.0654401,7.3590912,-6.1
 059694,2.4819431\PG=C01 [X(C8H15N1O3)]\\@


 THE NUMBERS ARE MEANINGLESS, BUT THE TRENDS ARE IMPORTANT.
     -- LARRY BURGGRAF
 Job cpu time:  0 days  0 hours  8 minutes 19.0 seconds.
 File lengths (MBytes):  RWF=    112 Int=      0 D2E=      0 Chk=      7 Scr=      1
 Normal termination of Gaussian 09 at Fri May 17 12:09:51 2024.
