 Entering Gaussian System, Link 0=g09
 Input=/home/mamichetti.iquir/Linux/01_Cardona_A1A3_R__S_R_R_029_OptB.gjc
 Output=/home/mamichetti.iquir/Linux/01_Cardona_A1A3_R__S_R_R_029_OptB.log
 Initial command:
 /opt/ohpc/pub/apps/software/Gaussian/09/AMD64.SSE4a-enabled/g09/l1.exe /local/mamichetti.iquir/Gau-405662.inp -scrdir=/local/mamichetti.iquir/
 Entering Link 1 = /opt/ohpc/pub/apps/software/Gaussian/09/AMD64.SSE4a-enabled/g09/l1.exe PID=    405663.
  
 Copyright (c) 1988,1990,1992,1993,1995,1998,2003,2009,2011,
            Gaussian, Inc.  All Rights Reserved.
  
 This is part of the Gaussian(R) 09 program.  It is based on
 the Gaussian(R) 03 system (copyright 2003, Gaussian, Inc.),
 the Gaussian(R) 98 system (copyright 1998, Gaussian, Inc.),
 the Gaussian(R) 94 system (copyright 1995, Gaussian, Inc.),
 the Gaussian 92(TM) system (copyright 1992, Gaussian, Inc.),
 the Gaussian 90(TM) system (copyright 1990, Gaussian, Inc.),
 the Gaussian 88(TM) system (copyright 1988, Gaussian, Inc.),
 the Gaussian 86(TM) system (copyright 1986, Carnegie Mellon
 University), and the Gaussian 82(TM) system (copyright 1983,
 Carnegie Mellon University). Gaussian is a federally registered
 trademark of Gaussian, Inc.
  
 This software contains proprietary and confidential information,
 including trade secrets, belonging to Gaussian, Inc.
  
 This software is provided under written license and may be
 used, copied, transmitted, or stored only in accord with that
 written license.
  
 The following legend is applicable only to US Government
 contracts under FAR:
  
                    RESTRICTED RIGHTS LEGEND
  
 Use, reproduction and disclosure by the US Government is
 subject to restrictions as set forth in subparagraphs (a)
 and (c) of the Commercial Computer Software - Restricted
 Rights clause in FAR 52.227-19.
  
 Gaussian, Inc.
 340 Quinnipiac St., Bldg. 40, Wallingford CT 06492
  
  
 ---------------------------------------------------------------
 Warning -- This program may not be used in any manner that
 competes with the business of Gaussian, Inc. or will provide
 assistance to any competitor of Gaussian, Inc.  The licensee
 of this program is prohibited from giving any competitor of
 Gaussian, Inc. access to this program.  By using this program,
 the user acknowledges that Gaussian, Inc. is engaged in the
 business of creating and licensing software in the field of
 computational chemistry and represents and warrants to the
 licensee that it is not a competitor of Gaussian, Inc. and that
 it will not use this program in any manner prohibited above.
 ---------------------------------------------------------------
  

 Cite this work as:
 Gaussian 09, Revision C.01,
 M. J. Frisch, G. W. Trucks, H. B. Schlegel, G. E. Scuseria, 
 M. A. Robb, J. R. Cheeseman, G. Scalmani, V. Barone, B. Mennucci, 
 G. A. Petersson, H. Nakatsuji, M. Caricato, X. Li, H. P. Hratchian, 
 A. F. Izmaylov, J. Bloino, G. Zheng, J. L. Sonnenberg, M. Hada, 
 M. Ehara, K. Toyota, R. Fukuda, J. Hasegawa, M. Ishida, T. Nakajima, 
 Y. Honda, O. Kitao, H. Nakai, T. Vreven, J. A. Montgomery, Jr., 
 J. E. Peralta, F. Ogliaro, M. Bearpark, J. J. Heyd, E. Brothers, 
 K. N. Kudin, V. N. Staroverov, T. Keith, R. Kobayashi, J. Normand, 
 K. Raghavachari, A. Rendell, J. C. Burant, S. S. Iyengar, J. Tomasi, 
 M. Cossi, N. Rega, J. M. Millam, M. Klene, J. E. Knox, J. B. Cross, 
 V. Bakken, C. Adamo, J. Jaramillo, R. Gomperts, R. E. Stratmann, 
 O. Yazyev, A. J. Austin, R. Cammi, C. Pomelli, J. W. Ochterski, 
 R. L. Martin, K. Morokuma, V. G. Zakrzewski, G. A. Voth, 
 P. Salvador, J. J. Dannenberg, S. Dapprich, A. D. Daniels, 
 O. Farkas, J. B. Foresman, J. V. Ortiz, J. Cioslowski, 
 and D. J. Fox, Gaussian, Inc., Wallingford CT, 2010.
 
 ******************************************
 Gaussian 09:  AM64L-G09RevC.01 23-Sep-2011
                17-May-2024 
 ******************************************
 %nprocshared=4
 Will use up to    4 processors via shared memory.
 ------------------------------------------------
 # mpw1pw91/6-31+G** nmr scrf=(pcm,solvent=water)
 ------------------------------------------------
 1/38=1/1;
 2/12=2,17=6,18=5,40=1/2;
 3/5=1,6=6,7=111,11=2,16=1,25=1,30=1,70=2201,72=1,74=-7/1,2,8,3;
 4//1;
 5/5=2,38=5,53=1/2;
 8/6=1,10=90,11=11/1;
 10/13=100,45=16/2;
 6/7=2,8=2,9=2,10=2,28=1/1;
 99/9=1/99;
 -------
 comment
 -------
 Charge =  0 Multiplicity = 1
 Symbolic Z-Matrix:
 6                     2.36057   0.02742  -0.28702 
 6                     0.97128   0.04554  -0.94768 
 7                     0.20583  -1.10361  -0.35055 
 6                     1.10459  -1.7873    0.6135 
 6                     2.51461  -1.44061   0.13549 
 6                    -1.04621  -0.57781   0.24338 
 6                    -0.82936   0.92928   0.44668 
 6                     0.09803   1.31228  -0.7199 
 1                     3.14691   0.37001  -0.96657 
 1                     2.38249   0.67077   0.59891 
 1                     1.08702  -0.11902  -2.02565 
 1                     0.91324  -2.86687   0.62909 
 1                     0.95712  -1.41253   1.63695 
 1                     2.792    -2.06053  -0.72602 
 1                     3.26722  -1.59168   0.91578 
 1                    -1.23298  -1.06331   1.20806 
 1                    -1.76464   1.49836   0.44069 
 1                    -0.51258   1.49325  -1.60895 
 8                     0.81821   2.51653  -0.48125 
 1                     1.00184   2.52136   0.47628 
 8                    -0.09543   1.21393   1.64936 
 1                    -0.71239   1.13568   2.39514 
 6                    -2.24922  -0.87431  -0.65673 
 1                    -2.15253  -0.35347  -1.6202 
 1                    -2.2865   -1.95188  -0.86418 
 8                    -3.43438  -0.45123   0.02893 
 1                    -4.17995  -0.5857   -0.57813 
 
                          Input orientation:                          
 ---------------------------------------------------------------------
 Center     Atomic      Atomic             Coordinates (Angstroms)
 Number     Number       Type             X           Y           Z
 ---------------------------------------------------------------------
      1          6           0        2.360570    0.027422   -0.287024
      2          6           0        0.971280    0.045540   -0.947675
      3          7           0        0.205831   -1.103606   -0.350551
      4          6           0        1.104592   -1.787304    0.613501
      5          6           0        2.514608   -1.440611    0.135492
      6          6           0       -1.046214   -0.577809    0.243376
      7          6           0       -0.829362    0.929281    0.446683
      8          6           0        0.098027    1.312283   -0.719902
      9          1           0        3.146909    0.370014   -0.966567
     10          1           0        2.382487    0.670771    0.598906
     11          1           0        1.087019   -0.119016   -2.025647
     12          1           0        0.913237   -2.866870    0.629092
     13          1           0        0.957116   -1.412531    1.636948
     14          1           0        2.791999   -2.060526   -0.726024
     15          1           0        3.267218   -1.591675    0.915779
     16          1           0       -1.232976   -1.063309    1.208058
     17          1           0       -1.764635    1.498363    0.440693
     18          1           0       -0.512583    1.493252   -1.608954
     19          8           0        0.818207    2.516532   -0.481250
     20          1           0        1.001842    2.521363    0.476281
     21          8           0       -0.095427    1.213928    1.649364
     22          1           0       -0.712394    1.135682    2.395137
     23          6           0       -2.249222   -0.874313   -0.656731
     24          1           0       -2.152530   -0.353468   -1.620198
     25          1           0       -2.286496   -1.951879   -0.864176
     26          8           0       -3.434375   -0.451230    0.028927
     27          1           0       -4.179945   -0.585702   -0.578131
 ---------------------------------------------------------------------
                    Distance matrix (angstroms):
                    1          2          3          4          5
     1  C    0.000000
     2  C    1.538478   0.000000
     3  N    2.434371   1.504329   0.000000
     4  C    2.383623   2.411298   1.484793   0.000000
     5  C    1.535372   2.400783   2.383330   1.528671   0.000000
     6  C    3.500544   2.424345   1.482170   2.495163   3.665449
     7  C    3.395194   2.442856   2.416575   3.338838   4.110397
     8  C    2.637679   1.555342   2.446336   3.521161   3.761647
     9  H    1.094293   2.199773   3.346785   3.364773   2.211945
    10  H    1.095103   2.185024   2.964408   2.770444   2.165674
    11  H    2.160136   1.096585   2.133508   3.122274   2.907773
    12  H    3.363178   3.312355   2.137574   1.096505   2.200510
    13  H    2.782951   2.967566   2.147095   1.099840   2.163548
    14  H    2.176782   2.792787   2.782973   2.171709   1.097019
    15  H    2.211384   3.379980   3.348715   2.192395   1.094573
    16  H    4.042096   3.276504   2.121568   2.518311   3.916266
    17  H    4.439657   3.394627   3.358429   4.365539   5.200254
    18  H    3.485852   2.176008   2.973780   4.279791   4.562294
    19  O    2.934668   2.519283   3.673892   4.450112   4.349382
    20  H    2.940836   2.856271   3.802326   4.312076   4.254625
    21  O    3.345044   3.040988   3.075936   3.394179   4.018789
    22  H    4.226741   3.898405   3.660103   3.875502   4.707103
    23  C    4.711687   3.361906   2.484674   3.700691   4.862344
    24  H    4.721282   3.220199   2.781470   4.201683   5.103578
    25  H    5.083892   3.822271   2.682363   3.702714   4.930652
    26  O    5.823257   4.539860   3.717620   4.767498   6.031636
    27  H    6.575637   5.202898   4.422109   5.548889   6.786543
                    6          7          8          9         10
     6  C    0.000000
     7  C    1.536125   0.000000
     8  C    2.410319   1.538721   0.000000
     9  H    4.465939   4.256852   3.200687   0.000000
    10  H    3.666244   3.225829   2.714691   1.767909   0.000000
    11  H    3.147958   3.299069   2.175245   2.367266   3.031547
    12  H    3.037767   4.180991   4.466506   4.244153   3.830732
    13  H    2.579173   3.176841   3.703699   3.840697   2.729352
    14  H    4.227300   4.840294   4.316638   2.468065   3.063188
    15  H    4.481712   4.832933   4.599152   2.721383   2.449861
    16  H    1.095993   2.170947   3.336471   5.095763   4.055820
    17  H    2.205800   1.094818   2.202525   5.232286   4.231851
    18  H    2.829343   2.155007   1.093621   3.881521   3.732633
    19  O    3.684575   2.468787   1.423316   3.204048   2.649631
    20  H    3.722049   2.426707   1.926035   3.363246   2.312122
    21  O    2.468019   1.437403   2.379185   4.250650   2.745640
    22  H    2.770841   1.962844   3.223575   5.175087   3.608445
    23  C    1.531449   2.546856   3.208546   5.546402   5.041492
    24  H    2.178801   2.769154   2.941133   5.388387   5.151686
    25  H    2.157090   3.484634   4.044937   5.909616   5.551424
    26  O    2.401109   2.977654   4.018530   6.706620   5.951441
    27  H    3.239631   3.817306   4.682253   7.399126   6.784516
                   11         12         13         14         15
    11  H    0.000000
    12  H    3.824728   0.000000
    13  H    3.886471   1.769972   0.000000
    14  H    2.892307   2.452810   3.061099   0.000000
    15  H    3.946388   2.692497   2.426674   1.772335   0.000000
    16  H    4.090344   2.862563   2.258851   4.575537   4.540522
    17  H    4.102521   5.124622   4.160800   5.898291   5.923984
    18  H    2.309062   5.104163   4.597768   4.932460   5.493446
    19  O    3.066518   5.497536   4.465825   4.990514   4.982641
    20  H    3.638475   5.391128   4.101789   5.063981   4.716160
    21  O    4.084192   4.325653   2.829538   4.970085   4.440376
    22  H    4.935128   4.667120   3.139348   5.677866   5.046215
    23  C    3.684414   3.952818   3.978850   5.179364   5.780874
    24  H    3.273230   4.558006   4.626069   5.306784   6.110483
    25  H    4.011110   3.647650   4.131287   5.081535   5.843092
    26  O    4.977413   5.009715   4.774414   6.475146   6.855543
    27  H    5.482154   5.709783   5.655052   7.127761   7.661853
                   16         17         18         19         20
    16  H    0.000000
    17  H    2.726476   0.000000
    18  H    3.871760   2.401815   0.000000
    19  O    4.458293   2.925358   2.022330   0.000000
    20  H    4.287165   2.949778   2.774653   0.974993   0.000000
    21  O    2.583520   2.080395   3.296768   2.659139   2.071113
    22  H    2.552592   2.249133   4.024988   3.538798   2.922452
    23  C    2.132115   2.658713   3.086747   4.575778   4.835675
    24  H    3.057529   2.797680   2.469803   4.284785   4.754991
    25  H    2.488697   3.725479   3.945933   5.454586   5.711382
    26  O    2.571215   2.599711   3.873052   5.210791   5.358774
    27  H    3.478966   3.348888   4.339838   5.883431   6.133234
                   21         22         23         24         25
    21  O    0.000000
    22  H    0.971055   0.000000
    23  C    3.783868   3.964318   0.000000
    24  H    4.168745   4.518238   1.099499   0.000000
    25  H    4.597934   4.757515   1.097985   1.773255   0.000000
    26  O    4.067818   3.940358   1.433078   2.091004   2.089786
    27  H    4.988355   4.881331   1.953757   2.291342   2.352320
                   26         27
    26  O    0.000000
    27  H    0.970812   0.000000
 Stoichiometry    C8H15NO3
 Framework group  C1[X(C8H15NO3)]
 Deg. of freedom    75
 Full point group                 C1      NOp   1
 Largest Abelian subgroup         C1      NOp   1
 Largest concise Abelian subgroup C1      NOp   1
                         Standard orientation:                         
 ---------------------------------------------------------------------
 Center     Atomic      Atomic             Coordinates (Angstroms)
 Number     Number       Type             X           Y           Z
 ---------------------------------------------------------------------
      1          6           0        2.360570    0.027422   -0.287024
      2          6           0        0.971280    0.045540   -0.947675
      3          7           0        0.205831   -1.103606   -0.350551
      4          6           0        1.104592   -1.787304    0.613501
      5          6           0        2.514608   -1.440611    0.135492
      6          6           0       -1.046214   -0.577809    0.243376
      7          6           0       -0.829362    0.929281    0.446683
      8          6           0        0.098027    1.312283   -0.719902
      9          1           0        3.146909    0.370014   -0.966567
     10          1           0        2.382487    0.670771    0.598906
     11          1           0        1.087019   -0.119016   -2.025647
     12          1           0        0.913237   -2.866870    0.629092
     13          1           0        0.957116   -1.412531    1.636948
     14          1           0        2.791999   -2.060526   -0.726024
     15          1           0        3.267218   -1.591675    0.915779
     16          1           0       -1.232976   -1.063309    1.208058
     17          1           0       -1.764635    1.498363    0.440693
     18          1           0       -0.512583    1.493252   -1.608954
     19          8           0        0.818207    2.516532   -0.481250
     20          1           0        1.001842    2.521363    0.476281
     21          8           0       -0.095427    1.213928    1.649364
     22          1           0       -0.712394    1.135682    2.395137
     23          6           0       -2.249222   -0.874313   -0.656731
     24          1           0       -2.152530   -0.353468   -1.620198
     25          1           0       -2.286496   -1.951879   -0.864176
     26          8           0       -3.434375   -0.451230    0.028927
     27          1           0       -4.179945   -0.585702   -0.578131
 ---------------------------------------------------------------------
 Rotational constants (GHZ):      1.2902699      0.8069847      0.6237245
 Standard basis: 6-31+G(d,p) (6D, 7F)
 There are   303 symmetry adapted basis functions of A   symmetry.
 Integral buffers will be    131072 words long.
 Raffenetti 2 integral format.
 Two-electron integral symmetry is turned on.
   303 basis functions,   489 primitive gaussians,   303 cartesian basis functions
    47 alpha electrons       47 beta electrons
       nuclear repulsion energy       809.3236319530 Hartrees.
 NAtoms=   27 NActive=   27 NUniq=   27 SFac= 1.00D+00 NAtFMM=   60 NAOKFM=F Big=F
 ------------------------------------------------------------------------------
 Polarizable Continuum Model (PCM)
 =================================
 Model                : PCM.
 Atomic radii         : UFF (Universal Force Field).
 Polarization charges : Total charges.
 Charge compensation  : None.
 Solution method      : Matrix inversion.
 Cavity type          : Scaled VdW (van der Waals Surface) (Alpha=1.100).
 Cavity algorithm     : GePol (No added spheres)
                        Default sphere list used, NSphG=   27.
                        Lebedev-Laikov grids with approx.  5.0 points / Ang**2.
                        Smoothing algorithm: Karplus/York (Gamma=1.0000).
                        Polarization charges: spherical gaussians, with
                                              point-specific exponents (IZeta= 3).
                        Self-potential: point-specific (ISelfS= 7).
                        Self-field    : sphere-specific E.n sum rule (ISelfD= 2).
 Solvent              : Water, Eps=  78.355300 Eps(inf)=   1.777849
 ------------------------------------------------------------------------------
 One-electron integrals computed using PRISM.
 NBasis=   303 RedAO= T  NBF=   303
 NBsUse=   303 1.00D-06 NBFU=   303
 Harris functional with IExCor=  908 diagonalized for initial guess.
 ExpMin= 4.38D-02 ExpMax= 5.48D+03 ExpMxC= 8.25D+02 IAcc=2 IRadAn=         4 AccDes= 0.00D+00
 HarFok:  IExCor=  908 AccDes= 0.00D+00 IRadAn=         4 IDoV= 1
 ScaDFX=  1.000000  1.000000  1.000000  1.000000
 FoFCou: FMM=F IPFlag=           0 FMFlag=      100000 FMFlg1=           0
         NFxFlg=           0 DoJE=T BraDBF=F KetDBF=T FulRan=T
         Omega=  0.000000  0.000000  1.000000  0.000000  0.000000 ICntrl=     500 IOpCl=  0
         NMat0=    1 NMatS0=    1 NMatT0=    0 NMatD0=    1 NMtDS0=    0 NMtDT0=    0
         I1Cent=           4 NGrid=           0.
 Petite list used in FoFCou.
 Initial guess orbital symmetries:
       Occupied  (A) (A) (A) (A) (A) (A) (A) (A) (A) (A) (A) (A)
                 (A) (A) (A) (A) (A) (A) (A) (A) (A) (A) (A) (A)
                 (A) (A) (A) (A) (A) (A) (A) (A) (A) (A) (A) (A)
                 (A) (A) (A) (A) (A) (A) (A) (A) (A) (A) (A)
       Virtual   (A) (A) (A) (A) (A) (A) (A) (A) (A) (A) (A) (A)
                 (A) (A) (A) (A) (A) (A) (A) (A) (A) (A) (A) (A)
                 (A) (A) (A) (A) (A) (A) (A) (A) (A) (A) (A) (A)
                 (A) (A) (A) (A) (A) (A) (A) (A) (A) (A) (A) (A)
                 (A) (A) (A) (A) (A) (A) (A) (A) (A) (A) (A) (A)
                 (A) (A) (A) (A) (A) (A) (A) (A) (A) (A) (A) (A)
                 (A) (A) (A) (A) (A) (A) (A) (A) (A) (A) (A) (A)
                 (A) (A) (A) (A) (A) (A) (A) (A) (A) (A) (A) (A)
                 (A) (A) (A) (A) (A) (A) (A) (A) (A) (A) (A) (A)
                 (A) (A) (A) (A) (A) (A) (A) (A) (A) (A) (A) (A)
                 (A) (A) (A) (A) (A) (A) (A) (A) (A) (A) (A) (A)
                 (A) (A) (A) (A) (A) (A) (A) (A) (A) (A) (A) (A)
                 (A) (A) (A) (A) (A) (A) (A) (A) (A) (A) (A) (A)
                 (A) (A) (A) (A) (A) (A) (A) (A) (A) (A) (A) (A)
                 (A) (A) (A) (A) (A) (A) (A) (A) (A) (A) (A) (A)
                 (A) (A) (A) (A) (A) (A) (A) (A) (A) (A) (A) (A)
                 (A) (A) (A) (A) (A) (A) (A) (A) (A) (A) (A) (A)
                 (A) (A) (A) (A) (A) (A) (A) (A) (A) (A) (A) (A)
                 (A) (A) (A) (A) (A) (A) (A) (A) (A) (A) (A) (A)
                 (A) (A) (A) (A) (A) (A) (A) (A) (A) (A) (A) (A)
                 (A) (A) (A) (A) (A) (A) (A) (A) (A) (A) (A) (A)
                 (A) (A) (A) (A)
 The electronic state of the initial guess is 1-A.
 Requested convergence on RMS density matrix=1.00D-08 within 128 cycles.
 Requested convergence on MAX density matrix=1.00D-06.
 Requested convergence on             energy=1.00D-06.
 No special actions if energy rises.
 Error on total polarization charges =  0.01414
 SCF Done:  E(RmPW1PW91) =  -594.194758840     A.U. after   13 cycles
             Convg  =    0.7095D-08             -V/T =  2.0094
 Range of M.O.s used for correlation:     1   303
 NBasis=   303 NAE=    47 NBE=    47 NFC=     0 NFV=     0
 NROrb=    303 NOA=    47 NOB=    47 NVA=   256 NVB=   256

 **** Warning!!: The largest alpha MO coefficient is  0.83203357D+02

 NEqPCM:  Using equilibrium solvation (IEInf=0, Eps=  78.3553, EpsInf=   1.7778)
          Differentiating once with respect to magnetic field using GIAOs.
          Electric field/nuclear overlap derivatives assumed to be zero.
 FoFCou: FMM=F IPFlag=           0 FMFlag=    10101102 FMFlg1=           0
         NFxFlg=    40000000 DoJE=F BraDBF=F KetDBF=T FulRan=T
         Omega=  0.000000  0.000000  1.000000  0.000000  0.000000 ICntrl=    6100 IOpCl=  0
         NMat0=    1 NMatS0=    1 NMatT0=    0 NMatD0=    1 NMtDS0=    0 NMtDT0=    0
         I1Cent=           7 NGrid=        1829.
 Symmetry not used in FoFCou.
          There are     3 degrees of freedom in the 1st order CPHF.  IDoFFX=0.
      3 vectors produced by pass  0 Test12= 4.01D-13 3.33D-08 XBig12= 3.06D+01 9.68D-01.
 AX will form     3 AO Fock derivatives at one time.
      3 vectors produced by pass  1 Test12= 4.01D-13 3.33D-08 XBig12= 7.72D-02 3.46D-02.
      3 vectors produced by pass  2 Test12= 4.01D-13 3.33D-08 XBig12= 1.50D-04 1.87D-03.
      3 vectors produced by pass  3 Test12= 4.01D-13 3.33D-08 XBig12= 6.36D-07 1.62D-04.
      3 vectors produced by pass  4 Test12= 4.01D-13 3.33D-08 XBig12= 2.24D-09 9.88D-06.
      3 vectors produced by pass  5 Test12= 4.01D-13 3.33D-08 XBig12= 7.38D-12 8.00D-07.
      1 vectors produced by pass  6 Test12= 4.01D-13 3.33D-08 XBig12= 2.85D-14 4.59D-08.
 Inverted reduced A of dimension    19 with in-core refinement.
 Calculating GIAO nuclear magnetic shielding tensors.
 SCF GIAO Magnetic shielding tensor (ppm):
      1  C    Isotropic =   166.3575   Anisotropy =    19.2654
   XX=   173.4751   YX=    -3.7330   ZX=     5.1632
   XY=     4.3415   YY=   172.0867   ZY=   -14.4705
   XZ=     5.6480   YZ=   -10.2811   ZZ=   153.5106
   Eigenvalues:   146.4072   173.4641   179.2011
      2  C    Isotropic =   127.4532   Anisotropy =    55.1488
   XX=   135.5537   YX=     9.9688   ZX=   -10.9219
   XY=    16.2793   YY=   152.0123   ZY=   -19.6581
   XZ=     1.8038   YZ=   -17.4376   ZZ=    94.7935
   Eigenvalues:    89.2974   128.8430   164.2190
      3  N    Isotropic =   196.2043   Anisotropy =    80.2056
   XX=   236.3850   YX=    -8.6000   ZX=   -22.9810
   XY=    -7.3163   YY=   196.5348   ZY=   -38.1809
   XZ=   -45.6211   YZ=   -35.3727   ZZ=   155.6930
   Eigenvalues:   123.9060   215.0322   249.6747
      4  C    Isotropic =   136.8844   Anisotropy =    60.8089
   XX=   156.1653   YX=   -11.5586   ZX=    15.7413
   XY=   -23.7032   YY=   119.9644   ZY=   -18.0430
   XZ=    14.8810   YZ=   -30.4601   ZZ=   134.5236
   Eigenvalues:   101.3618   131.8678   177.4237
      5  C    Isotropic =   166.6365   Anisotropy =    19.9076
   XX=   179.4391   YX=     1.1430   ZX=     2.0470
   XY=    -2.6031   YY=   170.9124   ZY=   -19.2365
   XZ=    -5.7428   YZ=   -13.4469   ZZ=   149.5581
   Eigenvalues:   140.6144   179.3869   179.9082
      6  C    Isotropic =   122.8276   Anisotropy =    38.5259
   XX=   136.3003   YX=   -11.2126   ZX=   -23.0296
   XY=   -10.2346   YY=   112.8411   ZY=     1.0768
   XZ=    -3.2533   YZ=    15.5675   ZZ=   119.3414
   Eigenvalues:   107.0021   112.9691   148.5115
      7  C    Isotropic =   117.4626   Anisotropy =    30.9284
   XX=   107.9644   YX=     7.4656   ZX=    22.4821
   XY=     9.0581   YY=   117.9462   ZY=     3.9474
   XZ=     7.8012   YZ=     4.6361   ZZ=   126.4773
   Eigenvalues:    98.0455   116.2609   138.0816
      8  C    Isotropic =   121.1624   Anisotropy =    50.2855
   XX=   121.9014   YX=    11.8654   ZX=   -12.0672
   XY=    15.8886   YY=   148.7719   ZY=    10.2448
   XZ=   -15.6902   YZ=     4.5106   ZZ=    92.8139
   Eigenvalues:    84.9075   123.8936   154.6861
      9  H    Isotropic =    30.0014   Anisotropy =    10.8965
   XX=    33.7320   YX=     1.9952   ZX=    -4.2772
   XY=     2.5106   YY=    28.4134   ZY=    -2.7462
   XZ=    -4.5330   YZ=    -2.4142   ZZ=    27.8588
   Eigenvalues:    24.9287    27.8098    37.2657
     10  H    Isotropic =    29.6957   Anisotropy =     6.2350
   XX=    29.7628   YX=    -0.5054   ZX=     1.9290
   XY=    -0.6383   YY=    31.0188   ZY=     3.6988
   XZ=     2.3996   YZ=     3.8692   ZZ=    28.3054
   Eigenvalues:    24.7510    30.4837    33.8524
     11  H    Isotropic =    27.9838   Anisotropy =     8.4610
   XX=    25.5776   YX=     0.7367   ZX=    -1.4713
   XY=     0.1116   YY=    24.9754   ZY=    -0.4644
   XZ=    -0.8238   YZ=    -0.8805   ZZ=    33.3986
   Eigenvalues:    24.7556    25.5714    33.6245
     12  H    Isotropic =    28.3181   Anisotropy =     9.7361
   XX=    26.6934   YX=    -0.8829   ZX=     0.9215
   XY=     0.2673   YY=    33.8493   ZY=    -2.6942
   XZ=     0.5562   YZ=    -3.5078   ZZ=    24.4114
   Eigenvalues:    23.3675    26.7779    34.8088
     13  H    Isotropic =    28.4945   Anisotropy =     7.3419
   XX=    26.8461   YX=    -2.2434   ZX=     1.3804
   XY=    -2.4973   YY=    26.1466   ZY=    -2.2198
   XZ=    -0.1383   YZ=    -1.9595   ZZ=    32.4909
   Eigenvalues:    23.9250    28.1695    33.3891
     14  H    Isotropic =    29.7605   Anisotropy =    11.1358
   XX=    29.3300   YX=    -3.4582   ZX=    -3.5079
   XY=    -3.7072   YY=    31.7085   ZY=     3.4396
   XZ=    -3.7829   YZ=     3.7892   ZZ=    28.2429
   Eigenvalues:    25.0509    27.0462    37.1843
     15  H    Isotropic =    29.6507   Anisotropy =    11.5597
   XX=    32.9974   YX=    -2.4170   ZX=     4.7665
   XY=    -3.1931   YY=    27.4499   ZY=    -2.5243
   XZ=     4.8217   YZ=    -2.0791   ZZ=    28.5047
   Eigenvalues:    25.2623    26.3325    37.3571
     16  H    Isotropic =    28.5973   Anisotropy =     5.2841
   XX=    30.3514   YX=     1.3809   ZX=    -2.1472
   XY=     0.5984   YY=    27.3867   ZY=    -2.0656
   XZ=    -1.3720   YZ=    -2.1871   ZZ=    28.0539
   Eigenvalues:    25.5288    28.1432    32.1200
     17  H    Isotropic =    27.1694   Anisotropy =     7.1682
   XX=    30.9573   YX=    -2.1550   ZX=     1.5872
   XY=    -1.1136   YY=    25.7485   ZY=     1.5966
   XZ=     2.9509   YZ=     0.6619   ZZ=    24.8022
   Eigenvalues:    23.0616    26.4983    31.9481
     18  H    Isotropic =    27.1021   Anisotropy =     6.0695
   XX=    26.1721   YX=    -0.3179   ZX=     4.7942
   XY=     0.4856   YY=    27.4188   ZY=    -0.7809
   XZ=     2.2719   YZ=    -3.0517   ZZ=    27.7153
   Eigenvalues:    22.9453    27.2126    31.1484
     19  O    Isotropic =   317.5848   Anisotropy =    28.2284
   XX=   294.2644   YX=   -20.8782   ZX=     4.6915
   XY=     1.8033   YY=   331.2640   ZY=     2.2976
   XZ=    -7.1925   YZ=   -13.3038   ZZ=   327.2262
   Eigenvalues:   291.7694   324.5814   336.4038
     20  H    Isotropic =    28.4182   Anisotropy =    14.7484
   XX=    22.3502   YX=     4.6370   ZX=     2.5058
   XY=     3.4333   YY=    25.4282   ZY=     1.1821
   XZ=     2.8761   YZ=     1.3310   ZZ=    37.4762
   Eigenvalues:    19.4398    27.5644    38.2505
     21  O    Isotropic =   294.3754   Anisotropy =    60.2009
   XX=   279.8420   YX=    12.4169   ZX=   -18.1720
   XY=     1.5216   YY=   280.4352   ZY=   -31.0120
   XZ=   -16.3778   YZ=    -0.9059   ZZ=   322.8488
   Eigenvalues:   272.9754   275.6414   334.5093
     22  H    Isotropic =    29.8966   Anisotropy =    19.8773
   XX=    29.2186   YX=     0.8000   ZX=    -6.8229
   XY=     1.6108   YY=    21.6022   ZY=     2.0915
   XZ=    -8.5177   YZ=     1.4166   ZZ=    38.8691
   Eigenvalues:    20.7132    25.8285    43.1481
     23  C    Isotropic =   130.8584   Anisotropy =    66.9201
   XX=   164.7617   YX=   -14.3565   ZX=   -23.8966
   XY=   -15.5806   YY=   114.2750   ZY=    14.6000
   XZ=   -11.3363   YZ=     9.0251   ZZ=   113.5385
   Eigenvalues:   101.9656   115.1378   175.4718
     24  H    Isotropic =    28.2363   Anisotropy =     3.7410
   XX=    30.5847   YX=     1.8832   ZX=    -0.5085
   XY=     0.0234   YY=    23.9978   ZY=    -0.1025
   XZ=     0.7896   YZ=    -0.7790   ZZ=    30.1265
   Eigenvalues:    23.8296    30.1491    30.7303
     25  H    Isotropic =    27.9508   Anisotropy =     4.9082
   XX=    29.5834   YX=    -0.6989   ZX=    -0.0675
   XY=     1.3998   YY=    29.9202   ZY=     2.5118
   XZ=    -0.7300   YZ=     3.4277   ZZ=    24.3487
   Eigenvalues:    23.0237    29.6057    31.2229
     26  O    Isotropic =   312.3519   Anisotropy =    90.6834
   XX=   355.2407   YX=     2.3928   ZX=    20.9141
   XY=    20.6966   YY=   275.8961   ZY=     6.7528
   XZ=    43.1242   YZ=     6.3605   ZZ=   305.9191
   Eigenvalues:   274.0460   290.2023   372.8076
     27  H    Isotropic =    30.3475   Anisotropy =    21.4317
   XX=    40.5886   YX=     1.3910   ZX=     8.4518
   XY=     0.5182   YY=    21.2812   ZY=     2.5113
   XZ=     6.9343   YZ=     2.6608   ZZ=    29.1727
   Eigenvalues:    20.3918    26.0154    44.6353
 End of Minotr Frequency-dependent properties file   721 does not exist.
 End of Minotr Frequency-dependent properties file   722 does not exist.

 **********************************************************************

            Population analysis using the SCF density.

 **********************************************************************

 Orbital symmetries:
       Occupied  (A) (A) (A) (A) (A) (A) (A) (A) (A) (A) (A) (A)
                 (A) (A) (A) (A) (A) (A) (A) (A) (A) (A) (A) (A)
                 (A) (A) (A) (A) (A) (A) (A) (A) (A) (A) (A) (A)
                 (A) (A) (A) (A) (A) (A) (A) (A) (A) (A) (A)
       Virtual   (A) (A) (A) (A) (A) (A) (A) (A) (A) (A) (A) (A)
                 (A) (A) (A) (A) (A) (A) (A) (A) (A) (A) (A) (A)
                 (A) (A) (A) (A) (A) (A) (A) (A) (A) (A) (A) (A)
                 (A) (A) (A) (A) (A) (A) (A) (A) (A) (A) (A) (A)
                 (A) (A) (A) (A) (A) (A) (A) (A) (A) (A) (A) (A)
                 (A) (A) (A) (A) (A) (A) (A) (A) (A) (A) (A) (A)
                 (A) (A) (A) (A) (A) (A) (A) (A) (A) (A) (A) (A)
                 (A) (A) (A) (A) (A) (A) (A) (A) (A) (A) (A) (A)
                 (A) (A) (A) (A) (A) (A) (A) (A) (A) (A) (A) (A)
                 (A) (A) (A) (A) (A) (A) (A) (A) (A) (A) (A) (A)
                 (A) (A) (A) (A) (A) (A) (A) (A) (A) (A) (A) (A)
                 (A) (A) (A) (A) (A) (A) (A) (A) (A) (A) (A) (A)
                 (A) (A) (A) (A) (A) (A) (A) (A) (A) (A) (A) (A)
                 (A) (A) (A) (A) (A) (A) (A) (A) (A) (A) (A) (A)
                 (A) (A) (A) (A) (A) (A) (A) (A) (A) (A) (A) (A)
                 (A) (A) (A) (A) (A) (A) (A) (A) (A) (A) (A) (A)
                 (A) (A) (A) (A) (A) (A) (A) (A) (A) (A) (A) (A)
                 (A) (A) (A) (A) (A) (A) (A) (A) (A) (A) (A) (A)
                 (A) (A) (A) (A) (A) (A) (A) (A) (A) (A) (A) (A)
                 (A) (A) (A) (A) (A) (A) (A) (A) (A) (A) (A) (A)
                 (A) (A) (A) (A) (A) (A) (A) (A) (A) (A) (A) (A)
                 (A) (A) (A) (A)
 The electronic state is 1-A.
 Alpha  occ. eigenvalues --  -19.26408 -19.25640 -19.25384 -14.41080 -10.30382
 Alpha  occ. eigenvalues --  -10.30273 -10.29587 -10.28040 -10.27320 -10.26592
 Alpha  occ. eigenvalues --  -10.24405 -10.24260  -1.07850  -1.05735  -1.04776
 Alpha  occ. eigenvalues --   -0.96010  -0.82863  -0.78545  -0.74998  -0.71800
 Alpha  occ. eigenvalues --   -0.66432  -0.61004  -0.60376  -0.57812  -0.55882
 Alpha  occ. eigenvalues --   -0.53673  -0.52384  -0.50166  -0.47724  -0.46826
 Alpha  occ. eigenvalues --   -0.45807  -0.45633  -0.43331  -0.42624  -0.40151
 Alpha  occ. eigenvalues --   -0.38974  -0.38541  -0.37041  -0.36361  -0.35382
 Alpha  occ. eigenvalues --   -0.35184  -0.33889  -0.33051  -0.31585  -0.29809
 Alpha  occ. eigenvalues --   -0.28820  -0.22750
 Alpha virt. eigenvalues --    0.00373   0.01180   0.01805   0.02285   0.03535
 Alpha virt. eigenvalues --    0.04244   0.04732   0.05394   0.05489   0.06159
 Alpha virt. eigenvalues --    0.07903   0.08682   0.08993   0.09355   0.09363
 Alpha virt. eigenvalues --    0.10148   0.11245   0.12173   0.12324   0.12761
 Alpha virt. eigenvalues --    0.13236   0.13689   0.14453   0.14964   0.15300
 Alpha virt. eigenvalues --    0.16028   0.16714   0.17036   0.17769   0.18018
 Alpha virt. eigenvalues --    0.18926   0.19831   0.20449   0.20733   0.20905
 Alpha virt. eigenvalues --    0.21432   0.21605   0.22240   0.23369   0.23444
 Alpha virt. eigenvalues --    0.23988   0.24825   0.24931   0.25453   0.26304
 Alpha virt. eigenvalues --    0.26593   0.27628   0.28146   0.28302   0.29065
 Alpha virt. eigenvalues --    0.29730   0.29853   0.30505   0.31022   0.31859
 Alpha virt. eigenvalues --    0.32183   0.33082   0.33418   0.34597   0.35248
 Alpha virt. eigenvalues --    0.35892   0.36546   0.37349   0.38160   0.39121
 Alpha virt. eigenvalues --    0.39662   0.40197   0.40898   0.41356   0.42480
 Alpha virt. eigenvalues --    0.43119   0.44012   0.44718   0.46143   0.47791
 Alpha virt. eigenvalues --    0.49597   0.65207   0.65818   0.68294   0.68636
 Alpha virt. eigenvalues --    0.69791   0.72032   0.72475   0.72938   0.74666
 Alpha virt. eigenvalues --    0.75261   0.76507   0.77980   0.80533   0.81179
 Alpha virt. eigenvalues --    0.83541   0.84242   0.84883   0.85760   0.88154
 Alpha virt. eigenvalues --    0.91272   0.92394   0.93904   0.95489   0.97440
 Alpha virt. eigenvalues --    0.98296   1.00279   1.01748   1.03546   1.04295
 Alpha virt. eigenvalues --    1.04912   1.07517   1.08273   1.08867   1.10098
 Alpha virt. eigenvalues --    1.10636   1.11992   1.13146   1.13905   1.16667
 Alpha virt. eigenvalues --    1.17438   1.18840   1.20850   1.22004   1.26261
 Alpha virt. eigenvalues --    1.27637   1.28611   1.29993   1.30788   1.31824
 Alpha virt. eigenvalues --    1.34331   1.36131   1.37126   1.42199   1.42731
 Alpha virt. eigenvalues --    1.43772   1.45120   1.50222   1.51154   1.52625
 Alpha virt. eigenvalues --    1.54352   1.56430   1.58284   1.59595   1.61008
 Alpha virt. eigenvalues --    1.63431   1.66039   1.66613   1.67204   1.68810
 Alpha virt. eigenvalues --    1.71665   1.73855   1.78256   1.78876   1.79729
 Alpha virt. eigenvalues --    1.80684   1.81478   1.83780   1.85279   1.87128
 Alpha virt. eigenvalues --    1.88633   1.90113   1.91687   1.94571   1.96027
 Alpha virt. eigenvalues --    1.96437   1.98989   2.01312   2.01976   2.04124
 Alpha virt. eigenvalues --    2.05032   2.05933   2.07787   2.09146   2.10810
 Alpha virt. eigenvalues --    2.12904   2.14775   2.16410   2.16990   2.21421
 Alpha virt. eigenvalues --    2.22030   2.22204   2.24248   2.26086   2.28516
 Alpha virt. eigenvalues --    2.29522   2.31006   2.32802   2.37875   2.39492
 Alpha virt. eigenvalues --    2.42506   2.43594   2.46010   2.47129   2.48934
 Alpha virt. eigenvalues --    2.50628   2.51870   2.53496   2.55863   2.56701
 Alpha virt. eigenvalues --    2.58107   2.58563   2.61158   2.62290   2.63935
 Alpha virt. eigenvalues --    2.64831   2.66988   2.67535   2.67833   2.69529
 Alpha virt. eigenvalues --    2.71519   2.72315   2.73401   2.75151   2.77449
 Alpha virt. eigenvalues --    2.78788   2.79606   2.82141   2.83721   2.85567
 Alpha virt. eigenvalues --    2.86154   2.88049   2.90169   2.93060   2.93595
 Alpha virt. eigenvalues --    2.96694   2.99226   3.00670   3.01161   3.03202
 Alpha virt. eigenvalues --    3.07104   3.09890   3.14143   3.14932   3.32797
 Alpha virt. eigenvalues --    3.35816   3.36696   3.37374   3.43448   3.46477
 Alpha virt. eigenvalues --    3.48328   3.50067   3.52967   3.54291   3.55686
 Alpha virt. eigenvalues --    3.57114   3.58149   3.59351   3.62141   4.34059
 Alpha virt. eigenvalues --    4.35321   4.40878   4.48634   4.51701   4.53489
 Alpha virt. eigenvalues --    4.62224   4.73478   4.77213   4.84165   4.87643
 Alpha virt. eigenvalues --    4.97363
          Condensed to atoms (all electrons):
              1          2          3          4          5          6
     1  C    5.762241  -0.423507   0.077426  -0.172918   0.185985   0.054902
     2  C   -0.423507   8.164444  -0.298116  -0.181029   0.113056   0.010093
     3  N    0.077426  -0.298116   7.460247   0.210738  -0.211350  -0.240701
     4  C   -0.172918  -0.181029   0.210738   5.619981   0.072041  -0.169551
     5  C    0.185985   0.113056  -0.211350   0.072041   5.643347   0.164442
     6  C    0.054902   0.010093  -0.240701  -0.169551   0.164442   8.984426
     7  C   -0.062496   0.111593   0.047130   0.022726  -0.124765  -1.315628
     8  C    0.048385  -0.953215   0.002550   0.013898   0.060056  -0.407366
     9  H    0.378348  -0.074950   0.014879   0.027360  -0.019518   0.002598
    10  H    0.475095  -0.144156   0.028767   0.017530  -0.076729  -0.005017
    11  H    0.033315   0.202165  -0.007934   0.013023  -0.021769   0.019110
    12  H    0.027103  -0.004931  -0.054333   0.390902  -0.047324   0.002238
    13  H   -0.003729   0.028418  -0.084816   0.410333  -0.013483  -0.001746
    14  H   -0.025748  -0.019446   0.013394  -0.031462   0.386039  -0.001502
    15  H   -0.066938   0.046179   0.005938  -0.024009   0.386589  -0.008867
    16  H   -0.008460   0.014123  -0.048489   0.006647   0.013134   0.314762
    17  H    0.001846   0.001446   0.018172  -0.008705   0.000695  -0.124487
    18  H    0.013549  -0.105081   0.013291   0.003592  -0.003964   0.027453
    19  O    0.022939  -0.218654   0.027535  -0.004447  -0.002234   0.022175
    20  H    0.004004  -0.044813   0.000521  -0.004082   0.004296   0.028635
    21  O    0.020151  -0.003882  -0.001765  -0.035158   0.003778   0.076453
    22  H   -0.005839   0.005811  -0.000945  -0.003342   0.002163  -0.078392
    23  C    0.051882  -0.320939   0.112418  -0.079262  -0.047063  -0.883734
    24  H   -0.001491   0.005896   0.017947   0.005903   0.002057  -0.116749
    25  H    0.002557   0.002235  -0.009128  -0.007668  -0.002106  -0.058918
    26  O    0.001153   0.010903   0.003926   0.009371   0.000291   0.031507
    27  H   -0.000118  -0.001741  -0.000605  -0.001185   0.000026   0.024190
              7          8          9         10         11         12
     1  C   -0.062496   0.048385   0.378348   0.475095   0.033315   0.027103
     2  C    0.111593  -0.953215  -0.074950  -0.144156   0.202165  -0.004931
     3  N    0.047130   0.002550   0.014879   0.028767  -0.007934  -0.054333
     4  C    0.022726   0.013898   0.027360   0.017530   0.013023   0.390902
     5  C   -0.124765   0.060056  -0.019518  -0.076729  -0.021769  -0.047324
     6  C   -1.315628  -0.407366   0.002598  -0.005017   0.019110   0.002238
     7  C    6.953960  -0.138705  -0.009821   0.020067   0.000518   0.005025
     8  C   -0.138705   6.643997   0.020397   0.001083   0.008240  -0.001168
     9  H   -0.009821   0.020397   0.522390  -0.024882  -0.004751  -0.000100
    10  H    0.020067   0.001083  -0.024882   0.530234   0.004372  -0.000044
    11  H    0.000518   0.008240  -0.004751   0.004372   0.571236   0.000216
    12  H    0.005025  -0.001168  -0.000100  -0.000044   0.000216   0.559556
    13  H    0.003675  -0.008359  -0.000132   0.001045  -0.000467  -0.043655
    14  H    0.005066  -0.002645  -0.005028   0.004228   0.000908  -0.006405
    15  H    0.004981  -0.003130   0.000221  -0.005266  -0.000106   0.001009
    16  H    0.014454   0.026174   0.000003  -0.000026  -0.000222  -0.000231
    17  H    0.361245   0.000799   0.000005  -0.000057  -0.000039   0.000010
    18  H   -0.063240   0.457162  -0.000081   0.000130  -0.006164   0.000005
    19  O   -0.119063   0.393934  -0.001253   0.006778   0.008672   0.000075
    20  H   -0.078731   0.057220   0.000197   0.000253  -0.000106   0.000000
    21  O    0.186604  -0.163551   0.000516  -0.001828  -0.000571   0.000496
    22  H    0.090138   0.007278  -0.000002   0.000192   0.000009  -0.000001
    23  C    0.045408   0.158215   0.000582   0.000278   0.018654   0.012215
    24  H    0.047396  -0.008743   0.000001   0.000000  -0.000215   0.000011
    25  H   -0.020832  -0.001849   0.000000   0.000000   0.000042   0.000004
    26  O   -0.010842  -0.006159   0.000000  -0.000005  -0.000049  -0.000035
    27  H   -0.005346   0.002020   0.000000   0.000000   0.000000   0.000000
             13         14         15         16         17         18
     1  C   -0.003729  -0.025748  -0.066938  -0.008460   0.001846   0.013549
     2  C    0.028418  -0.019446   0.046179   0.014123   0.001446  -0.105081
     3  N   -0.084816   0.013394   0.005938  -0.048489   0.018172   0.013291
     4  C    0.410333  -0.031462  -0.024009   0.006647  -0.008705   0.003592
     5  C   -0.013483   0.386039   0.386589   0.013134   0.000695  -0.003964
     6  C   -0.001746  -0.001502  -0.008867   0.314762  -0.124487   0.027453
     7  C    0.003675   0.005066   0.004981   0.014454   0.361245  -0.063240
     8  C   -0.008359  -0.002645  -0.003130   0.026174   0.000799   0.457162
     9  H   -0.000132  -0.005028   0.000221   0.000003   0.000005  -0.000081
    10  H    0.001045   0.004228  -0.005266  -0.000026  -0.000057   0.000130
    11  H   -0.000467   0.000908  -0.000106  -0.000222  -0.000039  -0.006164
    12  H   -0.043655  -0.006405   0.001009  -0.000231   0.000010   0.000005
    13  H    0.563493   0.004060  -0.004736   0.004252  -0.000171   0.000004
    14  H    0.004060   0.527005  -0.024684  -0.000012   0.000000   0.000006
    15  H   -0.004736  -0.024684   0.517776  -0.000013   0.000000   0.000003
    16  H    0.004252  -0.000012  -0.000013   0.535337  -0.000454  -0.000166
    17  H   -0.000171   0.000000   0.000000  -0.000454   0.546257  -0.005122
    18  H    0.000004   0.000006   0.000003  -0.000166  -0.005122   0.540105
    19  O   -0.000058   0.000125   0.000043  -0.000680   0.003309  -0.053452
    20  H   -0.000006  -0.000001   0.000002  -0.000033  -0.000210   0.006143
    21  O   -0.003012  -0.000086  -0.000017  -0.006920  -0.044686   0.007976
    22  H    0.000132   0.000000   0.000000   0.002184  -0.007035  -0.000169
    23  C   -0.012904   0.000874  -0.000300  -0.041123   0.072969  -0.009431
    24  H   -0.000012  -0.000001   0.000000   0.004732  -0.000046  -0.000956
    25  H    0.000018   0.000001   0.000000  -0.005885   0.000121   0.000061
    26  O   -0.000012  -0.000001  -0.000002   0.005465   0.004395   0.000125
    27  H    0.000000   0.000000   0.000000  -0.000148  -0.000013  -0.000025
             19         20         21         22         23         24
     1  C    0.022939   0.004004   0.020151  -0.005839   0.051882  -0.001491
     2  C   -0.218654  -0.044813  -0.003882   0.005811  -0.320939   0.005896
     3  N    0.027535   0.000521  -0.001765  -0.000945   0.112418   0.017947
     4  C   -0.004447  -0.004082  -0.035158  -0.003342  -0.079262   0.005903
     5  C   -0.002234   0.004296   0.003778   0.002163  -0.047063   0.002057
     6  C    0.022175   0.028635   0.076453  -0.078392  -0.883734  -0.116749
     7  C   -0.119063  -0.078731   0.186604   0.090138   0.045408   0.047396
     8  C    0.393934   0.057220  -0.163551   0.007278   0.158215  -0.008743
     9  H   -0.001253   0.000197   0.000516  -0.000002   0.000582   0.000001
    10  H    0.006778   0.000253  -0.001828   0.000192   0.000278   0.000000
    11  H    0.008672  -0.000106  -0.000571   0.000009   0.018654  -0.000215
    12  H    0.000075   0.000000   0.000496  -0.000001   0.012215   0.000011
    13  H   -0.000058  -0.000006  -0.003012   0.000132  -0.012904  -0.000012
    14  H    0.000125  -0.000001  -0.000086   0.000000   0.000874  -0.000001
    15  H    0.000043   0.000002  -0.000017   0.000000  -0.000300   0.000000
    16  H   -0.000680  -0.000033  -0.006920   0.002184  -0.041123   0.004732
    17  H    0.003309  -0.000210  -0.044686  -0.007035   0.072969  -0.000046
    18  H   -0.053452   0.006143   0.007976  -0.000169  -0.009431  -0.000956
    19  O    8.172340   0.257106  -0.005162  -0.000288   0.008830  -0.000142
    20  H    0.257106   0.353087   0.027909  -0.000279   0.002179  -0.000007
    21  O   -0.005162   0.027909   8.357829   0.234782  -0.011007  -0.000863
    22  H   -0.000288  -0.000279   0.234782   0.347485   0.001000   0.000012
    23  C    0.008830   0.002179  -0.011007   0.001000   5.987173   0.413940
    24  H   -0.000142  -0.000007  -0.000863   0.000012   0.413940   0.575578
    25  H    0.000031   0.000000   0.000045  -0.000005   0.475164  -0.044931
    26  O   -0.000129   0.000003   0.002047  -0.000284   0.035330  -0.049518
    27  H   -0.000004   0.000000  -0.000046  -0.000001  -0.007419  -0.005609
             25         26         27
     1  C    0.002557   0.001153  -0.000118
     2  C    0.002235   0.010903  -0.001741
     3  N   -0.009128   0.003926  -0.000605
     4  C   -0.007668   0.009371  -0.001185
     5  C   -0.002106   0.000291   0.000026
     6  C   -0.058918   0.031507   0.024190
     7  C   -0.020832  -0.010842  -0.005346
     8  C   -0.001849  -0.006159   0.002020
     9  H    0.000000   0.000000   0.000000
    10  H    0.000000  -0.000005   0.000000
    11  H    0.000042  -0.000049   0.000000
    12  H    0.000004  -0.000035   0.000000
    13  H    0.000018  -0.000012   0.000000
    14  H    0.000001  -0.000001   0.000000
    15  H    0.000000  -0.000002   0.000000
    16  H   -0.005885   0.005465  -0.000148
    17  H    0.000121   0.004395  -0.000013
    18  H    0.000061   0.000125  -0.000025
    19  O    0.000031  -0.000129  -0.000004
    20  H    0.000000   0.000003   0.000000
    21  O    0.000045   0.002047  -0.000046
    22  H   -0.000005  -0.000284  -0.000001
    23  C    0.475164   0.035330  -0.007419
    24  H   -0.044931  -0.049518  -0.005609
    25  H    0.558393  -0.050560  -0.003587
    26  O   -0.050560   8.342870   0.233050
    27  H   -0.003587   0.233050   0.375978
 Mulliken atomic charges:
              1
     1  C   -0.389636
     2  C    0.078097
     3  N   -0.096697
     4  C   -0.101228
     5  C   -0.467692
     6  C   -0.350325
     7  C    0.029483
     8  C   -0.206517
     9  H    0.173020
    10  H    0.167957
    11  H    0.161913
    12  H    0.159361
    13  H    0.161866
    14  H    0.175314
    15  H    0.175327
    16  H    0.171593
    17  H    0.179756
    18  H    0.178244
    19  O   -0.518325
    20  H    0.386713
    21  O   -0.640035
    22  H    0.405394
    23  C    0.016070
    24  H    0.155810
    25  H    0.166796
    26  O   -0.562840
    27  H    0.390583
 Sum of Mulliken atomic charges =   0.00000
 Mulliken charges with hydrogens summed into heavy atoms:
              1
     1  C   -0.048659
     2  C    0.240011
     3  N   -0.096697
     4  C    0.219999
     5  C   -0.117052
     6  C   -0.178732
     7  C    0.209239
     8  C   -0.028273
    19  O   -0.131612
    21  O   -0.234640
    23  C    0.338676
    26  O   -0.172258
 Sum of Mulliken charges with hydrogens summed into heavy atoms =   0.00000
 Electronic spatial extent (au):  <R**2>=           2022.0427
 Charge=              0.0000 electrons
 Dipole moment (field-independent basis, Debye):
    X=             -1.8376    Y=             -1.9703    Z=              0.7290  Tot=              2.7911
 Quadrupole moment (field-independent basis, Debye-Ang):
   XX=            -66.0877   YY=            -81.2350   ZZ=            -67.6579
   XY=             -2.3931   XZ=              5.7664   YZ=              3.1864
 Traceless Quadrupole moment (field-independent basis, Debye-Ang):
   XX=              5.5725   YY=             -9.5748   ZZ=              4.0023
   XY=             -2.3931   XZ=              5.7664   YZ=              3.1864
 Octapole moment (field-independent basis, Debye-Ang**2):
  XXX=            -36.6323  YYY=            -15.5773  ZZZ=             15.9718  XYY=            -11.8195
  XXY=             -7.5353  XXZ=            -22.2605  XZZ=            -14.5624  YZZ=              7.8898
  YYZ=             17.0849  XYZ=             -2.7921
 Hexadecapole moment (field-independent basis, Debye-Ang**3):
 XXXX=          -1235.2459 YYYY=           -884.1699 ZZZZ=           -303.9528 XXXY=             42.7050
 XXXZ=            112.8703 YYYX=             -3.1425 YYYZ=             38.0347 ZZZX=            -15.9947
 ZZZY=             16.2131 XXYY=           -365.4192 XXZZ=           -272.3002 YYZZ=           -197.1552
 XXYZ=             29.1314 YYXZ=             16.1613 ZZXY=             -6.6279
 N-N= 8.093236319530D+02 E-N=-3.004918816724D+03  KE= 5.886549903607D+02
 1\1\GINC-COMPUTE-3-1\SP\RmPW1PW91\6-31+G(d,p)\C8H15N1O3\MAMICHETTI.IQU
 IR\17-May-2024\0\\# mpw1pw91/6-31+G** nmr scrf=(pcm,solvent=water)\\co
 mment\\0,1\C,0,2.36057,0.027422,-0.287024\C,0,0.97128,0.04554,-0.94767
 5\N,0,0.205831,-1.103606,-0.350551\C,0,1.104592,-1.787304,0.613501\C,0
 ,2.514608,-1.440611,0.135492\C,0,-1.046214,-0.577809,0.243376\C,0,-0.8
 29362,0.929281,0.446683\C,0,0.098027,1.312283,-0.719902\H,0,3.146909,0
 .370014,-0.966567\H,0,2.382487,0.670771,0.598906\H,0,1.087019,-0.11901
 6,-2.025647\H,0,0.913237,-2.86687,0.629092\H,0,0.957116,-1.412531,1.63
 6948\H,0,2.791999,-2.060526,-0.726024\H,0,3.267218,-1.591675,0.915779\
 H,0,-1.232976,-1.063309,1.208058\H,0,-1.764635,1.498363,0.440693\H,0,-
 0.512583,1.493252,-1.608954\O,0,0.818207,2.516532,-0.48125\H,0,1.00184
 2,2.521363,0.476281\O,0,-0.095427,1.213928,1.649364\H,0,-0.712394,1.13
 5682,2.395137\C,0,-2.249222,-0.874313,-0.656731\H,0,-2.15253,-0.353468
 ,-1.620198\H,0,-2.286496,-1.951879,-0.864176\O,0,-3.434375,-0.45123,0.
 028927\H,0,-4.179945,-0.585702,-0.578131\\Version=AM64L-G09RevC.01\Sta
 te=1-A\HF=-594.1947588\RMSD=7.095e-09\Dipole=-0.7229787,-0.7751663,0.2
 868061\Quadrupole=4.1430453,-7.1186584,2.9756131,-1.7792214,4.2871657,
 2.3690429\PG=C01 [X(C8H15N1O3)]\\@


 MOM AND DAD WENT TO ALPHA CENTAURI AND ALL
 I GOT WAS THIS DUMB T-SHIRT.
 Job cpu time:  0 days  0 hours  9 minutes  7.6 seconds.
 File lengths (MBytes):  RWF=    113 Int=      0 D2E=      0 Chk=      7 Scr=      1
 Normal termination of Gaussian 09 at Fri May 17 12:31:18 2024.
