 Entering Gaussian System, Link 0=g09
 Input=/home/mamichetti.iquir/Linux/01_Cardona_A1A3_R__S_R_R_040_OptB.gjc
 Output=/home/mamichetti.iquir/Linux/01_Cardona_A1A3_R__S_R_R_040_OptB.log
 Initial command:
 /opt/ohpc/pub/apps/software/Gaussian/09/AMD64.SSE4a-enabled/g09/l1.exe /local/mamichetti.iquir/Gau-404258.inp -scrdir=/local/mamichetti.iquir/
 Entering Link 1 = /opt/ohpc/pub/apps/software/Gaussian/09/AMD64.SSE4a-enabled/g09/l1.exe PID=    404259.
  
 Copyright (c) 1988,1990,1992,1993,1995,1998,2003,2009,2011,
            Gaussian, Inc.  All Rights Reserved.
  
 This is part of the Gaussian(R) 09 program.  It is based on
 the Gaussian(R) 03 system (copyright 2003, Gaussian, Inc.),
 the Gaussian(R) 98 system (copyright 1998, Gaussian, Inc.),
 the Gaussian(R) 94 system (copyright 1995, Gaussian, Inc.),
 the Gaussian 92(TM) system (copyright 1992, Gaussian, Inc.),
 the Gaussian 90(TM) system (copyright 1990, Gaussian, Inc.),
 the Gaussian 88(TM) system (copyright 1988, Gaussian, Inc.),
 the Gaussian 86(TM) system (copyright 1986, Carnegie Mellon
 University), and the Gaussian 82(TM) system (copyright 1983,
 Carnegie Mellon University). Gaussian is a federally registered
 trademark of Gaussian, Inc.
  
 This software contains proprietary and confidential information,
 including trade secrets, belonging to Gaussian, Inc.
  
 This software is provided under written license and may be
 used, copied, transmitted, or stored only in accord with that
 written license.
  
 The following legend is applicable only to US Government
 contracts under FAR:
  
                    RESTRICTED RIGHTS LEGEND
  
 Use, reproduction and disclosure by the US Government is
 subject to restrictions as set forth in subparagraphs (a)
 and (c) of the Commercial Computer Software - Restricted
 Rights clause in FAR 52.227-19.
  
 Gaussian, Inc.
 340 Quinnipiac St., Bldg. 40, Wallingford CT 06492
  
  
 ---------------------------------------------------------------
 Warning -- This program may not be used in any manner that
 competes with the business of Gaussian, Inc. or will provide
 assistance to any competitor of Gaussian, Inc.  The licensee
 of this program is prohibited from giving any competitor of
 Gaussian, Inc. access to this program.  By using this program,
 the user acknowledges that Gaussian, Inc. is engaged in the
 business of creating and licensing software in the field of
 computational chemistry and represents and warrants to the
 licensee that it is not a competitor of Gaussian, Inc. and that
 it will not use this program in any manner prohibited above.
 ---------------------------------------------------------------
  

 Cite this work as:
 Gaussian 09, Revision C.01,
 M. J. Frisch, G. W. Trucks, H. B. Schlegel, G. E. Scuseria, 
 M. A. Robb, J. R. Cheeseman, G. Scalmani, V. Barone, B. Mennucci, 
 G. A. Petersson, H. Nakatsuji, M. Caricato, X. Li, H. P. Hratchian, 
 A. F. Izmaylov, J. Bloino, G. Zheng, J. L. Sonnenberg, M. Hada, 
 M. Ehara, K. Toyota, R. Fukuda, J. Hasegawa, M. Ishida, T. Nakajima, 
 Y. Honda, O. Kitao, H. Nakai, T. Vreven, J. A. Montgomery, Jr., 
 J. E. Peralta, F. Ogliaro, M. Bearpark, J. J. Heyd, E. Brothers, 
 K. N. Kudin, V. N. Staroverov, T. Keith, R. Kobayashi, J. Normand, 
 K. Raghavachari, A. Rendell, J. C. Burant, S. S. Iyengar, J. Tomasi, 
 M. Cossi, N. Rega, J. M. Millam, M. Klene, J. E. Knox, J. B. Cross, 
 V. Bakken, C. Adamo, J. Jaramillo, R. Gomperts, R. E. Stratmann, 
 O. Yazyev, A. J. Austin, R. Cammi, C. Pomelli, J. W. Ochterski, 
 R. L. Martin, K. Morokuma, V. G. Zakrzewski, G. A. Voth, 
 P. Salvador, J. J. Dannenberg, S. Dapprich, A. D. Daniels, 
 O. Farkas, J. B. Foresman, J. V. Ortiz, J. Cioslowski, 
 and D. J. Fox, Gaussian, Inc., Wallingford CT, 2010.
 
 ******************************************
 Gaussian 09:  AM64L-G09RevC.01 23-Sep-2011
                17-May-2024 
 ******************************************
 %nprocshared=4
 Will use up to    4 processors via shared memory.
 ------------------------------------------------
 # mpw1pw91/6-31+G** nmr scrf=(pcm,solvent=water)
 ------------------------------------------------
 1/38=1/1;
 2/12=2,17=6,18=5,40=1/2;
 3/5=1,6=6,7=111,11=2,16=1,25=1,30=1,70=2201,72=1,74=-7/1,2,8,3;
 4//1;
 5/5=2,38=5,53=1/2;
 8/6=1,10=90,11=11/1;
 10/13=100,45=16/2;
 6/7=2,8=2,9=2,10=2,28=1/1;
 99/9=1/99;
 -------
 comment
 -------
 Charge =  0 Multiplicity = 1
 Symbolic Z-Matrix:
 6                    -1.89942   1.16149  -0.28531 
 6                    -0.74456   0.37622  -0.92906 
 7                     0.49936   0.8091   -0.20329 
 6                     0.1334    1.92093   0.71477 
 6                    -1.20161   2.44684   0.18094 
 6                     1.1169   -0.37581   0.45035 
 6                     0.07775  -1.5017    0.42223 
 6                    -0.78738  -1.17042  -0.8175 
 1                    -2.72166   1.33974  -0.98478 
 1                    -2.30628   0.6206    0.57777 
 1                    -0.66717   0.66333  -1.98449 
 1                     0.91839   2.68538   0.73229 
 1                     0.00761   1.55728   1.74584 
 1                    -1.03557   3.11847  -0.67018 
 1                    -1.76305   2.99722   0.94234 
 1                     1.38151  -0.12742   1.48426 
 1                     0.53107  -2.49337   0.33995 
 1                    -0.31807  -1.60866  -1.70374 
 8                    -2.09052  -1.73039  -0.7222 
 1                    -2.28178  -1.74138   0.23617 
 8                    -0.7419   -1.56485   1.60294 
 1                    -0.92435  -0.65975   1.90756 
 6                     2.40963  -0.74651  -0.28827 
 1                     2.96916  -1.50371   0.27022 
 1                     2.17631  -1.16034  -1.28198 
 8                     3.24409   0.40459  -0.4066 
 1                     2.61667   1.10783  -0.67015 
 
                          Input orientation:                          
 ---------------------------------------------------------------------
 Center     Atomic      Atomic             Coordinates (Angstroms)
 Number     Number       Type             X           Y           Z
 ---------------------------------------------------------------------
      1          6           0       -1.899416    1.161487   -0.285310
      2          6           0       -0.744556    0.376221   -0.929058
      3          7           0        0.499362    0.809101   -0.203292
      4          6           0        0.133404    1.920931    0.714768
      5          6           0       -1.201610    2.446842    0.180942
      6          6           0        1.116899   -0.375811    0.450349
      7          6           0        0.077747   -1.501704    0.422225
      8          6           0       -0.787383   -1.170418   -0.817498
      9          1           0       -2.721656    1.339738   -0.984780
     10          1           0       -2.306282    0.620599    0.577771
     11          1           0       -0.667165    0.663334   -1.984491
     12          1           0        0.918392    2.685383    0.732288
     13          1           0        0.007612    1.557280    1.745841
     14          1           0       -1.035571    3.118469   -0.670184
     15          1           0       -1.763046    2.997217    0.942337
     16          1           0        1.381512   -0.127416    1.484261
     17          1           0        0.531072   -2.493366    0.339945
     18          1           0       -0.318069   -1.608658   -1.703741
     19          8           0       -2.090523   -1.730387   -0.722201
     20          1           0       -2.281777   -1.741383    0.236169
     21          8           0       -0.741899   -1.564851    1.602939
     22          1           0       -0.924347   -0.659750    1.907559
     23          6           0        2.409631   -0.746507   -0.288267
     24          1           0        2.969162   -1.503708    0.270215
     25          1           0        2.176312   -1.160339   -1.281975
     26          8           0        3.244091    0.404589   -0.406604
     27          1           0        2.616668    1.107830   -0.670148
 ---------------------------------------------------------------------
                    Distance matrix (angstroms):
                    1          2          3          4          5
     1  C    0.000000
     2  C    1.537776   0.000000
     3  N    2.425910   1.503813   0.000000
     4  C    2.389408   2.420559   1.487590   0.000000
     5  C    1.535077   2.393422   2.392308   1.530952   0.000000
     6  C    3.464482   2.435843   1.487486   2.512410   3.662709
     7  C    3.391514   2.455351   2.430813   3.435565   4.157642
     8  C    2.637731   1.551249   2.439561   3.571012   3.775319
     9  H    1.094125   2.200090   3.356673   3.373072   2.212493
    10  H    1.096817   2.183860   2.918429   2.767977   2.170930
    11  H    2.157270   1.096523   2.134175   3.083579   2.855807
    12  H    3.361221   3.295102   2.138067   1.095856   2.203473
    13  H    2.814069   3.019229   2.144926   1.100535   2.168513
    14  H    2.173507   2.769771   2.811972   2.172255   1.096844
    15  H    2.212604   3.377730   3.349449   2.192419   1.094461
    16  H    3.944254   3.255445   2.122048   2.519051   3.872720
    17  H    4.433528   3.387053   3.346999   4.447994   5.237664
    18  H    3.490889   2.172963   2.960591   4.302443   4.558482
    19  O    2.930927   2.508429   3.664119   4.510305   4.365212
    20  H    2.974020   2.864446   3.799056   4.413015   4.325626
    21  O    3.512584   3.190419   3.230921   3.702118   4.281015
    22  H    3.012696   3.025220   2.939415   3.033398   3.564968
    23  C    4.712572   3.408816   2.465008   3.647261   4.843418
    24  H    5.578075   4.331754   3.416607   4.468479   5.745446
    25  H    4.795391   3.319192   2.802572   4.201747   5.153857
    26  O    5.200315   4.022818   2.781816   3.637739   4.927501
    27  H    4.532769   3.449654   2.188648   2.957317   4.134798
                    6          7          8          9         10
     6  C    0.000000
     7  C    1.532404   0.000000
     8  C    2.421802   1.547615   0.000000
     9  H    4.442658   4.229671   3.173370   0.000000
    10  H    3.567525   3.195616   2.731588   1.769537   0.000000
    11  H    3.192358   3.321832   2.176918   2.382830   3.041992
    12  H    3.080552   4.281883   4.492071   4.243705   3.832197
    13  H    2.577917   3.333806   3.826625   3.866849   2.756060
    14  H    4.254258   4.876354   4.298587   2.470979   3.067809
    15  H    4.462449   4.888694   4.627971   2.716606   2.465021
    16  H    1.095762   2.171725   3.330173   5.008462   3.870539
    17  H    2.199869   1.093466   2.197314   5.198829   4.219469
    18  H    2.866906   2.165142   1.094412   3.871327   3.758707
    19  O    3.673868   2.462398   1.421556   3.145305   2.695109
    20  H    3.669013   2.378953   1.915575   3.343279   2.386682
    21  O    2.489460   1.438712   2.452786   4.364901   2.876535
    22  H    2.524038   1.979721   2.775874   3.948911   2.305943
    23  C    1.534316   2.552020   3.268132   5.582800   4.985864
    24  H    2.176115   2.895409   3.925026   6.484258   5.695400
    25  H    2.176875   2.724849   2.999888   5.507159   5.169530
    26  O    2.422465   3.787697   4.347673   6.066212   5.641125
    27  H    2.388726   3.801193   4.098742   5.352614   5.101973
                   11         12         13         14         15
    11  H    0.000000
    12  H    3.739460   0.000000
    13  H    3.894848   1.769018   0.000000
    14  H    2.809059   2.443862   3.059856   0.000000
    15  H    3.900550   2.707669   2.419559   1.773174   0.000000
    16  H    4.105436   2.948183   2.189572   4.584724   4.466011
    17  H    4.099211   5.208012   4.319524   5.913326   5.981000
    18  H    2.315737   5.089387   4.693490   4.891705   5.504886
    19  O    3.057650   5.537882   4.615426   4.962563   5.022765
    20  H    3.649790   5.484840   4.289707   5.098300   4.818930
    21  O    4.223748   4.645330   3.214015   5.214098   4.721398
    22  H    4.118828   3.995856   2.410378   4.575158   3.874078
    23  C    3.785697   3.878556   3.900606   5.191658   5.739433
    24  H    4.796107   4.686966   4.507538   6.187629   6.565353
    25  H    3.450315   4.519867   4.610464   5.385042   6.144215
    26  O    4.225470   3.450793   4.054197   5.074458   5.797653
    27  H    3.564917   2.709177   3.584157   4.169115   5.035056
                   16         17         18         19         20
    16  H    0.000000
    17  H    2.762323   0.000000
    18  H    3.904614   2.383359   0.000000
    19  O    4.415090   2.929685   2.029737   0.000000
    20  H    4.193126   2.913480   2.763515   0.977329   0.000000
    21  O    2.566939   2.019344   3.334019   2.693040   2.066506
    22  H    2.404069   2.817411   3.782788   3.069506   2.409583
    23  C    2.140598   2.641051   3.191742   4.626846   4.824326
    24  H    2.426668   2.632217   3.835806   5.161074   5.256425
    25  H    3.057891   2.667283   2.569205   4.340989   4.745201
    26  O    2.706954   4.039301   4.292402   5.754636   5.962681
    27  H    2.773612   4.282360   4.130412   5.496893   5.738832
                   21         22         23         24         25
    21  O    0.000000
    22  H    0.972259   0.000000
    23  C    3.765433   3.993067   0.000000
    24  H    3.943585   4.307270   1.094683   0.000000
    25  H    4.123386   4.476360   1.101431   1.776459   0.000000
    26  O    4.879044   4.885084   1.426657   2.043347   2.086966
    27  H    4.856966   4.723103   1.904538   2.797975   2.390154
                   26         27
    26  O    0.000000
    27  H    0.978603   0.000000
 Stoichiometry    C8H15NO3
 Framework group  C1[X(C8H15NO3)]
 Deg. of freedom    75
 Full point group                 C1      NOp   1
 Largest Abelian subgroup         C1      NOp   1
 Largest concise Abelian subgroup C1      NOp   1
                         Standard orientation:                         
 ---------------------------------------------------------------------
 Center     Atomic      Atomic             Coordinates (Angstroms)
 Number     Number       Type             X           Y           Z
 ---------------------------------------------------------------------
      1          6           0       -1.899416    1.161487   -0.285310
      2          6           0       -0.744556    0.376221   -0.929058
      3          7           0        0.499362    0.809101   -0.203292
      4          6           0        0.133404    1.920931    0.714768
      5          6           0       -1.201610    2.446842    0.180942
      6          6           0        1.116899   -0.375811    0.450349
      7          6           0        0.077747   -1.501704    0.422225
      8          6           0       -0.787383   -1.170418   -0.817498
      9          1           0       -2.721656    1.339738   -0.984780
     10          1           0       -2.306282    0.620599    0.577771
     11          1           0       -0.667165    0.663334   -1.984491
     12          1           0        0.918392    2.685383    0.732288
     13          1           0        0.007612    1.557280    1.745841
     14          1           0       -1.035571    3.118469   -0.670184
     15          1           0       -1.763046    2.997217    0.942337
     16          1           0        1.381512   -0.127416    1.484261
     17          1           0        0.531072   -2.493366    0.339945
     18          1           0       -0.318069   -1.608658   -1.703741
     19          8           0       -2.090523   -1.730387   -0.722201
     20          1           0       -2.281777   -1.741383    0.236169
     21          8           0       -0.741899   -1.564851    1.602939
     22          1           0       -0.924347   -0.659750    1.907559
     23          6           0        2.409631   -0.746507   -0.288267
     24          1           0        2.969162   -1.503708    0.270215
     25          1           0        2.176312   -1.160339   -1.281975
     26          8           0        3.244091    0.404589   -0.406604
     27          1           0        2.616668    1.107830   -0.670148
 ---------------------------------------------------------------------
 Rotational constants (GHZ):      1.1552870      0.8959371      0.6392283
 Standard basis: 6-31+G(d,p) (6D, 7F)
 There are   303 symmetry adapted basis functions of A   symmetry.
 Integral buffers will be    131072 words long.
 Raffenetti 2 integral format.
 Two-electron integral symmetry is turned on.
   303 basis functions,   489 primitive gaussians,   303 cartesian basis functions
    47 alpha electrons       47 beta electrons
       nuclear repulsion energy       812.2357607687 Hartrees.
 NAtoms=   27 NActive=   27 NUniq=   27 SFac= 1.00D+00 NAtFMM=   60 NAOKFM=F Big=F
 ------------------------------------------------------------------------------
 Polarizable Continuum Model (PCM)
 =================================
 Model                : PCM.
 Atomic radii         : UFF (Universal Force Field).
 Polarization charges : Total charges.
 Charge compensation  : None.
 Solution method      : Matrix inversion.
 Cavity type          : Scaled VdW (van der Waals Surface) (Alpha=1.100).
 Cavity algorithm     : GePol (No added spheres)
                        Default sphere list used, NSphG=   27.
                        Lebedev-Laikov grids with approx.  5.0 points / Ang**2.
                        Smoothing algorithm: Karplus/York (Gamma=1.0000).
                        Polarization charges: spherical gaussians, with
                                              point-specific exponents (IZeta= 3).
                        Self-potential: point-specific (ISelfS= 7).
                        Self-field    : sphere-specific E.n sum rule (ISelfD= 2).
 Solvent              : Water, Eps=  78.355300 Eps(inf)=   1.777849
 ------------------------------------------------------------------------------
 One-electron integrals computed using PRISM.
 NBasis=   303 RedAO= T  NBF=   303
 NBsUse=   303 1.00D-06 NBFU=   303
 Harris functional with IExCor=  908 diagonalized for initial guess.
 ExpMin= 4.38D-02 ExpMax= 5.48D+03 ExpMxC= 8.25D+02 IAcc=2 IRadAn=         4 AccDes= 0.00D+00
 HarFok:  IExCor=  908 AccDes= 0.00D+00 IRadAn=         4 IDoV= 1
 ScaDFX=  1.000000  1.000000  1.000000  1.000000
 FoFCou: FMM=F IPFlag=           0 FMFlag=      100000 FMFlg1=           0
         NFxFlg=           0 DoJE=T BraDBF=F KetDBF=T FulRan=T
         Omega=  0.000000  0.000000  1.000000  0.000000  0.000000 ICntrl=     500 IOpCl=  0
         NMat0=    1 NMatS0=    1 NMatT0=    0 NMatD0=    1 NMtDS0=    0 NMtDT0=    0
         I1Cent=           4 NGrid=           0.
 Petite list used in FoFCou.
 Initial guess orbital symmetries:
       Occupied  (A) (A) (A) (A) (A) (A) (A) (A) (A) (A) (A) (A)
                 (A) (A) (A) (A) (A) (A) (A) (A) (A) (A) (A) (A)
                 (A) (A) (A) (A) (A) (A) (A) (A) (A) (A) (A) (A)
                 (A) (A) (A) (A) (A) (A) (A) (A) (A) (A) (A)
       Virtual   (A) (A) (A) (A) (A) (A) (A) (A) (A) (A) (A) (A)
                 (A) (A) (A) (A) (A) (A) (A) (A) (A) (A) (A) (A)
                 (A) (A) (A) (A) (A) (A) (A) (A) (A) (A) (A) (A)
                 (A) (A) (A) (A) (A) (A) (A) (A) (A) (A) (A) (A)
                 (A) (A) (A) (A) (A) (A) (A) (A) (A) (A) (A) (A)
                 (A) (A) (A) (A) (A) (A) (A) (A) (A) (A) (A) (A)
                 (A) (A) (A) (A) (A) (A) (A) (A) (A) (A) (A) (A)
                 (A) (A) (A) (A) (A) (A) (A) (A) (A) (A) (A) (A)
                 (A) (A) (A) (A) (A) (A) (A) (A) (A) (A) (A) (A)
                 (A) (A) (A) (A) (A) (A) (A) (A) (A) (A) (A) (A)
                 (A) (A) (A) (A) (A) (A) (A) (A) (A) (A) (A) (A)
                 (A) (A) (A) (A) (A) (A) (A) (A) (A) (A) (A) (A)
                 (A) (A) (A) (A) (A) (A) (A) (A) (A) (A) (A) (A)
                 (A) (A) (A) (A) (A) (A) (A) (A) (A) (A) (A) (A)
                 (A) (A) (A) (A) (A) (A) (A) (A) (A) (A) (A) (A)
                 (A) (A) (A) (A) (A) (A) (A) (A) (A) (A) (A) (A)
                 (A) (A) (A) (A) (A) (A) (A) (A) (A) (A) (A) (A)
                 (A) (A) (A) (A) (A) (A) (A) (A) (A) (A) (A) (A)
                 (A) (A) (A) (A) (A) (A) (A) (A) (A) (A) (A) (A)
                 (A) (A) (A) (A) (A) (A) (A) (A) (A) (A) (A) (A)
                 (A) (A) (A) (A) (A) (A) (A) (A) (A) (A) (A) (A)
                 (A) (A) (A) (A)
 The electronic state of the initial guess is 1-A.
 Requested convergence on RMS density matrix=1.00D-08 within 128 cycles.
 Requested convergence on MAX density matrix=1.00D-06.
 Requested convergence on             energy=1.00D-06.
 No special actions if energy rises.
 Error on total polarization charges =  0.01416
 SCF Done:  E(RmPW1PW91) =  -594.196781325     A.U. after   13 cycles
             Convg  =    0.3951D-08             -V/T =  2.0094
 Range of M.O.s used for correlation:     1   303
 NBasis=   303 NAE=    47 NBE=    47 NFC=     0 NFV=     0
 NROrb=    303 NOA=    47 NOB=    47 NVA=   256 NVB=   256

 **** Warning!!: The largest alpha MO coefficient is  0.68113803D+02

 NEqPCM:  Using equilibrium solvation (IEInf=0, Eps=  78.3553, EpsInf=   1.7778)
          Differentiating once with respect to magnetic field using GIAOs.
          Electric field/nuclear overlap derivatives assumed to be zero.
 FoFCou: FMM=F IPFlag=           0 FMFlag=    10101102 FMFlg1=           0
         NFxFlg=    40000000 DoJE=F BraDBF=F KetDBF=T FulRan=T
         Omega=  0.000000  0.000000  1.000000  0.000000  0.000000 ICntrl=    6100 IOpCl=  0
         NMat0=    1 NMatS0=    1 NMatT0=    0 NMatD0=    1 NMtDS0=    0 NMtDT0=    0
         I1Cent=           7 NGrid=        1820.
 Symmetry not used in FoFCou.
          There are     3 degrees of freedom in the 1st order CPHF.  IDoFFX=0.
      3 vectors produced by pass  0 Test12= 4.01D-13 3.33D-08 XBig12= 3.24D+01 9.62D-01.
 AX will form     3 AO Fock derivatives at one time.
      3 vectors produced by pass  1 Test12= 4.01D-13 3.33D-08 XBig12= 8.06D-02 4.91D-02.
      3 vectors produced by pass  2 Test12= 4.01D-13 3.33D-08 XBig12= 1.58D-04 2.91D-03.
      3 vectors produced by pass  3 Test12= 4.01D-13 3.33D-08 XBig12= 7.25D-07 1.51D-04.
      3 vectors produced by pass  4 Test12= 4.01D-13 3.33D-08 XBig12= 2.38D-09 7.50D-06.
      3 vectors produced by pass  5 Test12= 4.01D-13 3.33D-08 XBig12= 7.35D-12 5.55D-07.
 Inverted reduced A of dimension    18 with in-core refinement.
 Calculating GIAO nuclear magnetic shielding tensors.
 SCF GIAO Magnetic shielding tensor (ppm):
      1  C    Isotropic =   164.8735   Anisotropy =    17.8167
   XX=   170.1515   YX=    -4.5058   ZX=     4.4984
   XY=     3.9565   YY=   169.7344   ZY=    14.2860
   XZ=     0.4477   YZ=    10.2300   ZZ=   154.7346
   Eigenvalues:   147.6307   170.2385   176.7513
      2  C    Isotropic =   127.0072   Anisotropy =    55.5946
   XX=   151.0270   YX=     4.8910   ZX=    25.1780
   XY=    13.7251   YY=   133.5879   ZY=    13.2616
   XZ=    13.5570   YZ=    20.0064   ZZ=    96.4068
   Eigenvalues:    86.4191   130.5323   164.0703
      3  N    Isotropic =   201.1692   Anisotropy =    80.6582
   XX=   203.8380   YX=   -26.0624   ZX=    46.5052
   XY=   -21.7097   YY=   217.1692   ZY=    20.3144
   XZ=    71.0577   YZ=    11.9681   ZZ=   182.5004
   Eigenvalues:   125.0532   223.5131   254.9413
      4  C    Isotropic =   134.6807   Anisotropy =    62.1799
   XX=   124.9184   YX=   -18.0826   ZX=    -3.7333
   XY=   -31.9140   YY=   147.3944   ZY=    22.0734
   XZ=     3.4765   YZ=    31.9991   ZZ=   131.7293
   Eigenvalues:    99.8141   128.0941   176.1339
      5  C    Isotropic =   166.2858   Anisotropy =    21.6330
   XX=   173.8309   YX=    -1.8726   ZX=    11.0322
   XY=    -7.4085   YY=   175.2860   ZY=    17.1520
   XZ=    13.2277   YZ=     8.5829   ZZ=   149.7405
   Eigenvalues:   139.4767   178.6729   180.7078
      6  C    Isotropic =   120.5711   Anisotropy =    28.0336
   XX=   112.8347   YX=     3.9596   ZX=    10.4473
   XY=   -10.3063   YY=   132.2612   ZY=   -13.2955
   XZ=    -4.4229   YZ=   -10.2771   ZZ=   116.6174
   Eigenvalues:   109.7532   112.7000   139.2602
      7  C    Isotropic =   116.8474   Anisotropy =    30.4337
   XX=   124.4324   YX=     4.7545   ZX=   -17.1805
   XY=     6.3921   YY=   101.2122   ZY=    -0.8772
   XZ=    -5.8378   YZ=    -4.6034   ZZ=   124.8977
   Eigenvalues:    99.9431   113.4626   137.1366
      8  C    Isotropic =   121.7490   Anisotropy =    47.5674
   XX=   142.0787   YX=    14.5619   ZX=     8.3724
   XY=    17.9614   YY=   128.6932   ZY=   -10.3414
   XZ=    15.9472   YZ=    -7.6061   ZZ=    94.4752
   Eigenvalues:    87.4188   124.3676   153.4606
      9  H    Isotropic =    29.7528   Anisotropy =    10.7137
   XX=    33.4997   YX=    -1.9348   ZX=     5.1044
   XY=    -1.4447   YY=    27.9136   ZY=    -0.3000
   XZ=     5.2626   YZ=    -0.6267   ZZ=    27.8453
   Eigenvalues:    24.6957    27.6675    36.8953
     10  H    Isotropic =    30.0819   Anisotropy =     6.3387
   XX=    30.2539   YX=     0.7029   ZX=    -3.7174
   XY=     0.5204   YY=    31.6679   ZY=    -1.6539
   XZ=    -4.3433   YZ=    -1.6181   ZZ=    28.3238
   Eigenvalues:    25.0161    30.9218    34.3077
     11  H    Isotropic =    27.8477   Anisotropy =     8.4184
   XX=    25.6788   YX=     0.0218   ZX=     1.0265
   XY=    -0.0281   YY=    24.5514   ZY=    -1.0057
   XZ=     0.8283   YZ=    -0.1354   ZZ=    33.3128
   Eigenvalues:    24.5114    25.5717    33.4599
     12  H    Isotropic =    28.0923   Anisotropy =     9.2121
   XX=    28.7109   YX=     2.2324   ZX=     0.6979
   XY=     3.2096   YY=    31.4707   ZY=     2.8917
   XZ=     1.1299   YZ=     3.7458   ZZ=    24.0952
   Eigenvalues:    22.8188    27.2243    34.2337
     13  H    Isotropic =    28.8256   Anisotropy =     8.2822
   XX=    24.9220   YX=    -1.1641   ZX=    -0.3426
   XY=    -1.4279   YY=    28.3753   ZY=     3.2310
   XZ=     0.4662   YZ=     1.9867   ZZ=    33.1795
   Eigenvalues:    24.3845    27.7452    34.3471
     14  H    Isotropic =    29.6401   Anisotropy =    11.1153
   XX=    26.7062   YX=     0.1191   ZX=     0.8148
   XY=    -0.0924   YY=    34.1635   ZY=    -4.8406
   XZ=     0.7974   YZ=    -5.3200   ZZ=    28.0505
   Eigenvalues:    24.8987    26.9712    37.0503
     15  H    Isotropic =    29.5411   Anisotropy =    11.7470
   XX=    28.6769   YX=    -3.3625   ZX=    -2.4493
   XY=    -4.2410   YY=    31.6399   ZY=     4.7670
   XZ=    -2.8735   YZ=     4.4965   ZZ=    28.3066
   Eigenvalues:    25.0507    26.2003    37.3725
     16  H    Isotropic =    28.6234   Anisotropy =     6.0932
   XX=    29.1397   YX=    -1.1886   ZX=     2.8250
   XY=    -0.9401   YY=    26.3222   ZY=    -2.1091
   XZ=     1.8801   YZ=    -0.6401   ZZ=    30.4083
   Eigenvalues:    25.8472    27.3375    32.6855
     17  H    Isotropic =    27.9293   Anisotropy =     7.0718
   XX=    27.6574   YX=    -3.9645   ZX=    -1.7615
   XY=    -2.3521   YY=    30.3722   ZY=    -0.6128
   XZ=    -2.4539   YZ=     0.4932   ZZ=    25.7583
   Eigenvalues:    23.8034    27.3407    32.6438
     18  H    Isotropic =    27.2802   Anisotropy =     6.4098
   XX=    26.7885   YX=    -0.0285   ZX=    -3.4273
   XY=     1.0828   YY=    27.0294   ZY=     3.6630
   XZ=    -0.3813   YZ=     3.7922   ZZ=    28.0225
   Eigenvalues:    23.0148    27.2724    31.5533
     19  O    Isotropic =   313.1945   Anisotropy =    28.8308
   XX=   291.8625   YX=     3.6948   ZX=    -7.9411
   XY=    29.2736   YY=   319.7390   ZY=     1.9360
   XZ=    16.8949   YZ=     4.1270   ZZ=   327.9821
   Eigenvalues:   284.0351   323.1334   332.4150
     20  H    Isotropic =    28.2908   Anisotropy =    14.7517
   XX=    26.9553   YX=     3.5958   ZX=    -2.3250
   XY=     2.2657   YY=    20.6610   ZY=    -1.4694
   XZ=    -2.9817   YZ=    -1.1322   ZZ=    37.2562
   Eigenvalues:    19.5043    27.2429    38.1253
     21  O    Isotropic =   292.3501   Anisotropy =    69.5225
   XX=   276.0942   YX=    23.0687   ZX=   -14.3975
   XY=   -10.7455   YY=   323.7459   ZY=    51.2408
   XZ=   -11.9007   YZ=     9.3990   ZZ=   277.2101
   Eigenvalues:   253.0942   285.2576   338.6984
     22  H    Isotropic =    30.6798   Anisotropy =    14.5809
   XX=    23.9181   YX=    -2.2928   ZX=    -4.2498
   XY=    -2.8234   YY=    37.8039   ZY=     3.9618
   XZ=    -4.3582   YZ=     3.5802   ZZ=    30.3174
   Eigenvalues:    21.7300    29.9091    40.4004
     23  C    Isotropic =   132.7410   Anisotropy =    50.9567
   XX=   136.7940   YX=    18.5075   ZX=    -5.9541
   XY=    26.5866   YY=   148.2831   ZY=     1.3510
   XZ=   -11.1402   YZ=    -5.6105   ZZ=   113.1459
   Eigenvalues:   109.3205   122.1903   166.7121
     24  H    Isotropic =    28.1306   Anisotropy =     6.7350
   XX=    29.7771   YX=    -1.3209   ZX=     0.2665
   XY=    -2.8373   YY=    30.2083   ZY=    -2.2091
   XZ=     0.9403   YZ=    -2.2801   ZZ=    24.4063
   Eigenvalues:    23.6375    28.1337    32.6205
     25  H    Isotropic =    28.5623   Anisotropy =     5.8365
   XX=    29.4504   YX=     2.1170   ZX=    -0.9473
   XY=     1.7935   YY=    28.3133   ZY=     5.1685
   XZ=    -2.2420   YZ=     3.4071   ZZ=    27.9234
   Eigenvalues:    22.8717    30.3620    32.4533
     26  O    Isotropic =   312.7988   Anisotropy =    41.5913
   XX=   327.3480   YX=   -12.3671   ZX=    -0.6669
   XY=   -15.9709   YY=   324.5374   ZY=     0.4625
   XZ=     7.5818   YZ=    19.6349   ZZ=   286.5109
   Eigenvalues:   282.8932   314.9769   340.5263
     27  H    Isotropic =    28.7030   Anisotropy =    16.4291
   XX=    34.2554   YX=    -4.8450   ZX=     1.3114
   XY=    -6.4421   YY=    32.0803   ZY=    -5.2802
   XZ=    -0.7305   YZ=    -5.6591   ZZ=    19.7733
   Eigenvalues:    17.4937    28.9596    39.6557
 End of Minotr Frequency-dependent properties file   721 does not exist.
 End of Minotr Frequency-dependent properties file   722 does not exist.

 **********************************************************************

            Population analysis using the SCF density.

 **********************************************************************

 Orbital symmetries:
       Occupied  (A) (A) (A) (A) (A) (A) (A) (A) (A) (A) (A) (A)
                 (A) (A) (A) (A) (A) (A) (A) (A) (A) (A) (A) (A)
                 (A) (A) (A) (A) (A) (A) (A) (A) (A) (A) (A) (A)
                 (A) (A) (A) (A) (A) (A) (A) (A) (A) (A) (A)
       Virtual   (A) (A) (A) (A) (A) (A) (A) (A) (A) (A) (A) (A)
                 (A) (A) (A) (A) (A) (A) (A) (A) (A) (A) (A) (A)
                 (A) (A) (A) (A) (A) (A) (A) (A) (A) (A) (A) (A)
                 (A) (A) (A) (A) (A) (A) (A) (A) (A) (A) (A) (A)
                 (A) (A) (A) (A) (A) (A) (A) (A) (A) (A) (A) (A)
                 (A) (A) (A) (A) (A) (A) (A) (A) (A) (A) (A) (A)
                 (A) (A) (A) (A) (A) (A) (A) (A) (A) (A) (A) (A)
                 (A) (A) (A) (A) (A) (A) (A) (A) (A) (A) (A) (A)
                 (A) (A) (A) (A) (A) (A) (A) (A) (A) (A) (A) (A)
                 (A) (A) (A) (A) (A) (A) (A) (A) (A) (A) (A) (A)
                 (A) (A) (A) (A) (A) (A) (A) (A) (A) (A) (A) (A)
                 (A) (A) (A) (A) (A) (A) (A) (A) (A) (A) (A) (A)
                 (A) (A) (A) (A) (A) (A) (A) (A) (A) (A) (A) (A)
                 (A) (A) (A) (A) (A) (A) (A) (A) (A) (A) (A) (A)
                 (A) (A) (A) (A) (A) (A) (A) (A) (A) (A) (A) (A)
                 (A) (A) (A) (A) (A) (A) (A) (A) (A) (A) (A) (A)
                 (A) (A) (A) (A) (A) (A) (A) (A) (A) (A) (A) (A)
                 (A) (A) (A) (A) (A) (A) (A) (A) (A) (A) (A) (A)
                 (A) (A) (A) (A) (A) (A) (A) (A) (A) (A) (A) (A)
                 (A) (A) (A) (A) (A) (A) (A) (A) (A) (A) (A) (A)
                 (A) (A) (A) (A) (A) (A) (A) (A) (A) (A) (A) (A)
                 (A) (A) (A) (A)
 The electronic state is 1-A.
 Alpha  occ. eigenvalues --  -19.27471 -19.25635 -19.25019 -14.42234 -10.31359
 Alpha  occ. eigenvalues --  -10.30652 -10.29629 -10.28812 -10.28026 -10.27578
 Alpha  occ. eigenvalues --  -10.25071 -10.24974  -1.08610  -1.05531  -1.05258
 Alpha  occ. eigenvalues --   -0.96735  -0.83471  -0.79167  -0.75748  -0.72019
 Alpha  occ. eigenvalues --   -0.66988  -0.62931  -0.61123  -0.57994  -0.56273
 Alpha  occ. eigenvalues --   -0.53668  -0.52556  -0.49860  -0.49121  -0.48233
 Alpha  occ. eigenvalues --   -0.45334  -0.45055  -0.43562  -0.43005  -0.42310
 Alpha  occ. eigenvalues --   -0.40018  -0.38427  -0.38294  -0.36662  -0.36056
 Alpha  occ. eigenvalues --   -0.35357  -0.34926  -0.34005  -0.31833  -0.29685
 Alpha  occ. eigenvalues --   -0.29425  -0.23929
 Alpha virt. eigenvalues --    0.00103   0.01341   0.01891   0.02432   0.03681
 Alpha virt. eigenvalues --    0.04345   0.04800   0.04943   0.05133   0.06938
 Alpha virt. eigenvalues --    0.07860   0.07914   0.08687   0.09061   0.09287
 Alpha virt. eigenvalues --    0.10296   0.10569   0.11758   0.12206   0.12409
 Alpha virt. eigenvalues --    0.12555   0.13253   0.14318   0.14927   0.15113
 Alpha virt. eigenvalues --    0.15864   0.16285   0.16657   0.16976   0.18025
 Alpha virt. eigenvalues --    0.18419   0.19413   0.19714   0.20266   0.20887
 Alpha virt. eigenvalues --    0.21265   0.21674   0.21964   0.22562   0.23088
 Alpha virt. eigenvalues --    0.23267   0.23609   0.24522   0.25727   0.26060
 Alpha virt. eigenvalues --    0.26427   0.26964   0.27774   0.28298   0.28793
 Alpha virt. eigenvalues --    0.29472   0.29891   0.30395   0.31037   0.31084
 Alpha virt. eigenvalues --    0.32475   0.32929   0.33983   0.34685   0.35073
 Alpha virt. eigenvalues --    0.35613   0.35805   0.36417   0.37135   0.38382
 Alpha virt. eigenvalues --    0.38831   0.39877   0.40455   0.40879   0.41560
 Alpha virt. eigenvalues --    0.42254   0.43771   0.44669   0.46718   0.47844
 Alpha virt. eigenvalues --    0.48141   0.64993   0.66273   0.67252   0.68424
 Alpha virt. eigenvalues --    0.68790   0.69933   0.71533   0.72457   0.73936
 Alpha virt. eigenvalues --    0.74251   0.76473   0.77854   0.80142   0.81186
 Alpha virt. eigenvalues --    0.82163   0.82712   0.83495   0.86502   0.86605
 Alpha virt. eigenvalues --    0.89964   0.93194   0.94083   0.95576   0.96445
 Alpha virt. eigenvalues --    0.97780   0.98611   1.00151   1.03145   1.04139
 Alpha virt. eigenvalues --    1.05452   1.07295   1.07895   1.09630   1.10603
 Alpha virt. eigenvalues --    1.10955   1.12083   1.12757   1.14413   1.15047
 Alpha virt. eigenvalues --    1.16820   1.17350   1.19387   1.23452   1.25753
 Alpha virt. eigenvalues --    1.27679   1.28998   1.29696   1.31466   1.32726
 Alpha virt. eigenvalues --    1.33759   1.35805   1.37827   1.39551   1.41607
 Alpha virt. eigenvalues --    1.44159   1.45052   1.46635   1.49723   1.53061
 Alpha virt. eigenvalues --    1.53244   1.56437   1.58538   1.59394   1.61884
 Alpha virt. eigenvalues --    1.62945   1.64360   1.64834   1.66790   1.69978
 Alpha virt. eigenvalues --    1.72035   1.73673   1.74124   1.77029   1.78420
 Alpha virt. eigenvalues --    1.79443   1.81882   1.84298   1.85166   1.86416
 Alpha virt. eigenvalues --    1.87469   1.88507   1.90212   1.91748   1.92514
 Alpha virt. eigenvalues --    1.96906   1.98568   1.99994   2.03841   2.04614
 Alpha virt. eigenvalues --    2.05068   2.06605   2.08491   2.09671   2.10725
 Alpha virt. eigenvalues --    2.12685   2.14501   2.16266   2.18523   2.19647
 Alpha virt. eigenvalues --    2.21205   2.22089   2.23213   2.26762   2.27765
 Alpha virt. eigenvalues --    2.29281   2.31261   2.34349   2.36811   2.37765
 Alpha virt. eigenvalues --    2.41400   2.42329   2.45694   2.46270   2.47863
 Alpha virt. eigenvalues --    2.49186   2.51165   2.51619   2.52364   2.55510
 Alpha virt. eigenvalues --    2.56045   2.58506   2.58694   2.60033   2.63146
 Alpha virt. eigenvalues --    2.64583   2.65440   2.67688   2.68261   2.69428
 Alpha virt. eigenvalues --    2.71667   2.71834   2.73181   2.76183   2.78350
 Alpha virt. eigenvalues --    2.78804   2.79944   2.81774   2.83475   2.85060
 Alpha virt. eigenvalues --    2.87133   2.87954   2.89933   2.90262   2.95714
 Alpha virt. eigenvalues --    2.96693   2.98715   2.99494   3.01613   3.02052
 Alpha virt. eigenvalues --    3.03411   3.09094   3.12362   3.15044   3.31858
 Alpha virt. eigenvalues --    3.33777   3.36287   3.36830   3.43695   3.44643
 Alpha virt. eigenvalues --    3.46818   3.50524   3.51935   3.53325   3.55976
 Alpha virt. eigenvalues --    3.56742   3.60136   3.61294   3.63525   4.27352
 Alpha virt. eigenvalues --    4.32047   4.36463   4.46708   4.50604   4.54144
 Alpha virt. eigenvalues --    4.59202   4.70471   4.77078   4.82784   4.85867
 Alpha virt. eigenvalues --    4.94886
          Condensed to atoms (all electrons):
              1          2          3          4          5          6
     1  C    5.864669  -0.876389   0.153158  -0.118713   0.076180   0.242662
     2  C   -0.876389   9.323519  -0.393803  -0.310731   0.361650  -0.925811
     3  N    0.153158  -0.393803   7.596993   0.197885  -0.289324  -0.105291
     4  C   -0.118713  -0.310731   0.197885   5.746826  -0.158298  -0.118367
     5  C    0.076180   0.361650  -0.289324  -0.158298   5.929519   0.088795
     6  C    0.242662  -0.925811  -0.105291  -0.118367   0.088795   9.223690
     7  C   -0.275867   1.005437  -0.054262  -0.068261   0.071869  -2.164401
     8  C    0.308878  -1.612424   0.067056   0.154311  -0.150617   0.431969
     9  H    0.400441  -0.085057   0.014898   0.025016  -0.021157   0.008475
    10  H    0.453612  -0.131876   0.038719   0.030776  -0.088427  -0.025142
    11  H    0.053817   0.181543  -0.008659   0.009945  -0.024024   0.038201
    12  H    0.036865  -0.011027  -0.053767   0.415824  -0.049242  -0.002328
    13  H   -0.007018   0.022815  -0.071459   0.389170  -0.009181  -0.018676
    14  H   -0.024948  -0.021103   0.015890  -0.023155   0.376481  -0.002416
    15  H   -0.063813   0.049927   0.003752  -0.024061   0.382018  -0.008873
    16  H   -0.010874   0.024322  -0.066142  -0.000167   0.020358   0.340338
    17  H    0.001728   0.024734   0.015937  -0.002755  -0.001385  -0.122967
    18  H    0.004672  -0.078291   0.015943   0.005643  -0.006673  -0.023342
    19  O    0.038221  -0.255255   0.022198  -0.004177  -0.001261   0.080837
    20  H   -0.003268  -0.023430   0.000001  -0.000201   0.000693   0.006029
    21  O   -0.019201   0.119485   0.027248   0.033530  -0.042531  -0.079550
    22  H   -0.006587   0.021045   0.011690  -0.000558  -0.008586  -0.049465
    23  C    0.058908  -0.219811   0.083658  -0.036694  -0.054937  -0.532870
    24  H    0.001564  -0.002855   0.004477  -0.003862  -0.000457  -0.100404
    25  H   -0.005050   0.034223   0.013968   0.001178   0.004543  -0.185268
    26  O    0.005136  -0.028383   0.005229  -0.019991   0.002557  -0.081164
    27  H   -0.001921   0.027115   0.052394  -0.005858   0.002222  -0.083397
              7          8          9         10         11         12
     1  C   -0.275867   0.308878   0.400441   0.453612   0.053817   0.036865
     2  C    1.005437  -1.612424  -0.085057  -0.131876   0.181543  -0.011027
     3  N   -0.054262   0.067056   0.014898   0.038719  -0.008659  -0.053767
     4  C   -0.068261   0.154311   0.025016   0.030776   0.009945   0.415824
     5  C    0.071869  -0.150617  -0.021157  -0.088427  -0.024024  -0.049242
     6  C   -2.164401   0.431969   0.008475  -0.025142   0.038201  -0.002328
     7  C    7.933902  -0.854093  -0.012867   0.027401  -0.009527  -0.006846
     8  C   -0.854093   6.940672   0.012680   0.008668   0.023836   0.001900
     9  H   -0.012867   0.012680   0.505057  -0.022702  -0.003837  -0.000089
    10  H    0.027401   0.008668  -0.022702   0.542101   0.004014  -0.000067
    11  H   -0.009527   0.023836  -0.003837   0.004014   0.551989   0.000267
    12  H   -0.006846   0.001900  -0.000089  -0.000067   0.000267   0.537254
    13  H    0.019072  -0.009601  -0.000144   0.000748  -0.000464  -0.040323
    14  H    0.005066  -0.000452  -0.004598   0.004172   0.000860  -0.006221
    15  H    0.003371  -0.001656   0.000041  -0.005170  -0.000082   0.001066
    16  H    0.021845   0.007069   0.000003  -0.000048  -0.000224  -0.000217
    17  H    0.376376  -0.013546   0.000004  -0.000068  -0.000102   0.000006
    18  H   -0.034506   0.453663  -0.000065   0.000069  -0.007030   0.000004
    19  O   -0.166156   0.408532  -0.000619   0.003437   0.007569   0.000067
    20  H   -0.068835   0.055922   0.000213  -0.000632  -0.000155   0.000000
    21  O    0.339752  -0.238439   0.000231   0.001063  -0.001039  -0.000003
    22  H    0.035891  -0.014173   0.000025  -0.000733  -0.000005   0.000015
    23  C   -0.080647   0.104224   0.000101  -0.000126   0.009193   0.003390
    24  H    0.001115   0.005522   0.000000   0.000000   0.000000  -0.000012
    25  H    0.101920  -0.027898   0.000000   0.000000  -0.000190   0.000010
    26  O    0.010173   0.011196   0.000010   0.000034   0.001480   0.003465
    27  H    0.015104  -0.011994  -0.000002   0.000000  -0.000293  -0.001399
             13         14         15         16         17         18
     1  C   -0.007018  -0.024948  -0.063813  -0.010874   0.001728   0.004672
     2  C    0.022815  -0.021103   0.049927   0.024322   0.024734  -0.078291
     3  N   -0.071459   0.015890   0.003752  -0.066142   0.015937   0.015943
     4  C    0.389170  -0.023155  -0.024061  -0.000167  -0.002755   0.005643
     5  C   -0.009181   0.376481   0.382018   0.020358  -0.001385  -0.006673
     6  C   -0.018676  -0.002416  -0.008873   0.340338  -0.122967  -0.023342
     7  C    0.019072   0.005066   0.003371   0.021845   0.376376  -0.034506
     8  C   -0.009601  -0.000452  -0.001656   0.007069  -0.013546   0.453663
     9  H   -0.000144  -0.004598   0.000041   0.000003   0.000004  -0.000065
    10  H    0.000748   0.004172  -0.005170  -0.000048  -0.000068   0.000069
    11  H   -0.000464   0.000860  -0.000082  -0.000224  -0.000102  -0.007030
    12  H   -0.040323  -0.006221   0.001066  -0.000217   0.000006   0.000004
    13  H    0.570436   0.003887  -0.005072   0.006339  -0.000109   0.000005
    14  H    0.003887   0.515975  -0.023297  -0.000013   0.000000   0.000006
    15  H   -0.005072  -0.023297   0.509895  -0.000017   0.000000   0.000003
    16  H    0.006339  -0.000013  -0.000017   0.529471  -0.000329  -0.000180
    17  H   -0.000109   0.000000   0.000000  -0.000329   0.530619  -0.004272
    18  H    0.000005   0.000006   0.000003  -0.000180  -0.004272   0.536648
    19  O   -0.000057   0.000099   0.000020  -0.000712   0.001497  -0.057236
    20  H    0.000010  -0.000001   0.000002  -0.000024  -0.000164   0.006018
    21  O   -0.001898  -0.000006   0.000104  -0.009259  -0.048573   0.011217
    22  H   -0.000544  -0.000001  -0.000061  -0.000087   0.005192  -0.000313
    23  C   -0.003920   0.001333   0.000242  -0.053420   0.055856  -0.002419
    24  H    0.000016   0.000000   0.000000  -0.005143   0.001345   0.000095
    25  H   -0.000005   0.000000   0.000000   0.004669  -0.001147  -0.000642
    26  O   -0.000979   0.000001  -0.000003   0.003725   0.000350  -0.000446
    27  H    0.000417   0.000016  -0.000003  -0.000065   0.000000   0.000035
             19         20         21         22         23         24
     1  C    0.038221  -0.003268  -0.019201  -0.006587   0.058908   0.001564
     2  C   -0.255255  -0.023430   0.119485   0.021045  -0.219811  -0.002855
     3  N    0.022198   0.000001   0.027248   0.011690   0.083658   0.004477
     4  C   -0.004177  -0.000201   0.033530  -0.000558  -0.036694  -0.003862
     5  C   -0.001261   0.000693  -0.042531  -0.008586  -0.054937  -0.000457
     6  C    0.080837   0.006029  -0.079550  -0.049465  -0.532870  -0.100404
     7  C   -0.166156  -0.068835   0.339752   0.035891  -0.080647   0.001115
     8  C    0.408532   0.055922  -0.238439  -0.014173   0.104224   0.005522
     9  H   -0.000619   0.000213   0.000231   0.000025   0.000101   0.000000
    10  H    0.003437  -0.000632   0.001063  -0.000733  -0.000126   0.000000
    11  H    0.007569  -0.000155  -0.001039  -0.000005   0.009193   0.000000
    12  H    0.000067   0.000000  -0.000003   0.000015   0.003390  -0.000012
    13  H   -0.000057   0.000010  -0.001898  -0.000544  -0.003920   0.000016
    14  H    0.000099  -0.000001  -0.000006  -0.000001   0.001333   0.000000
    15  H    0.000020   0.000002   0.000104  -0.000061   0.000242   0.000000
    16  H   -0.000712  -0.000024  -0.009259  -0.000087  -0.053420  -0.005143
    17  H    0.001497  -0.000164  -0.048573   0.005192   0.055856   0.001345
    18  H   -0.057236   0.006018   0.011217  -0.000313  -0.002419   0.000095
    19  O    8.203560   0.248813  -0.027737  -0.001567   0.008597   0.000078
    20  H    0.248813   0.352202   0.041132  -0.004297  -0.001043   0.000000
    21  O   -0.027737   0.041132   8.238223   0.243284  -0.011958  -0.000234
    22  H   -0.001567  -0.004297   0.243284   0.345508   0.022778   0.000004
    23  C    0.008597  -0.001043  -0.011958   0.022778   5.771364   0.482548
    24  H    0.000078   0.000000  -0.000234   0.000004   0.482548   0.536714
    25  H   -0.000795   0.000000  -0.000310  -0.000015   0.411360  -0.039965
    26  O    0.000225  -0.000011  -0.000832  -0.000004   0.214730  -0.058355
    27  H    0.000003   0.000000   0.000041   0.000000   0.023822   0.006616
             25         26         27
     1  C   -0.005050   0.005136  -0.001921
     2  C    0.034223  -0.028383   0.027115
     3  N    0.013968   0.005229   0.052394
     4  C    0.001178  -0.019991  -0.005858
     5  C    0.004543   0.002557   0.002222
     6  C   -0.185268  -0.081164  -0.083397
     7  C    0.101920   0.010173   0.015104
     8  C   -0.027898   0.011196  -0.011994
     9  H    0.000000   0.000010  -0.000002
    10  H    0.000000   0.000034   0.000000
    11  H   -0.000190   0.001480  -0.000293
    12  H    0.000010   0.003465  -0.001399
    13  H   -0.000005  -0.000979   0.000417
    14  H    0.000000   0.000001   0.000016
    15  H    0.000000  -0.000003  -0.000003
    16  H    0.004669   0.003725  -0.000065
    17  H   -0.001147   0.000350   0.000000
    18  H   -0.000642  -0.000446   0.000035
    19  O   -0.000795   0.000225   0.000003
    20  H    0.000000  -0.000011   0.000000
    21  O   -0.000310  -0.000832   0.000041
    22  H   -0.000015  -0.000004   0.000000
    23  C    0.411360   0.214730   0.023822
    24  H   -0.039965  -0.058355   0.006616
    25  H    0.589123  -0.045820  -0.003895
    26  O   -0.045820   8.277595   0.231187
    27  H   -0.003895   0.231187   0.363031
 Mulliken atomic charges:
              1
     1  C   -0.286861
     2  C   -0.219570
     3  N   -0.298387
     4  C   -0.114255
     5  C   -0.410784
     6  C    0.168738
     7  C   -0.172028
     8  C   -0.061204
     9  H    0.183942
    10  H    0.160177
    11  H    0.172917
    12  H    0.171407
    13  H    0.156534
    14  H    0.182426
    15  H    0.181667
    16  H    0.188784
    17  H    0.181773
    18  H    0.181394
    19  O   -0.508182
    20  H    0.391028
    21  O   -0.573741
    22  H    0.401567
    23  C   -0.254260
    24  H    0.171190
    25  H    0.150006
    26  O   -0.531104
    27  H    0.386824
 Sum of Mulliken atomic charges =   0.00000
 Mulliken charges with hydrogens summed into heavy atoms:
              1
     1  C    0.057258
     2  C   -0.046653
     3  N   -0.298387
     4  C    0.213686
     5  C   -0.046690
     6  C    0.357522
     7  C    0.009746
     8  C    0.120190
    19  O   -0.117154
    21  O   -0.172174
    23  C    0.066936
    26  O   -0.144280
 Sum of Mulliken charges with hydrogens summed into heavy atoms =   0.00000
 Electronic spatial extent (au):  <R**2>=           1981.8834
 Charge=              0.0000 electrons
 Dipole moment (field-independent basis, Debye):
    X=             -1.7776    Y=              2.2918    Z=              1.4622  Tot=              3.2481
 Quadrupole moment (field-independent basis, Debye-Ang):
   XX=            -89.9751   YY=            -73.3968   ZZ=            -72.6158
   XY=            -10.0914   XZ=             -2.5178   YZ=              1.7086
 Traceless Quadrupole moment (field-independent basis, Debye-Ang):
   XX=            -11.3125   YY=              5.2658   ZZ=              6.0468
   XY=            -10.0914   XZ=             -2.5178   YZ=              1.7086
 Octapole moment (field-independent basis, Debye-Ang**2):
  XXX=            -54.2538  YYY=             10.4834  ZZZ=             -0.0255  XYY=             17.1918
  XXY=             -1.7695  XXZ=             19.7052  XZZ=              0.2847  YZZ=              8.1771
  YYZ=             -1.9292  XYZ=              5.0792
 Hexadecapole moment (field-independent basis, Debye-Ang**3):
 XXXX=          -1481.7949 YYYY=           -959.9842 ZZZZ=           -348.0539 XXXY=            -41.9602
 XXXZ=             -6.6647 YYYX=            -11.1628 YYYZ=             -1.9637 ZZZX=             -8.0030
 ZZZY=             12.8257 XXYY=           -361.6619 XXZZ=           -270.1418 YYZZ=           -237.4775
 XXYZ=            -26.5715 YYXZ=            -13.7652 ZZXY=            -10.0159
 N-N= 8.122357607687D+02 E-N=-3.009422118077D+03  KE= 5.886565531178D+02
 1\1\GINC-COMPUTE-3-1\SP\RmPW1PW91\6-31+G(d,p)\C8H15N1O3\MAMICHETTI.IQU
 IR\17-May-2024\0\\# mpw1pw91/6-31+G** nmr scrf=(pcm,solvent=water)\\co
 mment\\0,1\C,0,-1.899416,1.161487,-0.28531\C,0,-0.744556,0.376221,-0.9
 29058\N,0,0.499362,0.809101,-0.203292\C,0,0.133404,1.920931,0.714768\C
 ,0,-1.20161,2.446842,0.180942\C,0,1.116899,-0.375811,0.450349\C,0,0.07
 7747,-1.501704,0.422225\C,0,-0.787383,-1.170418,-0.817498\H,0,-2.72165
 6,1.339738,-0.98478\H,0,-2.306282,0.620599,0.577771\H,0,-0.667165,0.66
 3334,-1.984491\H,0,0.918392,2.685383,0.732288\H,0,0.007612,1.55728,1.7
 45841\H,0,-1.035571,3.118469,-0.670184\H,0,-1.763046,2.997217,0.942337
 \H,0,1.381512,-0.127416,1.484261\H,0,0.531072,-2.493366,0.339945\H,0,-
 0.318069,-1.608658,-1.703741\O,0,-2.090523,-1.730387,-0.722201\H,0,-2.
 281777,-1.741383,0.236169\O,0,-0.741899,-1.564851,1.602939\H,0,-0.9243
 47,-0.65975,1.907559\C,0,2.409631,-0.746507,-0.288267\H,0,2.969162,-1.
 503708,0.270215\H,0,2.176312,-1.160339,-1.281975\O,0,3.244091,0.404589
 ,-0.406604\H,0,2.616668,1.10783,-0.670148\\Version=AM64L-G09RevC.01\St
 ate=1-A\HF=-594.1967813\RMSD=3.951e-09\Dipole=-0.699375,0.9016684,0.57
 52741\Quadrupole=-8.4105794,3.9149614,4.495618,-7.5026964,-1.8719326,1
 .2703246\PG=C01 [X(C8H15N1O3)]\\@


 NOTHING RESEMBLES A NEW PHENOMENON AS MUCH AS A MISTAKE.

                               -- ENRICO FERMI (?)
 Job cpu time:  0 days  0 hours  8 minutes 32.9 seconds.
 File lengths (MBytes):  RWF=    112 Int=      0 D2E=      0 Chk=      7 Scr=      1
 Normal termination of Gaussian 09 at Fri May 17 12:14:56 2024.
