 Entering Gaussian System, Link 0=g09
 Input=/home/mamichetti.iquir/Linux/02_Cardona_A1A3_R__R_R_R_017_OptB.gjc
 Output=/home/mamichetti.iquir/Linux/02_Cardona_A1A3_R__R_R_R_017_OptB.log
 Initial command:
 /opt/ohpc/pub/apps/software/Gaussian/09/AMD64.SSE4a-enabled/g09/l1.exe /local/mamichetti.iquir/Gau-710833.inp -scrdir=/local/mamichetti.iquir/
 Entering Link 1 = /opt/ohpc/pub/apps/software/Gaussian/09/AMD64.SSE4a-enabled/g09/l1.exe PID=    710834.
  
 Copyright (c) 1988,1990,1992,1993,1995,1998,2003,2009,2011,
            Gaussian, Inc.  All Rights Reserved.
  
 This is part of the Gaussian(R) 09 program.  It is based on
 the Gaussian(R) 03 system (copyright 2003, Gaussian, Inc.),
 the Gaussian(R) 98 system (copyright 1998, Gaussian, Inc.),
 the Gaussian(R) 94 system (copyright 1995, Gaussian, Inc.),
 the Gaussian 92(TM) system (copyright 1992, Gaussian, Inc.),
 the Gaussian 90(TM) system (copyright 1990, Gaussian, Inc.),
 the Gaussian 88(TM) system (copyright 1988, Gaussian, Inc.),
 the Gaussian 86(TM) system (copyright 1986, Carnegie Mellon
 University), and the Gaussian 82(TM) system (copyright 1983,
 Carnegie Mellon University). Gaussian is a federally registered
 trademark of Gaussian, Inc.
  
 This software contains proprietary and confidential information,
 including trade secrets, belonging to Gaussian, Inc.
  
 This software is provided under written license and may be
 used, copied, transmitted, or stored only in accord with that
 written license.
  
 The following legend is applicable only to US Government
 contracts under FAR:
  
                    RESTRICTED RIGHTS LEGEND
  
 Use, reproduction and disclosure by the US Government is
 subject to restrictions as set forth in subparagraphs (a)
 and (c) of the Commercial Computer Software - Restricted
 Rights clause in FAR 52.227-19.
  
 Gaussian, Inc.
 340 Quinnipiac St., Bldg. 40, Wallingford CT 06492
  
  
 ---------------------------------------------------------------
 Warning -- This program may not be used in any manner that
 competes with the business of Gaussian, Inc. or will provide
 assistance to any competitor of Gaussian, Inc.  The licensee
 of this program is prohibited from giving any competitor of
 Gaussian, Inc. access to this program.  By using this program,
 the user acknowledges that Gaussian, Inc. is engaged in the
 business of creating and licensing software in the field of
 computational chemistry and represents and warrants to the
 licensee that it is not a competitor of Gaussian, Inc. and that
 it will not use this program in any manner prohibited above.
 ---------------------------------------------------------------
  

 Cite this work as:
 Gaussian 09, Revision C.01,
 M. J. Frisch, G. W. Trucks, H. B. Schlegel, G. E. Scuseria, 
 M. A. Robb, J. R. Cheeseman, G. Scalmani, V. Barone, B. Mennucci, 
 G. A. Petersson, H. Nakatsuji, M. Caricato, X. Li, H. P. Hratchian, 
 A. F. Izmaylov, J. Bloino, G. Zheng, J. L. Sonnenberg, M. Hada, 
 M. Ehara, K. Toyota, R. Fukuda, J. Hasegawa, M. Ishida, T. Nakajima, 
 Y. Honda, O. Kitao, H. Nakai, T. Vreven, J. A. Montgomery, Jr., 
 J. E. Peralta, F. Ogliaro, M. Bearpark, J. J. Heyd, E. Brothers, 
 K. N. Kudin, V. N. Staroverov, T. Keith, R. Kobayashi, J. Normand, 
 K. Raghavachari, A. Rendell, J. C. Burant, S. S. Iyengar, J. Tomasi, 
 M. Cossi, N. Rega, J. M. Millam, M. Klene, J. E. Knox, J. B. Cross, 
 V. Bakken, C. Adamo, J. Jaramillo, R. Gomperts, R. E. Stratmann, 
 O. Yazyev, A. J. Austin, R. Cammi, C. Pomelli, J. W. Ochterski, 
 R. L. Martin, K. Morokuma, V. G. Zakrzewski, G. A. Voth, 
 P. Salvador, J. J. Dannenberg, S. Dapprich, A. D. Daniels, 
 O. Farkas, J. B. Foresman, J. V. Ortiz, J. Cioslowski, 
 and D. J. Fox, Gaussian, Inc., Wallingford CT, 2010.
 
 ******************************************
 Gaussian 09:  AM64L-G09RevC.01 23-Sep-2011
                17-May-2024 
 ******************************************
 %nprocshared=4
 Will use up to    4 processors via shared memory.
 ------------------------------------------------
 # mpw1pw91/6-31+G** nmr scrf=(pcm,solvent=water)
 ------------------------------------------------
 1/38=1/1;
 2/12=2,17=6,18=5,40=1/2;
 3/5=1,6=6,7=111,11=2,16=1,25=1,30=1,70=2201,72=1,74=-7/1,2,8,3;
 4//1;
 5/5=2,38=5,53=1/2;
 8/6=1,10=90,11=11/1;
 10/13=100,45=16/2;
 6/7=2,8=2,9=2,10=2,28=1/1;
 99/9=1/99;
 -------
 comment
 -------
 Charge =  0 Multiplicity = 1
 Symbolic Z-Matrix:
 6                    -1.95462   1.62426  -0.15864 
 6                    -1.1403    0.43883  -0.70484 
 7                     0.30903   0.80285  -0.52218 
 6                     0.35161   2.08753   0.22568 
 6                    -1.02106   2.24234   0.89162 
 6                     0.98923  -0.32135   0.16729 
 6                     0.05606  -1.52544  -0.03338 
 6                    -1.32923  -0.88311   0.04202 
 1                    -2.15207   2.34739  -0.95878 
 1                    -2.91986   1.30054   0.24436 
 1                    -1.3602    0.26081  -1.76511 
 1                     0.5234    2.91868  -0.47118 
 1                     1.18429   2.08266   0.93393 
 1                    -1.26543   3.28259   1.12953 
 1                    -1.05761   1.66371   1.82296 
 1                     1.06534  -0.12949   1.25113 
 1                     0.19256  -1.95583  -1.0328 
 1                    -1.55738  -0.69138   1.10345 
 8                    -2.37461  -1.64939  -0.55006 
 1                    -2.42498  -2.4829   -0.05175 
 8                     0.26673  -2.60245   0.87494 
 1                     0.13118  -2.25054   1.77259 
 6                     2.39624  -0.56553  -0.36696 
 1                     2.84866  -1.40594   0.17004 
 1                     2.3476   -0.82842  -1.43359 
 8                     3.26873   0.55227  -0.16679 
 1                     2.90683   1.27949  -0.70108 
 
                          Input orientation:                          
 ---------------------------------------------------------------------
 Center     Atomic      Atomic             Coordinates (Angstroms)
 Number     Number       Type             X           Y           Z
 ---------------------------------------------------------------------
      1          6           0       -1.954616    1.624259   -0.158638
      2          6           0       -1.140304    0.438827   -0.704836
      3          7           0        0.309027    0.802853   -0.522178
      4          6           0        0.351614    2.087535    0.225677
      5          6           0       -1.021055    2.242344    0.891622
      6          6           0        0.989231   -0.321354    0.167293
      7          6           0        0.056062   -1.525441   -0.033384
      8          6           0       -1.329225   -0.883105    0.042016
      9          1           0       -2.152070    2.347390   -0.958778
     10          1           0       -2.919862    1.300540    0.244362
     11          1           0       -1.360197    0.260812   -1.765110
     12          1           0        0.523402    2.918675   -0.471184
     13          1           0        1.184285    2.082664    0.933925
     14          1           0       -1.265430    3.282586    1.129535
     15          1           0       -1.057615    1.663708    1.822961
     16          1           0        1.065339   -0.129487    1.251126
     17          1           0        0.192557   -1.955832   -1.032802
     18          1           0       -1.557376   -0.691379    1.103447
     19          8           0       -2.374610   -1.649391   -0.550058
     20          1           0       -2.424977   -2.482898   -0.051754
     21          8           0        0.266729   -2.602450    0.874944
     22          1           0        0.131181   -2.250540    1.772589
     23          6           0        2.396242   -0.565534   -0.366956
     24          1           0        2.848656   -1.405938    0.170041
     25          1           0        2.347597   -0.828415   -1.433592
     26          8           0        3.268732    0.552274   -0.166787
     27          1           0        2.906825    1.279493   -0.701082
 ---------------------------------------------------------------------
                    Distance matrix (angstroms):
                    1          2          3          4          5
     1  C    0.000000
     2  C    1.538403   0.000000
     3  N    2.435354   1.505470   0.000000
     4  C    2.383489   2.410376   1.487114   0.000000
     5  C    1.535126   2.411550   2.416626   1.533515   0.000000
     6  C    3.543709   2.423511   1.483876   2.492531   3.337432
     7  C    3.738867   2.395932   2.392460   3.634289   4.026415
     8  C    2.591959   1.530027   2.417569   3.418136   3.253495
     9  H    1.096417   2.175033   2.938233   2.781886   2.171223
    10  H    1.094944   2.193252   3.355741   3.364857   2.216170
    11  H    2.189309   1.097371   2.150581   3.198507   3.331623
    12  H    2.813143   2.995356   2.127266   1.098144   2.167951
    13  H    3.355075   3.285035   2.127023   1.093151   2.211518
    14  H    2.210071   3.386375   3.369888   2.204527   1.094726
    15  H    2.175523   2.810147   2.847536   2.171836   1.097064
    16  H    3.766057   3.002271   2.141465   2.544825   3.179287
    17  H    4.265157   2.760158   2.807961   4.237675   4.775033
    18  H    2.666990   2.172833   2.891167   3.483832   2.989856
    19  O    3.323611   2.430663   3.635407   4.690275   4.365335
    20  H    4.135384   3.257818   4.300260   5.354931   5.018851
    21  O    4.885462   3.704701   3.681009   4.735474   5.013052
    22  H    4.805648   3.871305   3.823715   4.610903   4.721203
    23  C    4.875301   3.691891   2.500609   3.401543   4.598491
    24  H    5.688721   4.481113   3.436225   4.294493   5.367057
    25  H    5.113722   3.781857   2.765407   3.903830   5.117030
    26  O    5.332221   4.443193   2.991479   3.319734   4.730628
    27  H    4.903745   4.133520   2.647215   2.835651   4.346496
                    6          7          8          9         10
     6  C    0.000000
     7  C    1.536522   0.000000
     8  C    2.388827   1.528823   0.000000
     9  H    4.272938   4.553133   3.480626   0.000000
    10  H    4.232905   4.113324   2.709128   1.770013   0.000000
    11  H    3.097242   2.862755   2.138974   2.372982   2.748011
    12  H    3.335032   4.490016   4.260180   2.778896   3.871232
    13  H    2.530825   3.902178   3.988611   3.844954   4.234529
    14  H    4.358645   5.120141   4.305781   2.453930   2.729319
    15  H    3.297163   3.854473   3.119582   3.066484   2.468163
    16  H    1.103313   2.148789   2.786364   4.622804   4.352054
    17  H    2.178632   1.096678   2.149837   4.901069   4.682121
    18  H    2.738341   2.142715   1.102473   3.720289   2.561667
    19  O    3.686964   2.488068   1.424983   4.023784   3.103304
    20  H    4.046859   2.659439   1.941340   4.922281   3.827140
    21  O    2.495231   1.424566   2.489375   5.806379   5.077925
    22  H    2.652354   1.947550   2.645288   5.815029   4.924887
    23  C    1.524705   2.551300   3.761278   5.433463   5.667178
    24  H    2.152624   2.802542   4.212414   6.353658   6.372311
    25  H    2.159885   2.774448   3.962251   5.527946   5.924028
    26  O    2.463932   3.828308   4.821319   5.764962   6.247211
    27  H    2.644608   4.054667   4.813849   5.176797   5.902931
                   11         12         13         14         15
    11  H    0.000000
    12  H    3.505200   0.000000
    13  H    4.132593   1.763523   0.000000
    14  H    4.185579   2.427891   2.734809   0.000000
    15  H    3.864444   3.055758   2.447861   1.773356   0.000000
    16  H    3.890146   3.542787   2.237940   4.133946   2.837160
    17  H    2.803717   4.917895   4.600108   5.851705   4.776964
    18  H    3.028889   4.454390   3.903941   3.984760   2.512747
    19  O    2.480778   5.410353   5.366207   5.326886   4.282793
    20  H    3.405479   6.168132   5.902770   5.998400   4.751692
    21  O    4.220787   5.688652   4.774482   6.086541   4.566479
    22  H    4.587637   5.648817   4.537515   5.742780   4.091101
    23  C    4.092495   3.957032   3.189684   5.518637   4.657723
    24  H    4.923140   4.951793   3.940050   6.310990   5.235821
    25  H    3.878667   4.277219   3.928462   6.043502   5.330224
    26  O    4.905769   3.637217   2.810441   5.449191   4.889955
    27  H    4.514127   2.901806   2.507085   4.977073   4.715421
                   16         17         18         19         20
    16  H    0.000000
    17  H    3.051821   0.000000
    18  H    2.686292   3.037214   0.000000
    19  O    4.169847   2.630075   2.078398   0.000000
    20  H    4.406625   2.844598   2.301469   0.972408   0.000000
    21  O    2.625802   2.015716   2.651748   3.148908   2.849271
    22  H    2.375593   2.821496   2.393733   3.469158   3.148994
    23  C    2.140007   2.689332   4.220073   4.895845   5.198056
    24  H    2.445054   2.967166   4.560149   5.278288   5.387044
    25  H    3.056206   2.464934   4.658772   4.873795   5.236817
    26  O    2.707437   4.062441   5.143101   6.069723   6.453203
    27  H    3.031074   4.236109   5.202860   6.041086   6.557845
                   21         22         23         24         25
    21  O    0.000000
    22  H    0.973643   0.000000
    23  C    3.197838   3.542231   0.000000
    24  H    2.931702   3.265912   1.095136   0.000000
    25  H    3.578624   4.149040   1.099630   1.776579   0.000000
    26  O    4.477668   4.632620   1.432062   2.030889   2.087962
    27  H    4.952115   5.126830   1.943312   2.823788   2.300561
                   26         27
    26  O    0.000000
    27  H    0.972263   0.000000
 Stoichiometry    C8H15NO3
 Framework group  C1[X(C8H15NO3)]
 Deg. of freedom    75
 Full point group                 C1      NOp   1
 Largest Abelian subgroup         C1      NOp   1
 Largest concise Abelian subgroup C1      NOp   1
                         Standard orientation:                         
 ---------------------------------------------------------------------
 Center     Atomic      Atomic             Coordinates (Angstroms)
 Number     Number       Type             X           Y           Z
 ---------------------------------------------------------------------
      1          6           0       -1.954616    1.624259   -0.158638
      2          6           0       -1.140304    0.438827   -0.704836
      3          7           0        0.309027    0.802853   -0.522178
      4          6           0        0.351614    2.087535    0.225677
      5          6           0       -1.021055    2.242344    0.891622
      6          6           0        0.989231   -0.321354    0.167293
      7          6           0        0.056062   -1.525441   -0.033384
      8          6           0       -1.329225   -0.883105    0.042016
      9          1           0       -2.152070    2.347390   -0.958778
     10          1           0       -2.919862    1.300540    0.244362
     11          1           0       -1.360197    0.260812   -1.765110
     12          1           0        0.523401    2.918675   -0.471184
     13          1           0        1.184285    2.082664    0.933925
     14          1           0       -1.265431    3.282586    1.129535
     15          1           0       -1.057615    1.663708    1.822961
     16          1           0        1.065339   -0.129487    1.251126
     17          1           0        0.192557   -1.955832   -1.032802
     18          1           0       -1.557376   -0.691379    1.103447
     19          8           0       -2.374610   -1.649391   -0.550058
     20          1           0       -2.424977   -2.482898   -0.051754
     21          8           0        0.266729   -2.602450    0.874944
     22          1           0        0.131181   -2.250540    1.772589
     23          6           0        2.396242   -0.565534   -0.366956
     24          1           0        2.848656   -1.405938    0.170041
     25          1           0        2.347597   -0.828415   -1.433592
     26          8           0        3.268732    0.552274   -0.166787
     27          1           0        2.906825    1.279493   -0.701082
 ---------------------------------------------------------------------
 Rotational constants (GHZ):      1.0819545      0.9154449      0.5610411
 Standard basis: 6-31+G(d,p) (6D, 7F)
 There are   303 symmetry adapted basis functions of A   symmetry.
 Integral buffers will be    131072 words long.
 Raffenetti 2 integral format.
 Two-electron integral symmetry is turned on.
   303 basis functions,   489 primitive gaussians,   303 cartesian basis functions
    47 alpha electrons       47 beta electrons
       nuclear repulsion energy       799.7563502333 Hartrees.
 NAtoms=   27 NActive=   27 NUniq=   27 SFac= 1.00D+00 NAtFMM=   60 NAOKFM=F Big=F
 ------------------------------------------------------------------------------
 Polarizable Continuum Model (PCM)
 =================================
 Model                : PCM.
 Atomic radii         : UFF (Universal Force Field).
 Polarization charges : Total charges.
 Charge compensation  : None.
 Solution method      : Matrix inversion.
 Cavity type          : Scaled VdW (van der Waals Surface) (Alpha=1.100).
 Cavity algorithm     : GePol (No added spheres)
                        Default sphere list used, NSphG=   27.
                        Lebedev-Laikov grids with approx.  5.0 points / Ang**2.
                        Smoothing algorithm: Karplus/York (Gamma=1.0000).
                        Polarization charges: spherical gaussians, with
                                              point-specific exponents (IZeta= 3).
                        Self-potential: point-specific (ISelfS= 7).
                        Self-field    : sphere-specific E.n sum rule (ISelfD= 2).
 Solvent              : Water, Eps=  78.355300 Eps(inf)=   1.777849
 ------------------------------------------------------------------------------
 One-electron integrals computed using PRISM.
 NBasis=   303 RedAO= T  NBF=   303
 NBsUse=   303 1.00D-06 NBFU=   303
 Harris functional with IExCor=  908 diagonalized for initial guess.
 ExpMin= 4.38D-02 ExpMax= 5.48D+03 ExpMxC= 8.25D+02 IAcc=2 IRadAn=         4 AccDes= 0.00D+00
 HarFok:  IExCor=  908 AccDes= 0.00D+00 IRadAn=         4 IDoV= 1
 ScaDFX=  1.000000  1.000000  1.000000  1.000000
 FoFCou: FMM=F IPFlag=           0 FMFlag=      100000 FMFlg1=           0
         NFxFlg=           0 DoJE=T BraDBF=F KetDBF=T FulRan=T
         Omega=  0.000000  0.000000  1.000000  0.000000  0.000000 ICntrl=     500 IOpCl=  0
         NMat0=    1 NMatS0=    1 NMatT0=    0 NMatD0=    1 NMtDS0=    0 NMtDT0=    0
         I1Cent=           4 NGrid=           0.
 Petite list used in FoFCou.
 Initial guess orbital symmetries:
       Occupied  (A) (A) (A) (A) (A) (A) (A) (A) (A) (A) (A) (A)
                 (A) (A) (A) (A) (A) (A) (A) (A) (A) (A) (A) (A)
                 (A) (A) (A) (A) (A) (A) (A) (A) (A) (A) (A) (A)
                 (A) (A) (A) (A) (A) (A) (A) (A) (A) (A) (A)
       Virtual   (A) (A) (A) (A) (A) (A) (A) (A) (A) (A) (A) (A)
                 (A) (A) (A) (A) (A) (A) (A) (A) (A) (A) (A) (A)
                 (A) (A) (A) (A) (A) (A) (A) (A) (A) (A) (A) (A)
                 (A) (A) (A) (A) (A) (A) (A) (A) (A) (A) (A) (A)
                 (A) (A) (A) (A) (A) (A) (A) (A) (A) (A) (A) (A)
                 (A) (A) (A) (A) (A) (A) (A) (A) (A) (A) (A) (A)
                 (A) (A) (A) (A) (A) (A) (A) (A) (A) (A) (A) (A)
                 (A) (A) (A) (A) (A) (A) (A) (A) (A) (A) (A) (A)
                 (A) (A) (A) (A) (A) (A) (A) (A) (A) (A) (A) (A)
                 (A) (A) (A) (A) (A) (A) (A) (A) (A) (A) (A) (A)
                 (A) (A) (A) (A) (A) (A) (A) (A) (A) (A) (A) (A)
                 (A) (A) (A) (A) (A) (A) (A) (A) (A) (A) (A) (A)
                 (A) (A) (A) (A) (A) (A) (A) (A) (A) (A) (A) (A)
                 (A) (A) (A) (A) (A) (A) (A) (A) (A) (A) (A) (A)
                 (A) (A) (A) (A) (A) (A) (A) (A) (A) (A) (A) (A)
                 (A) (A) (A) (A) (A) (A) (A) (A) (A) (A) (A) (A)
                 (A) (A) (A) (A) (A) (A) (A) (A) (A) (A) (A) (A)
                 (A) (A) (A) (A) (A) (A) (A) (A) (A) (A) (A) (A)
                 (A) (A) (A) (A) (A) (A) (A) (A) (A) (A) (A) (A)
                 (A) (A) (A) (A) (A) (A) (A) (A) (A) (A) (A) (A)
                 (A) (A) (A) (A) (A) (A) (A) (A) (A) (A) (A) (A)
                 (A) (A) (A) (A)
 The electronic state of the initial guess is 1-A.
 Requested convergence on RMS density matrix=1.00D-08 within 128 cycles.
 Requested convergence on MAX density matrix=1.00D-06.
 Requested convergence on             energy=1.00D-06.
 No special actions if energy rises.
 Error on total polarization charges =  0.01452
 SCF Done:  E(RmPW1PW91) =  -594.199126249     A.U. after   13 cycles
             Convg  =    0.4239D-08             -V/T =  2.0094
 Range of M.O.s used for correlation:     1   303
 NBasis=   303 NAE=    47 NBE=    47 NFC=     0 NFV=     0
 NROrb=    303 NOA=    47 NOB=    47 NVA=   256 NVB=   256

 **** Warning!!: The largest alpha MO coefficient is  0.77694176D+02

 NEqPCM:  Using equilibrium solvation (IEInf=0, Eps=  78.3553, EpsInf=   1.7778)
          Differentiating once with respect to magnetic field using GIAOs.
          Electric field/nuclear overlap derivatives assumed to be zero.
 FoFCou: FMM=F IPFlag=           0 FMFlag=    10101102 FMFlg1=           0
         NFxFlg=    40000000 DoJE=F BraDBF=F KetDBF=T FulRan=T
         Omega=  0.000000  0.000000  1.000000  0.000000  0.000000 ICntrl=    6100 IOpCl=  0
         NMat0=    1 NMatS0=    1 NMatT0=    0 NMatD0=    1 NMtDS0=    0 NMtDT0=    0
         I1Cent=           7 NGrid=        1829.
 Symmetry not used in FoFCou.
          There are     3 degrees of freedom in the 1st order CPHF.  IDoFFX=0.
      3 vectors produced by pass  0 Test12= 4.01D-13 3.33D-08 XBig12= 2.99D+01 8.30D-01.
 AX will form     3 AO Fock derivatives at one time.
      3 vectors produced by pass  1 Test12= 4.01D-13 3.33D-08 XBig12= 7.62D-02 3.33D-02.
      3 vectors produced by pass  2 Test12= 4.01D-13 3.33D-08 XBig12= 1.49D-04 2.21D-03.
      3 vectors produced by pass  3 Test12= 4.01D-13 3.33D-08 XBig12= 6.24D-07 2.17D-04.
      3 vectors produced by pass  4 Test12= 4.01D-13 3.33D-08 XBig12= 2.42D-09 9.15D-06.
      3 vectors produced by pass  5 Test12= 4.01D-13 3.33D-08 XBig12= 7.37D-12 4.43D-07.
 Inverted reduced A of dimension    18 with in-core refinement.
 Calculating GIAO nuclear magnetic shielding tensors.
 SCF GIAO Magnetic shielding tensor (ppm):
      1  C    Isotropic =   164.5231   Anisotropy =    22.1692
   XX=   170.3349   YX=    -2.5655   ZX=    -3.4514
   XY=    -8.1042   YY=   167.0080   ZY=    12.1421
   XZ=     7.4781   YZ=    18.9833   ZZ=   156.2263
   Eigenvalues:   144.2772   169.9895   179.3025
      2  C    Isotropic =   128.3055   Anisotropy =    54.9857
   XX=   156.0409   YX=    13.5594   ZX=     1.5355
   XY=    20.8326   YY=   128.8751   ZY=    13.6253
   XZ=     6.8155   YZ=    -2.4839   ZZ=   100.0006
   Eigenvalues:    98.9436   121.0103   164.9627
      3  N    Isotropic =   199.5238   Anisotropy =    74.0885
   XX=   235.9102   YX=   -15.7440   ZX=    18.4729
   XY=   -25.0197   YY=   210.2326   ZY=    13.7847
   XZ=    24.8194   YZ=    13.6776   ZZ=   152.4287
   Eigenvalues:   142.0997   207.5556   248.9162
      4  C    Isotropic =   138.5118   Anisotropy =    59.9978
   XX=   129.4375   YX=    -6.3760   ZX=     5.6321
   XY=     4.1751   YY=   161.3652   ZY=    28.1095
   XZ=    -8.8301   YZ=    32.4754   ZZ=   124.7327
   Eigenvalues:   107.6162   129.4089   178.5103
      5  C    Isotropic =   171.2643   Anisotropy =    19.1930
   XX=   182.7555   YX=     1.5888   ZX=    -2.7438
   XY=     2.7565   YY=   169.6295   ZY=    13.8372
   XZ=    -2.8921   YZ=    22.3141   ZZ=   161.4080
   Eigenvalues:   146.6311   183.1022   184.0596
      6  C    Isotropic =   123.0782   Anisotropy =    39.5697
   XX=   112.1729   YX=    -0.8958   ZX=     2.5175
   XY=    -4.0823   YY=   143.6193   ZY=   -18.0096
   XZ=    23.2221   YZ=    -7.0380   ZZ=   113.4425
   Eigenvalues:    98.7705   121.0061   149.4580
      7  C    Isotropic =   115.3407   Anisotropy =    36.9355
   XX=   122.1045   YX=    -6.0012   ZX=     7.8017
   XY=    -3.9969   YY=   123.8055   ZY=   -28.3300
   XZ=     8.3475   YZ=   -13.3807   ZZ=   100.1120
   Eigenvalues:    87.3748   118.6828   139.9643
      8  C    Isotropic =   113.3901   Anisotropy =    27.9000
   XX=   130.3774   YX=     6.1178   ZX=    15.9374
   XY=    -0.5930   YY=   116.4753   ZY=     5.9153
   XZ=    -3.2560   YZ=    -3.2909   ZZ=    93.3175
   Eigenvalues:    92.2332   115.9469   131.9901
      9  H    Isotropic =    29.7964   Anisotropy =    11.8966
   XX=    27.6316   YX=    -3.5164   ZX=     3.3224
   XY=    -4.5750   YY=    31.2221   ZY=    -3.8975
   XZ=     4.2816   YZ=    -3.6635   ZZ=    30.5356
   Eigenvalues:    24.5772    27.0846    37.7275
     10  H    Isotropic =    29.7293   Anisotropy =     9.6576
   XX=    35.8599   YX=     0.3143   ZX=    -2.0015
   XY=     0.8910   YY=    27.8557   ZY=     0.6587
   XZ=    -1.4293   YZ=     0.3602   ZZ=    25.4724
   Eigenvalues:    25.0668    27.9535    36.1677
     11  H    Isotropic =    28.2276   Anisotropy =     7.0004
   XX=    27.4911   YX=     0.1550   ZX=     2.9592
   XY=     0.1248   YY=    25.8491   ZY=     0.9978
   XZ=     2.4502   YZ=     1.2247   ZZ=    31.3426
   Eigenvalues:    25.4632    26.3251    32.8946
     12  H    Isotropic =    28.6260   Anisotropy =    11.3139
   XX=    25.9406   YX=     1.8501   ZX=    -2.5653
   XY=     2.8073   YY=    34.7552   ZY=    -2.9531
   XZ=    -3.4577   YZ=    -1.6488   ZZ=    25.1822
   Eigenvalues:    22.5229    27.1866    36.1686
     13  H    Isotropic =    28.8038   Anisotropy =     7.0633
   XX=    32.0593   YX=     0.8530   ZX=     1.7733
   XY=     0.8385   YY=    28.4541   ZY=     4.3475
   XZ=     2.2094   YZ=     2.7819   ZZ=    25.8979
   Eigenvalues:    23.2338    29.6650    33.5127
     14  H    Isotropic =    30.0384   Anisotropy =    12.6222
   XX=    27.2302   YX=    -2.3606   ZX=    -0.7292
   XY=    -2.7451   YY=    35.7248   ZY=     4.6522
   XZ=    -1.0176   YZ=     4.7706   ZZ=    27.1602
   Eigenvalues:    25.0420    26.6200    38.4532
     15  H    Isotropic =    29.8504   Anisotropy =     8.9397
   XX=    27.0550   YX=     0.1231   ZX=    -1.0852
   XY=    -0.1449   YY=    26.9525   ZY=    -1.5698
   XZ=    -1.1162   YZ=    -0.5630   ZZ=    35.5438
   Eigenvalues:    26.7193    27.0218    35.8102
     16  H    Isotropic =    29.1073   Anisotropy =     5.8341
   XX=    29.2588   YX=    -2.0043   ZX=     1.3371
   XY=    -2.0051   YY=    28.3848   ZY=    -2.9348
   XZ=     1.8345   YZ=    -1.4819   ZZ=    29.6782
   Eigenvalues:    26.4551    27.8701    32.9967
     17  H    Isotropic =    28.1716   Anisotropy =     1.6078
   XX=    26.6679   YX=    -0.3758   ZX=    -0.3801
   XY=     0.3967   YY=    28.9592   ZY=    -0.5468
   XZ=    -0.5247   YZ=     1.1110   ZZ=    28.8876
   Eigenvalues:    26.5775    28.6938    29.2434
     18  H    Isotropic =    28.1624   Anisotropy =     3.8693
   XX=    27.4340   YX=     2.4394   ZX=     0.3247
   XY=     1.6944   YY=    29.3515   ZY=     1.2023
   XZ=    -0.5645   YZ=     0.0438   ZZ=    27.7016
   Eigenvalues:    25.9994    27.7458    30.7419
     19  O    Isotropic =   298.4610   Anisotropy =    43.3482
   XX=   274.7347   YX=    11.9617   ZX=    -7.1595
   XY=    27.3485   YY=   317.3133   ZY=     9.7081
   XZ=    13.1219   YZ=     4.1328   ZZ=   303.3352
   Eigenvalues:   267.0470   300.9763   327.3599
     20  H    Isotropic =    29.3461   Anisotropy =    18.7043
   XX=    26.3735   YX=     6.2491   ZX=     1.2043
   XY=     4.8022   YY=    37.0995   ZY=    -7.4375
   XZ=     0.4237   YZ=    -6.8752   ZZ=    24.5654
   Eigenvalues:    19.6915    26.5313    41.8156
     21  O    Isotropic =   293.6117   Anisotropy =    98.6010
   XX=   251.5223   YX=    -6.1337   ZX=   -20.8732
   XY=    -9.4588   YY=   273.3094   ZY=    30.1603
   XZ=    -8.5514   YZ=   -10.9243   ZZ=   356.0033
   Eigenvalues:   247.8132   273.6761   359.3457
     22  H    Isotropic =    30.9612   Anisotropy =    15.4037
   XX=    23.0300   YX=    -1.8245   ZX=    -1.1908
   XY=    -0.8757   YY=    28.7420   ZY=    -0.0148
   XZ=    -1.2508   YZ=     1.1852   ZZ=    41.1116
   Eigenvalues:    22.6653    28.9880    41.2303
     23  C    Isotropic =   125.8531   Anisotropy =    48.1932
   XX=   138.9367   YX=    17.0379   ZX=    -3.1238
   XY=    24.4311   YY=   133.2280   ZY=    15.4260
   XZ=    -1.9025   YZ=    11.3939   ZZ=   105.3946
   Eigenvalues:    96.9854   122.5921   157.9819
     24  H    Isotropic =    27.7770   Anisotropy =     5.5271
   XX=    30.2721   YX=    -0.1696   ZX=    -0.1704
   XY=    -1.7664   YY=    30.3031   ZY=    -1.8251
   XZ=     0.8643   YZ=    -1.1840   ZZ=    22.7559
   Eigenvalues:    22.4637    29.4056    31.4618
     25  H    Isotropic =    28.0478   Anisotropy =     6.0367
   XX=    28.2179   YX=     2.3094   ZX=    -1.2416
   XY=     1.8721   YY=    28.0301   ZY=     5.0829
   XZ=    -2.1898   YZ=     3.0794   ZZ=    27.8953
   Eigenvalues:    22.5932    29.4779    32.0722
     26  O    Isotropic =   308.6048   Anisotropy =    24.4362
   XX=   302.5792   YX=   -15.8312   ZX=     1.0142
   XY=     0.0811   YY=   316.5182   ZY=    -4.8605
   XZ=    17.2731   YZ=    -6.6639   ZZ=   306.7170
   Eigenvalues:   294.8890   306.0298   324.8956
     27  H    Isotropic =    29.9677   Anisotropy =    14.0411
   XX=    29.7189   YX=    -0.6433   ZX=     2.4775
   XY=    -1.7708   YY=    34.7226   ZY=    -7.6159
   XZ=     1.5187   YZ=    -7.3630   ZZ=    25.4616
   Eigenvalues:    21.1265    29.4482    39.3284
 End of Minotr Frequency-dependent properties file   721 does not exist.
 End of Minotr Frequency-dependent properties file   722 does not exist.

 **********************************************************************

            Population analysis using the SCF density.

 **********************************************************************

 Orbital symmetries:
       Occupied  (A) (A) (A) (A) (A) (A) (A) (A) (A) (A) (A) (A)
                 (A) (A) (A) (A) (A) (A) (A) (A) (A) (A) (A) (A)
                 (A) (A) (A) (A) (A) (A) (A) (A) (A) (A) (A) (A)
                 (A) (A) (A) (A) (A) (A) (A) (A) (A) (A) (A)
       Virtual   (A) (A) (A) (A) (A) (A) (A) (A) (A) (A) (A) (A)
                 (A) (A) (A) (A) (A) (A) (A) (A) (A) (A) (A) (A)
                 (A) (A) (A) (A) (A) (A) (A) (A) (A) (A) (A) (A)
                 (A) (A) (A) (A) (A) (A) (A) (A) (A) (A) (A) (A)
                 (A) (A) (A) (A) (A) (A) (A) (A) (A) (A) (A) (A)
                 (A) (A) (A) (A) (A) (A) (A) (A) (A) (A) (A) (A)
                 (A) (A) (A) (A) (A) (A) (A) (A) (A) (A) (A) (A)
                 (A) (A) (A) (A) (A) (A) (A) (A) (A) (A) (A) (A)
                 (A) (A) (A) (A) (A) (A) (A) (A) (A) (A) (A) (A)
                 (A) (A) (A) (A) (A) (A) (A) (A) (A) (A) (A) (A)
                 (A) (A) (A) (A) (A) (A) (A) (A) (A) (A) (A) (A)
                 (A) (A) (A) (A) (A) (A) (A) (A) (A) (A) (A) (A)
                 (A) (A) (A) (A) (A) (A) (A) (A) (A) (A) (A) (A)
                 (A) (A) (A) (A) (A) (A) (A) (A) (A) (A) (A) (A)
                 (A) (A) (A) (A) (A) (A) (A) (A) (A) (A) (A) (A)
                 (A) (A) (A) (A) (A) (A) (A) (A) (A) (A) (A) (A)
                 (A) (A) (A) (A) (A) (A) (A) (A) (A) (A) (A) (A)
                 (A) (A) (A) (A) (A) (A) (A) (A) (A) (A) (A) (A)
                 (A) (A) (A) (A) (A) (A) (A) (A) (A) (A) (A) (A)
                 (A) (A) (A) (A) (A) (A) (A) (A) (A) (A) (A) (A)
                 (A) (A) (A) (A) (A) (A) (A) (A) (A) (A) (A) (A)
                 (A) (A) (A) (A)
 The electronic state is 1-A.
 Alpha  occ. eigenvalues --  -19.26602 -19.26174 -19.25591 -14.41758 -10.30773
 Alpha  occ. eigenvalues --  -10.30544 -10.29453 -10.28308 -10.28074 -10.27030
 Alpha  occ. eigenvalues --  -10.24796 -10.24620  -1.07713  -1.05902  -1.05660
 Alpha  occ. eigenvalues --   -0.96748  -0.82976  -0.79656  -0.75550  -0.71797
 Alpha  occ. eigenvalues --   -0.66382  -0.63395  -0.60539  -0.57993  -0.56016
 Alpha  occ. eigenvalues --   -0.53667  -0.52224  -0.50476  -0.48820  -0.46989
 Alpha  occ. eigenvalues --   -0.45834  -0.45034  -0.43702  -0.43022  -0.40400
 Alpha  occ. eigenvalues --   -0.39856  -0.39018  -0.37415  -0.36940  -0.35938
 Alpha  occ. eigenvalues --   -0.35152  -0.34916  -0.33263  -0.32331  -0.30371
 Alpha  occ. eigenvalues --   -0.28223  -0.23608
 Alpha virt. eigenvalues --    0.00705   0.01039   0.01889   0.02312   0.03385
 Alpha virt. eigenvalues --    0.04059   0.04380   0.04755   0.05425   0.07041
 Alpha virt. eigenvalues --    0.07662   0.08048   0.08264   0.09091   0.09354
 Alpha virt. eigenvalues --    0.10268   0.11171   0.11716   0.12257   0.12476
 Alpha virt. eigenvalues --    0.13367   0.13562   0.14293   0.14357   0.14851
 Alpha virt. eigenvalues --    0.15291   0.15799   0.16405   0.17182   0.17987
 Alpha virt. eigenvalues --    0.18812   0.19017   0.19939   0.20474   0.21073
 Alpha virt. eigenvalues --    0.21537   0.22162   0.22631   0.22779   0.23359
 Alpha virt. eigenvalues --    0.23720   0.24331   0.24992   0.25175   0.25949
 Alpha virt. eigenvalues --    0.26408   0.26764   0.27320   0.27997   0.29008
 Alpha virt. eigenvalues --    0.29243   0.30039   0.30629   0.31002   0.31513
 Alpha virt. eigenvalues --    0.32107   0.32847   0.33190   0.33530   0.34932
 Alpha virt. eigenvalues --    0.35151   0.35560   0.35886   0.36710   0.38434
 Alpha virt. eigenvalues --    0.39277   0.39695   0.40347   0.40601   0.41240
 Alpha virt. eigenvalues --    0.42357   0.42665   0.44070   0.44849   0.46308
 Alpha virt. eigenvalues --    0.47295   0.62996   0.63942   0.66875   0.68008
 Alpha virt. eigenvalues --    0.69111   0.71090   0.71801   0.72750   0.73118
 Alpha virt. eigenvalues --    0.76860   0.78410   0.78719   0.79275   0.82251
 Alpha virt. eigenvalues --    0.83027   0.84056   0.85491   0.87017   0.88108
 Alpha virt. eigenvalues --    0.89826   0.90922   0.92669   0.95275   0.96417
 Alpha virt. eigenvalues --    0.98383   1.00163   1.03196   1.03595   1.04475
 Alpha virt. eigenvalues --    1.05132   1.05914   1.06743   1.08020   1.10950
 Alpha virt. eigenvalues --    1.11426   1.13026   1.13873   1.14172   1.15897
 Alpha virt. eigenvalues --    1.16791   1.19209   1.19600   1.22956   1.24676
 Alpha virt. eigenvalues --    1.26453   1.28020   1.29703   1.30826   1.31899
 Alpha virt. eigenvalues --    1.33686   1.37160   1.37354   1.38697   1.40625
 Alpha virt. eigenvalues --    1.42426   1.45330   1.48039   1.48666   1.49969
 Alpha virt. eigenvalues --    1.53154   1.55437   1.56455   1.60095   1.61285
 Alpha virt. eigenvalues --    1.62398   1.64435   1.64573   1.69300   1.71050
 Alpha virt. eigenvalues --    1.71942   1.72938   1.75155   1.78586   1.78892
 Alpha virt. eigenvalues --    1.81195   1.81904   1.83231   1.84998   1.85820
 Alpha virt. eigenvalues --    1.88171   1.89576   1.90948   1.92285   1.93805
 Alpha virt. eigenvalues --    1.96097   2.00077   2.01014   2.01406   2.04201
 Alpha virt. eigenvalues --    2.04783   2.05648   2.08266   2.09656   2.10342
 Alpha virt. eigenvalues --    2.12406   2.15537   2.16128   2.17518   2.18341
 Alpha virt. eigenvalues --    2.19368   2.24428   2.26797   2.28465   2.29114
 Alpha virt. eigenvalues --    2.30267   2.32947   2.34489   2.36326   2.39544
 Alpha virt. eigenvalues --    2.41745   2.43080   2.43170   2.43671   2.44980
 Alpha virt. eigenvalues --    2.47604   2.49031   2.50631   2.51481   2.53370
 Alpha virt. eigenvalues --    2.55582   2.56415   2.58776   2.61507   2.61985
 Alpha virt. eigenvalues --    2.63293   2.66562   2.67339   2.68717   2.69343
 Alpha virt. eigenvalues --    2.71546   2.71964   2.73760   2.75794   2.79579
 Alpha virt. eigenvalues --    2.80487   2.81429   2.82169   2.85647   2.85836
 Alpha virt. eigenvalues --    2.87056   2.87285   2.88212   2.93976   2.96132
 Alpha virt. eigenvalues --    2.96315   2.99352   3.01397   3.02400   3.04081
 Alpha virt. eigenvalues --    3.06306   3.08994   3.10764   3.18031   3.32216
 Alpha virt. eigenvalues --    3.33780   3.36344   3.37328   3.38899   3.41959
 Alpha virt. eigenvalues --    3.46175   3.50665   3.53290   3.55184   3.55922
 Alpha virt. eigenvalues --    3.56859   3.58070   3.60593   3.61218   4.31208
 Alpha virt. eigenvalues --    4.34721   4.37441   4.40582   4.47960   4.54572
 Alpha virt. eigenvalues --    4.56822   4.65930   4.75681   4.81295   4.88052
 Alpha virt. eigenvalues --    4.92897
          Condensed to atoms (all electrons):
              1          2          3          4          5          6
     1  C    5.938875  -0.720274   0.145028  -0.031896   0.263245  -0.144343
     2  C   -0.720274   8.874971  -0.520482  -0.245237  -0.020206  -0.292619
     3  N    0.145028  -0.520482   7.526724   0.157480  -0.109025  -0.398460
     4  C   -0.031896  -0.245237   0.157480   5.850273   0.035218  -0.275001
     5  C    0.263245  -0.020206  -0.109025   0.035218   5.463121   0.082098
     6  C   -0.144343  -0.292619  -0.398460  -0.275001   0.082098   9.406069
     7  C   -0.049858   0.235639   0.024077  -0.190232   0.029357  -1.494052
     8  C    0.058574  -0.872939  -0.002389   0.114769  -0.092044   0.736027
     9  H    0.429547  -0.073731   0.010610  -0.001088  -0.050959   0.010364
    10  H    0.415683  -0.144997   0.019569   0.024540  -0.022395   0.002288
    11  H    0.058584   0.133910   0.011136  -0.007106   0.017288   0.015002
    12  H    0.010005  -0.043688  -0.027655   0.375722  -0.034442   0.018250
    13  H    0.016439   0.035787  -0.073471   0.406360  -0.038263   0.022868
    14  H   -0.038097   0.025662   0.010737  -0.022548   0.357183   0.000666
    15  H   -0.054109   0.001355   0.012988  -0.078659   0.421840   0.011247
    16  H    0.006610   0.052579  -0.062695   0.058867  -0.019058   0.255723
    17  H    0.019007  -0.006981   0.049749   0.010906  -0.002810  -0.196861
    18  H    0.080574  -0.257607   0.055495   0.012471  -0.014436  -0.000696
    19  O    0.007927  -0.192814   0.027213   0.005507  -0.002803   0.002577
    20  H   -0.009590   0.056727  -0.003781  -0.002246   0.002462   0.012944
    21  O   -0.003323   0.017858  -0.000382  -0.004169   0.000643  -0.007796
    22  H    0.008372  -0.002189   0.010460   0.004172  -0.003370  -0.090668
    23  C    0.115555  -0.178713   0.286967   0.077116  -0.033620  -1.252704
    24  H    0.000248   0.012790   0.012028  -0.004170   0.001066  -0.147718
    25  H    0.002670   0.004302   0.011175   0.010894  -0.001319  -0.135156
    26  O    0.004526   0.008008   0.020655  -0.011892   0.003498  -0.121237
    27  H   -0.000462   0.014975   0.026426  -0.003362   0.006128  -0.078312
              7          8          9         10         11         12
     1  C   -0.049858   0.058574   0.429547   0.415683   0.058584   0.010005
     2  C    0.235639  -0.872939  -0.073731  -0.144997   0.133910  -0.043688
     3  N    0.024077  -0.002389   0.010610   0.019569   0.011136  -0.027655
     4  C   -0.190232   0.114769  -0.001088   0.024540  -0.007106   0.375722
     5  C    0.029357  -0.092044  -0.050959  -0.022395   0.017288  -0.034442
     6  C   -1.494052   0.736027   0.010364   0.002288   0.015002   0.018250
     7  C    7.333281  -0.586021  -0.004425  -0.000868  -0.033339   0.003798
     8  C   -0.586021   6.226349   0.009024   0.033975   0.058150   0.008624
     9  H   -0.004425   0.009024   0.519230  -0.023268  -0.006064   0.001554
    10  H   -0.000868   0.033975  -0.023268   0.512237   0.002556  -0.000021
    11  H   -0.033339   0.058150  -0.006064   0.002556   0.554712   0.000641
    12  H    0.003798   0.008624   0.001554  -0.000021   0.000641   0.547783
    13  H    0.000821  -0.008956  -0.000104  -0.000140  -0.000192  -0.031367
    14  H    0.003280   0.004252  -0.004699   0.000510  -0.000059  -0.002836
    15  H    0.008904   0.005096   0.004152  -0.004957  -0.000086   0.004099
    16  H   -0.019092  -0.041062   0.000001  -0.000011  -0.000508  -0.000327
    17  H    0.467287  -0.091034   0.000006  -0.000006   0.000973   0.000009
    18  H   -0.089818   0.507359   0.000176   0.000329   0.004335   0.000018
    19  O   -0.069255   0.312366  -0.000371   0.004290   0.007884   0.000067
    20  H   -0.053190  -0.000840   0.000006  -0.000113  -0.000093   0.000000
    21  O    0.266982  -0.087675   0.000018  -0.000065  -0.000605   0.000000
    22  H    0.089751  -0.056418   0.000000   0.000000   0.000005   0.000001
    23  C    0.145904  -0.122478   0.000442   0.000072   0.011872   0.002241
    24  H    0.022796  -0.008902   0.000000   0.000000  -0.000007  -0.000005
    25  H    0.008143  -0.009715   0.000000   0.000000  -0.000037   0.000014
    26  O    0.035998  -0.017729  -0.000017   0.000002   0.000130  -0.000025
    27  H    0.008944  -0.005240   0.000000   0.000000  -0.000026  -0.000732
             13         14         15         16         17         18
     1  C    0.016439  -0.038097  -0.054109   0.006610   0.019007   0.080574
     2  C    0.035787   0.025662   0.001355   0.052579  -0.006981  -0.257607
     3  N   -0.073471   0.010737   0.012988  -0.062695   0.049749   0.055495
     4  C    0.406360  -0.022548  -0.078659   0.058867   0.010906   0.012471
     5  C   -0.038263   0.357183   0.421840  -0.019058  -0.002810  -0.014436
     6  C    0.022868   0.000666   0.011247   0.255723  -0.196861  -0.000696
     7  C    0.000821   0.003280   0.008904  -0.019092   0.467287  -0.089818
     8  C   -0.008956   0.004252   0.005096  -0.041062  -0.091034   0.507359
     9  H   -0.000104  -0.004699   0.004152   0.000001   0.000006   0.000176
    10  H   -0.000140   0.000510  -0.004957  -0.000011  -0.000006   0.000329
    11  H   -0.000192  -0.000059  -0.000086  -0.000508   0.000973   0.004335
    12  H   -0.031367  -0.002836   0.004099  -0.000327   0.000009   0.000018
    13  H    0.524690   0.000853  -0.005937   0.003346  -0.000014  -0.000046
    14  H    0.000853   0.513934  -0.022874  -0.000116   0.000000  -0.000055
    15  H   -0.005937  -0.022874   0.521873   0.000116   0.000004  -0.000062
    16  H    0.003346  -0.000116   0.000116   0.567613   0.004122   0.000405
    17  H   -0.000014   0.000000   0.000004   0.004122   0.531955   0.004545
    18  H   -0.000046  -0.000055  -0.000062   0.000405   0.004545   0.566191
    19  O   -0.000015  -0.000003  -0.000063  -0.001083  -0.003097  -0.043771
    20  H    0.000000   0.000000  -0.000002   0.000016  -0.000099  -0.005147
    21  O    0.000040  -0.000008  -0.000027  -0.005443  -0.058345  -0.011096
    22  H   -0.000007   0.000000   0.000021   0.004612   0.007121   0.005259
    23  C   -0.026235  -0.001033   0.000487   0.025986   0.074798   0.018120
    24  H   -0.000020   0.000000   0.000000  -0.002729   0.000213  -0.000009
    25  H    0.000025   0.000000   0.000001   0.004549   0.003660  -0.000004
    26  O    0.002143   0.000027  -0.000176   0.000297   0.000108   0.000013
    27  H   -0.000165  -0.000005   0.000001   0.000334   0.000022   0.000000
             19         20         21         22         23         24
     1  C    0.007927  -0.009590  -0.003323   0.008372   0.115555   0.000248
     2  C   -0.192814   0.056727   0.017858  -0.002189  -0.178713   0.012790
     3  N    0.027213  -0.003781  -0.000382   0.010460   0.286967   0.012028
     4  C    0.005507  -0.002246  -0.004169   0.004172   0.077116  -0.004170
     5  C   -0.002803   0.002462   0.000643  -0.003370  -0.033620   0.001066
     6  C    0.002577   0.012944  -0.007796  -0.090668  -1.252704  -0.147718
     7  C   -0.069255  -0.053190   0.266982   0.089751   0.145904   0.022796
     8  C    0.312366  -0.000840  -0.087675  -0.056418  -0.122478  -0.008902
     9  H   -0.000371   0.000006   0.000018   0.000000   0.000442   0.000000
    10  H    0.004290  -0.000113  -0.000065   0.000000   0.000072   0.000000
    11  H    0.007884  -0.000093  -0.000605   0.000005   0.011872  -0.000007
    12  H    0.000067   0.000000   0.000000   0.000001   0.002241  -0.000005
    13  H   -0.000015   0.000000   0.000040  -0.000007  -0.026235  -0.000020
    14  H   -0.000003   0.000000  -0.000008   0.000000  -0.001033   0.000000
    15  H   -0.000063  -0.000002  -0.000027   0.000021   0.000487   0.000000
    16  H   -0.001083   0.000016  -0.005443   0.004612   0.025986  -0.002729
    17  H   -0.003097  -0.000099  -0.058345   0.007121   0.074798   0.000213
    18  H   -0.043771  -0.005147  -0.011096   0.005259   0.018120  -0.000009
    19  O    8.260749   0.234763  -0.006433  -0.001638   0.003187   0.000012
    20  H    0.234763   0.374451   0.009211   0.000033  -0.001081   0.000000
    21  O   -0.006433   0.009211   8.192310   0.249395  -0.031493   0.005654
    22  H   -0.001638   0.000033   0.249395   0.372748   0.027257  -0.000103
    23  C    0.003187  -0.001081  -0.031493   0.027257   6.019512   0.486508
    24  H    0.000012   0.000000   0.005654  -0.000103   0.486508   0.540390
    25  H   -0.000095   0.000001  -0.000560   0.000046   0.460461  -0.033915
    26  O    0.000141   0.000000  -0.000625   0.000046   0.197899  -0.059894
    27  H   -0.000004   0.000000   0.000094   0.000000   0.027761   0.006686
             25         26         27
     1  C    0.002670   0.004526  -0.000462
     2  C    0.004302   0.008008   0.014975
     3  N    0.011175   0.020655   0.026426
     4  C    0.010894  -0.011892  -0.003362
     5  C   -0.001319   0.003498   0.006128
     6  C   -0.135156  -0.121237  -0.078312
     7  C    0.008143   0.035998   0.008944
     8  C   -0.009715  -0.017729  -0.005240
     9  H    0.000000  -0.000017   0.000000
    10  H    0.000000   0.000002   0.000000
    11  H   -0.000037   0.000130  -0.000026
    12  H    0.000014  -0.000025  -0.000732
    13  H    0.000025   0.002143  -0.000165
    14  H    0.000000   0.000027  -0.000005
    15  H    0.000001  -0.000176   0.000001
    16  H    0.004549   0.000297   0.000334
    17  H    0.003660   0.000108   0.000022
    18  H   -0.000004   0.000013   0.000000
    19  O   -0.000095   0.000141  -0.000004
    20  H    0.000001   0.000000   0.000000
    21  O   -0.000560  -0.000625   0.000094
    22  H    0.000046   0.000046   0.000000
    23  C    0.460461   0.197899   0.027761
    24  H   -0.033915  -0.059894   0.006686
    25  H    0.563370  -0.043334  -0.006301
    26  O   -0.043334   8.270527   0.252580
    27  H   -0.006301   0.252580   0.372701
 Mulliken atomic charges:
              1
     1  C   -0.529518
     2  C    0.097917
     3  N   -0.220177
     4  C   -0.266691
     5  C   -0.238395
     6  C    0.059497
     7  C   -0.094812
     8  C   -0.071127
     9  H    0.179594
    10  H    0.180790
    11  H    0.170945
    12  H    0.168275
    13  H    0.171560
    14  H    0.175229
    15  H    0.174771
    16  H    0.166948
    17  H    0.184761
    18  H    0.167458
    19  O   -0.545239
    20  H    0.385569
    21  O   -0.524159
    22  H    0.375094
    23  C   -0.334785
    24  H    0.169081
    25  H    0.161126
    26  O   -0.541670
    27  H    0.377956
 Sum of Mulliken atomic charges =   0.00000
 Mulliken charges with hydrogens summed into heavy atoms:
              1
     1  C   -0.169133
     2  C    0.268862
     3  N   -0.220177
     4  C    0.073144
     5  C    0.111605
     6  C    0.226446
     7  C    0.089949
     8  C    0.096331
    19  O   -0.159670
    21  O   -0.149065
    23  C   -0.004578
    26  O   -0.163714
 Sum of Mulliken charges with hydrogens summed into heavy atoms =   0.00000
 Electronic spatial extent (au):  <R**2>=           2104.8578
 Charge=              0.0000 electrons
 Dipole moment (field-independent basis, Debye):
    X=             -2.2577    Y=              1.5432    Z=              2.4077  Tot=              3.6436
 Quadrupole moment (field-independent basis, Debye-Ang):
   XX=            -87.8616   YY=            -71.9725   ZZ=            -69.8795
   XY=             -0.2758   XZ=             -5.9789   YZ=             -3.1093
 Traceless Quadrupole moment (field-independent basis, Debye-Ang):
   XX=            -11.2904   YY=              4.5987   ZZ=              6.6917
   XY=             -0.2758   XZ=             -5.9789   YZ=             -3.1093
 Octapole moment (field-independent basis, Debye-Ang**2):
  XXX=            -36.4499  YYY=             15.8615  ZZZ=             12.3879  XYY=             -8.1508
  XXY=             -7.0751  XXZ=              3.8868  XZZ=              4.2048  YZZ=            -10.1945
  YYZ=              0.4867  XYZ=              5.6036
 Hexadecapole moment (field-independent basis, Debye-Ang**3):
 XXXX=          -1569.0582 YYYY=          -1148.1675 ZZZZ=           -232.0184 XXXY=             -7.2172
 XXXZ=            -40.9528 YYYX=             75.7988 YYYZ=             -2.8838 ZZZX=             -2.0874
 ZZZY=            -29.8134 XXYY=           -363.0496 XXZZ=           -261.7537 YYZZ=           -217.2676
 XXYZ=            -31.4412 YYXZ=            -19.7410 ZZXY=              0.6454
 N-N= 7.997563502333D+02 E-N=-2.984910645391D+03  KE= 5.886639739138D+02
 1\1\GINC-COMPUTE-3-0\SP\RmPW1PW91\6-31+G(d,p)\C8H15N1O3\MAMICHETTI.IQU
 IR\17-May-2024\0\\# mpw1pw91/6-31+G** nmr scrf=(pcm,solvent=water)\\co
 mment\\0,1\C,0,-1.954616,1.624259,-0.158638\C,0,-1.140304,0.438827,-0.
 704836\N,0,0.309027,0.802853,-0.522178\C,0,0.351614,2.087535,0.225677\
 C,0,-1.021055,2.242344,0.891622\C,0,0.989231,-0.321354,0.167293\C,0,0.
 056062,-1.525441,-0.033384\C,0,-1.329225,-0.883105,0.042016\H,0,-2.152
 07,2.34739,-0.958778\H,0,-2.919862,1.30054,0.244362\H,0,-1.360197,0.26
 0812,-1.76511\H,0,0.523402,2.918675,-0.471184\H,0,1.184285,2.082664,0.
 933925\H,0,-1.26543,3.282586,1.129535\H,0,-1.057615,1.663708,1.822961\
 H,0,1.065339,-0.129487,1.251126\H,0,0.192557,-1.955832,-1.032802\H,0,-
 1.557376,-0.691379,1.103447\O,0,-2.37461,-1.649391,-0.550058\H,0,-2.42
 4977,-2.482898,-0.051754\O,0,0.266729,-2.60245,0.874944\H,0,0.131181,-
 2.25054,1.772589\C,0,2.396242,-0.565534,-0.366956\H,0,2.848656,-1.4059
 38,0.170041\H,0,2.347597,-0.828415,-1.433592\O,0,3.268732,0.552274,-0.
 166787\H,0,2.906825,1.279493,-0.701082\\Version=AM64L-G09RevC.01\State
 =1-A\HF=-594.1991262\RMSD=4.239e-09\Dipole=-0.8882512,0.6071518,0.9472
 501\Quadrupole=-8.3941554,3.4190099,4.9751455,-0.2050153,-4.4451862,-2
 .311683\PG=C01 [X(C8H15N1O3)]\\@


 ...THOSE SCIENCES ARE VAIN AND FULL OF ERRORS WHICH 
 ARE NOT BORN FROM EXPERIMENT, THE MOTHER OF CERTAINTY...

                          -- LEONARDO DA VINCI, 1452-1519
 Job cpu time:  0 days  0 hours  8 minutes 40.7 seconds.
 File lengths (MBytes):  RWF=    113 Int=      0 D2E=      0 Chk=      7 Scr=      1
 Normal termination of Gaussian 09 at Fri May 17 12:15:29 2024.
