 Entering Gaussian System, Link 0=g09
 Input=/home/mamichetti.iquir/Linux/02_Cardona_A1A3_R__R_R_R_041_OptB.gjc
 Output=/home/mamichetti.iquir/Linux/02_Cardona_A1A3_R__R_R_R_041_OptB.log
 Initial command:
 /opt/ohpc/pub/apps/software/Gaussian/09/AMD64.SSE4a-enabled/g09/l1.exe /local/mamichetti.iquir/Gau-713455.inp -scrdir=/local/mamichetti.iquir/
 Entering Link 1 = /opt/ohpc/pub/apps/software/Gaussian/09/AMD64.SSE4a-enabled/g09/l1.exe PID=    713456.
  
 Copyright (c) 1988,1990,1992,1993,1995,1998,2003,2009,2011,
            Gaussian, Inc.  All Rights Reserved.
  
 This is part of the Gaussian(R) 09 program.  It is based on
 the Gaussian(R) 03 system (copyright 2003, Gaussian, Inc.),
 the Gaussian(R) 98 system (copyright 1998, Gaussian, Inc.),
 the Gaussian(R) 94 system (copyright 1995, Gaussian, Inc.),
 the Gaussian 92(TM) system (copyright 1992, Gaussian, Inc.),
 the Gaussian 90(TM) system (copyright 1990, Gaussian, Inc.),
 the Gaussian 88(TM) system (copyright 1988, Gaussian, Inc.),
 the Gaussian 86(TM) system (copyright 1986, Carnegie Mellon
 University), and the Gaussian 82(TM) system (copyright 1983,
 Carnegie Mellon University). Gaussian is a federally registered
 trademark of Gaussian, Inc.
  
 This software contains proprietary and confidential information,
 including trade secrets, belonging to Gaussian, Inc.
  
 This software is provided under written license and may be
 used, copied, transmitted, or stored only in accord with that
 written license.
  
 The following legend is applicable only to US Government
 contracts under FAR:
  
                    RESTRICTED RIGHTS LEGEND
  
 Use, reproduction and disclosure by the US Government is
 subject to restrictions as set forth in subparagraphs (a)
 and (c) of the Commercial Computer Software - Restricted
 Rights clause in FAR 52.227-19.
  
 Gaussian, Inc.
 340 Quinnipiac St., Bldg. 40, Wallingford CT 06492
  
  
 ---------------------------------------------------------------
 Warning -- This program may not be used in any manner that
 competes with the business of Gaussian, Inc. or will provide
 assistance to any competitor of Gaussian, Inc.  The licensee
 of this program is prohibited from giving any competitor of
 Gaussian, Inc. access to this program.  By using this program,
 the user acknowledges that Gaussian, Inc. is engaged in the
 business of creating and licensing software in the field of
 computational chemistry and represents and warrants to the
 licensee that it is not a competitor of Gaussian, Inc. and that
 it will not use this program in any manner prohibited above.
 ---------------------------------------------------------------
  

 Cite this work as:
 Gaussian 09, Revision C.01,
 M. J. Frisch, G. W. Trucks, H. B. Schlegel, G. E. Scuseria, 
 M. A. Robb, J. R. Cheeseman, G. Scalmani, V. Barone, B. Mennucci, 
 G. A. Petersson, H. Nakatsuji, M. Caricato, X. Li, H. P. Hratchian, 
 A. F. Izmaylov, J. Bloino, G. Zheng, J. L. Sonnenberg, M. Hada, 
 M. Ehara, K. Toyota, R. Fukuda, J. Hasegawa, M. Ishida, T. Nakajima, 
 Y. Honda, O. Kitao, H. Nakai, T. Vreven, J. A. Montgomery, Jr., 
 J. E. Peralta, F. Ogliaro, M. Bearpark, J. J. Heyd, E. Brothers, 
 K. N. Kudin, V. N. Staroverov, T. Keith, R. Kobayashi, J. Normand, 
 K. Raghavachari, A. Rendell, J. C. Burant, S. S. Iyengar, J. Tomasi, 
 M. Cossi, N. Rega, J. M. Millam, M. Klene, J. E. Knox, J. B. Cross, 
 V. Bakken, C. Adamo, J. Jaramillo, R. Gomperts, R. E. Stratmann, 
 O. Yazyev, A. J. Austin, R. Cammi, C. Pomelli, J. W. Ochterski, 
 R. L. Martin, K. Morokuma, V. G. Zakrzewski, G. A. Voth, 
 P. Salvador, J. J. Dannenberg, S. Dapprich, A. D. Daniels, 
 O. Farkas, J. B. Foresman, J. V. Ortiz, J. Cioslowski, 
 and D. J. Fox, Gaussian, Inc., Wallingford CT, 2010.
 
 ******************************************
 Gaussian 09:  AM64L-G09RevC.01 23-Sep-2011
                17-May-2024 
 ******************************************
 %nprocshared=4
 Will use up to    4 processors via shared memory.
 ------------------------------------------------
 # mpw1pw91/6-31+G** nmr scrf=(pcm,solvent=water)
 ------------------------------------------------
 1/38=1/1;
 2/12=2,17=6,18=5,40=1/2;
 3/5=1,6=6,7=111,11=2,16=1,25=1,30=1,70=2201,72=1,74=-7/1,2,8,3;
 4//1;
 5/5=2,38=5,53=1/2;
 8/6=1,10=90,11=11/1;
 10/13=100,45=16/2;
 6/7=2,8=2,9=2,10=2,28=1/1;
 99/9=1/99;
 -------
 comment
 -------
 Charge =  0 Multiplicity = 1
 Symbolic Z-Matrix:
 6                    -2.54223   0.01702   0.2113 
 6                    -1.11015   0.32036   0.69867 
 7                    -0.28672  -0.91036   0.41258 
 6                    -1.19948  -1.90906  -0.19716 
 6                    -2.34525  -1.10324  -0.82107 
 6                     0.82982  -0.50766  -0.48039 
 6                     1.03923   0.97647  -0.1518 
 6                    -0.39524   1.47829  -0.02289 
 1                    -3.15465  -0.34644   1.04456 
 1                    -3.02865   0.91043  -0.19389 
 1                    -1.1033    0.53396   1.77532 
 1                    -1.59053  -2.5735    0.58409 
 1                    -0.65386  -2.5311   -0.91293 
 1                    -3.24697  -1.70151  -0.98583 
 1                    -2.03294  -0.68761  -1.78711 
 1                     0.5568   -0.57817  -1.54597 
 1                     1.54723   1.07365   0.8188 
 1                    -0.80336   1.60871  -1.03232 
 8                    -0.54816   2.74615   0.60721 
 1                    -0.22077   2.65544   1.51932 
 8                     1.74445   1.69971  -1.15545 
 1                     2.67505   1.42366  -1.10996 
 6                     2.05214  -1.39079  -0.23984 
 1                     1.85282  -2.40703  -0.61288 
 1                     2.91429  -0.99785  -0.79146 
 8                     2.40194  -1.42357   1.14387 
 1                     1.53695  -1.47678   1.59619 
 
                          Input orientation:                          
 ---------------------------------------------------------------------
 Center     Atomic      Atomic             Coordinates (Angstroms)
 Number     Number       Type             X           Y           Z
 ---------------------------------------------------------------------
      1          6           0       -2.542227    0.017016    0.211301
      2          6           0       -1.110152    0.320360    0.698671
      3          7           0       -0.286716   -0.910360    0.412584
      4          6           0       -1.199481   -1.909062   -0.197159
      5          6           0       -2.345249   -1.103239   -0.821068
      6          6           0        0.829816   -0.507660   -0.480392
      7          6           0        1.039233    0.976471   -0.151804
      8          6           0       -0.395242    1.478293   -0.022887
      9          1           0       -3.154647   -0.346444    1.044562
     10          1           0       -3.028650    0.910431   -0.193892
     11          1           0       -1.103299    0.533956    1.775316
     12          1           0       -1.590528   -2.573498    0.584093
     13          1           0       -0.653856   -2.531098   -0.912930
     14          1           0       -3.246972   -1.701511   -0.985829
     15          1           0       -2.032941   -0.687606   -1.787111
     16          1           0        0.556799   -0.578167   -1.545972
     17          1           0        1.547225    1.073651    0.818804
     18          1           0       -0.803357    1.608713   -1.032321
     19          8           0       -0.548158    2.746148    0.607211
     20          1           0       -0.220766    2.655436    1.519318
     21          8           0        1.744449    1.699705   -1.155450
     22          1           0        2.675052    1.423659   -1.109962
     23          6           0        2.052136   -1.390786   -0.239838
     24          1           0        1.852822   -2.407028   -0.612884
     25          1           0        2.914294   -0.997850   -0.791461
     26          8           0        2.401944   -1.423566    1.143870
     27          1           0        1.536945   -1.476778    1.596194
 ---------------------------------------------------------------------
                    Distance matrix (angstroms):
                    1          2          3          4          5
     1  C    0.000000
     2  C    1.542850   0.000000
     3  N    2.447013   1.508166   0.000000
     4  C    2.383188   2.404332   1.484026   0.000000
     5  C    1.536085   2.421096   2.407625   1.533427   0.000000
     6  C    3.482011   2.416461   1.485334   2.482377   3.248355
     7  C    3.725487   2.402841   2.374196   3.652424   4.028378
     8  C    2.607627   1.540309   2.430448   3.485878   3.332256
     9  H    1.096123   2.178125   2.990389   2.793979   2.169894
    10  H    1.094979   2.196699   3.346834   3.360865   2.217037
    11  H    2.187209   1.097650   2.147067   3.141376   3.311202
    12  H    2.784864   2.935695   2.120229   1.097610   2.169272
    13  H    3.364926   3.307004   2.125693   1.094058   2.215407
    14  H    2.209778   3.389912   3.368174   2.203928   1.094614
    15  H    2.179338   2.836661   2.817371   2.171303   1.097053
    16  H    3.611954   2.936750   2.158196   2.583621   3.036951
    17  H    4.267219   2.764694   2.732152   4.180090   4.751777
    18  H    2.665289   2.179521   2.949644   3.637190   3.126778
    19  O    3.403119   2.491716   3.671006   4.768880   4.481885
    20  H    3.749847   2.630028   3.734181   4.973813   4.911056
    21  O    4.803649   3.672752   3.660164   4.754813   4.969299
    22  H    5.562767   4.337763   4.066677   5.191555   5.627797
    23  C    4.826345   3.716031   2.475216   3.292939   4.444942
    24  H    5.086426   4.235332   2.805213   3.120473   4.400796
    25  H    5.639956   4.489358   3.421088   4.255191   5.260682
    26  O    5.233525   3.946429   2.833205   3.873542   5.147760
    27  H    4.559495   3.323007   2.246665   3.300153   4.588477
                    6          7          8          9         10
     6  C    0.000000
     7  C    1.534428   0.000000
     8  C    2.377832   1.525177   0.000000
     9  H    4.269358   4.557414   3.476123   0.000000
    10  H    4.120780   4.068637   2.699361   1.769005   0.000000
    11  H    3.148034   2.915485   2.150965   2.348858   2.779656
    12  H    3.355425   4.478780   4.267803   2.760121   3.848534
    13  H    2.546109   3.968489   4.115127   3.854665   4.242733
    14  H    4.277961   5.122376   4.378444   2.442789   2.738078
    15  H    3.152027   3.857672   3.238157   3.064798   2.466476
    16  H    1.102257   2.143209   2.730421   4.532041   4.110899
    17  H    2.168670   1.099809   2.155309   4.916832   4.689438
    18  H    2.729636   2.137797   1.096597   3.696572   2.478405
    19  O    3.697156   2.495530   1.424031   4.068069   3.188176
    20  H    3.886867   2.683127   1.947949   4.224255   3.723485
    21  O    2.482885   1.423974   2.431049   5.746992   4.932547
    22  H    2.744312   1.947806   3.257518   6.462246   5.799552
    23  C    1.527038   2.576359   3.777346   5.463600   5.577822
    24  H    2.161410   3.510354   4.527428   5.662851   5.916913
    25  H    2.163816   2.796955   4.204167   6.373959   6.270344
    26  O    2.438995   3.048923   4.195993   5.660897   6.060404
    27  H    2.398214   3.053137   3.884226   4.857261   5.454157
                   11         12         13         14         15
    11  H    0.000000
    12  H    3.363432   0.000000
    13  H    4.101612   1.766417   0.000000
    14  H    4.149285   2.443118   2.723560   0.000000
    15  H    3.879089   3.061850   2.462627   1.773112   0.000000
    16  H    3.876041   3.623470   2.383352   4.005538   2.603244
    17  H    2.869053   4.816874   4.564852   5.826023   4.765544
    18  H    3.021240   4.552287   4.144230   4.114729   2.711949
    19  O    2.562507   5.420858   5.492843   5.440868   4.441624
    20  H    2.311942   5.485676   5.744870   5.866572   5.039085
    21  O    4.249474   5.692833   4.869330   6.042460   4.512973
    22  H    4.836563   6.086235   5.173060   6.697198   5.203957
    23  C    4.209780   3.917483   3.012600   5.360373   4.424519
    24  H    4.805365   3.649264   2.527619   5.161854   4.408444
    25  H    5.007577   4.966713   3.885524   6.204363   5.055957
    26  O    4.064154   4.192318   3.846423   6.043436   5.366609
    27  H    3.323556   3.465289   3.493838   5.440883   4.981328
                   16         17         18         19         20
    16  H    0.000000
    17  H    3.049854   0.000000
    18  H    2.626082   3.039439   0.000000
    19  O    4.111958   2.689358   2.011703   0.000000
    20  H    4.522919   2.473571   2.818848   0.973321   0.000000
    21  O    2.598407   2.080509   2.552402   3.075396   3.453965
    22  H    2.946932   2.261556   3.484193   3.884166   4.100750
    23  C    2.145313   2.729305   4.216499   4.959158   4.963127
    24  H    2.427975   3.776009   4.832948   5.814513   5.871507
    25  H    2.510618   2.958538   4.546770   5.287947   5.339925
    26  O    3.369645   2.659381   4.919805   5.135915   4.863931
    27  H    3.411949   2.666295   4.680423   4.812364   4.491175
                   21         22         23         24         25
    21  O    0.000000
    22  H    0.971747   0.000000
    23  C    3.237924   3.011020   0.000000
    24  H    4.143836   3.949343   1.100744   0.000000
    25  H    2.962740   2.454055   1.096359   1.773244   0.000000
    26  O    3.933700   3.641571   1.427616   2.086844   2.046764
    27  H    4.207689   4.126876   1.908882   2.417678   2.797742
                   26         27
    26  O    0.000000
    27  H    0.977574   0.000000
 Stoichiometry    C8H15NO3
 Framework group  C1[X(C8H15NO3)]
 Deg. of freedom    75
 Full point group                 C1      NOp   1
 Largest Abelian subgroup         C1      NOp   1
 Largest concise Abelian subgroup C1      NOp   1
                         Standard orientation:                         
 ---------------------------------------------------------------------
 Center     Atomic      Atomic             Coordinates (Angstroms)
 Number     Number       Type             X           Y           Z
 ---------------------------------------------------------------------
      1          6           0       -2.542227    0.017016    0.211301
      2          6           0       -1.110152    0.320360    0.698671
      3          7           0       -0.286716   -0.910360    0.412584
      4          6           0       -1.199481   -1.909062   -0.197159
      5          6           0       -2.345249   -1.103239   -0.821068
      6          6           0        0.829816   -0.507660   -0.480392
      7          6           0        1.039233    0.976471   -0.151804
      8          6           0       -0.395242    1.478293   -0.022887
      9          1           0       -3.154647   -0.346444    1.044562
     10          1           0       -3.028650    0.910431   -0.193892
     11          1           0       -1.103299    0.533956    1.775316
     12          1           0       -1.590528   -2.573498    0.584093
     13          1           0       -0.653856   -2.531098   -0.912930
     14          1           0       -3.246972   -1.701511   -0.985829
     15          1           0       -2.032941   -0.687606   -1.787111
     16          1           0        0.556799   -0.578167   -1.545972
     17          1           0        1.547225    1.073651    0.818804
     18          1           0       -0.803357    1.608713   -1.032321
     19          8           0       -0.548158    2.746148    0.607211
     20          1           0       -0.220766    2.655436    1.519318
     21          8           0        1.744449    1.699705   -1.155450
     22          1           0        2.675052    1.423659   -1.109962
     23          6           0        2.052136   -1.390786   -0.239838
     24          1           0        1.852822   -2.407028   -0.612884
     25          1           0        2.914294   -0.997850   -0.791461
     26          8           0        2.401944   -1.423566    1.143870
     27          1           0        1.536945   -1.476778    1.596194
 ---------------------------------------------------------------------
 Rotational constants (GHZ):      1.0883591      0.9194900      0.6061089
 Standard basis: 6-31+G(d,p) (6D, 7F)
 There are   303 symmetry adapted basis functions of A   symmetry.
 Integral buffers will be    131072 words long.
 Raffenetti 2 integral format.
 Two-electron integral symmetry is turned on.
   303 basis functions,   489 primitive gaussians,   303 cartesian basis functions
    47 alpha electrons       47 beta electrons
       nuclear repulsion energy       805.0433881746 Hartrees.
 NAtoms=   27 NActive=   27 NUniq=   27 SFac= 1.00D+00 NAtFMM=   60 NAOKFM=F Big=F
 ------------------------------------------------------------------------------
 Polarizable Continuum Model (PCM)
 =================================
 Model                : PCM.
 Atomic radii         : UFF (Universal Force Field).
 Polarization charges : Total charges.
 Charge compensation  : None.
 Solution method      : Matrix inversion.
 Cavity type          : Scaled VdW (van der Waals Surface) (Alpha=1.100).
 Cavity algorithm     : GePol (No added spheres)
                        Default sphere list used, NSphG=   27.
                        Lebedev-Laikov grids with approx.  5.0 points / Ang**2.
                        Smoothing algorithm: Karplus/York (Gamma=1.0000).
                        Polarization charges: spherical gaussians, with
                                              point-specific exponents (IZeta= 3).
                        Self-potential: point-specific (ISelfS= 7).
                        Self-field    : sphere-specific E.n sum rule (ISelfD= 2).
 Solvent              : Water, Eps=  78.355300 Eps(inf)=   1.777849
 ------------------------------------------------------------------------------
 One-electron integrals computed using PRISM.
 NBasis=   303 RedAO= T  NBF=   303
 NBsUse=   303 1.00D-06 NBFU=   303
 Harris functional with IExCor=  908 diagonalized for initial guess.
 ExpMin= 4.38D-02 ExpMax= 5.48D+03 ExpMxC= 8.25D+02 IAcc=2 IRadAn=         4 AccDes= 0.00D+00
 HarFok:  IExCor=  908 AccDes= 0.00D+00 IRadAn=         4 IDoV= 1
 ScaDFX=  1.000000  1.000000  1.000000  1.000000
 FoFCou: FMM=F IPFlag=           0 FMFlag=      100000 FMFlg1=           0
         NFxFlg=           0 DoJE=T BraDBF=F KetDBF=T FulRan=T
         Omega=  0.000000  0.000000  1.000000  0.000000  0.000000 ICntrl=     500 IOpCl=  0
         NMat0=    1 NMatS0=    1 NMatT0=    0 NMatD0=    1 NMtDS0=    0 NMtDT0=    0
         I1Cent=           4 NGrid=           0.
 Petite list used in FoFCou.
 Initial guess orbital symmetries:
       Occupied  (A) (A) (A) (A) (A) (A) (A) (A) (A) (A) (A) (A)
                 (A) (A) (A) (A) (A) (A) (A) (A) (A) (A) (A) (A)
                 (A) (A) (A) (A) (A) (A) (A) (A) (A) (A) (A) (A)
                 (A) (A) (A) (A) (A) (A) (A) (A) (A) (A) (A)
       Virtual   (A) (A) (A) (A) (A) (A) (A) (A) (A) (A) (A) (A)
                 (A) (A) (A) (A) (A) (A) (A) (A) (A) (A) (A) (A)
                 (A) (A) (A) (A) (A) (A) (A) (A) (A) (A) (A) (A)
                 (A) (A) (A) (A) (A) (A) (A) (A) (A) (A) (A) (A)
                 (A) (A) (A) (A) (A) (A) (A) (A) (A) (A) (A) (A)
                 (A) (A) (A) (A) (A) (A) (A) (A) (A) (A) (A) (A)
                 (A) (A) (A) (A) (A) (A) (A) (A) (A) (A) (A) (A)
                 (A) (A) (A) (A) (A) (A) (A) (A) (A) (A) (A) (A)
                 (A) (A) (A) (A) (A) (A) (A) (A) (A) (A) (A) (A)
                 (A) (A) (A) (A) (A) (A) (A) (A) (A) (A) (A) (A)
                 (A) (A) (A) (A) (A) (A) (A) (A) (A) (A) (A) (A)
                 (A) (A) (A) (A) (A) (A) (A) (A) (A) (A) (A) (A)
                 (A) (A) (A) (A) (A) (A) (A) (A) (A) (A) (A) (A)
                 (A) (A) (A) (A) (A) (A) (A) (A) (A) (A) (A) (A)
                 (A) (A) (A) (A) (A) (A) (A) (A) (A) (A) (A) (A)
                 (A) (A) (A) (A) (A) (A) (A) (A) (A) (A) (A) (A)
                 (A) (A) (A) (A) (A) (A) (A) (A) (A) (A) (A) (A)
                 (A) (A) (A) (A) (A) (A) (A) (A) (A) (A) (A) (A)
                 (A) (A) (A) (A) (A) (A) (A) (A) (A) (A) (A) (A)
                 (A) (A) (A) (A) (A) (A) (A) (A) (A) (A) (A) (A)
                 (A) (A) (A) (A) (A) (A) (A) (A) (A) (A) (A) (A)
                 (A) (A) (A) (A)
 The electronic state of the initial guess is 1-A.
 Requested convergence on RMS density matrix=1.00D-08 within 128 cycles.
 Requested convergence on MAX density matrix=1.00D-06.
 Requested convergence on             energy=1.00D-06.
 No special actions if energy rises.
 Error on total polarization charges =  0.01434
 SCF Done:  E(RmPW1PW91) =  -594.201699698     A.U. after   13 cycles
             Convg  =    0.1647D-08             -V/T =  2.0094
 Range of M.O.s used for correlation:     1   303
 NBasis=   303 NAE=    47 NBE=    47 NFC=     0 NFV=     0
 NROrb=    303 NOA=    47 NOB=    47 NVA=   256 NVB=   256

 **** Warning!!: The largest alpha MO coefficient is  0.70849346D+02

 NEqPCM:  Using equilibrium solvation (IEInf=0, Eps=  78.3553, EpsInf=   1.7778)
          Differentiating once with respect to magnetic field using GIAOs.
          Electric field/nuclear overlap derivatives assumed to be zero.
 FoFCou: FMM=F IPFlag=           0 FMFlag=    10101102 FMFlg1=           0
         NFxFlg=    40000000 DoJE=F BraDBF=F KetDBF=T FulRan=T
         Omega=  0.000000  0.000000  1.000000  0.000000  0.000000 ICntrl=    6100 IOpCl=  0
         NMat0=    1 NMatS0=    1 NMatT0=    0 NMatD0=    1 NMtDS0=    0 NMtDT0=    0
         I1Cent=           7 NGrid=        1835.
 Symmetry not used in FoFCou.
          There are     3 degrees of freedom in the 1st order CPHF.  IDoFFX=0.
      3 vectors produced by pass  0 Test12= 4.01D-13 3.33D-08 XBig12= 2.81D+01 1.03D+00.
 AX will form     3 AO Fock derivatives at one time.
      3 vectors produced by pass  1 Test12= 4.01D-13 3.33D-08 XBig12= 7.45D-02 5.60D-02.
      3 vectors produced by pass  2 Test12= 4.01D-13 3.33D-08 XBig12= 1.48D-04 2.40D-03.
      3 vectors produced by pass  3 Test12= 4.01D-13 3.33D-08 XBig12= 6.05D-07 1.44D-04.
      3 vectors produced by pass  4 Test12= 4.01D-13 3.33D-08 XBig12= 2.24D-09 6.86D-06.
      3 vectors produced by pass  5 Test12= 4.01D-13 3.33D-08 XBig12= 6.24D-12 5.27D-07.
 Inverted reduced A of dimension    18 with in-core refinement.
 Calculating GIAO nuclear magnetic shielding tensors.
 SCF GIAO Magnetic shielding tensor (ppm):
      1  C    Isotropic =   163.0614   Anisotropy =    25.1355
   XX=   174.8456   YX=    -2.3657   ZX=    11.3458
   XY=     2.2174   YY=   162.0156   ZY=     6.0371
   XZ=     8.0072   YZ=    19.0925   ZZ=   152.3231
   Eigenvalues:   141.7001   167.6658   179.8184
      2  C    Isotropic =   126.4427   Anisotropy =    55.2644
   XX=   118.9250   YX=    -8.9459   ZX=     6.3429
   XY=   -15.1477   YY=   157.6925   ZY=    15.1613
   XZ=    -7.9648   YZ=     8.1132   ZZ=   102.7106
   Eigenvalues:   100.1921   115.8504   163.2857
      3  N    Isotropic =   204.9552   Anisotropy =    65.9765
   XX=   232.9527   YX=   -10.2964   ZX=   -14.5418
   XY=     2.0992   YY=   236.4136   ZY=    33.6179
   XZ=   -15.9581   YZ=    22.4399   ZZ=   145.4995
   Eigenvalues:   135.6530   230.2732   248.9396
      4  C    Isotropic =   142.4295   Anisotropy =    52.9368
   XX=   148.4581   YX=    20.8235   ZX=    12.7767
   XY=    11.8860   YY=   152.4384   ZY=    19.0142
   XZ=    27.0981   YZ=     8.0667   ZZ=   126.3919
   Eigenvalues:   114.2444   135.3233   177.7207
      5  C    Isotropic =   171.4782   Anisotropy =    18.4617
   XX=   175.6229   YX=    -4.9931   ZX=    10.8579
   XY=    -6.8712   YY=   179.2717   ZY=     7.6010
   XZ=    16.1480   YZ=    13.2710   ZZ=   159.5401
   Eigenvalues:   147.3512   183.2975   183.7860
      6  C    Isotropic =   124.7826   Anisotropy =    40.6932
   XX=   126.4138   YX=    19.1310   ZX=    -9.3072
   XY=    14.3040   YY=   128.3029   ZY=   -11.1051
   XZ=   -25.5908   YZ=     1.9084   ZZ=   119.6312
   Eigenvalues:   102.6214   119.8151   151.9114
      7  C    Isotropic =   120.2278   Anisotropy =    42.7163
   XX=   127.2870   YX=     8.2841   ZX=   -30.5833
   XY=     5.7099   YY=   121.9904   ZY=   -13.7694
   XZ=   -17.6260   YZ=    -2.0078   ZZ=   111.4061
   Eigenvalues:    93.7671   118.2110   148.7054
      8  C    Isotropic =   113.2617   Anisotropy =    30.5897
   XX=   118.6207   YX=    -7.6826   ZX=   -14.8307
   XY=     2.8650   YY=   128.8925   ZY=    17.7586
   XZ=    -7.3538   YZ=     2.7944   ZZ=    92.2719
   Eigenvalues:    86.3516   119.7788   133.6548
      9  H    Isotropic =    29.6975   Anisotropy =    11.7022
   XX=    32.8897   YX=     1.3815   ZX=    -5.0670
   XY=     2.5618   YY=    25.3488   ZY=    -0.4315
   XZ=    -5.6181   YZ=     0.4788   ZZ=    30.8541
   Eigenvalues:    24.3813    27.2123    37.4990
     10  H    Isotropic =    29.6527   Anisotropy =     9.4056
   XX=    31.4492   YX=    -3.7159   ZX=     1.8665
   XY=    -4.0991   YY=    32.1125   ZY=    -0.7535
   XZ=     1.1069   YZ=    -0.6456   ZZ=    25.3965
   Eigenvalues:    25.0424    27.9927    35.9232
     11  H    Isotropic =    28.5462   Anisotropy =     6.8154
   XX=    27.2139   YX=    -0.7894   ZX=    -1.0105
   XY=    -0.6643   YY=    26.7569   ZY=     2.7416
   XZ=    -0.7310   YZ=     2.7255   ZZ=    31.6676
   Eigenvalues:    25.4772    27.0714    33.0898
     12  H    Isotropic =    28.9418   Anisotropy =    11.9730
   XX=    27.5838   YX=     4.4067   ZX=    -0.4826
   XY=     3.8603   YY=    33.0385   ZY=    -4.7606
   XZ=     0.6518   YZ=    -4.7037   ZZ=    26.2031
   Eigenvalues:    22.7678    27.1338    36.9238
     13  H    Isotropic =    28.8459   Anisotropy =     8.6819
   XX=    28.7803   YX=    -1.2056   ZX=     0.6453
   XY=    -1.0805   YY=    32.4127   ZY=     4.8126
   XZ=    -0.0552   YZ=     3.9117   ZZ=    25.3446
   Eigenvalues:    23.1609    28.7429    34.6338
     14  H    Isotropic =    30.0119   Anisotropy =    12.7278
   XX=    34.1135   YX=     4.4987   ZX=     3.1154
   XY=     5.0133   YY=    29.3545   ZY=     2.7455
   XZ=     3.3803   YZ=     2.5237   ZZ=    26.5678
   Eigenvalues:    24.9512    26.5874    38.4971
     15  H    Isotropic =    29.8519   Anisotropy =     9.0784
   XX=    27.2739   YX=    -0.2666   ZX=     0.2537
   XY=    -0.0418   YY=    26.5984   ZY=    -1.5134
   XZ=     1.0738   YZ=    -0.9760   ZZ=    35.6834
   Eigenvalues:    26.4258    27.2258    35.9042
     16  H    Isotropic =    29.0952   Anisotropy =     4.0994
   XX=    29.9431   YX=     0.1740   ZX=    -1.8185
   XY=     0.2889   YY=    26.3917   ZY=    -0.1280
   XZ=    -0.6839   YZ=    -0.5728   ZZ=    30.9507
   Eigenvalues:    26.3593    29.0981    31.8281
     17  H    Isotropic =    27.6731   Anisotropy =     2.2600
   XX=    26.9933   YX=     1.2505   ZX=     0.2269
   XY=     0.7686   YY=    27.9710   ZY=    -1.6977
   XZ=     1.1527   YZ=    -0.5808   ZZ=    28.0550
   Eigenvalues:    25.7203    28.1193    29.1798
     18  H    Isotropic =    28.0393   Anisotropy =     3.0654
   XX=    26.7133   YX=     0.5932   ZX=     0.6475
   XY=     0.8741   YY=    29.9206   ZY=     0.8276
   XZ=     0.8181   YZ=    -0.9858   ZZ=    27.4841
   Eigenvalues:    26.1503    27.8847    30.0829
     19  O    Isotropic =   289.0740   Anisotropy =    86.1826
   XX=   255.9978   YX=     5.3502   ZX=    33.0580
   XY=    -5.0977   YY=   276.6216   ZY=    -3.1395
   XZ=    25.4413   YZ=    29.3721   ZZ=   334.6025
   Eigenvalues:   245.7604   274.9325   346.5290
     20  H    Isotropic =    30.7814   Anisotropy =    15.8395
   XX=    24.3679   YX=    -1.0201   ZX=     4.5971
   XY=    -0.1605   YY=    28.7938   ZY=     3.9268
   XZ=     4.8437   YZ=     2.9116   ZZ=    39.1824
   Eigenvalues:    22.5823    28.4208    41.3410
     21  O    Isotropic =   302.4456   Anisotropy =    35.9787
   XX=   323.2032   YX=    -5.8985   ZX=    -1.9779
   XY=    -5.0160   YY=   269.9882   ZY=     4.8531
   XZ=   -10.6104   YZ=   -24.4939   ZZ=   314.1454
   Eigenvalues:   267.1081   313.7973   326.4314
     22  H    Isotropic =    29.7597   Anisotropy =    19.6407
   XX=    42.4158   YX=    -1.3815   ZX=    -2.8043
   XY=    -1.2344   YY=    24.6633   ZY=    -3.7308
   XZ=    -2.9189   YZ=    -2.8349   ZZ=    22.1999
   Eigenvalues:    19.5059    26.9197    42.8535
     23  C    Isotropic =   136.0554   Anisotropy =    54.7273
   XX=   120.1709   YX=    -3.6030   ZX=    13.7107
   XY=    -3.2444   YY=   120.3399   ZY=    -2.2300
   XZ=    18.0466   YZ=     0.4814   ZZ=   167.6555
   Eigenvalues:   113.9160   121.7100   172.5403
     24  H    Isotropic =    27.9617   Anisotropy =     7.9744
   XX=    26.0308   YX=    -1.4690   ZX=     1.6636
   XY=    -1.9369   YY=    29.6070   ZY=     3.2725
   XZ=     1.3023   YZ=     5.2888   ZZ=    28.2474
   Eigenvalues:    22.9617    27.6454    33.2780
     25  H    Isotropic =    28.1279   Anisotropy =     6.6064
   XX=    29.7508   YX=    -1.5054   ZX=    -2.0922
   XY=    -0.3640   YY=    25.6849   ZY=    -1.1746
   XZ=    -4.2224   YZ=    -0.9824   ZZ=    28.9479
   Eigenvalues:    24.4784    27.3730    32.5321
     26  O    Isotropic =   331.3214   Anisotropy =    47.8244
   XX=   351.1815   YX=    -0.5590   ZX=   -24.1048
   XY=    -0.1506   YY=   317.0268   ZY=    22.3808
   XZ=   -15.9149   YZ=     4.1070   ZZ=   325.7558
   Eigenvalues:   304.0487   326.7111   363.2043
     27  H    Isotropic =    28.7335   Anisotropy =    16.5238
   XX=    37.7236   YX=    -0.5605   ZX=    -3.8833
   XY=    -2.1934   YY=    18.9896   ZY=    -4.6281
   XZ=    -5.2218   YZ=    -3.1280   ZZ=    29.4872
   Eigenvalues:    17.3251    29.1260    39.7494
 End of Minotr Frequency-dependent properties file   721 does not exist.
 End of Minotr Frequency-dependent properties file   722 does not exist.

 **********************************************************************

            Population analysis using the SCF density.

 **********************************************************************

 Orbital symmetries:
       Occupied  (A) (A) (A) (A) (A) (A) (A) (A) (A) (A) (A) (A)
                 (A) (A) (A) (A) (A) (A) (A) (A) (A) (A) (A) (A)
                 (A) (A) (A) (A) (A) (A) (A) (A) (A) (A) (A) (A)
                 (A) (A) (A) (A) (A) (A) (A) (A) (A) (A) (A)
       Virtual   (A) (A) (A) (A) (A) (A) (A) (A) (A) (A) (A) (A)
                 (A) (A) (A) (A) (A) (A) (A) (A) (A) (A) (A) (A)
                 (A) (A) (A) (A) (A) (A) (A) (A) (A) (A) (A) (A)
                 (A) (A) (A) (A) (A) (A) (A) (A) (A) (A) (A) (A)
                 (A) (A) (A) (A) (A) (A) (A) (A) (A) (A) (A) (A)
                 (A) (A) (A) (A) (A) (A) (A) (A) (A) (A) (A) (A)
                 (A) (A) (A) (A) (A) (A) (A) (A) (A) (A) (A) (A)
                 (A) (A) (A) (A) (A) (A) (A) (A) (A) (A) (A) (A)
                 (A) (A) (A) (A) (A) (A) (A) (A) (A) (A) (A) (A)
                 (A) (A) (A) (A) (A) (A) (A) (A) (A) (A) (A) (A)
                 (A) (A) (A) (A) (A) (A) (A) (A) (A) (A) (A) (A)
                 (A) (A) (A) (A) (A) (A) (A) (A) (A) (A) (A) (A)
                 (A) (A) (A) (A) (A) (A) (A) (A) (A) (A) (A) (A)
                 (A) (A) (A) (A) (A) (A) (A) (A) (A) (A) (A) (A)
                 (A) (A) (A) (A) (A) (A) (A) (A) (A) (A) (A) (A)
                 (A) (A) (A) (A) (A) (A) (A) (A) (A) (A) (A) (A)
                 (A) (A) (A) (A) (A) (A) (A) (A) (A) (A) (A) (A)
                 (A) (A) (A) (A) (A) (A) (A) (A) (A) (A) (A) (A)
                 (A) (A) (A) (A) (A) (A) (A) (A) (A) (A) (A) (A)
                 (A) (A) (A) (A) (A) (A) (A) (A) (A) (A) (A) (A)
                 (A) (A) (A) (A) (A) (A) (A) (A) (A) (A) (A) (A)
                 (A) (A) (A) (A)
 The electronic state is 1-A.
 Alpha  occ. eigenvalues --  -19.26313 -19.26181 -19.24985 -14.42274 -10.30616
 Alpha  occ. eigenvalues --  -10.30585 -10.29605 -10.28380 -10.28236 -10.27222
 Alpha  occ. eigenvalues --  -10.24864 -10.24704  -1.07530  -1.05896  -1.05407
 Alpha  occ. eigenvalues --   -0.96989  -0.82891  -0.79712  -0.75470  -0.72036
 Alpha  occ. eigenvalues --   -0.66760  -0.62466  -0.60887  -0.58689  -0.55222
 Alpha  occ. eigenvalues --   -0.53145  -0.52631  -0.49870  -0.49476  -0.47499
 Alpha  occ. eigenvalues --   -0.45505  -0.45113  -0.43464  -0.42207  -0.41934
 Alpha  occ. eigenvalues --   -0.40603  -0.38610  -0.37500  -0.36110  -0.35999
 Alpha  occ. eigenvalues --   -0.35578  -0.34741  -0.33829  -0.30917  -0.30046
 Alpha  occ. eigenvalues --   -0.28679  -0.24355
 Alpha virt. eigenvalues --    0.00647   0.01400   0.01695   0.02165   0.03556
 Alpha virt. eigenvalues --    0.04000   0.04150   0.05035   0.05286   0.07215
 Alpha virt. eigenvalues --    0.07910   0.08167   0.08536   0.09105   0.09400
 Alpha virt. eigenvalues --    0.10069   0.11123   0.11989   0.12187   0.12251
 Alpha virt. eigenvalues --    0.13034   0.13366   0.13890   0.14585   0.15432
 Alpha virt. eigenvalues --    0.15612   0.16068   0.16603   0.17359   0.18261
 Alpha virt. eigenvalues --    0.18811   0.19161   0.19890   0.20358   0.20672
 Alpha virt. eigenvalues --    0.20954   0.21298   0.22028   0.22276   0.23638
 Alpha virt. eigenvalues --    0.24333   0.24907   0.25277   0.25502   0.25913
 Alpha virt. eigenvalues --    0.26373   0.26850   0.27144   0.27585   0.29502
 Alpha virt. eigenvalues --    0.29557   0.29979   0.30311   0.31329   0.31591
 Alpha virt. eigenvalues --    0.32164   0.32599   0.33500   0.34214   0.34419
 Alpha virt. eigenvalues --    0.35330   0.36339   0.36504   0.37329   0.38259
 Alpha virt. eigenvalues --    0.38631   0.39557   0.40318   0.41305   0.41896
 Alpha virt. eigenvalues --    0.42259   0.42473   0.45076   0.45831   0.46416
 Alpha virt. eigenvalues --    0.47710   0.63247   0.64163   0.65831   0.69128
 Alpha virt. eigenvalues --    0.69591   0.70651   0.72657   0.72833   0.75305
 Alpha virt. eigenvalues --    0.76334   0.78315   0.78539   0.80417   0.81721
 Alpha virt. eigenvalues --    0.82403   0.84058   0.85202   0.85585   0.87929
 Alpha virt. eigenvalues --    0.89559   0.90241   0.91900   0.94503   0.97674
 Alpha virt. eigenvalues --    0.98252   0.99976   1.01929   1.02866   1.04576
 Alpha virt. eigenvalues --    1.06701   1.07493   1.08693   1.09643   1.11067
 Alpha virt. eigenvalues --    1.12039   1.13548   1.13979   1.14502   1.15934
 Alpha virt. eigenvalues --    1.17704   1.18249   1.19483   1.23046   1.25802
 Alpha virt. eigenvalues --    1.27268   1.28535   1.30255   1.31729   1.32701
 Alpha virt. eigenvalues --    1.33183   1.34341   1.36368   1.37510   1.38427
 Alpha virt. eigenvalues --    1.40869   1.45306   1.46909   1.51249   1.52707
 Alpha virt. eigenvalues --    1.53369   1.55218   1.56097   1.57295   1.61273
 Alpha virt. eigenvalues --    1.62927   1.63712   1.66388   1.67354   1.71800
 Alpha virt. eigenvalues --    1.74169   1.75342   1.76164   1.78140   1.80143
 Alpha virt. eigenvalues --    1.82075   1.83337   1.83912   1.85741   1.86639
 Alpha virt. eigenvalues --    1.88420   1.90361   1.91773   1.93698   1.94230
 Alpha virt. eigenvalues --    1.95859   1.99768   2.01767   2.02903   2.03534
 Alpha virt. eigenvalues --    2.04789   2.05300   2.05972   2.09547   2.11890
 Alpha virt. eigenvalues --    2.13692   2.14911   2.16403   2.16735   2.18612
 Alpha virt. eigenvalues --    2.20255   2.22061   2.24820   2.26389   2.30870
 Alpha virt. eigenvalues --    2.31531   2.32024   2.34298   2.36975   2.40003
 Alpha virt. eigenvalues --    2.41950   2.43162   2.45049   2.45865   2.48088
 Alpha virt. eigenvalues --    2.48458   2.50207   2.51064   2.52886   2.54157
 Alpha virt. eigenvalues --    2.55386   2.56940   2.58158   2.60398   2.62967
 Alpha virt. eigenvalues --    2.63796   2.65395   2.68013   2.68756   2.69537
 Alpha virt. eigenvalues --    2.70983   2.73364   2.74477   2.74973   2.76908
 Alpha virt. eigenvalues --    2.78026   2.79255   2.81294   2.84421   2.85642
 Alpha virt. eigenvalues --    2.88056   2.88698   2.89506   2.93578   2.95023
 Alpha virt. eigenvalues --    2.97152   2.99908   3.00781   3.03027   3.05185
 Alpha virt. eigenvalues --    3.05891   3.07562   3.12840   3.20797   3.32677
 Alpha virt. eigenvalues --    3.33813   3.36406   3.38094   3.39010   3.43574
 Alpha virt. eigenvalues --    3.47757   3.50157   3.53080   3.54153   3.55794
 Alpha virt. eigenvalues --    3.56866   3.58059   3.62032   3.63643   4.29648
 Alpha virt. eigenvalues --    4.36609   4.38621   4.44210   4.49479   4.53872
 Alpha virt. eigenvalues --    4.57068   4.69676   4.78260   4.81867   4.87050
 Alpha virt. eigenvalues --    4.94834
          Condensed to atoms (all electrons):
              1          2          3          4          5          6
     1  C    6.171283  -1.111238   0.128167   0.072252   0.088562   0.167519
     2  C   -1.111238   9.172130  -0.424528  -0.306842   0.104437  -0.773423
     3  N    0.128167  -0.424528   7.596989   0.200219  -0.124471  -0.315047
     4  C    0.072252  -0.306842   0.200219   5.931134   0.025489  -0.393877
     5  C    0.088562   0.104437  -0.124471   0.025489   5.496517   0.056592
     6  C    0.167519  -0.773423  -0.315047  -0.393877   0.056592   8.707580
     7  C   -0.233350   0.803027  -0.166496  -0.208399   0.027108  -0.403983
     8  C    0.154367  -1.105696  -0.041490  -0.045979   0.049725   0.525485
     9  H    0.428876  -0.075470   0.013222  -0.001447  -0.042903   0.005730
    10  H    0.432536  -0.153680   0.018063   0.027815  -0.027682   0.008726
    11  H    0.076685   0.149599  -0.005235  -0.005816   0.007688   0.055773
    12  H    0.008755  -0.031039  -0.026248   0.377114  -0.035235   0.012817
    13  H    0.015177   0.027421  -0.063958   0.351287  -0.014269   0.046412
    14  H   -0.038375   0.027808   0.009951  -0.038431   0.368135   0.003837
    15  H   -0.054684  -0.002433   0.015998  -0.069474   0.424214   0.009129
    16  H    0.000593   0.070776  -0.021544   0.075911  -0.022480   0.129942
    17  H    0.009726  -0.013719   0.065482   0.013370  -0.001485  -0.228383
    18  H    0.073186  -0.249871   0.053388   0.012050  -0.011920   0.019452
    19  O   -0.019939  -0.035284   0.019134   0.006862  -0.006399  -0.008846
    20  H    0.025985  -0.121228   0.009489   0.000849  -0.001718   0.010350
    21  O   -0.002606   0.051930   0.009237  -0.000502   0.003538  -0.127249
    22  H   -0.001059  -0.005544  -0.002255  -0.000784   0.000772   0.015102
    23  C    0.123563  -0.170878   0.268948   0.195286  -0.088712  -1.209893
    24  H    0.007034  -0.018083  -0.014303   0.024800  -0.008511  -0.064610
    25  H   -0.001110   0.014240   0.014113  -0.000315   0.001404  -0.120089
    26  O    0.013664  -0.021920   0.037051   0.007951  -0.010784  -0.201441
    27  H   -0.000854   0.025985   0.053532   0.014209  -0.001350  -0.087781
              7          8          9         10         11         12
     1  C   -0.233350   0.154367   0.428876   0.432536   0.076685   0.008755
     2  C    0.803027  -1.105696  -0.075470  -0.153680   0.149599  -0.031039
     3  N   -0.166496  -0.041490   0.013222   0.018063  -0.005235  -0.026248
     4  C   -0.208399  -0.045979  -0.001447   0.027815  -0.005816   0.377114
     5  C    0.027108   0.049725  -0.042903  -0.027682   0.007688  -0.035235
     6  C   -0.403983   0.525485   0.005730   0.008726   0.055773   0.012817
     7  C    6.598286  -0.675143  -0.001905  -0.008395  -0.060495   0.003392
     8  C   -0.675143   6.863121   0.004802   0.029157   0.037298   0.003367
     9  H   -0.001905   0.004802   0.519092  -0.023797  -0.006775   0.001548
    10  H   -0.008395   0.029157  -0.023797   0.513147   0.002956  -0.000023
    11  H   -0.060495   0.037298  -0.006775   0.002956   0.564401   0.000794
    12  H    0.003392   0.003367   0.001548  -0.000023   0.000794   0.538372
    13  H    0.015488  -0.002074  -0.000115  -0.000138  -0.000167  -0.028206
    14  H    0.003087   0.005388  -0.005074   0.000627  -0.000054  -0.002643
    15  H    0.003564   0.004162   0.004129  -0.005107  -0.000121   0.003956
    16  H   -0.013217  -0.054319   0.000000  -0.000054  -0.000554  -0.000253
    17  H    0.473293  -0.095313   0.000006  -0.000006   0.000671   0.000014
    18  H   -0.119839   0.531119   0.000191   0.000774   0.004400   0.000017
    19  O   -0.068280   0.241514  -0.000479   0.004642   0.002563   0.000046
    20  H   -0.075184   0.134897   0.000012  -0.000009   0.005147   0.000000
    21  O    0.438806  -0.275274   0.000024  -0.000082  -0.000594   0.000018
    22  H   -0.013796   0.054088   0.000000   0.000000   0.000006   0.000000
    23  C   -0.146222  -0.156743   0.000059   0.000249   0.009618   0.002768
    24  H   -0.001917   0.000772   0.000000   0.000000   0.000010  -0.000088
    25  H   -0.007761  -0.009572   0.000000   0.000000  -0.000003   0.000003
    26  O    0.026902  -0.033655   0.000025   0.000004   0.000952   0.000934
    27  H   -0.031341  -0.011202   0.000000  -0.000001  -0.000607  -0.000183
             13         14         15         16         17         18
     1  C    0.015177  -0.038375  -0.054684   0.000593   0.009726   0.073186
     2  C    0.027421   0.027808  -0.002433   0.070776  -0.013719  -0.249871
     3  N   -0.063958   0.009951   0.015998  -0.021544   0.065482   0.053388
     4  C    0.351287  -0.038431  -0.069474   0.075911   0.013370   0.012050
     5  C   -0.014269   0.368135   0.424214  -0.022480  -0.001485  -0.011920
     6  C    0.046412   0.003837   0.009129   0.129942  -0.228383   0.019452
     7  C    0.015488   0.003087   0.003564  -0.013217   0.473293  -0.119839
     8  C   -0.002074   0.005388   0.004162  -0.054319  -0.095313   0.531119
     9  H   -0.000115  -0.005074   0.004129   0.000000   0.000006   0.000191
    10  H   -0.000138   0.000627  -0.005107  -0.000054  -0.000006   0.000774
    11  H   -0.000167  -0.000054  -0.000121  -0.000554   0.000671   0.004400
    12  H   -0.028206  -0.002643   0.003956  -0.000253   0.000014   0.000017
    13  H    0.526416   0.000914  -0.005526   0.000651  -0.000019  -0.000014
    14  H    0.000914   0.512670  -0.022779  -0.000151   0.000000  -0.000059
    15  H   -0.005526  -0.022779   0.519386   0.000256   0.000003   0.000059
    16  H    0.000651  -0.000151   0.000256   0.566714   0.004198   0.000363
    17  H   -0.000019   0.000000   0.000003   0.004198   0.551356   0.004451
    18  H   -0.000014  -0.000059   0.000059   0.000363   0.004451   0.532100
    19  O   -0.000022   0.000010  -0.000068  -0.001028  -0.009588  -0.055670
    20  H    0.000000   0.000000   0.000000   0.000000   0.004109   0.006964
    21  O   -0.000113  -0.000012   0.000047   0.002539  -0.039129  -0.001545
    22  H   -0.000001   0.000000  -0.000001  -0.000497  -0.006489  -0.000001
    23  C   -0.039252  -0.001188  -0.001224   0.072008   0.077589   0.018465
    24  H    0.001742   0.000001   0.000002  -0.001680   0.000076   0.000006
    25  H   -0.000057   0.000000  -0.000001   0.000540   0.000443  -0.000009
    26  O   -0.000273   0.000010   0.000060   0.008665   0.008661   0.000164
    27  H    0.000065  -0.000002   0.000000   0.000830   0.000220  -0.000009
             19         20         21         22         23         24
     1  C   -0.019939   0.025985  -0.002606  -0.001059   0.123563   0.007034
     2  C   -0.035284  -0.121228   0.051930  -0.005544  -0.170878  -0.018083
     3  N    0.019134   0.009489   0.009237  -0.002255   0.268948  -0.014303
     4  C    0.006862   0.000849  -0.000502  -0.000784   0.195286   0.024800
     5  C   -0.006399  -0.001718   0.003538   0.000772  -0.088712  -0.008511
     6  C   -0.008846   0.010350  -0.127249   0.015102  -1.209893  -0.064610
     7  C   -0.068280  -0.075184   0.438806  -0.013796  -0.146222  -0.001917
     8  C    0.241514   0.134897  -0.275274   0.054088  -0.156743   0.000772
     9  H   -0.000479   0.000012   0.000024   0.000000   0.000059   0.000000
    10  H    0.004642  -0.000009  -0.000082   0.000000   0.000249   0.000000
    11  H    0.002563   0.005147  -0.000594   0.000006   0.009618   0.000010
    12  H    0.000046   0.000000   0.000018   0.000000   0.002768  -0.000088
    13  H   -0.000022   0.000000  -0.000113  -0.000001  -0.039252   0.001742
    14  H    0.000010   0.000000  -0.000012   0.000000  -0.001188   0.000001
    15  H   -0.000068   0.000000   0.000047  -0.000001  -0.001224   0.000002
    16  H   -0.001028   0.000000   0.002539  -0.000497   0.072008  -0.001680
    17  H   -0.009588   0.004109  -0.039129  -0.006489   0.077589   0.000076
    18  H   -0.055670   0.006964  -0.001545  -0.000001   0.018465   0.000006
    19  O    8.202849   0.250606   0.006564  -0.000944  -0.002177   0.000030
    20  H    0.250606   0.372791  -0.001352  -0.000008   0.005650   0.000000
    21  O    0.006564  -0.001352   8.208602   0.235970   0.008090  -0.000154
    22  H   -0.000944  -0.000008   0.235970   0.374582  -0.032980  -0.000110
    23  C   -0.002177   0.005650   0.008090  -0.032980   6.099863   0.433148
    24  H    0.000030   0.000000  -0.000154  -0.000110   0.433148   0.580503
    25  H   -0.000006   0.000000   0.003143   0.002504   0.485322  -0.039664
    26  O    0.000576   0.000068  -0.001265  -0.001541   0.296262  -0.049790
    27  H   -0.000030  -0.000003   0.000410   0.000032   0.046585  -0.003319
             25         26         27
     1  C   -0.001110   0.013664  -0.000854
     2  C    0.014240  -0.021920   0.025985
     3  N    0.014113   0.037051   0.053532
     4  C   -0.000315   0.007951   0.014209
     5  C    0.001404  -0.010784  -0.001350
     6  C   -0.120089  -0.201441  -0.087781
     7  C   -0.007761   0.026902  -0.031341
     8  C   -0.009572  -0.033655  -0.011202
     9  H    0.000000   0.000025   0.000000
    10  H    0.000000   0.000004  -0.000001
    11  H   -0.000003   0.000952  -0.000607
    12  H    0.000003   0.000934  -0.000183
    13  H   -0.000057  -0.000273   0.000065
    14  H    0.000000   0.000010  -0.000002
    15  H   -0.000001   0.000060   0.000000
    16  H    0.000540   0.008665   0.000830
    17  H    0.000443   0.008661   0.000220
    18  H   -0.000009   0.000164  -0.000009
    19  O   -0.000006   0.000576  -0.000030
    20  H    0.000000   0.000068  -0.000003
    21  O    0.003143  -0.001265   0.000410
    22  H    0.002504  -0.001541   0.000032
    23  C    0.485322   0.296262   0.046585
    24  H   -0.039664  -0.049790  -0.003319
    25  H    0.550513  -0.057211   0.006312
    26  O   -0.057211   8.285166   0.244432
    27  H    0.006312   0.244432   0.355829
 Mulliken atomic charges:
              1
     1  C   -0.534714
     2  C    0.173526
     3  N   -0.307410
     4  C   -0.264733
     5  C   -0.256261
     6  C    0.160177
     7  C   -0.157229
     8  C   -0.132802
     9  H    0.180248
    10  H    0.180279
    11  H    0.161861
    12  H    0.170004
    13  H    0.168632
    14  H    0.176331
    15  H    0.176451
    16  H    0.181792
    17  H    0.180463
    18  H    0.181789
    19  O   -0.526635
    20  H    0.372585
    21  O   -0.519042
    22  H    0.382954
    23  C   -0.294202
    24  H    0.154105
    25  H    0.157262
    26  O   -0.553669
    27  H    0.388240
 Sum of Mulliken atomic charges =   0.00000
 Mulliken charges with hydrogens summed into heavy atoms:
              1
     1  C   -0.174188
     2  C    0.335387
     3  N   -0.307410
     4  C    0.073902
     5  C    0.096521
     6  C    0.341969
     7  C    0.023234
     8  C    0.048987
    19  O   -0.154050
    21  O   -0.136088
    23  C    0.017165
    26  O   -0.165429
 Sum of Mulliken charges with hydrogens summed into heavy atoms =   0.00000
 Electronic spatial extent (au):  <R**2>=           2039.0595
 Charge=              0.0000 electrons
 Dipole moment (field-independent basis, Debye):
    X=             -1.8077    Y=             -2.7918    Z=             -0.1780  Tot=              3.3307
 Quadrupole moment (field-independent basis, Debye-Ang):
   XX=            -72.6736   YY=            -84.6731   ZZ=            -71.3860
   XY=              6.7025   XZ=             -4.7459   YZ=              8.6438
 Traceless Quadrupole moment (field-independent basis, Debye-Ang):
   XX=              3.5706   YY=             -8.4289   ZZ=              4.8583
   XY=              6.7025   XZ=             -4.7459   YZ=              8.6438
 Octapole moment (field-independent basis, Debye-Ang**2):
  XXX=              3.9810  YYY=            -35.8232  ZZZ=             14.2892  XYY=             -1.8107
  XXY=             14.2021  XXZ=            -22.3818  XZZ=             -3.6229  YZZ=              8.7248
  YYZ=              7.8050  XYZ=             13.2840
 Hexadecapole moment (field-independent basis, Debye-Ang**3):
 XXXX=          -1260.9208 YYYY=          -1132.1108 ZZZZ=           -305.9738 XXXY=             80.6353
 XXXZ=            -81.3214 YYYX=             25.5637 YYYZ=             35.0414 ZZZX=             -2.6447
 ZZZY=             20.0342 XXYY=           -406.5880 XXZZ=           -280.1788 YYZZ=           -205.6453
 XXYZ=             16.5248 YYXZ=              1.1410 ZZXY=              1.0384
 N-N= 8.050433881746D+02 E-N=-2.995487623600D+03  KE= 5.886619341368D+02
 1\1\GINC-COMPUTE-3-0\SP\RmPW1PW91\6-31+G(d,p)\C8H15N1O3\MAMICHETTI.IQU
 IR\17-May-2024\0\\# mpw1pw91/6-31+G** nmr scrf=(pcm,solvent=water)\\co
 mment\\0,1\C,0,-2.542227,0.017016,0.211301\C,0,-1.110152,0.32036,0.698
 671\N,0,-0.286716,-0.91036,0.412584\C,0,-1.199481,-1.909062,-0.197159\
 C,0,-2.345249,-1.103239,-0.821068\C,0,0.829816,-0.50766,-0.480392\C,0,
 1.039233,0.976471,-0.151804\C,0,-0.395242,1.478293,-0.022887\H,0,-3.15
 4647,-0.346444,1.044562\H,0,-3.02865,0.910431,-0.193892\H,0,-1.103299,
 0.533956,1.775316\H,0,-1.590528,-2.573498,0.584093\H,0,-0.653856,-2.53
 1098,-0.91293\H,0,-3.246972,-1.701511,-0.985829\H,0,-2.032941,-0.68760
 6,-1.787111\H,0,0.556799,-0.578167,-1.545972\H,0,1.547225,1.073651,0.8
 18804\H,0,-0.803357,1.608713,-1.032321\O,0,-0.548158,2.746148,0.607211
 \H,0,-0.220766,2.655436,1.519318\O,0,1.744449,1.699705,-1.15545\H,0,2.
 675052,1.423659,-1.109962\C,0,2.052136,-1.390786,-0.239838\H,0,1.85282
 2,-2.407028,-0.612884\H,0,2.914294,-0.99785,-0.791461\O,0,2.401944,-1.
 423566,1.14387\H,0,1.536945,-1.476778,1.596194\\Version=AM64L-G09RevC.
 01\State=1-A\HF=-594.2016997\RMSD=1.647e-09\Dipole=-0.7111983,-1.09836
 1,-0.0700278\Quadrupole=2.6546802,-6.2666712,3.611991,4.9831406,-3.528
 4867,6.4264674\PG=C01 [X(C8H15N1O3)]\\@


 WORK FAITHFULLY FOR EIGHT HOURS A DAY AND DON'T WORRY.
 IN TIME YOU MAY BECOME BOSS AND WORK TWELVE HOURS A DAY
 AND HAVE ALL THE WORRY.
 Job cpu time:  0 days  0 hours  8 minutes 36.2 seconds.
 File lengths (MBytes):  RWF=    113 Int=      0 D2E=      0 Chk=      7 Scr=      1
 Normal termination of Gaussian 09 at Fri May 17 12:39:13 2024.
