 Entering Gaussian System, Link 0=g09
 Input=/home/mamichetti.iquir/Linux/02_Cardona_A1A3_R__R_R_R_043_OptB.gjc
 Output=/home/mamichetti.iquir/Linux/02_Cardona_A1A3_R__R_R_R_043_OptB.log
 Initial command:
 /opt/ohpc/pub/apps/software/Gaussian/09/AMD64.SSE4a-enabled/g09/l1.exe /local/mamichetti.iquir/Gau-714095.inp -scrdir=/local/mamichetti.iquir/
 Entering Link 1 = /opt/ohpc/pub/apps/software/Gaussian/09/AMD64.SSE4a-enabled/g09/l1.exe PID=    714096.
  
 Copyright (c) 1988,1990,1992,1993,1995,1998,2003,2009,2011,
            Gaussian, Inc.  All Rights Reserved.
  
 This is part of the Gaussian(R) 09 program.  It is based on
 the Gaussian(R) 03 system (copyright 2003, Gaussian, Inc.),
 the Gaussian(R) 98 system (copyright 1998, Gaussian, Inc.),
 the Gaussian(R) 94 system (copyright 1995, Gaussian, Inc.),
 the Gaussian 92(TM) system (copyright 1992, Gaussian, Inc.),
 the Gaussian 90(TM) system (copyright 1990, Gaussian, Inc.),
 the Gaussian 88(TM) system (copyright 1988, Gaussian, Inc.),
 the Gaussian 86(TM) system (copyright 1986, Carnegie Mellon
 University), and the Gaussian 82(TM) system (copyright 1983,
 Carnegie Mellon University). Gaussian is a federally registered
 trademark of Gaussian, Inc.
  
 This software contains proprietary and confidential information,
 including trade secrets, belonging to Gaussian, Inc.
  
 This software is provided under written license and may be
 used, copied, transmitted, or stored only in accord with that
 written license.
  
 The following legend is applicable only to US Government
 contracts under FAR:
  
                    RESTRICTED RIGHTS LEGEND
  
 Use, reproduction and disclosure by the US Government is
 subject to restrictions as set forth in subparagraphs (a)
 and (c) of the Commercial Computer Software - Restricted
 Rights clause in FAR 52.227-19.
  
 Gaussian, Inc.
 340 Quinnipiac St., Bldg. 40, Wallingford CT 06492
  
  
 ---------------------------------------------------------------
 Warning -- This program may not be used in any manner that
 competes with the business of Gaussian, Inc. or will provide
 assistance to any competitor of Gaussian, Inc.  The licensee
 of this program is prohibited from giving any competitor of
 Gaussian, Inc. access to this program.  By using this program,
 the user acknowledges that Gaussian, Inc. is engaged in the
 business of creating and licensing software in the field of
 computational chemistry and represents and warrants to the
 licensee that it is not a competitor of Gaussian, Inc. and that
 it will not use this program in any manner prohibited above.
 ---------------------------------------------------------------
  

 Cite this work as:
 Gaussian 09, Revision C.01,
 M. J. Frisch, G. W. Trucks, H. B. Schlegel, G. E. Scuseria, 
 M. A. Robb, J. R. Cheeseman, G. Scalmani, V. Barone, B. Mennucci, 
 G. A. Petersson, H. Nakatsuji, M. Caricato, X. Li, H. P. Hratchian, 
 A. F. Izmaylov, J. Bloino, G. Zheng, J. L. Sonnenberg, M. Hada, 
 M. Ehara, K. Toyota, R. Fukuda, J. Hasegawa, M. Ishida, T. Nakajima, 
 Y. Honda, O. Kitao, H. Nakai, T. Vreven, J. A. Montgomery, Jr., 
 J. E. Peralta, F. Ogliaro, M. Bearpark, J. J. Heyd, E. Brothers, 
 K. N. Kudin, V. N. Staroverov, T. Keith, R. Kobayashi, J. Normand, 
 K. Raghavachari, A. Rendell, J. C. Burant, S. S. Iyengar, J. Tomasi, 
 M. Cossi, N. Rega, J. M. Millam, M. Klene, J. E. Knox, J. B. Cross, 
 V. Bakken, C. Adamo, J. Jaramillo, R. Gomperts, R. E. Stratmann, 
 O. Yazyev, A. J. Austin, R. Cammi, C. Pomelli, J. W. Ochterski, 
 R. L. Martin, K. Morokuma, V. G. Zakrzewski, G. A. Voth, 
 P. Salvador, J. J. Dannenberg, S. Dapprich, A. D. Daniels, 
 O. Farkas, J. B. Foresman, J. V. Ortiz, J. Cioslowski, 
 and D. J. Fox, Gaussian, Inc., Wallingford CT, 2010.
 
 ******************************************
 Gaussian 09:  AM64L-G09RevC.01 23-Sep-2011
                17-May-2024 
 ******************************************
 %nprocshared=4
 Will use up to    4 processors via shared memory.
 ------------------------------------------------
 # mpw1pw91/6-31+G** nmr scrf=(pcm,solvent=water)
 ------------------------------------------------
 1/38=1/1;
 2/12=2,17=6,18=5,40=1/2;
 3/5=1,6=6,7=111,11=2,16=1,25=1,30=1,70=2201,72=1,74=-7/1,2,8,3;
 4//1;
 5/5=2,38=5,53=1/2;
 8/6=1,10=90,11=11/1;
 10/13=100,45=16/2;
 6/7=2,8=2,9=2,10=2,28=1/1;
 99/9=1/99;
 -------
 comment
 -------
 Charge =  0 Multiplicity = 1
 Symbolic Z-Matrix:
 6                    -2.32677  -0.27307  -0.45501 
 6                    -0.84789  -0.35534  -0.87224 
 7                    -0.17822   0.84438  -0.25493 
 6                    -1.21862   1.63327   0.45432 
 6                    -2.53562   1.22731  -0.21139 
 6                     0.93578   0.37014   0.60076 
 6                     0.67428  -1.1243    0.86477 
 6                    -0.07546  -1.59691  -0.39328 
 1                    -2.99341  -0.69184  -1.21524 
 1                    -2.48812  -0.82671   0.47658 
 1                    -0.76823  -0.30694  -1.96477 
 1                    -1.01233   2.70664   0.37483 
 1                    -1.24827   1.37966   1.52411 
 1                    -2.66466   1.75602  -1.16368 
 1                    -3.40345   1.44786   0.41771 
 1                     0.93226   0.93049   1.54333 
 1                     1.60126  -1.69603   1.01368 
 1                    -0.74721  -2.42835  -0.14661 
 8                     0.82847  -1.98829  -1.43328 
 1                     1.34635  -2.74054  -1.09889 
 8                    -0.21293  -1.32204   1.97429 
 1                     0.19341  -0.89599   2.74745 
 6                     2.28016   0.63636  -0.08484 
 1                     3.10677   0.38736   0.58884 
 1                     2.37648   0.01744  -0.98697 
 8                     2.40428   2.02278  -0.40786 
 1                     1.54294   2.24584  -0.80954 
 
                          Input orientation:                          
 ---------------------------------------------------------------------
 Center     Atomic      Atomic             Coordinates (Angstroms)
 Number     Number       Type             X           Y           Z
 ---------------------------------------------------------------------
      1          6           0       -2.326768   -0.273068   -0.455006
      2          6           0       -0.847892   -0.355339   -0.872236
      3          7           0       -0.178215    0.844382   -0.254929
      4          6           0       -1.218617    1.633267    0.454317
      5          6           0       -2.535617    1.227311   -0.211393
      6          6           0        0.935776    0.370139    0.600758
      7          6           0        0.674277   -1.124295    0.864772
      8          6           0       -0.075464   -1.596912   -0.393277
      9          1           0       -2.993409   -0.691842   -1.215244
     10          1           0       -2.488120   -0.826708    0.476581
     11          1           0       -0.768228   -0.306941   -1.964767
     12          1           0       -1.012326    2.706640    0.374830
     13          1           0       -1.248270    1.379657    1.524108
     14          1           0       -2.664664    1.756022   -1.163675
     15          1           0       -3.403448    1.447859    0.417711
     16          1           0        0.932259    0.930486    1.543329
     17          1           0        1.601258   -1.696029    1.013683
     18          1           0       -0.747209   -2.428347   -0.146614
     19          8           0        0.828472   -1.988286   -1.433283
     20          1           0        1.346347   -2.740537   -1.098893
     21          8           0       -0.212930   -1.322039    1.974285
     22          1           0        0.193411   -0.895987    2.747450
     23          6           0        2.280160    0.636356   -0.084841
     24          1           0        3.106774    0.387355    0.588839
     25          1           0        2.376484    0.017438   -0.986970
     26          8           0        2.404281    2.022783   -0.407863
     27          1           0        1.542935    2.245843   -0.809538
 ---------------------------------------------------------------------
                    Distance matrix (angstroms):
                    1          2          3          4          5
     1  C    0.000000
     2  C    1.538806   0.000000
     3  N    2.430022   1.506275   0.000000
     4  C    2.385158   2.419036   1.485869   0.000000
     5  C    1.534308   2.406223   2.388697   1.530509   0.000000
     6  C    3.488918   2.424356   1.482593   2.501669   3.666729
     7  C    3.387133   2.434233   2.419951   3.369817   4.122087
     8  C    2.612421   1.538685   2.447369   3.529769   3.749889
     9  H    1.094415   2.198666   3.347761   3.368004   2.213693
    10  H    1.095630   2.175280   2.943350   2.768323   2.166693
    11  H    2.170155   1.096500   2.144110   3.133564   2.924365
    12  H    3.360810   3.310276   2.135496   1.095903   2.202836
    13  H    2.794915   2.985461   2.143947   1.099841   2.166203
    14  H    2.175682   2.800615   2.799881   2.173481   1.096827
    15  H    2.209630   3.383246   3.349441   2.192989   1.094323
    16  H    4.007885   3.264543   2.115254   2.511198   3.897861
    17  H    4.428460   3.369344   3.351058   4.398727   5.211570
    18  H    2.689859   2.198642   3.323589   4.132802   4.070189
    19  O    3.722168   2.406551   3.228923   4.568288   4.811463
    20  H    4.471551   3.248881   3.986002   5.302986   5.621487
    21  O    3.386754   3.072518   3.108694   3.472109   4.083044
    22  H    4.122506   3.805094   3.490168   3.694510   4.550905
    23  C    4.710399   3.374635   2.473017   3.677766   4.853550
    24  H    5.572176   4.280855   3.422276   4.503266   5.760423
    25  H    4.742147   3.247880   2.783201   4.196780   5.118012
    26  O    5.258895   4.055581   2.842763   3.744391   5.007391
    27  H    4.630897   3.533572   2.287803   3.098185   4.246148
                    6          7          8          9         10
     6  C    0.000000
     7  C    1.539941   0.000000
     8  C    2.424871   1.538885   0.000000
     9  H    4.456923   4.238561   3.163730   0.000000
    10  H    3.629177   3.200001   2.677830   1.770813   0.000000
    11  H    3.153409   3.279509   2.147912   2.379362   3.031232
    12  H    3.050472   4.214349   4.470823   4.242959   3.830518
    13  H    2.577161   3.225010   3.729853   3.852359   2.739085
    14  H    4.242295   4.853798   4.305768   2.470379   3.064654
    15  H    4.474802   4.841868   4.582991   2.722681   2.452539
    16  H    1.096559   2.179247   3.339714   5.064834   3.990573
    17  H    2.209621   1.099249   2.191063   5.204563   4.215117
    18  H    3.350004   2.178090   1.096981   3.033617   2.446301
    19  O    3.116249   2.459942   1.432441   4.041668   3.999578
    20  H    3.568429   2.630570   1.956353   4.800434   4.565961
    21  O    2.463649   1.434314   2.387426   4.278003   2.768566
    22  H    2.600474   1.956485   3.229204   5.089248   3.514577
    23  C    1.532412   2.565252   3.260611   5.554498   5.019188
    24  H    2.171099   2.877198   3.876662   6.452257   5.726202
    25  H    2.172767   2.762248   2.995104   5.421341   5.149654
    26  O    2.430032   3.810067   4.387658   6.095581   5.730395
    27  H    2.424014   3.862086   4.190376   5.419687   5.229156
                   11         12         13         14         15
    11  H    0.000000
    12  H    3.822953   0.000000
    13  H    3.904779   1.771269   0.000000
    14  H    2.914453   2.449672   3.061372   0.000000
    15  H    3.962311   2.702560   2.423542   1.772441   0.000000
    16  H    4.090186   2.881236   2.226394   4.576815   4.509218
    17  H    4.051567   5.159695   4.223765   5.903866   5.940227
    18  H    2.794009   5.168199   4.188469   4.713809   4.732763
    19  O    2.378833   5.357251   4.939844   5.127819   5.756945
    20  H    3.338196   6.116121   5.530657   6.025898   6.511782
    21  O    4.105473   4.407669   2.928097   5.033116   4.502739
    22  H    4.845277   4.479068   2.958642   5.522558   4.884536
    23  C    3.703593   3.916355   3.948548   5.183514   5.763202
    24  H    4.692397   4.732005   4.563529   6.184986   6.598253
    25  H    3.309157   4.535454   4.615192   5.335454   6.117749
    26  O    4.232774   3.571200   4.181776   5.131921   5.894220
    27  H    3.632180   2.853843   3.739921   4.250791   5.158452
                   16         17         18         19         20
    16  H    0.000000
    17  H    2.761642   0.000000
    18  H    4.118043   2.719904   0.000000
    19  O    4.170158   2.582684   2.081332   0.000000
    20  H    4.541940   2.370433   2.321050   0.972570   0.000000
    21  O    2.563406   2.086601   2.451037   3.624903   3.726648
    22  H    2.309071   2.372351   3.407125   4.367488   4.418821
    23  C    2.134078   2.666024   4.308269   3.288532   3.647426
    24  H    2.436095   2.605295   4.829312   3.863070   3.966264
    25  H    3.053171   2.745825   4.055308   2.572638   2.946207
    26  O    2.677146   4.061429   5.460101   4.429823   4.928079
    27  H    2.763887   4.343488   5.247121   4.339051   4.998636
                   21         22         23         24         25
    21  O    0.000000
    22  H    0.971811   0.000000
    23  C    3.780319   3.837248   0.000000
    24  H    3.982703   3.846330   1.095051   0.000000
    25  H    4.155514   4.421091   1.098260   1.775764   0.000000
    26  O    4.869523   4.833546   1.428961   2.039984   2.087474
    27  H    4.854123   4.934012   1.912887   2.802682   2.385807
                   26         27
    26  O    0.000000
    27  H    0.976225   0.000000
 Stoichiometry    C8H15NO3
 Framework group  C1[X(C8H15NO3)]
 Deg. of freedom    75
 Full point group                 C1      NOp   1
 Largest Abelian subgroup         C1      NOp   1
 Largest concise Abelian subgroup C1      NOp   1
                         Standard orientation:                         
 ---------------------------------------------------------------------
 Center     Atomic      Atomic             Coordinates (Angstroms)
 Number     Number       Type             X           Y           Z
 ---------------------------------------------------------------------
      1          6           0        2.326768    0.273069   -0.455006
      2          6           0        0.847892    0.355339   -0.872236
      3          7           0        0.178215   -0.844382   -0.254929
      4          6           0        1.218618   -1.633267    0.454317
      5          6           0        2.535617   -1.227310   -0.211393
      6          6           0       -0.935776   -0.370139    0.600758
      7          6           0       -0.674277    1.124295    0.864772
      8          6           0        0.075463    1.596912   -0.393277
      9          1           0        2.993409    0.691843   -1.215244
     10          1           0        2.488120    0.826709    0.476581
     11          1           0        0.768228    0.306941   -1.964767
     12          1           0        1.012327   -2.706640    0.374830
     13          1           0        1.248271   -1.379657    1.524108
     14          1           0        2.664665   -1.756021   -1.163675
     15          1           0        3.403449   -1.447858    0.417711
     16          1           0       -0.932259   -0.930486    1.543329
     17          1           0       -1.601259    1.696028    1.013683
     18          1           0        0.747208    2.428347   -0.146614
     19          8           0       -0.828473    1.988286   -1.433283
     20          1           0       -1.346348    2.740537   -1.098893
     21          8           0        0.212930    1.322039    1.974285
     22          1           0       -0.193411    0.895987    2.747450
     23          6           0       -2.280160   -0.636357   -0.084841
     24          1           0       -3.106774   -0.387356    0.588839
     25          1           0       -2.376484   -0.017439   -0.986970
     26          8           0       -2.404280   -2.022784   -0.407863
     27          1           0       -1.542934   -2.245844   -0.809538
 ---------------------------------------------------------------------
 Rotational constants (GHZ):      1.0933718      0.8932281      0.6989420
 Standard basis: 6-31+G(d,p) (6D, 7F)
 There are   303 symmetry adapted basis functions of A   symmetry.
 Integral buffers will be    131072 words long.
 Raffenetti 2 integral format.
 Two-electron integral symmetry is turned on.
   303 basis functions,   489 primitive gaussians,   303 cartesian basis functions
    47 alpha electrons       47 beta electrons
       nuclear repulsion energy       812.4113094634 Hartrees.
 NAtoms=   27 NActive=   27 NUniq=   27 SFac= 1.00D+00 NAtFMM=   60 NAOKFM=F Big=F
 ------------------------------------------------------------------------------
 Polarizable Continuum Model (PCM)
 =================================
 Model                : PCM.
 Atomic radii         : UFF (Universal Force Field).
 Polarization charges : Total charges.
 Charge compensation  : None.
 Solution method      : Matrix inversion.
 Cavity type          : Scaled VdW (van der Waals Surface) (Alpha=1.100).
 Cavity algorithm     : GePol (No added spheres)
                        Default sphere list used, NSphG=   27.
                        Lebedev-Laikov grids with approx.  5.0 points / Ang**2.
                        Smoothing algorithm: Karplus/York (Gamma=1.0000).
                        Polarization charges: spherical gaussians, with
                                              point-specific exponents (IZeta= 3).
                        Self-potential: point-specific (ISelfS= 7).
                        Self-field    : sphere-specific E.n sum rule (ISelfD= 2).
 Solvent              : Water, Eps=  78.355300 Eps(inf)=   1.777849
 ------------------------------------------------------------------------------
 One-electron integrals computed using PRISM.
 NBasis=   303 RedAO= T  NBF=   303
 NBsUse=   303 1.00D-06 NBFU=   303
 Harris functional with IExCor=  908 diagonalized for initial guess.
 ExpMin= 4.38D-02 ExpMax= 5.48D+03 ExpMxC= 8.25D+02 IAcc=2 IRadAn=         4 AccDes= 0.00D+00
 HarFok:  IExCor=  908 AccDes= 0.00D+00 IRadAn=         4 IDoV= 1
 ScaDFX=  1.000000  1.000000  1.000000  1.000000
 FoFCou: FMM=F IPFlag=           0 FMFlag=      100000 FMFlg1=           0
         NFxFlg=           0 DoJE=T BraDBF=F KetDBF=T FulRan=T
         Omega=  0.000000  0.000000  1.000000  0.000000  0.000000 ICntrl=     500 IOpCl=  0
         NMat0=    1 NMatS0=    1 NMatT0=    0 NMatD0=    1 NMtDS0=    0 NMtDT0=    0
         I1Cent=           4 NGrid=           0.
 Petite list used in FoFCou.
 Initial guess orbital symmetries:
       Occupied  (A) (A) (A) (A) (A) (A) (A) (A) (A) (A) (A) (A)
                 (A) (A) (A) (A) (A) (A) (A) (A) (A) (A) (A) (A)
                 (A) (A) (A) (A) (A) (A) (A) (A) (A) (A) (A) (A)
                 (A) (A) (A) (A) (A) (A) (A) (A) (A) (A) (A)
       Virtual   (A) (A) (A) (A) (A) (A) (A) (A) (A) (A) (A) (A)
                 (A) (A) (A) (A) (A) (A) (A) (A) (A) (A) (A) (A)
                 (A) (A) (A) (A) (A) (A) (A) (A) (A) (A) (A) (A)
                 (A) (A) (A) (A) (A) (A) (A) (A) (A) (A) (A) (A)
                 (A) (A) (A) (A) (A) (A) (A) (A) (A) (A) (A) (A)
                 (A) (A) (A) (A) (A) (A) (A) (A) (A) (A) (A) (A)
                 (A) (A) (A) (A) (A) (A) (A) (A) (A) (A) (A) (A)
                 (A) (A) (A) (A) (A) (A) (A) (A) (A) (A) (A) (A)
                 (A) (A) (A) (A) (A) (A) (A) (A) (A) (A) (A) (A)
                 (A) (A) (A) (A) (A) (A) (A) (A) (A) (A) (A) (A)
                 (A) (A) (A) (A) (A) (A) (A) (A) (A) (A) (A) (A)
                 (A) (A) (A) (A) (A) (A) (A) (A) (A) (A) (A) (A)
                 (A) (A) (A) (A) (A) (A) (A) (A) (A) (A) (A) (A)
                 (A) (A) (A) (A) (A) (A) (A) (A) (A) (A) (A) (A)
                 (A) (A) (A) (A) (A) (A) (A) (A) (A) (A) (A) (A)
                 (A) (A) (A) (A) (A) (A) (A) (A) (A) (A) (A) (A)
                 (A) (A) (A) (A) (A) (A) (A) (A) (A) (A) (A) (A)
                 (A) (A) (A) (A) (A) (A) (A) (A) (A) (A) (A) (A)
                 (A) (A) (A) (A) (A) (A) (A) (A) (A) (A) (A) (A)
                 (A) (A) (A) (A) (A) (A) (A) (A) (A) (A) (A) (A)
                 (A) (A) (A) (A) (A) (A) (A) (A) (A) (A) (A) (A)
                 (A) (A) (A) (A)
 The electronic state of the initial guess is 1-A.
 Requested convergence on RMS density matrix=1.00D-08 within 128 cycles.
 Requested convergence on MAX density matrix=1.00D-06.
 Requested convergence on             energy=1.00D-06.
 No special actions if energy rises.
 Error on total polarization charges =  0.01417
 SCF Done:  E(RmPW1PW91) =  -594.198582603     A.U. after   13 cycles
             Convg  =    0.3824D-08             -V/T =  2.0094
 Range of M.O.s used for correlation:     1   303
 NBasis=   303 NAE=    47 NBE=    47 NFC=     0 NFV=     0
 NROrb=    303 NOA=    47 NOB=    47 NVA=   256 NVB=   256

 **** Warning!!: The largest alpha MO coefficient is  0.71196899D+02

 NEqPCM:  Using equilibrium solvation (IEInf=0, Eps=  78.3553, EpsInf=   1.7778)
          Differentiating once with respect to magnetic field using GIAOs.
          Electric field/nuclear overlap derivatives assumed to be zero.
 FoFCou: FMM=F IPFlag=           0 FMFlag=    10101102 FMFlg1=           0
         NFxFlg=    40000000 DoJE=F BraDBF=F KetDBF=T FulRan=T
         Omega=  0.000000  0.000000  1.000000  0.000000  0.000000 ICntrl=    6100 IOpCl=  0
         NMat0=    1 NMatS0=    1 NMatT0=    0 NMatD0=    1 NMtDS0=    0 NMtDT0=    0
         I1Cent=           7 NGrid=        1820.
 Symmetry not used in FoFCou.
          There are     3 degrees of freedom in the 1st order CPHF.  IDoFFX=0.
      3 vectors produced by pass  0 Test12= 4.01D-13 3.33D-08 XBig12= 3.12D+01 8.63D-01.
 AX will form     3 AO Fock derivatives at one time.
      3 vectors produced by pass  1 Test12= 4.01D-13 3.33D-08 XBig12= 7.19D-02 4.02D-02.
      3 vectors produced by pass  2 Test12= 4.01D-13 3.33D-08 XBig12= 1.46D-04 3.08D-03.
      3 vectors produced by pass  3 Test12= 4.01D-13 3.33D-08 XBig12= 7.14D-07 1.65D-04.
      3 vectors produced by pass  4 Test12= 4.01D-13 3.33D-08 XBig12= 2.33D-09 8.55D-06.
      3 vectors produced by pass  5 Test12= 4.01D-13 3.33D-08 XBig12= 7.92D-12 4.94D-07.
 Inverted reduced A of dimension    18 with in-core refinement.
 Calculating GIAO nuclear magnetic shielding tensors.
 SCF GIAO Magnetic shielding tensor (ppm):
      1  C    Isotropic =   163.6119   Anisotropy =    24.6733
   XX=   175.4695   YX=    -9.0846   ZX=     3.7284
   XY=     1.5181   YY=   172.9197   ZY=    -9.9785
   XZ=     7.5372   YZ=    -2.9684   ZZ=   142.4464
   Eigenvalues:   140.4666   170.3082   180.0607
      2  C    Isotropic =   121.2819   Anisotropy =    47.9324
   XX=   118.3576   YX=     3.8815   ZX=   -18.4451
   XY=     1.7313   YY=   149.2119   ZY=   -11.9631
   XZ=    -7.4762   YZ=   -14.1009   ZZ=    96.2761
   Eigenvalues:    88.3689   122.2400   153.2368
      3  N    Isotropic =   194.5047   Anisotropy =    84.8899
   XX=   215.4159   YX=   -12.6216   ZX=   -42.4420
   XY=    -8.0679   YY=   200.4129   ZY=   -37.2507
   XZ=   -54.5336   YZ=   -48.6781   ZZ=   167.6853
   Eigenvalues:   116.2315   216.1846   251.0980
      4  C    Isotropic =   135.7305   Anisotropy =    62.6967
   XX=   158.8237   YX=   -18.9920   ZX=    10.2823
   XY=   -28.5383   YY=   124.8222   ZY=   -13.9020
   XZ=     8.7493   YZ=   -28.4380   ZZ=   123.5456
   Eigenvalues:   100.9181   128.7451   177.5283
      5  C    Isotropic =   166.8702   Anisotropy =    20.0410
   XX=   178.7622   YX=    -1.0429   ZX=    -2.5881
   XY=    -4.5630   YY=   174.5560   ZY=   -14.4701
   XZ=    -9.0573   YZ=   -11.3369   ZZ=   147.2925
   Eigenvalues:   141.0518   179.3280   180.2309
      6  C    Isotropic =   115.7753   Anisotropy =    25.8010
   XX=   114.7638   YX=     4.9576   ZX=   -18.1863
   XY=   -13.5420   YY=   117.7458   ZY=     6.9446
   XZ=    -5.8945   YZ=    11.4652   ZZ=   114.8162
   Eigenvalues:   101.7768   112.5731   132.9759
      7  C    Isotropic =   111.1980   Anisotropy =    24.4872
   XX=   103.8671   YX=     4.3920   ZX=    13.7652
   XY=    -7.3246   YY=   104.6848   ZY=    -5.6427
   XZ=     1.4118   YZ=     8.6408   ZZ=   125.0419
   Eigenvalues:   100.5826   105.4885   127.5228
      8  C    Isotropic =   112.9072   Anisotropy =    25.4537
   XX=   113.9910   YX=   -13.6922   ZX=    10.1001
   XY=    -1.2514   YY=   104.9967   ZY=    -0.3330
   XZ=     6.4857   YZ=   -14.1548   ZZ=   119.7337
   Eigenvalues:   100.3870   108.4582   129.8763
      9  H    Isotropic =    29.5840   Anisotropy =    10.4801
   XX=    32.0667   YX=     2.3118   ZX=    -4.4369
   XY=     2.8552   YY=    28.5652   ZY=    -3.2363
   XZ=    -3.9547   YZ=    -2.8374   ZZ=    28.1203
   Eigenvalues:    24.8408    27.3405    36.5708
     10  H    Isotropic =    29.6954   Anisotropy =     7.3098
   XX=    30.7740   YX=     0.9318   ZX=     1.5261
   XY=     0.7748   YY=    29.6222   ZY=     4.3682
   XZ=     2.5186   YZ=     4.2774   ZZ=    28.6901
   Eigenvalues:    24.6543    29.8633    34.5687
     11  H    Isotropic =    27.9804   Anisotropy =     7.5638
   XX=    26.2012   YX=    -0.1043   ZX=    -1.0678
   XY=     0.3159   YY=    25.5986   ZY=    -2.3694
   XZ=    -0.4850   YZ=    -2.4591   ZZ=    32.1415
   Eigenvalues:    24.7892    26.1292    33.0230
     12  H    Isotropic =    28.2656   Anisotropy =     9.3884
   XX=    27.3179   YX=    -1.6359   ZX=     0.4439
   XY=    -0.3182   YY=    33.9604   ZY=    -1.5842
   XZ=     0.6844   YZ=    -2.6136   ZZ=    23.5185
   Eigenvalues:    23.0796    27.1926    34.5245
     13  H    Isotropic =    28.6130   Anisotropy =     7.9609
   XX=    27.5145   YX=    -2.7206   ZX=     2.2264
   XY=    -2.8047   YY=    26.2433   ZY=    -2.4261
   XZ=     0.9499   YZ=    -2.3273   ZZ=    32.0813
   Eigenvalues:    23.9337    27.9850    33.9203
     14  H    Isotropic =    29.6879   Anisotropy =    10.9444
   XX=    28.1955   YX=    -2.3911   ZX=    -3.8132
   XY=    -2.5613   YY=    30.7218   ZY=     4.2439
   XZ=    -3.9584   YZ=     4.2416   ZZ=    30.1464
   Eigenvalues:    25.0109    27.0686    36.9842
     15  H    Isotropic =    29.6430   Anisotropy =    11.7350
   XX=    34.5629   YX=    -3.1171   ZX=     3.4910
   XY=    -3.7615   YY=    27.5783   ZY=    -1.9114
   XZ=     3.6645   YZ=    -1.6878   ZZ=    26.7878
   Eigenvalues:    25.2076    26.2551    37.4663
     16  H    Isotropic =    28.6448   Anisotropy =     6.3183
   XX=    28.9689   YX=     1.1993   ZX=    -3.1449
   XY=     1.0547   YY=    26.4204   ZY=    -0.7963
   XZ=    -2.0489   YZ=    -1.4551   ZZ=    30.5450
   Eigenvalues:    25.9856    27.0918    32.8570
     17  H    Isotropic =    27.7082   Anisotropy =     5.0828
   XX=    28.6259   YX=    -3.1310   ZX=     0.4534
   XY=    -2.2577   YY=    27.4024   ZY=     3.0253
   XZ=     0.7329   YZ=     1.6842   ZZ=    27.0962
   Eigenvalues:    23.7336    28.2942    31.0967
     18  H    Isotropic =    27.4527   Anisotropy =     4.5095
   XX=    27.1612   YX=     1.5041   ZX=     1.9938
   XY=     0.6142   YY=    30.1183   ZY=    -0.7213
   XZ=     2.5151   YZ=    -0.6321   ZZ=    25.0787
   Eigenvalues:    23.4402    28.4589    30.4591
     19  O    Isotropic =   279.1164   Anisotropy =    90.5715
   XX=   284.3048   YX=   -57.3720   ZX=    -1.5314
   XY=   -49.2594   YY=   281.3232   ZY=     5.0669
   XZ=   -23.0922   YZ=    12.8052   ZZ=   271.7212
   Eigenvalues:   229.3597   268.4920   339.4974
     20  H    Isotropic =    30.3684   Anisotropy =    19.3801
   XX=    29.3437   YX=   -11.4777   ZX=    -0.3567
   XY=    -9.6246   YY=    35.2457   ZY=     1.6952
   XZ=     0.9731   YZ=     0.7685   ZZ=    26.5159
   Eigenvalues:    21.1548    26.6619    43.2885
     21  O    Isotropic =   277.4411   Anisotropy =    83.3079
   XX=   237.2060   YX=    33.5799   ZX=   -10.7597
   XY=    26.6757   YY=   280.4084   ZY=   -37.1858
   XZ=     4.7894   YZ=   -16.9129   ZZ=   314.7089
   Eigenvalues:   220.6350   278.7087   332.9797
     22  H    Isotropic =    30.4745   Anisotropy =    17.9376
   XX=    25.8494   YX=     2.8240   ZX=    -2.1796
   XY=     4.1765   YY=    25.1181   ZY=    -3.9179
   XZ=    -4.3008   YZ=    -4.1537   ZZ=    40.4560
   Eigenvalues:    21.9181    27.0724    42.4329
     23  C    Isotropic =   132.6286   Anisotropy =    50.9733
   XX=   120.9537   YX=     0.5609   ZX=     4.7855
   XY=     8.2399   YY=   162.3497   ZY=     9.3283
   XZ=     6.1498   YZ=    17.6978   ZZ=   114.5824
   Eigenvalues:   109.4389   121.8361   166.6108
     24  H    Isotropic =    28.2821   Anisotropy =     6.5761
   XX=    31.4326   YX=     0.3172   ZX=    -2.1636
   XY=    -1.3494   YY=    28.0796   ZY=     2.2969
   XZ=    -2.8155   YZ=     1.9718   ZZ=    25.3342
   Eigenvalues:    23.6543    28.5259    32.6662
     25  H    Isotropic =    27.9813   Anisotropy =     7.0060
   XX=    27.1783   YX=     2.1735   ZX=     3.2301
   XY=     1.2620   YY=    31.5288   ZY=    -4.0202
   XZ=     3.4199   YZ=    -1.6172   ZZ=    25.2368
   Eigenvalues:    21.6496    29.6423    32.6520
     26  O    Isotropic =   313.4183   Anisotropy =    35.9042
   XX=   336.2165   YX=    -6.9262   ZX=    -6.1351
   XY=    -1.4322   YY=   317.6111   ZY=     5.0584
   XZ=    -2.1905   YZ=   -10.5857   ZZ=   286.4273
   Eigenvalues:   285.7768   317.1236   337.3544
     27  H    Isotropic =    29.0422   Anisotropy =    15.6300
   XX=    37.1201   YX=     0.2785   ZX=    -5.9382
   XY=    -1.5904   YY=    26.9989   ZY=     4.9320
   XZ=    -4.8169   YZ=     6.2602   ZZ=    23.0076
   Eigenvalues:    18.1617    29.5026    39.4622
 End of Minotr Frequency-dependent properties file   721 does not exist.
 End of Minotr Frequency-dependent properties file   722 does not exist.

 **********************************************************************

            Population analysis using the SCF density.

 **********************************************************************

 Orbital symmetries:
       Occupied  (A) (A) (A) (A) (A) (A) (A) (A) (A) (A) (A) (A)
                 (A) (A) (A) (A) (A) (A) (A) (A) (A) (A) (A) (A)
                 (A) (A) (A) (A) (A) (A) (A) (A) (A) (A) (A) (A)
                 (A) (A) (A) (A) (A) (A) (A) (A) (A) (A) (A)
       Virtual   (A) (A) (A) (A) (A) (A) (A) (A) (A) (A) (A) (A)
                 (A) (A) (A) (A) (A) (A) (A) (A) (A) (A) (A) (A)
                 (A) (A) (A) (A) (A) (A) (A) (A) (A) (A) (A) (A)
                 (A) (A) (A) (A) (A) (A) (A) (A) (A) (A) (A) (A)
                 (A) (A) (A) (A) (A) (A) (A) (A) (A) (A) (A) (A)
                 (A) (A) (A) (A) (A) (A) (A) (A) (A) (A) (A) (A)
                 (A) (A) (A) (A) (A) (A) (A) (A) (A) (A) (A) (A)
                 (A) (A) (A) (A) (A) (A) (A) (A) (A) (A) (A) (A)
                 (A) (A) (A) (A) (A) (A) (A) (A) (A) (A) (A) (A)
                 (A) (A) (A) (A) (A) (A) (A) (A) (A) (A) (A) (A)
                 (A) (A) (A) (A) (A) (A) (A) (A) (A) (A) (A) (A)
                 (A) (A) (A) (A) (A) (A) (A) (A) (A) (A) (A) (A)
                 (A) (A) (A) (A) (A) (A) (A) (A) (A) (A) (A) (A)
                 (A) (A) (A) (A) (A) (A) (A) (A) (A) (A) (A) (A)
                 (A) (A) (A) (A) (A) (A) (A) (A) (A) (A) (A) (A)
                 (A) (A) (A) (A) (A) (A) (A) (A) (A) (A) (A) (A)
                 (A) (A) (A) (A) (A) (A) (A) (A) (A) (A) (A) (A)
                 (A) (A) (A) (A) (A) (A) (A) (A) (A) (A) (A) (A)
                 (A) (A) (A) (A) (A) (A) (A) (A) (A) (A) (A) (A)
                 (A) (A) (A) (A) (A) (A) (A) (A) (A) (A) (A) (A)
                 (A) (A) (A) (A) (A) (A) (A) (A) (A) (A) (A) (A)
                 (A) (A) (A) (A)
 The electronic state is 1-A.
 Alpha  occ. eigenvalues --  -19.26041 -19.25982 -19.24816 -14.41577 -10.30803
 Alpha  occ. eigenvalues --  -10.30619 -10.28946 -10.28109 -10.27794 -10.26847
 Alpha  occ. eigenvalues --  -10.24564 -10.24496  -1.07195  -1.05759  -1.05155
 Alpha  occ. eigenvalues --   -0.96057  -0.82663  -0.79288  -0.75189  -0.71562
 Alpha  occ. eigenvalues --   -0.66341  -0.61623  -0.60895  -0.58191  -0.54311
 Alpha  occ. eigenvalues --   -0.52879  -0.52407  -0.51545  -0.49017  -0.46829
 Alpha  occ. eigenvalues --   -0.45755  -0.44552  -0.43620  -0.41621  -0.40363
 Alpha  occ. eigenvalues --   -0.39459  -0.38675  -0.37114  -0.36672  -0.35578
 Alpha  occ. eigenvalues --   -0.34857  -0.34464  -0.34017  -0.30417  -0.29624
 Alpha  occ. eigenvalues --   -0.29193  -0.23471
 Alpha virt. eigenvalues --    0.00857   0.01604   0.01651   0.02484   0.03573
 Alpha virt. eigenvalues --    0.03800   0.04523   0.04808   0.05698   0.07207
 Alpha virt. eigenvalues --    0.07492   0.08614   0.08698   0.08928   0.09389
 Alpha virt. eigenvalues --    0.10732   0.11011   0.11975   0.12112   0.12885
 Alpha virt. eigenvalues --    0.13182   0.13509   0.13826   0.14368   0.15155
 Alpha virt. eigenvalues --    0.16053   0.16648   0.16969   0.17594   0.18191
 Alpha virt. eigenvalues --    0.18678   0.19697   0.20041   0.20343   0.20793
 Alpha virt. eigenvalues --    0.21260   0.21485   0.22279   0.23015   0.23252
 Alpha virt. eigenvalues --    0.24357   0.24722   0.25029   0.25591   0.26315
 Alpha virt. eigenvalues --    0.26584   0.27349   0.28395   0.28598   0.28981
 Alpha virt. eigenvalues --    0.29569   0.30105   0.30625   0.30838   0.31507
 Alpha virt. eigenvalues --    0.31997   0.32512   0.33290   0.34385   0.35272
 Alpha virt. eigenvalues --    0.35760   0.36393   0.36839   0.37221   0.38669
 Alpha virt. eigenvalues --    0.39409   0.39962   0.41541   0.41882   0.42429
 Alpha virt. eigenvalues --    0.43054   0.43546   0.44526   0.46812   0.47941
 Alpha virt. eigenvalues --    0.49497   0.64665   0.65560   0.68792   0.69558
 Alpha virt. eigenvalues --    0.69873   0.70949   0.71616   0.73401   0.74037
 Alpha virt. eigenvalues --    0.75197   0.77260   0.77643   0.80086   0.81167
 Alpha virt. eigenvalues --    0.83330   0.84146   0.84760   0.85720   0.87268
 Alpha virt. eigenvalues --    0.89557   0.91805   0.94581   0.96132   0.97332
 Alpha virt. eigenvalues --    0.98322   0.99588   1.01111   1.03403   1.03594
 Alpha virt. eigenvalues --    1.04542   1.06385   1.08822   1.09262   1.10533
 Alpha virt. eigenvalues --    1.11044   1.11914   1.12486   1.14280   1.15981
 Alpha virt. eigenvalues --    1.17134   1.17670   1.19346   1.22513   1.25346
 Alpha virt. eigenvalues --    1.26920   1.30493   1.31176   1.32553   1.34418
 Alpha virt. eigenvalues --    1.35009   1.37189   1.38499   1.39314   1.41429
 Alpha virt. eigenvalues --    1.42667   1.45952   1.46314   1.49217   1.52969
 Alpha virt. eigenvalues --    1.54850   1.56912   1.58850   1.60911   1.61494
 Alpha virt. eigenvalues --    1.63968   1.64386   1.65938   1.68788   1.72768
 Alpha virt. eigenvalues --    1.73097   1.73448   1.76244   1.76866   1.79455
 Alpha virt. eigenvalues --    1.81927   1.83389   1.85232   1.85529   1.87215
 Alpha virt. eigenvalues --    1.88074   1.88620   1.91776   1.92468   1.96102
 Alpha virt. eigenvalues --    1.96954   1.97306   2.01666   2.02044   2.05534
 Alpha virt. eigenvalues --    2.06786   2.06849   2.08815   2.09546   2.10486
 Alpha virt. eigenvalues --    2.12842   2.14374   2.16462   2.17653   2.21231
 Alpha virt. eigenvalues --    2.21993   2.23652   2.24050   2.27616   2.28535
 Alpha virt. eigenvalues --    2.30140   2.31483   2.36827   2.37563   2.39355
 Alpha virt. eigenvalues --    2.41505   2.43081   2.44070   2.46266   2.47485
 Alpha virt. eigenvalues --    2.49684   2.51250   2.52137   2.53997   2.54304
 Alpha virt. eigenvalues --    2.57423   2.57802   2.59856   2.61401   2.63195
 Alpha virt. eigenvalues --    2.64370   2.67022   2.68335   2.68940   2.70436
 Alpha virt. eigenvalues --    2.72671   2.73713   2.74654   2.75151   2.77583
 Alpha virt. eigenvalues --    2.79906   2.80952   2.81866   2.81938   2.84759
 Alpha virt. eigenvalues --    2.86682   2.88541   2.90551   2.93842   2.95272
 Alpha virt. eigenvalues --    2.96799   2.99545   3.00807   3.03326   3.04838
 Alpha virt. eigenvalues --    3.08535   3.09427   3.11151   3.15772   3.32420
 Alpha virt. eigenvalues --    3.35132   3.36340   3.37221   3.42768   3.43733
 Alpha virt. eigenvalues --    3.47597   3.50408   3.52669   3.53627   3.56257
 Alpha virt. eigenvalues --    3.56737   3.58331   3.59038   3.63663   4.32440
 Alpha virt. eigenvalues --    4.34176   4.39621   4.44050   4.53593   4.58456
 Alpha virt. eigenvalues --    4.63147   4.71920   4.77669   4.85512   4.89634
 Alpha virt. eigenvalues --    4.96703
          Condensed to atoms (all electrons):
              1          2          3          4          5          6
     1  C    5.873296  -0.648619   0.106970  -0.165881   0.162080   0.288991
     2  C   -0.648619   8.783162  -0.159287  -0.355120   0.312275  -1.714357
     3  N    0.106970  -0.159287   7.513716   0.180661  -0.242296  -0.064224
     4  C   -0.165881  -0.355120   0.180661   5.593588   0.070797   0.068752
     5  C    0.162080   0.312275  -0.242296   0.070797   5.624628  -0.058711
     6  C    0.288991  -1.714357  -0.064224   0.068752  -0.058711   9.279247
     7  C   -0.313589   1.679454   0.003282  -0.182632   0.119441  -2.491401
     8  C    0.198279  -1.481982  -0.142072   0.203272  -0.114793   1.439058
     9  H    0.367118  -0.057651   0.013770   0.028424  -0.017434   0.002728
    10  H    0.504448  -0.196520   0.031154   0.022848  -0.083020   0.006265
    11  H    0.049822   0.181624   0.000723   0.014285  -0.025887   0.027634
    12  H    0.038786  -0.005962  -0.052728   0.399518  -0.036485  -0.010015
    13  H   -0.007095   0.015371  -0.083011   0.408401  -0.014220   0.001537
    14  H   -0.021414  -0.034405   0.014468  -0.024826   0.378171   0.001305
    15  H   -0.055196   0.044354   0.005726  -0.029712   0.381713  -0.008650
    16  H   -0.009182   0.047614  -0.061588   0.002956   0.019559   0.328970
    17  H    0.003100  -0.031166   0.016083  -0.005398  -0.001162  -0.052416
    18  H    0.029203  -0.100141   0.016103  -0.005643   0.005197   0.027942
    19  O    0.008623  -0.105941   0.023353  -0.001827  -0.001550   0.005771
    20  H    0.001201   0.011431  -0.002615  -0.000305  -0.000337  -0.009968
    21  O   -0.005565  -0.015750   0.012035  -0.019805  -0.005268   0.040554
    22  H   -0.004409   0.004114  -0.008641  -0.011708   0.006633  -0.044845
    23  C    0.046075  -0.219062   0.073615  -0.060911  -0.044717  -0.635777
    24  H   -0.000008   0.008120   0.003706  -0.004314   0.000055  -0.117356
    25  H   -0.000685   0.038202   0.015586   0.000176   0.003921  -0.172056
    26  O    0.003592  -0.011930   0.009826  -0.015676  -0.001080  -0.107894
    27  H   -0.003819   0.028520   0.045249  -0.008142   0.003089  -0.074753
              7          8          9         10         11         12
     1  C   -0.313589   0.198279   0.367118   0.504448   0.049822   0.038786
     2  C    1.679454  -1.481982  -0.057651  -0.196520   0.181624  -0.005962
     3  N    0.003282  -0.142072   0.013770   0.031154   0.000723  -0.052728
     4  C   -0.182632   0.203272   0.028424   0.022848   0.014285   0.399518
     5  C    0.119441  -0.114793  -0.017434  -0.083020  -0.025887  -0.036485
     6  C   -2.491401   1.439058   0.002728   0.006265   0.027634  -0.010015
     7  C    8.214501  -1.609773  -0.005340  -0.002859  -0.017087  -0.006131
     8  C   -1.609773   7.032926   0.007961   0.041766   0.022470  -0.005042
     9  H   -0.005340   0.007961   0.518012  -0.024975  -0.004282  -0.000098
    10  H   -0.002859   0.041766  -0.024975   0.515439   0.004039  -0.000049
    11  H   -0.017087   0.022470  -0.004282   0.004039   0.549038   0.000190
    12  H   -0.006131  -0.005042  -0.000098  -0.000049   0.000190   0.551140
    13  H   -0.001195   0.009104  -0.000141   0.001052  -0.000425  -0.042364
    14  H    0.001127   0.011312  -0.005106   0.004100   0.000797  -0.006362
    15  H    0.002466   0.000553   0.000288  -0.005179  -0.000095   0.000894
    16  H    0.029567  -0.014013   0.000004  -0.000029  -0.000232  -0.000298
    17  H    0.303118   0.025633   0.000005  -0.000063  -0.000062   0.000009
    18  H   -0.000112   0.340055   0.000541   0.000016   0.002637   0.000007
    19  O   -0.049340   0.249843  -0.000202   0.000810   0.001196   0.000056
    20  H   -0.029459   0.036775   0.000000  -0.000004   0.000363   0.000000
    21  O    0.229194  -0.105314   0.000550  -0.002062  -0.000069   0.000446
    22  H    0.048988   0.010537  -0.000001   0.000106   0.000011   0.000000
    23  C    0.021115  -0.074611   0.000557   0.000273   0.022077   0.008268
    24  H    0.018871  -0.004040   0.000000   0.000000  -0.000005  -0.000012
    25  H    0.089246  -0.049500   0.000001   0.000000  -0.000202   0.000008
    26  O    0.030376  -0.006448   0.000004   0.000032   0.001174   0.003302
    27  H    0.021647  -0.017026  -0.000001   0.000000  -0.000232  -0.001167
             13         14         15         16         17         18
     1  C   -0.007095  -0.021414  -0.055196  -0.009182   0.003100   0.029203
     2  C    0.015371  -0.034405   0.044354   0.047614  -0.031166  -0.100141
     3  N   -0.083011   0.014468   0.005726  -0.061588   0.016083   0.016103
     4  C    0.408401  -0.024826  -0.029712   0.002956  -0.005398  -0.005643
     5  C   -0.014220   0.378171   0.381713   0.019559  -0.001162   0.005197
     6  C    0.001537   0.001305  -0.008650   0.328970  -0.052416   0.027942
     7  C   -0.001195   0.001127   0.002466   0.029567   0.303118  -0.000112
     8  C    0.009104   0.011312   0.000553  -0.014013   0.025633   0.340055
     9  H   -0.000141  -0.005106   0.000288   0.000004   0.000005   0.000541
    10  H    0.001052   0.004100  -0.005179  -0.000029  -0.000063   0.000016
    11  H   -0.000425   0.000797  -0.000095  -0.000232  -0.000062   0.002637
    12  H   -0.042364  -0.006362   0.000894  -0.000298   0.000009   0.000007
    13  H    0.562437   0.003983  -0.004858   0.005172  -0.000149  -0.000050
    14  H    0.003983   0.523477  -0.024308  -0.000011   0.000000  -0.000010
    15  H   -0.004858  -0.024308   0.514986  -0.000012   0.000000  -0.000008
    16  H    0.005172  -0.000011  -0.000012   0.549620  -0.000750  -0.000197
    17  H   -0.000149   0.000000   0.000000  -0.000750   0.570508  -0.001774
    18  H   -0.000050  -0.000010  -0.000008  -0.000197  -0.001774   0.552838
    19  O   -0.000049   0.000030   0.000012  -0.000432  -0.014542  -0.038261
    20  H   -0.000001   0.000000   0.000000  -0.000008   0.004571  -0.005312
    21  O   -0.003466  -0.000123   0.000008  -0.012006  -0.045037  -0.000688
    22  H    0.000374   0.000000  -0.000001   0.004522  -0.003932   0.000085
    23  C   -0.011148   0.000626  -0.000082  -0.059928   0.068606   0.001997
    24  H    0.000014   0.000000   0.000000  -0.004953   0.001125   0.000000
    25  H   -0.000005   0.000000   0.000000   0.004850  -0.000572  -0.000043
    26  O   -0.000856   0.000010  -0.000001   0.005322   0.000128   0.000045
    27  H    0.000282   0.000008  -0.000002  -0.000347  -0.000015  -0.000001
             19         20         21         22         23         24
     1  C    0.008623   0.001201  -0.005565  -0.004409   0.046075  -0.000008
     2  C   -0.105941   0.011431  -0.015750   0.004114  -0.219062   0.008120
     3  N    0.023353  -0.002615   0.012035  -0.008641   0.073615   0.003706
     4  C   -0.001827  -0.000305  -0.019805  -0.011708  -0.060911  -0.004314
     5  C   -0.001550  -0.000337  -0.005268   0.006633  -0.044717   0.000055
     6  C    0.005771  -0.009968   0.040554  -0.044845  -0.635777  -0.117356
     7  C   -0.049340  -0.029459   0.229194   0.048988   0.021115   0.018871
     8  C    0.249843   0.036775  -0.105314   0.010537  -0.074611  -0.004040
     9  H   -0.000202   0.000000   0.000550  -0.000001   0.000557   0.000000
    10  H    0.000810  -0.000004  -0.002062   0.000106   0.000273   0.000000
    11  H    0.001196   0.000363  -0.000069   0.000011   0.022077  -0.000005
    12  H    0.000056   0.000000   0.000446   0.000000   0.008268  -0.000012
    13  H   -0.000049  -0.000001  -0.003466   0.000374  -0.011148   0.000014
    14  H    0.000030   0.000000  -0.000123   0.000000   0.000626   0.000000
    15  H    0.000012   0.000000   0.000008  -0.000001  -0.000082   0.000000
    16  H   -0.000432  -0.000008  -0.012006   0.004522  -0.059928  -0.004953
    17  H   -0.014542   0.004571  -0.045037  -0.003932   0.068606   0.001125
    18  H   -0.038261  -0.005312  -0.000688   0.000085   0.001997   0.000000
    19  O    8.252472   0.232889   0.005544  -0.000274  -0.027066   0.000115
    20  H    0.232889   0.379184   0.000151  -0.000023   0.002307  -0.000009
    21  O    0.005544   0.000151   8.226437   0.236480   0.006595  -0.000372
    22  H   -0.000274  -0.000023   0.236480   0.373061   0.008242   0.000028
    23  C   -0.027066   0.002307   0.006595   0.008242   5.950102   0.481305
    24  H    0.000115  -0.000009  -0.000372   0.000028   0.481305   0.546798
    25  H    0.001963  -0.000596  -0.000036   0.000010   0.422844  -0.038680
    26  O    0.001400   0.000090   0.000219   0.000025   0.214754  -0.060321
    27  H   -0.000144   0.000000  -0.000091  -0.000001   0.022398   0.006808
             25         26         27
     1  C   -0.000685   0.003592  -0.003819
     2  C    0.038202  -0.011930   0.028520
     3  N    0.015586   0.009826   0.045249
     4  C    0.000176  -0.015676  -0.008142
     5  C    0.003921  -0.001080   0.003089
     6  C   -0.172056  -0.107894  -0.074753
     7  C    0.089246   0.030376   0.021647
     8  C   -0.049500  -0.006448  -0.017026
     9  H    0.000001   0.000004  -0.000001
    10  H    0.000000   0.000032   0.000000
    11  H   -0.000202   0.001174  -0.000232
    12  H    0.000008   0.003302  -0.001167
    13  H   -0.000005  -0.000856   0.000282
    14  H    0.000000   0.000010   0.000008
    15  H    0.000000  -0.000001  -0.000002
    16  H    0.004850   0.005322  -0.000347
    17  H   -0.000572   0.000128  -0.000015
    18  H   -0.000043   0.000045  -0.000001
    19  O    0.001963   0.001400  -0.000144
    20  H   -0.000596   0.000090   0.000000
    21  O   -0.000036   0.000219  -0.000091
    22  H    0.000010   0.000025  -0.000001
    23  C    0.422844   0.214754   0.022398
    24  H   -0.038680  -0.060321   0.006808
    25  H    0.566915  -0.042958  -0.004277
    26  O   -0.042958   8.284750   0.231669
    27  H   -0.004277   0.231669   0.368874
 Mulliken atomic charges:
              1
     1  C   -0.446122
     2  C   -0.016350
     3  N   -0.269564
     4  C   -0.101782
     5  C   -0.440599
     6  C    0.043671
     7  C   -0.103476
     8  C   -0.004930
     9  H    0.175271
    10  H    0.182412
    11  H    0.170499
    12  H    0.164090
    13  H    0.161304
    14  H    0.177153
    15  H    0.177104
    16  H    0.165833
    17  H    0.164152
    18  H    0.175573
    19  O   -0.544447
    20  H    0.379676
    21  O   -0.542562
    22  H    0.380618
    23  C   -0.218454
    24  H    0.163123
    25  H    0.165889
    26  O   -0.539554
    27  H    0.381473
 Sum of Mulliken atomic charges =   0.00000
 Mulliken charges with hydrogens summed into heavy atoms:
              1
     1  C   -0.088439
     2  C    0.154149
     3  N   -0.269564
     4  C    0.223612
     5  C   -0.086342
     6  C    0.209504
     7  C    0.060676
     8  C    0.170642
    19  O   -0.164771
    21  O   -0.161943
    23  C    0.110558
    26  O   -0.158081
 Sum of Mulliken charges with hydrogens summed into heavy atoms =   0.00000
 Electronic spatial extent (au):  <R**2>=           1947.2790
 Charge=              0.0000 electrons
 Dipole moment (field-independent basis, Debye):
    X=              1.5630    Y=              2.2633    Z=              2.7802  Tot=              3.9108
 Quadrupole moment (field-independent basis, Debye-Ang):
   XX=            -75.8247   YY=            -74.2502   ZZ=            -72.6033
   XY=            -13.0049   XZ=             -6.4139   YZ=             -1.0561
 Traceless Quadrupole moment (field-independent basis, Debye-Ang):
   XX=             -1.5987   YY=             -0.0241   ZZ=              1.6228
   XY=            -13.0049   XZ=             -6.4139   YZ=             -1.0561
 Octapole moment (field-independent basis, Debye-Ang**2):
  XXX=             14.1651  YYY=             29.7617  ZZZ=             27.3834  XYY=              5.3273
  XXY=             31.8913  XXZ=              6.1961  XZZ=             -5.8023  YZZ=             -9.3046
  YYZ=             -5.0162  XYZ=             -1.9876
 Hexadecapole moment (field-independent basis, Debye-Ang**3):
 XXXX=          -1231.5342 YYYY=           -804.3391 ZZZZ=           -401.9787 XXXY=            -84.2352
 XXXZ=            -14.9230 YYYX=            -79.2376 YYYZ=            -12.6250 ZZZX=            -19.4561
 ZZZY=             19.2577 XXYY=           -378.7092 XXZZ=           -271.1844 YYZZ=           -243.4740
 XXYZ=            -15.9412 YYXZ=              1.5328 ZZXY=             -4.9808
 N-N= 8.124113094634D+02 E-N=-3.010720950353D+03  KE= 5.886613880180D+02
 1\1\GINC-COMPUTE-3-0\SP\RmPW1PW91\6-31+G(d,p)\C8H15N1O3\MAMICHETTI.IQU
 IR\17-May-2024\0\\# mpw1pw91/6-31+G** nmr scrf=(pcm,solvent=water)\\co
 mment\\0,1\C,0,-2.326768,-0.273068,-0.455006\C,0,-0.847892,-0.355339,-
 0.872236\N,0,-0.178215,0.844382,-0.254929\C,0,-1.218617,1.633267,0.454
 317\C,0,-2.535617,1.227311,-0.211393\C,0,0.935776,0.370139,0.600758\C,
 0,0.674277,-1.124295,0.864772\C,0,-0.075464,-1.596912,-0.393277\H,0,-2
 .993409,-0.691842,-1.215244\H,0,-2.48812,-0.826708,0.476581\H,0,-0.768
 228,-0.306941,-1.964767\H,0,-1.012326,2.70664,0.37483\H,0,-1.24827,1.3
 79657,1.524108\H,0,-2.664664,1.756022,-1.163675\H,0,-3.403448,1.447859
 ,0.417711\H,0,0.932259,0.930486,1.543329\H,0,1.601258,-1.696029,1.0136
 83\H,0,-0.747209,-2.428347,-0.146614\O,0,0.828472,-1.988286,-1.433283\
 H,0,1.346347,-2.740537,-1.098893\O,0,-0.21293,-1.322039,1.974285\H,0,0
 .193411,-0.895987,2.74745\C,0,2.28016,0.636356,-0.084841\H,0,3.106774,
 0.387355,0.588839\H,0,2.376484,0.017438,-0.98697\O,0,2.404281,2.022783
 ,-0.407863\H,0,1.542935,2.245843,-0.809538\\Version=AM64L-G09RevC.01\S
 tate=1-A\HF=-594.1985826\RMSD=3.824e-09\Dipole=-0.6149127,-0.8904328,1
 .0938103\Quadrupole=-1.1885732,-0.0179183,1.2064914,-9.6688395,4.76854
 34,0.7851487\PG=C01 [X(C8H15N1O3)]\\@


      LET US REMEMBER, PLEASE, THAT THE SEARCH FOR THE CONSTITUTION
      OF THE WORLD IS ONE OF THE GREATEST AND NOBLEST PROBLEMS PRESENTED 
      BY NATURE.

                                                  -- GALILEO
 Job cpu time:  0 days  0 hours  9 minutes  6.1 seconds.
 File lengths (MBytes):  RWF=    112 Int=      0 D2E=      0 Chk=      7 Scr=      1
 Normal termination of Gaussian 09 at Fri May 17 12:45:40 2024.
