 Entering Gaussian System, Link 0=g09
 Input=/home/mamichetti.iquir/Linux/02_Cardona_A1A3_R__R_R_R_045_OptB.gjc
 Output=/home/mamichetti.iquir/Linux/02_Cardona_A1A3_R__R_R_R_045_OptB.log
 Initial command:
 /opt/ohpc/pub/apps/software/Gaussian/09/AMD64.SSE4a-enabled/g09/l1.exe /local/mamichetti.iquir/Gau-714769.inp -scrdir=/local/mamichetti.iquir/
 Entering Link 1 = /opt/ohpc/pub/apps/software/Gaussian/09/AMD64.SSE4a-enabled/g09/l1.exe PID=    714770.
  
 Copyright (c) 1988,1990,1992,1993,1995,1998,2003,2009,2011,
            Gaussian, Inc.  All Rights Reserved.
  
 This is part of the Gaussian(R) 09 program.  It is based on
 the Gaussian(R) 03 system (copyright 2003, Gaussian, Inc.),
 the Gaussian(R) 98 system (copyright 1998, Gaussian, Inc.),
 the Gaussian(R) 94 system (copyright 1995, Gaussian, Inc.),
 the Gaussian 92(TM) system (copyright 1992, Gaussian, Inc.),
 the Gaussian 90(TM) system (copyright 1990, Gaussian, Inc.),
 the Gaussian 88(TM) system (copyright 1988, Gaussian, Inc.),
 the Gaussian 86(TM) system (copyright 1986, Carnegie Mellon
 University), and the Gaussian 82(TM) system (copyright 1983,
 Carnegie Mellon University). Gaussian is a federally registered
 trademark of Gaussian, Inc.
  
 This software contains proprietary and confidential information,
 including trade secrets, belonging to Gaussian, Inc.
  
 This software is provided under written license and may be
 used, copied, transmitted, or stored only in accord with that
 written license.
  
 The following legend is applicable only to US Government
 contracts under FAR:
  
                    RESTRICTED RIGHTS LEGEND
  
 Use, reproduction and disclosure by the US Government is
 subject to restrictions as set forth in subparagraphs (a)
 and (c) of the Commercial Computer Software - Restricted
 Rights clause in FAR 52.227-19.
  
 Gaussian, Inc.
 340 Quinnipiac St., Bldg. 40, Wallingford CT 06492
  
  
 ---------------------------------------------------------------
 Warning -- This program may not be used in any manner that
 competes with the business of Gaussian, Inc. or will provide
 assistance to any competitor of Gaussian, Inc.  The licensee
 of this program is prohibited from giving any competitor of
 Gaussian, Inc. access to this program.  By using this program,
 the user acknowledges that Gaussian, Inc. is engaged in the
 business of creating and licensing software in the field of
 computational chemistry and represents and warrants to the
 licensee that it is not a competitor of Gaussian, Inc. and that
 it will not use this program in any manner prohibited above.
 ---------------------------------------------------------------
  

 Cite this work as:
 Gaussian 09, Revision C.01,
 M. J. Frisch, G. W. Trucks, H. B. Schlegel, G. E. Scuseria, 
 M. A. Robb, J. R. Cheeseman, G. Scalmani, V. Barone, B. Mennucci, 
 G. A. Petersson, H. Nakatsuji, M. Caricato, X. Li, H. P. Hratchian, 
 A. F. Izmaylov, J. Bloino, G. Zheng, J. L. Sonnenberg, M. Hada, 
 M. Ehara, K. Toyota, R. Fukuda, J. Hasegawa, M. Ishida, T. Nakajima, 
 Y. Honda, O. Kitao, H. Nakai, T. Vreven, J. A. Montgomery, Jr., 
 J. E. Peralta, F. Ogliaro, M. Bearpark, J. J. Heyd, E. Brothers, 
 K. N. Kudin, V. N. Staroverov, T. Keith, R. Kobayashi, J. Normand, 
 K. Raghavachari, A. Rendell, J. C. Burant, S. S. Iyengar, J. Tomasi, 
 M. Cossi, N. Rega, J. M. Millam, M. Klene, J. E. Knox, J. B. Cross, 
 V. Bakken, C. Adamo, J. Jaramillo, R. Gomperts, R. E. Stratmann, 
 O. Yazyev, A. J. Austin, R. Cammi, C. Pomelli, J. W. Ochterski, 
 R. L. Martin, K. Morokuma, V. G. Zakrzewski, G. A. Voth, 
 P. Salvador, J. J. Dannenberg, S. Dapprich, A. D. Daniels, 
 O. Farkas, J. B. Foresman, J. V. Ortiz, J. Cioslowski, 
 and D. J. Fox, Gaussian, Inc., Wallingford CT, 2010.
 
 ******************************************
 Gaussian 09:  AM64L-G09RevC.01 23-Sep-2011
                17-May-2024 
 ******************************************
 %nprocshared=4
 Will use up to    4 processors via shared memory.
 ------------------------------------------------
 # mpw1pw91/6-31+G** nmr scrf=(pcm,solvent=water)
 ------------------------------------------------
 1/38=1/1;
 2/12=2,17=6,18=5,40=1/2;
 3/5=1,6=6,7=111,11=2,16=1,25=1,30=1,70=2201,72=1,74=-7/1,2,8,3;
 4//1;
 5/5=2,38=5,53=1/2;
 8/6=1,10=90,11=11/1;
 10/13=100,45=16/2;
 6/7=2,8=2,9=2,10=2,28=1/1;
 99/9=1/99;
 -------
 comment
 -------
 Charge =  0 Multiplicity = 1
 Symbolic Z-Matrix:
 6                    -2.07582   1.50286  -0.09807 
 6                    -1.21404   0.3679   -0.68287 
 7                     0.21686   0.82045  -0.57623 
 6                     0.2132    2.1321    0.11696 
 6                    -1.12013   2.2146    0.87012 
 6                     0.99033  -0.23489   0.11934 
 6                     0.14213  -1.50493  -0.05396 
 6                    -1.28184  -0.96263   0.07009 
 1                    -2.38553   2.18921  -0.89487 
 1                    -2.98237   1.11795   0.38072 
 1                    -1.47599   0.17486  -1.73105 
 1                     0.2717    2.9421   -0.62276 
 1                     1.08949   2.22052   0.76329 
 1                    -1.4203    3.24283   1.09673 
 1                    -1.05573   1.66438   1.81734 
 1                     1.06308  -0.02829   1.20188 
 1                     0.27688  -1.92349  -1.05841 
 1                    -1.4855   -0.78469   1.1387 
 8                    -2.29245  -1.80009  -0.48544 
 1                    -2.28668  -2.62692   0.0263 
 8                     0.46052  -2.56433   0.8431 
 1                     0.34529  -2.221     1.74699 
 6                     2.40333  -0.40862  -0.41227 
 1                     2.83118  -1.32741   0.01542 
 1                     2.37178  -0.5232   -1.505 
 8                     3.19469   0.72793  -0.04472 
 1                     4.07961   0.59366  -0.42123 
 
                          Input orientation:                          
 ---------------------------------------------------------------------
 Center     Atomic      Atomic             Coordinates (Angstroms)
 Number     Number       Type             X           Y           Z
 ---------------------------------------------------------------------
      1          6           0       -2.075821    1.502856   -0.098069
      2          6           0       -1.214037    0.367896   -0.682873
      3          7           0        0.216860    0.820448   -0.576234
      4          6           0        0.213204    2.132097    0.116957
      5          6           0       -1.120126    2.214599    0.870115
      6          6           0        0.990328   -0.234886    0.119342
      7          6           0        0.142130   -1.504931   -0.053957
      8          6           0       -1.281838   -0.962632    0.070092
      9          1           0       -2.385535    2.189215   -0.894874
     10          1           0       -2.982367    1.117953    0.380722
     11          1           0       -1.475988    0.174859   -1.731046
     12          1           0        0.271701    2.942102   -0.622760
     13          1           0        1.089494    2.220520    0.763289
     14          1           0       -1.420301    3.242834    1.096734
     15          1           0       -1.055734    1.664379    1.817341
     16          1           0        1.063084   -0.028287    1.201875
     17          1           0        0.276876   -1.923489   -1.058409
     18          1           0       -1.485498   -0.784694    1.138703
     19          8           0       -2.292449   -1.800089   -0.485440
     20          1           0       -2.286682   -2.626920    0.026300
     21          8           0        0.460516   -2.564325    0.843103
     22          1           0        0.345294   -2.221001    1.746994
     23          6           0        2.403332   -0.408623   -0.412267
     24          1           0        2.831182   -1.327411    0.015419
     25          1           0        2.371776   -0.523204   -1.505001
     26          8           0        3.194688    0.727926   -0.044720
     27          1           0        4.079611    0.593661   -0.421228
 ---------------------------------------------------------------------
                    Distance matrix (angstroms):
                    1          2          3          4          5
     1  C    0.000000
     2  C    1.540390   0.000000
     3  N    2.439407   1.504540   0.000000
     4  C    2.383656   2.406065   1.483560   0.000000
     5  C    1.535354   2.414726   2.413113   1.533565   0.000000
     6  C    3.531046   2.422007   1.481826   2.491292   3.319285
     7  C    3.737383   2.396290   2.384480   3.641735   4.035109
     8  C    2.595634   1.530313   2.417273   3.437251   3.280394
     9  H    1.096316   2.175903   2.957620   2.789356   2.171886
    10  H    1.095088   2.195634   3.352511   3.362995   2.215870
    11  H    2.188604   1.097519   2.148514   3.177934   3.324638
    12  H    2.803139   2.972805   2.122873   1.098504   2.166822
    13  H    3.358005   3.290875   2.125091   1.092450   2.212209
    14  H    2.210155   3.387450   3.368542   2.205003   1.094865
    15  H    2.176112   2.820815   2.839175   2.172618   1.097327
    16  H    3.726524   2.982368   2.144322   2.562538   3.147540
    17  H    4.265827   2.759401   2.786626   4.222951   4.774368
    18  H    2.666640   2.172624   2.900950   3.526645   3.033380
    19  O    3.332631   2.429426   3.629337   4.701411   4.396543
    20  H    4.137025   3.259205   4.302919   5.376420   5.051058
    21  O    4.884749   3.705489   3.678393   4.758659   5.033614
    22  H    4.809695   3.877906   3.829399   4.650154   4.752991
    23  C    4.880091   3.709659   2.513595   3.395879   4.576085
    24  H    5.665860   4.441337   3.434826   4.339621   5.374865
    25  H    5.085813   3.785236   2.704010   3.786925   5.032904
    26  O    5.327441   4.469196   3.026306   3.299558   4.654540
    27  H    6.230603   5.304916   3.872506   4.195895   5.597524
                    6          7          8          9         10
     6  C    0.000000
     7  C    1.537038   0.000000
     8  C    2.386373   1.528778   0.000000
     9  H    4.278008   4.554442   3.476125   0.000000
    10  H    4.204854   4.102554   2.705018   1.769451   0.000000
    11  H    3.110392   2.872739   2.139083   2.363068   2.760103
    12  H    3.340717   4.485134   4.259164   2.775210   3.863089
    13  H    2.540378   3.929933   4.029416   3.850495   4.235807
    14  H    4.342921   5.128991   4.331179   2.451182   2.732735
    15  H    3.267534   3.870550   3.163098   3.065931   2.464624
    16  H    1.104470   2.146101   2.766332   4.605067   4.284137
    17  H    2.178874   1.096481   2.150895   4.901990   4.684456
    18  H    2.733331   2.142511   1.102302   3.713440   2.536773
    19  O    3.686766   2.490074   1.425231   4.011340   3.121088
    20  H    4.058236   2.676645   1.944604   4.904436   3.825398
    21  O    2.496160   1.424220   2.489732   5.806609   5.062254
    22  H    2.647635   1.948706   2.653875   5.821245   4.908018
    23  C    1.519662   2.538368   3.757669   5.469453   5.653762
    24  H    2.143165   2.695798   4.129526   6.356841   6.317484
    25  H    2.151747   2.835602   4.002863   5.510125   5.908993
    26  O    2.411043   3.782043   4.786487   5.830696   6.203961
    27  H    3.243821   4.476911   5.604336   6.675945   7.126678
                   11         12         13         14         15
    11  H    0.000000
    12  H    3.455481   0.000000
    13  H    4.121666   1.763689   0.000000
    14  H    4.172758   2.431043   2.730455   0.000000
    15  H    3.871219   3.057573   2.454042   1.773049   0.000000
    16  H    3.884608   3.574743   2.291329   4.108344   2.780882
    17  H    2.815677   4.885058   4.599102   5.849440   4.787336
    18  H    3.025937   4.481016   3.975277   4.028274   2.577442
    19  O    2.473573   5.392782   5.400200   5.356770   4.339908
    20  H    3.405210   6.162841   5.953099   6.029134   4.810230
    21  O    4.228406   5.701328   4.826668   6.109411   4.596748
    22  H    4.599345   5.681442   4.609622   5.778724   4.130860
    23  C    4.138690   3.976873   3.165517   5.498217   4.607996
    24  H    4.884534   5.018661   4.022512   6.334942   5.225500
    25  H    3.917100   4.146928   3.783835   5.944066   5.250838
    26  O    4.996478   3.712217   2.704174   5.378271   4.733952
    27  H    5.723259   4.478389   3.604241   6.290577   5.703455
                   16         17         18         19         20
    16  H    0.000000
    17  H    3.052671   0.000000
    18  H    2.659213   3.038111   0.000000
    19  O    4.152820   2.635328   2.078470   0.000000
    20  H    4.399523   2.871104   2.296330   0.972399   0.000000
    21  O    2.631215   2.014979   2.653570   3.150857   2.866737
    22  H    2.370732   2.821964   2.405160   3.481180   3.170624
    23  C    2.132223   2.689634   4.203562   4.898152   5.206670
    24  H    2.494308   2.834236   4.493332   5.169708   5.280282
    25  H    3.047096   2.559072   4.683600   4.942159   5.335891
    26  O    2.582555   4.070773   5.058918   6.057538   6.426932
    27  H    3.481482   4.604654   5.941690   6.807151   7.148574
                   21         22         23         24         25
    21  O    0.000000
    22  H    0.973738   0.000000
    23  C    3.161889   3.490364   0.000000
    24  H    2.799120   3.158559   1.100065   0.000000
    25  H    3.651395   4.191016   1.099178   1.780303   0.000000
    26  O    4.370680   4.474981   1.432857   2.088100   2.091634
    27  H    4.966816   5.154477   1.953091   2.332328   2.310552
                   26         27
    26  O    0.000000
    27  H    0.971017   0.000000
 Stoichiometry    C8H15NO3
 Framework group  C1[X(C8H15NO3)]
 Deg. of freedom    75
 Full point group                 C1      NOp   1
 Largest Abelian subgroup         C1      NOp   1
 Largest concise Abelian subgroup C1      NOp   1
                         Standard orientation:                         
 ---------------------------------------------------------------------
 Center     Atomic      Atomic             Coordinates (Angstroms)
 Number     Number       Type             X           Y           Z
 ---------------------------------------------------------------------
      1          6           0        2.075821   -1.502856   -0.098069
      2          6           0        1.214037   -0.367896   -0.682873
      3          7           0       -0.216860   -0.820448   -0.576234
      4          6           0       -0.213204   -2.132097    0.116957
      5          6           0        1.120126   -2.214599    0.870115
      6          6           0       -0.990328    0.234886    0.119342
      7          6           0       -0.142130    1.504931   -0.053957
      8          6           0        1.281838    0.962632    0.070092
      9          1           0        2.385535   -2.189215   -0.894874
     10          1           0        2.982367   -1.117952    0.380722
     11          1           0        1.475988   -0.174859   -1.731046
     12          1           0       -0.271700   -2.942102   -0.622760
     13          1           0       -1.089494   -2.220520    0.763289
     14          1           0        1.420302   -3.242834    1.096734
     15          1           0        1.055734   -1.664379    1.817341
     16          1           0       -1.063084    0.028287    1.201875
     17          1           0       -0.276876    1.923489   -1.058409
     18          1           0        1.485498    0.784694    1.138703
     19          8           0        2.292449    1.800089   -0.485440
     20          1           0        2.286682    2.626920    0.026300
     21          8           0       -0.460516    2.564325    0.843103
     22          1           0       -0.345294    2.221001    1.746994
     23          6           0       -2.403332    0.408623   -0.412267
     24          1           0       -2.831182    1.327411    0.015419
     25          1           0       -2.371776    0.523204   -1.505001
     26          8           0       -3.194688   -0.727927   -0.044720
     27          1           0       -4.079611   -0.593662   -0.421228
 ---------------------------------------------------------------------
 Rotational constants (GHZ):      1.0871335      0.9108245      0.5566519
 Standard basis: 6-31+G(d,p) (6D, 7F)
 There are   303 symmetry adapted basis functions of A   symmetry.
 Integral buffers will be    131072 words long.
 Raffenetti 2 integral format.
 Two-electron integral symmetry is turned on.
   303 basis functions,   489 primitive gaussians,   303 cartesian basis functions
    47 alpha electrons       47 beta electrons
       nuclear repulsion energy       798.5080991521 Hartrees.
 NAtoms=   27 NActive=   27 NUniq=   27 SFac= 1.00D+00 NAtFMM=   60 NAOKFM=F Big=F
 ------------------------------------------------------------------------------
 Polarizable Continuum Model (PCM)
 =================================
 Model                : PCM.
 Atomic radii         : UFF (Universal Force Field).
 Polarization charges : Total charges.
 Charge compensation  : None.
 Solution method      : Matrix inversion.
 Cavity type          : Scaled VdW (van der Waals Surface) (Alpha=1.100).
 Cavity algorithm     : GePol (No added spheres)
                        Default sphere list used, NSphG=   27.
                        Lebedev-Laikov grids with approx.  5.0 points / Ang**2.
                        Smoothing algorithm: Karplus/York (Gamma=1.0000).
                        Polarization charges: spherical gaussians, with
                                              point-specific exponents (IZeta= 3).
                        Self-potential: point-specific (ISelfS= 7).
                        Self-field    : sphere-specific E.n sum rule (ISelfD= 2).
 Solvent              : Water, Eps=  78.355300 Eps(inf)=   1.777849
 ------------------------------------------------------------------------------
 One-electron integrals computed using PRISM.
 NBasis=   303 RedAO= T  NBF=   303
 NBsUse=   303 1.00D-06 NBFU=   303
 Harris functional with IExCor=  908 diagonalized for initial guess.
 ExpMin= 4.38D-02 ExpMax= 5.48D+03 ExpMxC= 8.25D+02 IAcc=2 IRadAn=         4 AccDes= 0.00D+00
 HarFok:  IExCor=  908 AccDes= 0.00D+00 IRadAn=         4 IDoV= 1
 ScaDFX=  1.000000  1.000000  1.000000  1.000000
 FoFCou: FMM=F IPFlag=           0 FMFlag=      100000 FMFlg1=           0
         NFxFlg=           0 DoJE=T BraDBF=F KetDBF=T FulRan=T
         Omega=  0.000000  0.000000  1.000000  0.000000  0.000000 ICntrl=     500 IOpCl=  0
         NMat0=    1 NMatS0=    1 NMatT0=    0 NMatD0=    1 NMtDS0=    0 NMtDT0=    0
         I1Cent=           4 NGrid=           0.
 Petite list used in FoFCou.
 Initial guess orbital symmetries:
       Occupied  (A) (A) (A) (A) (A) (A) (A) (A) (A) (A) (A) (A)
                 (A) (A) (A) (A) (A) (A) (A) (A) (A) (A) (A) (A)
                 (A) (A) (A) (A) (A) (A) (A) (A) (A) (A) (A) (A)
                 (A) (A) (A) (A) (A) (A) (A) (A) (A) (A) (A)
       Virtual   (A) (A) (A) (A) (A) (A) (A) (A) (A) (A) (A) (A)
                 (A) (A) (A) (A) (A) (A) (A) (A) (A) (A) (A) (A)
                 (A) (A) (A) (A) (A) (A) (A) (A) (A) (A) (A) (A)
                 (A) (A) (A) (A) (A) (A) (A) (A) (A) (A) (A) (A)
                 (A) (A) (A) (A) (A) (A) (A) (A) (A) (A) (A) (A)
                 (A) (A) (A) (A) (A) (A) (A) (A) (A) (A) (A) (A)
                 (A) (A) (A) (A) (A) (A) (A) (A) (A) (A) (A) (A)
                 (A) (A) (A) (A) (A) (A) (A) (A) (A) (A) (A) (A)
                 (A) (A) (A) (A) (A) (A) (A) (A) (A) (A) (A) (A)
                 (A) (A) (A) (A) (A) (A) (A) (A) (A) (A) (A) (A)
                 (A) (A) (A) (A) (A) (A) (A) (A) (A) (A) (A) (A)
                 (A) (A) (A) (A) (A) (A) (A) (A) (A) (A) (A) (A)
                 (A) (A) (A) (A) (A) (A) (A) (A) (A) (A) (A) (A)
                 (A) (A) (A) (A) (A) (A) (A) (A) (A) (A) (A) (A)
                 (A) (A) (A) (A) (A) (A) (A) (A) (A) (A) (A) (A)
                 (A) (A) (A) (A) (A) (A) (A) (A) (A) (A) (A) (A)
                 (A) (A) (A) (A) (A) (A) (A) (A) (A) (A) (A) (A)
                 (A) (A) (A) (A) (A) (A) (A) (A) (A) (A) (A) (A)
                 (A) (A) (A) (A) (A) (A) (A) (A) (A) (A) (A) (A)
                 (A) (A) (A) (A) (A) (A) (A) (A) (A) (A) (A) (A)
                 (A) (A) (A) (A) (A) (A) (A) (A) (A) (A) (A) (A)
                 (A) (A) (A) (A)
 The electronic state of the initial guess is 1-A.
 Requested convergence on RMS density matrix=1.00D-08 within 128 cycles.
 Requested convergence on MAX density matrix=1.00D-06.
 Requested convergence on             energy=1.00D-06.
 No special actions if energy rises.
 Error on total polarization charges =  0.01437
 SCF Done:  E(RmPW1PW91) =  -594.197831113     A.U. after   13 cycles
             Convg  =    0.3257D-08             -V/T =  2.0094
 Range of M.O.s used for correlation:     1   303
 NBasis=   303 NAE=    47 NBE=    47 NFC=     0 NFV=     0
 NROrb=    303 NOA=    47 NOB=    47 NVA=   256 NVB=   256

 **** Warning!!: The largest alpha MO coefficient is  0.57465965D+02

 NEqPCM:  Using equilibrium solvation (IEInf=0, Eps=  78.3553, EpsInf=   1.7778)
          Differentiating once with respect to magnetic field using GIAOs.
          Electric field/nuclear overlap derivatives assumed to be zero.
 FoFCou: FMM=F IPFlag=           0 FMFlag=    10101102 FMFlg1=           0
         NFxFlg=    40000000 DoJE=F BraDBF=F KetDBF=T FulRan=T
         Omega=  0.000000  0.000000  1.000000  0.000000  0.000000 ICntrl=    6100 IOpCl=  0
         NMat0=    1 NMatS0=    1 NMatT0=    0 NMatD0=    1 NMtDS0=    0 NMtDT0=    0
         I1Cent=           7 NGrid=        1836.
 Symmetry not used in FoFCou.
          There are     3 degrees of freedom in the 1st order CPHF.  IDoFFX=0.
      3 vectors produced by pass  0 Test12= 4.01D-13 3.33D-08 XBig12= 3.17D+01 9.15D-01.
 AX will form     3 AO Fock derivatives at one time.
      3 vectors produced by pass  1 Test12= 4.01D-13 3.33D-08 XBig12= 8.22D-02 3.86D-02.
      3 vectors produced by pass  2 Test12= 4.01D-13 3.33D-08 XBig12= 1.63D-04 2.04D-03.
      3 vectors produced by pass  3 Test12= 4.01D-13 3.33D-08 XBig12= 6.83D-07 1.72D-04.
      3 vectors produced by pass  4 Test12= 4.01D-13 3.33D-08 XBig12= 2.45D-09 1.12D-05.
      3 vectors produced by pass  5 Test12= 4.01D-13 3.33D-08 XBig12= 8.86D-12 4.16D-07.
 Inverted reduced A of dimension    18 with in-core refinement.
 Calculating GIAO nuclear magnetic shielding tensors.
 SCF GIAO Magnetic shielding tensor (ppm):
      1  C    Isotropic =   164.0842   Anisotropy =    23.1936
   XX=   170.4021   YX=    -1.3581   ZX=     5.6916
   XY=    -6.8081   YY=   167.0448   ZY=   -12.3201
   XZ=    -4.9959   YZ=   -19.8690   ZZ=   154.8056
   Eigenvalues:   143.5506   169.1553   179.5466
      2  C    Isotropic =   128.6404   Anisotropy =    54.8270
   XX=   153.9008   YX=    15.6831   ZX=     1.7018
   XY=    22.8916   YY=   131.4845   ZY=   -12.2468
   XZ=    -3.9919   YZ=     2.1493   ZZ=   100.5358
   Eigenvalues:    99.6491   121.0803   165.1917
      3  N    Isotropic =   195.7074   Anisotropy =    76.3539
   XX=   237.2825   YX=   -13.1719   ZX=   -13.3137
   XY=   -24.5250   YY=   205.3219   ZY=   -11.1579
   XZ=   -13.1327   YZ=    -9.6191   ZZ=   144.5177
   Eigenvalues:   140.0008   200.5114   246.6100
      4  C    Isotropic =   139.0953   Anisotropy =    57.6583
   XX=   130.8310   YX=    -5.8771   ZX=    -2.8017
   XY=     3.8884   YY=   163.2920   ZY=   -25.9338
   XZ=    11.7153   YZ=   -29.2719   ZZ=   123.1628
   Eigenvalues:   108.5436   131.2081   177.5341
      5  C    Isotropic =   171.2700   Anisotropy =    18.7065
   XX=   181.6519   YX=     3.5042   ZX=     5.2922
   XY=     4.3016   YY=   171.3379   ZY=   -12.6967
   XZ=     5.7074   YZ=   -20.9909   ZZ=   160.8203
   Eigenvalues:   147.1169   182.9522   183.7410
      6  C    Isotropic =   124.6678   Anisotropy =    39.3852
   XX=   115.4248   YX=    -4.5652   ZX=    -4.0233
   XY=    -5.4218   YY=   144.4136   ZY=    17.0969
   XZ=   -23.6261   YZ=     6.0138   ZZ=   114.1650
   Eigenvalues:   100.3440   122.7348   150.9246
      7  C    Isotropic =   115.6872   Anisotropy =    38.7450
   XX=   123.8531   YX=    -7.1199   ZX=    -9.5991
   XY=    -5.6213   YY=   123.5936   ZY=    28.3960
   XZ=    -9.1048   YZ=    12.9166   ZZ=    99.6149
   Eigenvalues:    87.0213   118.5231   141.5172
      8  C    Isotropic =   113.1506   Anisotropy =    27.0751
   XX=   129.7245   YX=     6.5842   ZX=   -13.9498
   XY=    -0.4557   YY=   116.4198   ZY=    -6.8559
   XZ=     3.5917   YZ=     2.5818   ZZ=    93.3076
   Eigenvalues:    92.4642   115.7869   131.2007
      9  H    Isotropic =    29.8167   Anisotropy =    11.8320
   XX=    28.8252   YX=    -3.8653   ZX=    -3.8054
   XY=    -4.9416   YY=    30.4844   ZY=     3.2763
   XZ=    -4.7596   YZ=     3.0015   ZZ=    30.1405
   Eigenvalues:    24.5750    27.1704    37.7047
     10  H    Isotropic =    29.7437   Anisotropy =     9.5294
   XX=    35.3748   YX=     0.8680   ZX=     2.7319
   XY=     1.4572   YY=    28.0634   ZY=    -0.3973
   XZ=     2.1217   YZ=    -0.1478   ZZ=    25.7930
   Eigenvalues:    25.1128    28.0218    36.0967
     11  H    Isotropic =    28.2191   Anisotropy =     7.0308
   XX=    27.7191   YX=     0.2919   ZX=    -3.0795
   XY=     0.2222   YY=    25.8708   ZY=    -1.1898
   XZ=    -2.5718   YZ=    -1.4318   ZZ=    31.0674
   Eigenvalues:    25.3964    26.3546    32.9063
     12  H    Isotropic =    28.6810   Anisotropy =    11.3566
   XX=    25.2597   YX=     1.0351   ZX=     2.3818
   XY=     1.9140   YY=    34.7775   ZY=     3.6626
   XZ=     3.3504   YZ=     2.5336   ZZ=    26.0058
   Eigenvalues:    22.6570    27.1339    36.2521
     13  H    Isotropic =    28.6487   Anisotropy =     7.3573
   XX=    32.2886   YX=     1.1825   ZX=    -1.3366
   XY=     1.2818   YY=    28.8183   ZY=    -4.0155
   XZ=    -1.7938   YZ=    -2.7253   ZZ=    24.8394
   Eigenvalues:    22.8528    29.5398    33.5536
     14  H    Isotropic =    30.0791   Anisotropy =    12.5618
   XX=    27.5169   YX=    -2.6660   ZX=     0.9375
   XY=    -3.0284   YY=    35.6470   ZY=    -4.5421
   XZ=     1.1986   YZ=    -4.5535   ZZ=    27.0734
   Eigenvalues:    25.0975    26.6862    38.4536
     15  H    Isotropic =    29.9035   Anisotropy =     8.9175
   XX=    27.1072   YX=    -0.0016   ZX=     0.4074
   XY=    -0.3060   YY=    26.8597   ZY=     1.4014
   XZ=     0.4448   YZ=     0.3523   ZZ=    35.7436
   Eigenvalues:    26.6812    27.1808    35.8485
     16  H    Isotropic =    29.0596   Anisotropy =     5.5097
   XX=    29.7994   YX=    -1.8155   ZX=    -1.5054
   XY=    -1.8607   YY=    27.9636   ZY=     2.5750
   XZ=    -1.8638   YZ=     1.1443   ZZ=    29.4158
   Eigenvalues:    26.5205    27.9256    32.7327
     17  H    Isotropic =    28.1795   Anisotropy =     1.7966
   XX=    26.5924   YX=    -0.6220   ZX=     0.2499
   XY=     0.2855   YY=    28.8741   ZY=     0.4806
   XZ=     0.3082   YZ=    -1.1864   ZZ=    29.0720
   Eigenvalues:    26.5542    28.6071    29.3773
     18  H    Isotropic =    28.1770   Anisotropy =     3.7502
   XX=    27.2280   YX=     2.2333   ZX=    -0.2613
   XY=     1.6379   YY=    29.5301   ZY=    -1.1305
   XZ=     0.5576   YZ=     0.1247   ZZ=    27.7730
   Eigenvalues:    26.0433    27.8107    30.6771
     19  O    Isotropic =   298.5447   Anisotropy =    43.1399
   XX=   272.3643   YX=    10.2585   ZX=     7.1107
   XY=    25.0480   YY=   319.8030   ZY=    -7.4574
   XZ=   -13.2944   YZ=    -3.7146   ZZ=   303.4669
   Eigenvalues:   266.4778   301.8518   327.3047
     20  H    Isotropic =    29.3248   Anisotropy =    18.7816
   XX=    25.7513   YX=     5.4963   ZX=    -1.4408
   XY=     4.0606   YY=    37.4904   ZY=     7.6239
   XZ=    -0.6785   YZ=     7.1551   ZZ=    24.7329
   Eigenvalues:    19.7111    26.4174    41.8459
     21  O    Isotropic =   293.6671   Anisotropy =    97.9390
   XX=   252.3426   YX=    -8.0315   ZX=    18.7779
   XY=   -10.0375   YY=   271.9063   ZY=   -29.1148
   XZ=     3.5356   YZ=    12.0614   ZZ=   356.7525
   Eigenvalues:   248.2944   273.7472   358.9598
     22  H    Isotropic =    30.9640   Anisotropy =    15.4254
   XX=    23.1703   YX=    -2.1660   ZX=     0.3545
   XY=    -1.0973   YY=    28.5133   ZY=    -0.0199
   XZ=     0.5075   YZ=    -1.1097   ZZ=    41.2083
   Eigenvalues:    22.7077    28.9366    41.2475
     23  C    Isotropic =   125.8547   Anisotropy =    48.6195
   XX=   137.4255   YX=    18.1024   ZX=    -3.2415
   XY=    24.3068   YY=   130.3596   ZY=   -14.4806
   XZ=    -6.5661   YZ=   -10.1742   ZZ=   109.7790
   Eigenvalues:   103.0152   116.2812   158.2677
     24  H    Isotropic =    27.5660   Anisotropy =     4.9182
   XX=    29.9523   YX=     0.5128   ZX=     0.2572
   XY=    -1.1533   YY=    30.6191   ZY=     1.2332
   XZ=    -1.1766   YZ=     0.3759   ZZ=    22.1266
   Eigenvalues:    22.0280    29.8253    30.8449
     25  H    Isotropic =    27.9723   Anisotropy =     5.0925
   XX=    28.1108   YX=     1.7076   ZX=     0.5652
   XY=     2.0963   YY=    27.0328   ZY=    -4.3465
   XZ=     1.8097   YZ=    -2.3193   ZZ=    28.7734
   Eigenvalues:    23.4003    29.1494    31.3673
     26  O    Isotropic =   313.1417   Anisotropy =    88.7179
   XX=   361.9131   YX=    15.9927   ZX=    21.3874
   XY=    -5.1879   YY=   277.3329   ZY=   -10.0966
   XZ=    33.1728   YZ=    -6.6456   ZZ=   300.1792
   Eigenvalues:   271.9796   295.1586   372.2870
     27  H    Isotropic =    30.2640   Anisotropy =    21.6732
   XX=    42.6175   YX=     0.4964   ZX=     6.9913
   XY=     1.8479   YY=    24.5698   ZY=    -1.8363
   XZ=     6.2751   YZ=    -2.6707   ZZ=    23.6046
   Eigenvalues:    20.1129    25.9663    44.7128
 End of Minotr Frequency-dependent properties file   721 does not exist.
 End of Minotr Frequency-dependent properties file   722 does not exist.

 **********************************************************************

            Population analysis using the SCF density.

 **********************************************************************

 Orbital symmetries:
       Occupied  (A) (A) (A) (A) (A) (A) (A) (A) (A) (A) (A) (A)
                 (A) (A) (A) (A) (A) (A) (A) (A) (A) (A) (A) (A)
                 (A) (A) (A) (A) (A) (A) (A) (A) (A) (A) (A) (A)
                 (A) (A) (A) (A) (A) (A) (A) (A) (A) (A) (A)
       Virtual   (A) (A) (A) (A) (A) (A) (A) (A) (A) (A) (A) (A)
                 (A) (A) (A) (A) (A) (A) (A) (A) (A) (A) (A) (A)
                 (A) (A) (A) (A) (A) (A) (A) (A) (A) (A) (A) (A)
                 (A) (A) (A) (A) (A) (A) (A) (A) (A) (A) (A) (A)
                 (A) (A) (A) (A) (A) (A) (A) (A) (A) (A) (A) (A)
                 (A) (A) (A) (A) (A) (A) (A) (A) (A) (A) (A) (A)
                 (A) (A) (A) (A) (A) (A) (A) (A) (A) (A) (A) (A)
                 (A) (A) (A) (A) (A) (A) (A) (A) (A) (A) (A) (A)
                 (A) (A) (A) (A) (A) (A) (A) (A) (A) (A) (A) (A)
                 (A) (A) (A) (A) (A) (A) (A) (A) (A) (A) (A) (A)
                 (A) (A) (A) (A) (A) (A) (A) (A) (A) (A) (A) (A)
                 (A) (A) (A) (A) (A) (A) (A) (A) (A) (A) (A) (A)
                 (A) (A) (A) (A) (A) (A) (A) (A) (A) (A) (A) (A)
                 (A) (A) (A) (A) (A) (A) (A) (A) (A) (A) (A) (A)
                 (A) (A) (A) (A) (A) (A) (A) (A) (A) (A) (A) (A)
                 (A) (A) (A) (A) (A) (A) (A) (A) (A) (A) (A) (A)
                 (A) (A) (A) (A) (A) (A) (A) (A) (A) (A) (A) (A)
                 (A) (A) (A) (A) (A) (A) (A) (A) (A) (A) (A) (A)
                 (A) (A) (A) (A) (A) (A) (A) (A) (A) (A) (A) (A)
                 (A) (A) (A) (A) (A) (A) (A) (A) (A) (A) (A) (A)
                 (A) (A) (A) (A) (A) (A) (A) (A) (A) (A) (A) (A)
                 (A) (A) (A) (A)
 The electronic state is 1-A.
 Alpha  occ. eigenvalues --  -19.26543 -19.26120 -19.25444 -14.41301 -10.30701
 Alpha  occ. eigenvalues --  -10.30460 -10.29409 -10.28329 -10.27848 -10.26603
 Alpha  occ. eigenvalues --  -10.24639 -10.24405  -1.07637  -1.05835  -1.05510
 Alpha  occ. eigenvalues --   -0.96533  -0.82882  -0.79481  -0.75536  -0.71588
 Alpha  occ. eigenvalues --   -0.66074  -0.63171  -0.60135  -0.57581  -0.55643
 Alpha  occ. eigenvalues --   -0.53947  -0.52754  -0.50394  -0.48186  -0.46969
 Alpha  occ. eigenvalues --   -0.45667  -0.45369  -0.44235  -0.41839  -0.40353
 Alpha  occ. eigenvalues --   -0.39795  -0.38688  -0.37343  -0.36702  -0.35618
 Alpha  occ. eigenvalues --   -0.35028  -0.34735  -0.33105  -0.32293  -0.29654
 Alpha  occ. eigenvalues --   -0.28389  -0.23246
 Alpha virt. eigenvalues --    0.00729   0.01192   0.01875   0.01972   0.03268
 Alpha virt. eigenvalues --    0.04073   0.04429   0.04787   0.05631   0.07330
 Alpha virt. eigenvalues --    0.07666   0.08060   0.08363   0.08950   0.09334
 Alpha virt. eigenvalues --    0.10382   0.11506   0.11850   0.12422   0.12626
 Alpha virt. eigenvalues --    0.13344   0.13673   0.14300   0.14510   0.15039
 Alpha virt. eigenvalues --    0.15529   0.15977   0.16409   0.17613   0.18172
 Alpha virt. eigenvalues --    0.18831   0.19159   0.19669   0.20606   0.20894
 Alpha virt. eigenvalues --    0.21990   0.22387   0.22850   0.23155   0.23333
 Alpha virt. eigenvalues --    0.23815   0.24389   0.24658   0.25291   0.26223
 Alpha virt. eigenvalues --    0.26469   0.26858   0.27581   0.28164   0.28443
 Alpha virt. eigenvalues --    0.29264   0.30142   0.30474   0.30980   0.31583
 Alpha virt. eigenvalues --    0.32192   0.32280   0.33349   0.33950   0.35247
 Alpha virt. eigenvalues --    0.35545   0.35645   0.36135   0.37814   0.38006
 Alpha virt. eigenvalues --    0.39453   0.39861   0.40626   0.41540   0.41635
 Alpha virt. eigenvalues --    0.42569   0.43368   0.44144   0.44785   0.46225
 Alpha virt. eigenvalues --    0.47192   0.63547   0.64409   0.67195   0.68441
 Alpha virt. eigenvalues --    0.69262   0.70448   0.71866   0.72167   0.73957
 Alpha virt. eigenvalues --    0.77385   0.78590   0.79037   0.79638   0.82566
 Alpha virt. eigenvalues --    0.83427   0.83998   0.85690   0.87097   0.88263
 Alpha virt. eigenvalues --    0.89586   0.90977   0.92478   0.95257   0.96920
 Alpha virt. eigenvalues --    0.98566   1.00097   1.02895   1.03512   1.04659
 Alpha virt. eigenvalues --    1.05672   1.06205   1.06930   1.08021   1.11437
 Alpha virt. eigenvalues --    1.11564   1.13210   1.14110   1.14824   1.15953
 Alpha virt. eigenvalues --    1.16389   1.18075   1.20356   1.23337   1.25020
 Alpha virt. eigenvalues --    1.26654   1.28461   1.29173   1.30507   1.32493
 Alpha virt. eigenvalues --    1.33619   1.34901   1.37767   1.38370   1.39613
 Alpha virt. eigenvalues --    1.42180   1.46296   1.48619   1.49934   1.52279
 Alpha virt. eigenvalues --    1.54909   1.56269   1.56757   1.60182   1.60718
 Alpha virt. eigenvalues --    1.62346   1.64092   1.65492   1.67089   1.69989
 Alpha virt. eigenvalues --    1.72817   1.74647   1.74756   1.78900   1.79718
 Alpha virt. eigenvalues --    1.82477   1.83304   1.83479   1.85966   1.86552
 Alpha virt. eigenvalues --    1.88557   1.90788   1.92289   1.93524   1.94295
 Alpha virt. eigenvalues --    1.97513   1.99960   2.00437   2.01336   2.01782
 Alpha virt. eigenvalues --    2.04730   2.05730   2.07052   2.09118   2.10115
 Alpha virt. eigenvalues --    2.12062   2.14844   2.15793   2.16912   2.18596
 Alpha virt. eigenvalues --    2.19568   2.23677   2.26083   2.27595   2.29352
 Alpha virt. eigenvalues --    2.31659   2.33025   2.33638   2.36710   2.40201
 Alpha virt. eigenvalues --    2.41172   2.43510   2.43846   2.44215   2.45075
 Alpha virt. eigenvalues --    2.49372   2.49876   2.50796   2.52432   2.55559
 Alpha virt. eigenvalues --    2.56472   2.57805   2.59379   2.61096   2.63334
 Alpha virt. eigenvalues --    2.65746   2.66520   2.67235   2.68547   2.69041
 Alpha virt. eigenvalues --    2.70260   2.71151   2.74649   2.75787   2.78115
 Alpha virt. eigenvalues --    2.79821   2.80589   2.81737   2.83445   2.86159
 Alpha virt. eigenvalues --    2.87355   2.88171   2.88622   2.93593   2.95001
 Alpha virt. eigenvalues --    2.96764   2.99450   3.01821   3.02305   3.03893
 Alpha virt. eigenvalues --    3.06219   3.09313   3.11104   3.17939   3.32463
 Alpha virt. eigenvalues --    3.34762   3.36545   3.37436   3.39379   3.42504
 Alpha virt. eigenvalues --    3.46523   3.52371   3.53357   3.54307   3.56055
 Alpha virt. eigenvalues --    3.56771   3.57437   3.58596   3.60873   4.32667
 Alpha virt. eigenvalues --    4.36310   4.39498   4.42576   4.48072   4.55681
 Alpha virt. eigenvalues --    4.57023   4.64801   4.76501   4.81288   4.88063
 Alpha virt. eigenvalues --    4.93315
          Condensed to atoms (all electrons):
              1          2          3          4          5          6
     1  C    5.972154  -0.715621   0.122964   0.061374   0.189477  -0.070410
     2  C   -0.715621   8.635895  -0.533913  -0.193368  -0.046647  -0.015680
     3  N    0.122964  -0.533913   7.492989   0.144910  -0.115041  -0.283666
     4  C    0.061374  -0.193368   0.144910   5.993040   0.007436  -0.334182
     5  C    0.189477  -0.046647  -0.115041   0.007436   5.481588   0.105502
     6  C   -0.070410  -0.015680  -0.283666  -0.334182   0.105502   9.093011
     7  C   -0.136504   0.064384  -0.011070  -0.296312   0.037311  -1.428466
     8  C    0.035640  -0.734617   0.016218  -0.027856   0.012303   0.450798
     9  H    0.429910  -0.075121   0.011140  -0.003423  -0.049104   0.009856
    10  H    0.416027  -0.145699   0.020019   0.023168  -0.019273  -0.000348
    11  H    0.055346   0.135887   0.011446  -0.009922   0.016528   0.008451
    12  H    0.008359  -0.035951  -0.022109   0.363367  -0.037375   0.016056
    13  H    0.015650   0.032440  -0.076208   0.405076  -0.037881   0.027113
    14  H   -0.039249   0.027017   0.011707  -0.026264   0.358441   0.000175
    15  H   -0.056038   0.000840   0.013246  -0.086104   0.425831   0.012360
    16  H    0.008650   0.053393  -0.071602   0.074756  -0.020872   0.261546
    17  H    0.019085  -0.008760   0.047571   0.013566  -0.003612  -0.174600
    18  H    0.080406  -0.248576   0.053676   0.014358  -0.016552   0.001922
    19  O    0.006979  -0.191482   0.027040   0.006620  -0.003569   0.002088
    20  H   -0.009164   0.054451  -0.003618  -0.001923   0.002173   0.015715
    21  O   -0.003190   0.016552  -0.000920  -0.002249   0.000288   0.002349
    22  H    0.008312  -0.001174   0.010020   0.004477  -0.003454  -0.087148
    23  C    0.132906  -0.245467   0.265187   0.165204  -0.058678  -1.293120
    24  H   -0.000700   0.010927   0.003057  -0.011451   0.001853  -0.107931
    25  H    0.001945   0.003615   0.012296   0.018516  -0.002306  -0.156627
    26  O   -0.000533   0.004964  -0.003101  -0.036356   0.011378  -0.013802
    27  H    0.000114  -0.001874  -0.000660   0.000826  -0.000516   0.044197
              7          8          9         10         11         12
     1  C   -0.136504   0.035640   0.429910   0.416027   0.055346   0.008359
     2  C    0.064384  -0.734617  -0.075121  -0.145699   0.135887  -0.035951
     3  N   -0.011070   0.016218   0.011140   0.020019   0.011446  -0.022109
     4  C   -0.296312  -0.027856  -0.003423   0.023168  -0.009922   0.363367
     5  C    0.037311   0.012303  -0.049104  -0.019273   0.016528  -0.037375
     6  C   -1.428466   0.450798   0.009856  -0.000348   0.008451   0.016056
     7  C    7.454481  -0.273890  -0.002656  -0.000879  -0.030178   0.007729
     8  C   -0.273890   6.138380   0.009483   0.034397   0.061207   0.007448
     9  H   -0.002656   0.009483   0.521307  -0.023683  -0.006193   0.001571
    10  H   -0.000879   0.034397  -0.023683   0.515010   0.002830  -0.000024
    11  H   -0.030178   0.061207  -0.006193   0.002830   0.560247   0.000756
    12  H    0.007729   0.007448   0.001571  -0.000024   0.000756   0.553945
    13  H    0.004286  -0.007138  -0.000103  -0.000142  -0.000188  -0.029118
    14  H    0.003873   0.004148  -0.004818   0.000594  -0.000052  -0.002697
    15  H    0.012331   0.007280   0.004187  -0.005126  -0.000093   0.004181
    16  H   -0.045773  -0.052581  -0.000001  -0.000024  -0.000541  -0.000386
    17  H    0.446119  -0.095854   0.000006  -0.000006   0.000925   0.000009
    18  H   -0.087538   0.492203   0.000187   0.000452   0.004381   0.000016
    19  O   -0.074484   0.322342  -0.000412   0.004195   0.007971   0.000071
    20  H   -0.055727   0.000417   0.000006  -0.000110  -0.000075   0.000000
    21  O    0.264457  -0.084091   0.000016  -0.000064  -0.000607  -0.000004
    22  H    0.089104  -0.063551   0.000000   0.000000   0.000005   0.000000
    23  C    0.112045  -0.159214  -0.000107  -0.000064   0.013679   0.004720
    24  H    0.036522  -0.005300   0.000000   0.000000  -0.000010  -0.000002
    25  H   -0.010301  -0.010459   0.000000   0.000000  -0.000031   0.000008
    26  O    0.027561  -0.000393  -0.000016  -0.000002  -0.000043  -0.000416
    27  H   -0.005985   0.001691   0.000000   0.000000   0.000000   0.000008
             13         14         15         16         17         18
     1  C    0.015650  -0.039249  -0.056038   0.008650   0.019085   0.080406
     2  C    0.032440   0.027017   0.000840   0.053393  -0.008760  -0.248576
     3  N   -0.076208   0.011707   0.013246  -0.071602   0.047571   0.053676
     4  C    0.405076  -0.026264  -0.086104   0.074756   0.013566   0.014358
     5  C   -0.037881   0.358441   0.425831  -0.020872  -0.003612  -0.016552
     6  C    0.027113   0.000175   0.012360   0.261546  -0.174600   0.001922
     7  C    0.004286   0.003873   0.012331  -0.045773   0.446119  -0.087538
     8  C   -0.007138   0.004148   0.007280  -0.052581  -0.095854   0.492203
     9  H   -0.000103  -0.004818   0.004187  -0.000001   0.000006   0.000187
    10  H   -0.000142   0.000594  -0.005126  -0.000024  -0.000006   0.000452
    11  H   -0.000188  -0.000052  -0.000093  -0.000541   0.000925   0.004381
    12  H   -0.029118  -0.002697   0.004181  -0.000386   0.000009   0.000016
    13  H    0.519576   0.000922  -0.005635   0.002801  -0.000016  -0.000045
    14  H    0.000922   0.517799  -0.023260  -0.000128   0.000000  -0.000054
    15  H   -0.005635  -0.023260   0.524972   0.000048   0.000003  -0.000114
    16  H    0.002801  -0.000128   0.000048   0.571657   0.004219   0.000414
    17  H   -0.000016   0.000000   0.000003   0.004219   0.530186   0.004492
    18  H   -0.000045  -0.000054  -0.000114   0.000414   0.004492   0.566267
    19  O   -0.000020  -0.000001  -0.000111  -0.001054  -0.002940  -0.043150
    20  H    0.000000   0.000000  -0.000001   0.000017  -0.000056  -0.005278
    21  O    0.000038  -0.000008  -0.000056  -0.006626  -0.058321  -0.010565
    22  H   -0.000006   0.000000   0.000019   0.004802   0.007101   0.005091
    23  C   -0.025114  -0.000749  -0.001241   0.045724   0.081927   0.020848
    24  H   -0.000025   0.000000   0.000000  -0.002831  -0.000290  -0.000020
    25  H    0.000064   0.000000   0.000001   0.004707   0.002707  -0.000003
    26  O    0.001218   0.000007  -0.000253   0.005272   0.000384   0.000031
    27  H    0.000003   0.000000   0.000000  -0.000141  -0.000008   0.000000
             19         20         21         22         23         24
     1  C    0.006979  -0.009164  -0.003190   0.008312   0.132906  -0.000700
     2  C   -0.191482   0.054451   0.016552  -0.001174  -0.245467   0.010927
     3  N    0.027040  -0.003618  -0.000920   0.010020   0.265187   0.003057
     4  C    0.006620  -0.001923  -0.002249   0.004477   0.165204  -0.011451
     5  C   -0.003569   0.002173   0.000288  -0.003454  -0.058678   0.001853
     6  C    0.002088   0.015715   0.002349  -0.087148  -1.293120  -0.107931
     7  C   -0.074484  -0.055727   0.264457   0.089104   0.112045   0.036522
     8  C    0.322342   0.000417  -0.084091  -0.063551  -0.159214  -0.005300
     9  H   -0.000412   0.000006   0.000016   0.000000  -0.000107   0.000000
    10  H    0.004195  -0.000110  -0.000064   0.000000  -0.000064   0.000000
    11  H    0.007971  -0.000075  -0.000607   0.000005   0.013679  -0.000010
    12  H    0.000071   0.000000  -0.000004   0.000000   0.004720  -0.000002
    13  H   -0.000020   0.000000   0.000038  -0.000006  -0.025114  -0.000025
    14  H   -0.000001   0.000000  -0.000008   0.000000  -0.000749   0.000000
    15  H   -0.000111  -0.000001  -0.000056   0.000019  -0.001241   0.000000
    16  H   -0.001054   0.000017  -0.006626   0.004802   0.045724  -0.002831
    17  H   -0.002940  -0.000056  -0.058321   0.007101   0.081927  -0.000290
    18  H   -0.043150  -0.005278  -0.010565   0.005091   0.020848  -0.000020
    19  O    8.258314   0.235672  -0.006615  -0.001575   0.000166  -0.000025
    20  H    0.235672   0.374221   0.008796   0.000060  -0.000938  -0.000001
    21  O   -0.006615   0.008796   8.193833   0.248848  -0.042325   0.007804
    22  H   -0.001575   0.000060   0.248848   0.373131   0.031045  -0.000246
    23  C    0.000166  -0.000938  -0.042325   0.031045   6.199383   0.436796
    24  H   -0.000025  -0.000001   0.007804  -0.000246   0.436796   0.575423
    25  H   -0.000074   0.000001  -0.000572   0.000040   0.509384  -0.045055
    26  O    0.000077   0.000001  -0.001267   0.000114   0.086992  -0.055482
    27  H    0.000001   0.000000   0.000065  -0.000001  -0.029564  -0.004508
             25         26         27
     1  C    0.001945  -0.000533   0.000114
     2  C    0.003615   0.004964  -0.001874
     3  N    0.012296  -0.003101  -0.000660
     4  C    0.018516  -0.036356   0.000826
     5  C   -0.002306   0.011378  -0.000516
     6  C   -0.156627  -0.013802   0.044197
     7  C   -0.010301   0.027561  -0.005985
     8  C   -0.010459  -0.000393   0.001691
     9  H    0.000000  -0.000016   0.000000
    10  H    0.000000  -0.000002   0.000000
    11  H   -0.000031  -0.000043   0.000000
    12  H    0.000008  -0.000416   0.000008
    13  H    0.000064   0.001218   0.000003
    14  H    0.000000   0.000007   0.000000
    15  H    0.000001  -0.000253   0.000000
    16  H    0.004707   0.005272  -0.000141
    17  H    0.002707   0.000384  -0.000008
    18  H   -0.000003   0.000031   0.000000
    19  O   -0.000074   0.000077   0.000001
    20  H    0.000001   0.000001   0.000000
    21  O   -0.000572  -0.001267   0.000065
    22  H    0.000040   0.000114  -0.000001
    23  C    0.509384   0.086992  -0.029564
    24  H   -0.045055  -0.055482  -0.004508
    25  H    0.561337  -0.048233  -0.004326
    26  O   -0.048233   8.381876   0.228965
    27  H   -0.004326   0.228965   0.378440
 Mulliken atomic charges:
              1
     1  C   -0.533888
     2  C    0.153587
     3  N   -0.141578
     4  C   -0.267285
     5  C   -0.235227
     6  C   -0.085159
     7  C   -0.100442
     8  C   -0.079012
     9  H    0.177968
    10  H    0.178750
    11  H    0.168272
    12  H    0.159836
    13  H    0.172451
    14  H    0.172597
    15  H    0.172733
    16  H    0.164556
    17  H    0.186163
    18  H    0.167152
    19  O   -0.546024
    20  H    0.385360
    21  O   -0.525567
    22  H    0.374985
    23  C   -0.249424
    24  H    0.161495
    25  H    0.163367
    26  O   -0.588944
    27  H    0.393274
 Sum of Mulliken atomic charges =   0.00000
 Mulliken charges with hydrogens summed into heavy atoms:
              1
     1  C   -0.177170
     2  C    0.321860
     3  N   -0.141578
     4  C    0.065003
     5  C    0.110104
     6  C    0.079398
     7  C    0.085721
     8  C    0.088141
    19  O   -0.160664
    21  O   -0.150582
    23  C    0.075438
    26  O   -0.195670
 Sum of Mulliken charges with hydrogens summed into heavy atoms =   0.00000
 Electronic spatial extent (au):  <R**2>=           2113.6383
 Charge=              0.0000 electrons
 Dipole moment (field-independent basis, Debye):
    X=             -0.4926    Y=              0.0354    Z=              2.4575  Tot=              2.5066
 Quadrupole moment (field-independent basis, Debye-Ang):
   XX=            -69.8516   YY=            -76.1443   ZZ=            -70.6825
   XY=             -3.5050   XZ=              7.1141   YZ=              2.2848
 Traceless Quadrupole moment (field-independent basis, Debye-Ang):
   XX=              2.3746   YY=             -3.9182   ZZ=              1.5436
   XY=             -3.5050   XZ=              7.1141   YZ=              2.2848
 Octapole moment (field-independent basis, Debye-Ang**2):
  XXX=            -66.3659  YYY=             -5.8533  ZZZ=             13.0315  XYY=             18.5964
  XXY=              7.5052  XXZ=             -7.4223  XZZ=             -4.1444  YZZ=             12.1833
  YYZ=              4.8477  XYZ=              8.9326
 Hexadecapole moment (field-independent basis, Debye-Ang**3):
 XXXX=          -1107.8680 YYYY=          -1145.7786 ZZZZ=           -226.9262 XXXY=              1.7888
 XXXZ=             90.6068 YYYX=             64.5965 YYYZ=              4.8191 ZZZX=             -1.6063
 ZZZY=             26.9981 XXYY=           -403.0740 XXZZ=           -262.7316 YYZZ=           -219.0488
 XXYZ=             26.2188 YYXZ=             15.0182 ZZXY=             -3.5526
 N-N= 7.985080991521D+02 E-N=-2.983052583726D+03  KE= 5.886614971627D+02
 1\1\GINC-COMPUTE-3-0\SP\RmPW1PW91\6-31+G(d,p)\C8H15N1O3\MAMICHETTI.IQU
 IR\17-May-2024\0\\# mpw1pw91/6-31+G** nmr scrf=(pcm,solvent=water)\\co
 mment\\0,1\C,0,-2.075821,1.502856,-0.098069\C,0,-1.214037,0.367896,-0.
 682873\N,0,0.21686,0.820448,-0.576234\C,0,0.213204,2.132097,0.116957\C
 ,0,-1.120126,2.214599,0.870115\C,0,0.990328,-0.234886,0.119342\C,0,0.1
 4213,-1.504931,-0.053957\C,0,-1.281838,-0.962632,0.070092\H,0,-2.38553
 5,2.189215,-0.894874\H,0,-2.982367,1.117953,0.380722\H,0,-1.475988,0.1
 74859,-1.731046\H,0,0.271701,2.942102,-0.62276\H,0,1.089494,2.22052,0.
 763289\H,0,-1.420301,3.242834,1.096734\H,0,-1.055734,1.664379,1.817341
 \H,0,1.063084,-0.028287,1.201875\H,0,0.276876,-1.923489,-1.058409\H,0,
 -1.485498,-0.784694,1.138703\O,0,-2.292449,-1.800089,-0.48544\H,0,-2.2
 86682,-2.62692,0.0263\O,0,0.460516,-2.564325,0.843103\H,0,0.345294,-2.
 221001,1.746994\C,0,2.403332,-0.408623,-0.412267\H,0,2.831182,-1.32741
 1,0.015419\H,0,2.371776,-0.523204,-1.505001\O,0,3.194688,0.727926,-0.0
 4472\H,0,4.079611,0.593661,-0.421228\\Version=AM64L-G09RevC.01\State=1
 -A\HF=-594.1978311\RMSD=3.257e-09\Dipole=0.1938033,-0.013923,0.9668394
 \Quadrupole=1.7654245,-2.9130478,1.1476232,-2.6058825,-5.289127,-1.698
 7227\PG=C01 [X(C8H15N1O3)]\\@


 YOU CAN LEAD A BOY TO COLLEGE....
 BUT YOU CANNOT MAKE HIM THINK....
           ELBERT HUBBARD
 Job cpu time:  0 days  0 hours  8 minutes 39.2 seconds.
 File lengths (MBytes):  RWF=    113 Int=      0 D2E=      0 Chk=      7 Scr=      1
 Normal termination of Gaussian 09 at Fri May 17 12:50:50 2024.
