 Entering Gaussian System, Link 0=g09
 Input=/home/mamichetti.iquir/Linux/02_Cardona_A1A3_R__R_R_R_015_OptB.gjc
 Output=/home/mamichetti.iquir/Linux/02_Cardona_A1A3_R__R_R_R_015_OptB.log
 Initial command:
 /opt/ohpc/pub/apps/software/Gaussian/09/AMD64.SSE4a-enabled/g09/l1.exe /local/mamichetti.iquir/Gau-710011.inp -scrdir=/local/mamichetti.iquir/
 Entering Link 1 = /opt/ohpc/pub/apps/software/Gaussian/09/AMD64.SSE4a-enabled/g09/l1.exe PID=    710018.
  
 Copyright (c) 1988,1990,1992,1993,1995,1998,2003,2009,2011,
            Gaussian, Inc.  All Rights Reserved.
  
 This is part of the Gaussian(R) 09 program.  It is based on
 the Gaussian(R) 03 system (copyright 2003, Gaussian, Inc.),
 the Gaussian(R) 98 system (copyright 1998, Gaussian, Inc.),
 the Gaussian(R) 94 system (copyright 1995, Gaussian, Inc.),
 the Gaussian 92(TM) system (copyright 1992, Gaussian, Inc.),
 the Gaussian 90(TM) system (copyright 1990, Gaussian, Inc.),
 the Gaussian 88(TM) system (copyright 1988, Gaussian, Inc.),
 the Gaussian 86(TM) system (copyright 1986, Carnegie Mellon
 University), and the Gaussian 82(TM) system (copyright 1983,
 Carnegie Mellon University). Gaussian is a federally registered
 trademark of Gaussian, Inc.
  
 This software contains proprietary and confidential information,
 including trade secrets, belonging to Gaussian, Inc.
  
 This software is provided under written license and may be
 used, copied, transmitted, or stored only in accord with that
 written license.
  
 The following legend is applicable only to US Government
 contracts under FAR:
  
                    RESTRICTED RIGHTS LEGEND
  
 Use, reproduction and disclosure by the US Government is
 subject to restrictions as set forth in subparagraphs (a)
 and (c) of the Commercial Computer Software - Restricted
 Rights clause in FAR 52.227-19.
  
 Gaussian, Inc.
 340 Quinnipiac St., Bldg. 40, Wallingford CT 06492
  
  
 ---------------------------------------------------------------
 Warning -- This program may not be used in any manner that
 competes with the business of Gaussian, Inc. or will provide
 assistance to any competitor of Gaussian, Inc.  The licensee
 of this program is prohibited from giving any competitor of
 Gaussian, Inc. access to this program.  By using this program,
 the user acknowledges that Gaussian, Inc. is engaged in the
 business of creating and licensing software in the field of
 computational chemistry and represents and warrants to the
 licensee that it is not a competitor of Gaussian, Inc. and that
 it will not use this program in any manner prohibited above.
 ---------------------------------------------------------------
  

 Cite this work as:
 Gaussian 09, Revision C.01,
 M. J. Frisch, G. W. Trucks, H. B. Schlegel, G. E. Scuseria, 
 M. A. Robb, J. R. Cheeseman, G. Scalmani, V. Barone, B. Mennucci, 
 G. A. Petersson, H. Nakatsuji, M. Caricato, X. Li, H. P. Hratchian, 
 A. F. Izmaylov, J. Bloino, G. Zheng, J. L. Sonnenberg, M. Hada, 
 M. Ehara, K. Toyota, R. Fukuda, J. Hasegawa, M. Ishida, T. Nakajima, 
 Y. Honda, O. Kitao, H. Nakai, T. Vreven, J. A. Montgomery, Jr., 
 J. E. Peralta, F. Ogliaro, M. Bearpark, J. J. Heyd, E. Brothers, 
 K. N. Kudin, V. N. Staroverov, T. Keith, R. Kobayashi, J. Normand, 
 K. Raghavachari, A. Rendell, J. C. Burant, S. S. Iyengar, J. Tomasi, 
 M. Cossi, N. Rega, J. M. Millam, M. Klene, J. E. Knox, J. B. Cross, 
 V. Bakken, C. Adamo, J. Jaramillo, R. Gomperts, R. E. Stratmann, 
 O. Yazyev, A. J. Austin, R. Cammi, C. Pomelli, J. W. Ochterski, 
 R. L. Martin, K. Morokuma, V. G. Zakrzewski, G. A. Voth, 
 P. Salvador, J. J. Dannenberg, S. Dapprich, A. D. Daniels, 
 O. Farkas, J. B. Foresman, J. V. Ortiz, J. Cioslowski, 
 and D. J. Fox, Gaussian, Inc., Wallingford CT, 2010.
 
 ******************************************
 Gaussian 09:  AM64L-G09RevC.01 23-Sep-2011
                17-May-2024 
 ******************************************
 %nprocshared=4
 Will use up to    4 processors via shared memory.
 ------------------------------------------------
 # mpw1pw91/6-31+G** nmr scrf=(pcm,solvent=water)
 ------------------------------------------------
 1/38=1/1;
 2/12=2,17=6,18=5,40=1/2;
 3/5=1,6=6,7=111,11=2,16=1,25=1,30=1,70=2201,72=1,74=-7/1,2,8,3;
 4//1;
 5/5=2,38=5,53=1/2;
 8/6=1,10=90,11=11/1;
 10/13=100,45=16/2;
 6/7=2,8=2,9=2,10=2,28=1/1;
 99/9=1/99;
 -------
 comment
 -------
 Charge =  0 Multiplicity = 1
 Symbolic Z-Matrix:
 6                     2.65074  -0.06958   0.1009 
 6                     1.34855   0.35537  -0.60894 
 7                     0.47722  -0.87483  -0.68527 
 6                     1.23831  -1.9812   -0.05882 
 6                     2.24131  -1.31955   0.89374 
 6                    -0.78675  -0.56125   0.0162 
 6                    -0.91694   0.95814  -0.12242 
 6                     0.51552   1.42082   0.11772 
 1                     3.41521  -0.33137  -0.63992 
 1                     3.05394   0.73498   0.72463 
 1                     1.55987   0.73122  -1.61732 
 1                     1.77373  -2.54393  -0.83486 
 1                     0.55411  -2.67753   0.43489 
 1                     3.08656  -1.96841   1.14504 
 1                     1.74312  -1.03624   1.82943 
 1                    -0.72175  -0.78888   1.09527 
 1                    -1.20024   1.21132  -1.15668 
 1                     0.70873   1.38969   1.20048 
 8                     0.82985   2.71496  -0.39559 
 1                     0.32438   3.35875   0.12844 
 8                    -1.83345   1.54448   0.79773 
 1                    -2.65277   1.02164   0.69653 
 6                    -1.98879  -1.31424  -0.54887 
 1                    -2.12585  -1.07046  -1.60679 
 1                    -1.85048  -2.40007  -0.46239 
 8                    -3.20478  -0.91026   0.1099 
 1                    -3.15376  -1.23132   1.02685 
 
                          Input orientation:                          
 ---------------------------------------------------------------------
 Center     Atomic      Atomic             Coordinates (Angstroms)
 Number     Number       Type             X           Y           Z
 ---------------------------------------------------------------------
      1          6           0        2.650744   -0.069578    0.100898
      2          6           0        1.348551    0.355369   -0.608936
      3          7           0        0.477216   -0.874827   -0.685270
      4          6           0        1.238306   -1.981199   -0.058821
      5          6           0        2.241312   -1.319554    0.893737
      6          6           0       -0.786754   -0.561254    0.016196
      7          6           0       -0.916942    0.958138   -0.122423
      8          6           0        0.515522    1.420820    0.117721
      9          1           0        3.415214   -0.331367   -0.639916
     10          1           0        3.053943    0.734980    0.724626
     11          1           0        1.559867    0.731224   -1.617316
     12          1           0        1.773728   -2.543927   -0.834864
     13          1           0        0.554114   -2.677530    0.434892
     14          1           0        3.086555   -1.968414    1.145035
     15          1           0        1.743119   -1.036244    1.829431
     16          1           0       -0.721754   -0.788875    1.095271
     17          1           0       -1.200239    1.211320   -1.156678
     18          1           0        0.708727    1.389694    1.200481
     19          8           0        0.829846    2.714957   -0.395590
     20          1           0        0.324382    3.358754    0.128437
     21          8           0       -1.833445    1.544475    0.797728
     22          1           0       -2.652770    1.021642    0.696532
     23          6           0       -1.988790   -1.314244   -0.548874
     24          1           0       -2.125854   -1.070458   -1.606789
     25          1           0       -1.850478   -2.400065   -0.462388
     26          8           0       -3.204776   -0.910259    0.109900
     27          1           0       -3.153765   -1.231320    1.026854
 ---------------------------------------------------------------------
                    Distance matrix (angstroms):
                    1          2          3          4          5
     1  C    0.000000
     2  C    1.542774   0.000000
     3  N    2.447593   1.509448   0.000000
     4  C    2.382181   2.402984   1.481808   0.000000
     5  C    1.535796   2.420829   2.408958   1.533350   0.000000
     6  C    3.473516   2.406349   1.479190   2.474417   3.242573
     7  C    3.719470   2.394261   2.370703   3.645386   4.024305
     8  C    2.603986   1.535302   2.432336   3.482430   3.330195
     9  H    1.096245   2.177995   2.988183   2.792588   2.169482
    10  H    1.094952   2.197920   3.349449   3.359755   2.215869
    11  H    2.187134   1.096700   2.149475   3.144765   3.312921
    12  H    2.786972   2.939003   2.118777   1.097990   2.169282
    13  H    3.362859   3.304419   2.123774   1.093960   2.213882
    14  H    2.210369   3.390728   3.369659   2.205778   1.094809
    15  H    2.178544   2.835120   2.819980   2.171007   1.097262
    16  H    3.588859   2.915438   2.148312   2.568151   3.016951
    17  H    4.248796   2.743903   2.718104   4.164609   4.738544
    18  H    2.666456   2.180182   2.955962   3.637199   3.127768
    19  O    3.363897   2.425330   3.618675   4.725900   4.464513
    20  H    4.143209   3.257754   4.313779   5.420832   5.113401
    21  O    4.816502   3.676653   3.659434   4.753915   4.981518
    22  H    5.447275   4.261307   3.911877   4.972734   5.428824
    23  C    4.847337   3.732166   2.508561   3.331536   4.469331
    24  H    5.170478   3.885895   2.768292   3.813558   5.038533
    25  H    5.099947   4.224651   2.791807   3.143072   4.444021
    26  O    5.915568   4.780306   3.767043   4.573440   5.517409
    27  H    5.991608   5.046210   4.030196   4.585989   5.397440
                    6          7          8          9         10
     6  C    0.000000
     7  C    1.531247   0.000000
     8  C    2.373783   1.524368   0.000000
     9  H    4.259092   4.549527   3.471655   0.000000
    10  H    4.114979   4.066352   2.698572   1.769064   0.000000
    11  H    3.137753   2.901858   2.139288   2.350898   2.777943
    12  H    3.348337   4.473448   4.267285   2.761866   3.849960
    13  H    2.540051   3.961400   4.110786   3.852997   4.240084
    14  H    4.272809   5.118510   4.376356   2.444175   2.736082
    15  H    3.148602   3.855284   3.236373   3.064381   2.464972
    16  H    1.104735   2.138441   2.714629   4.509400   4.088447
    17  H    2.165323   1.101836   2.147515   4.893806   4.675924
    18  H    2.728588   2.139887   1.100303   3.697862   2.480953
    19  O    3.676482   2.492449   1.427263   4.002988   3.181478
    20  H    4.075989   2.714180   1.947367   4.874485   3.832771
    21  O    2.477993   1.424937   2.448540   5.756216   4.954512
    22  H    2.539770   1.920369   3.245372   6.359022   5.713977
    23  C    1.526823   2.548419   3.767825   5.493414   5.590195
    24  H    2.164846   2.789267   4.019610   5.673141   5.960319
    25  H    2.177562   3.502084   4.531406   5.660260   5.940611
    26  O    2.444875   2.962949   4.390286   6.687422   6.500482
    27  H    2.659541   3.334358   4.617796   6.836631   6.518690
                   11         12         13         14         15
    11  H    0.000000
    12  H    3.374105   0.000000
    13  H    4.103986   1.765669   0.000000
    14  H    4.153240   2.444326   2.724042   0.000000
    15  H    3.877833   3.061456   2.460141   1.772614   0.000000
    16  H    3.856763   3.610133   2.372964   3.987105   2.583753
    17  H    2.839166   4.801034   4.553461   5.812503   4.757284
    18  H    3.016289   4.555242   4.141539   4.115098   2.711221
    19  O    2.441463   5.360945   5.463025   5.422197   4.456040
    20  H    3.387918   6.153876   6.048423   6.086197   4.921606
    21  O    4.243628   5.691404   4.863889   6.055362   4.529496
    22  H    4.815033   5.886624   4.902697   6.487021   4.984195
    23  C    4.233022   3.968684   3.048394   5.390398   4.434046
    24  H    4.102525   4.239542   3.732743   5.962220   5.174720
    25  H    4.771717   3.646135   2.581504   5.210031   4.475085
    26  O    5.327247   5.324186   4.166308   6.463129   5.239687
    27  H    5.749917   5.428547   4.023718   6.284812   4.966050
                   16         17         18         19         20
    16  H    0.000000
    17  H    3.049754   0.000000
    18  H    2.608353   3.038448   0.000000
    19  O    4.111808   2.638451   2.078084   0.000000
    20  H    4.385430   2.930437   2.274686   0.971891   0.000000
    21  O    2.601713   2.081260   2.578528   3.144385   2.897547
    22  H    2.676899   2.362247   3.418931   4.023513   3.827304
    23  C    2.141169   2.714721   4.200967   4.919620   5.257987
    24  H    3.058090   2.503173   4.686999   4.953033   5.350942
    25  H    2.509233   3.734562   4.865895   5.775123   6.184099
    26  O    2.674152   3.181743   4.668475   5.447558   5.538932
    27  H    2.472876   3.814520   4.671050   5.784946   5.828674
                   21         22         23         24         25
    21  O    0.000000
    22  H    0.977184   0.000000
    23  C    3.163818   2.729152   0.000000
    24  H    3.564419   3.155917   1.094259   0.000000
    25  H    4.140963   3.700655   1.098006   1.775765   0.000000
    26  O    2.894715   2.093105   1.440767   2.033902   2.093122
    27  H    3.082334   2.331512   1.961367   2.831705   2.298339
                   26         27
    26  O    0.000000
    27  H    0.972876   0.000000
 Stoichiometry    C8H15NO3
 Framework group  C1[X(C8H15NO3)]
 Deg. of freedom    75
 Full point group                 C1      NOp   1
 Largest Abelian subgroup         C1      NOp   1
 Largest concise Abelian subgroup C1      NOp   1
                         Standard orientation:                         
 ---------------------------------------------------------------------
 Center     Atomic      Atomic             Coordinates (Angstroms)
 Number     Number       Type             X           Y           Z
 ---------------------------------------------------------------------
      1          6           0        2.650744   -0.069578    0.100898
      2          6           0        1.348551    0.355369   -0.608936
      3          7           0        0.477216   -0.874827   -0.685270
      4          6           0        1.238306   -1.981199   -0.058821
      5          6           0        2.241312   -1.319554    0.893737
      6          6           0       -0.786754   -0.561254    0.016196
      7          6           0       -0.916942    0.958138   -0.122423
      8          6           0        0.515522    1.420820    0.117721
      9          1           0        3.415214   -0.331367   -0.639916
     10          1           0        3.053943    0.734980    0.724626
     11          1           0        1.559867    0.731224   -1.617316
     12          1           0        1.773728   -2.543927   -0.834864
     13          1           0        0.554114   -2.677530    0.434892
     14          1           0        3.086555   -1.968414    1.145035
     15          1           0        1.743119   -1.036244    1.829431
     16          1           0       -0.721754   -0.788875    1.095271
     17          1           0       -1.200239    1.211320   -1.156678
     18          1           0        0.708727    1.389694    1.200481
     19          8           0        0.829846    2.714957   -0.395590
     20          1           0        0.324382    3.358754    0.128437
     21          8           0       -1.833445    1.544475    0.797728
     22          1           0       -2.652770    1.021642    0.696532
     23          6           0       -1.988790   -1.314244   -0.548874
     24          1           0       -2.125854   -1.070458   -1.606789
     25          1           0       -1.850478   -2.400065   -0.462388
     26          8           0       -3.204776   -0.910259    0.109900
     27          1           0       -3.153765   -1.231320    1.026854
 ---------------------------------------------------------------------
 Rotational constants (GHZ):      1.2352095      0.8315338      0.5573967
 Standard basis: 6-31+G(d,p) (6D, 7F)
 There are   303 symmetry adapted basis functions of A   symmetry.
 Integral buffers will be    131072 words long.
 Raffenetti 2 integral format.
 Two-electron integral symmetry is turned on.
   303 basis functions,   489 primitive gaussians,   303 cartesian basis functions
    47 alpha electrons       47 beta electrons
       nuclear repulsion energy       801.1702434614 Hartrees.
 NAtoms=   27 NActive=   27 NUniq=   27 SFac= 1.00D+00 NAtFMM=   60 NAOKFM=F Big=F
 ------------------------------------------------------------------------------
 Polarizable Continuum Model (PCM)
 =================================
 Model                : PCM.
 Atomic radii         : UFF (Universal Force Field).
 Polarization charges : Total charges.
 Charge compensation  : None.
 Solution method      : Matrix inversion.
 Cavity type          : Scaled VdW (van der Waals Surface) (Alpha=1.100).
 Cavity algorithm     : GePol (No added spheres)
                        Default sphere list used, NSphG=   27.
                        Lebedev-Laikov grids with approx.  5.0 points / Ang**2.
                        Smoothing algorithm: Karplus/York (Gamma=1.0000).
                        Polarization charges: spherical gaussians, with
                                              point-specific exponents (IZeta= 3).
                        Self-potential: point-specific (ISelfS= 7).
                        Self-field    : sphere-specific E.n sum rule (ISelfD= 2).
 Solvent              : Water, Eps=  78.355300 Eps(inf)=   1.777849
 ------------------------------------------------------------------------------
 One-electron integrals computed using PRISM.
 NBasis=   303 RedAO= T  NBF=   303
 NBsUse=   303 1.00D-06 NBFU=   303
 Harris functional with IExCor=  908 diagonalized for initial guess.
 ExpMin= 4.38D-02 ExpMax= 5.48D+03 ExpMxC= 8.25D+02 IAcc=2 IRadAn=         4 AccDes= 0.00D+00
 HarFok:  IExCor=  908 AccDes= 0.00D+00 IRadAn=         4 IDoV= 1
 ScaDFX=  1.000000  1.000000  1.000000  1.000000
 FoFCou: FMM=F IPFlag=           0 FMFlag=      100000 FMFlg1=           0
         NFxFlg=           0 DoJE=T BraDBF=F KetDBF=T FulRan=T
         Omega=  0.000000  0.000000  1.000000  0.000000  0.000000 ICntrl=     500 IOpCl=  0
         NMat0=    1 NMatS0=    1 NMatT0=    0 NMatD0=    1 NMtDS0=    0 NMtDT0=    0
         I1Cent=           4 NGrid=           0.
 Petite list used in FoFCou.
 Initial guess orbital symmetries:
       Occupied  (A) (A) (A) (A) (A) (A) (A) (A) (A) (A) (A) (A)
                 (A) (A) (A) (A) (A) (A) (A) (A) (A) (A) (A) (A)
                 (A) (A) (A) (A) (A) (A) (A) (A) (A) (A) (A) (A)
                 (A) (A) (A) (A) (A) (A) (A) (A) (A) (A) (A)
       Virtual   (A) (A) (A) (A) (A) (A) (A) (A) (A) (A) (A) (A)
                 (A) (A) (A) (A) (A) (A) (A) (A) (A) (A) (A) (A)
                 (A) (A) (A) (A) (A) (A) (A) (A) (A) (A) (A) (A)
                 (A) (A) (A) (A) (A) (A) (A) (A) (A) (A) (A) (A)
                 (A) (A) (A) (A) (A) (A) (A) (A) (A) (A) (A) (A)
                 (A) (A) (A) (A) (A) (A) (A) (A) (A) (A) (A) (A)
                 (A) (A) (A) (A) (A) (A) (A) (A) (A) (A) (A) (A)
                 (A) (A) (A) (A) (A) (A) (A) (A) (A) (A) (A) (A)
                 (A) (A) (A) (A) (A) (A) (A) (A) (A) (A) (A) (A)
                 (A) (A) (A) (A) (A) (A) (A) (A) (A) (A) (A) (A)
                 (A) (A) (A) (A) (A) (A) (A) (A) (A) (A) (A) (A)
                 (A) (A) (A) (A) (A) (A) (A) (A) (A) (A) (A) (A)
                 (A) (A) (A) (A) (A) (A) (A) (A) (A) (A) (A) (A)
                 (A) (A) (A) (A) (A) (A) (A) (A) (A) (A) (A) (A)
                 (A) (A) (A) (A) (A) (A) (A) (A) (A) (A) (A) (A)
                 (A) (A) (A) (A) (A) (A) (A) (A) (A) (A) (A) (A)
                 (A) (A) (A) (A) (A) (A) (A) (A) (A) (A) (A) (A)
                 (A) (A) (A) (A) (A) (A) (A) (A) (A) (A) (A) (A)
                 (A) (A) (A) (A) (A) (A) (A) (A) (A) (A) (A) (A)
                 (A) (A) (A) (A) (A) (A) (A) (A) (A) (A) (A) (A)
                 (A) (A) (A) (A) (A) (A) (A) (A) (A) (A) (A) (A)
                 (A) (A) (A) (A)
 The electronic state of the initial guess is 1-A.
 Requested convergence on RMS density matrix=1.00D-08 within 128 cycles.
 Requested convergence on MAX density matrix=1.00D-06.
 Requested convergence on             energy=1.00D-06.
 No special actions if energy rises.
 Error on total polarization charges =  0.01469
 SCF Done:  E(RmPW1PW91) =  -594.200311280     A.U. after   13 cycles
             Convg  =    0.6283D-08             -V/T =  2.0094
 Range of M.O.s used for correlation:     1   303
 NBasis=   303 NAE=    47 NBE=    47 NFC=     0 NFV=     0
 NROrb=    303 NOA=    47 NOB=    47 NVA=   256 NVB=   256

 **** Warning!!: The largest alpha MO coefficient is  0.57688213D+02

 NEqPCM:  Using equilibrium solvation (IEInf=0, Eps=  78.3553, EpsInf=   1.7778)
          Differentiating once with respect to magnetic field using GIAOs.
          Electric field/nuclear overlap derivatives assumed to be zero.
 FoFCou: FMM=F IPFlag=           0 FMFlag=    10101102 FMFlg1=           0
         NFxFlg=    40000000 DoJE=F BraDBF=F KetDBF=T FulRan=T
         Omega=  0.000000  0.000000  1.000000  0.000000  0.000000 ICntrl=    6100 IOpCl=  0
         NMat0=    1 NMatS0=    1 NMatT0=    0 NMatD0=    1 NMtDS0=    0 NMtDT0=    0
         I1Cent=           7 NGrid=        1822.
 Symmetry not used in FoFCou.
          There are     3 degrees of freedom in the 1st order CPHF.  IDoFFX=0.
      3 vectors produced by pass  0 Test12= 4.01D-13 3.33D-08 XBig12= 3.35D+01 1.17D+00.
 AX will form     3 AO Fock derivatives at one time.
      3 vectors produced by pass  1 Test12= 4.01D-13 3.33D-08 XBig12= 8.53D-02 5.27D-02.
      3 vectors produced by pass  2 Test12= 4.01D-13 3.33D-08 XBig12= 2.09D-04 2.81D-03.
      3 vectors produced by pass  3 Test12= 4.01D-13 3.33D-08 XBig12= 9.54D-07 2.43D-04.
      3 vectors produced by pass  4 Test12= 4.01D-13 3.33D-08 XBig12= 2.81D-09 8.73D-06.
      3 vectors produced by pass  5 Test12= 4.01D-13 3.33D-08 XBig12= 9.55D-12 5.08D-07.
 Inverted reduced A of dimension    18 with in-core refinement.
 Calculating GIAO nuclear magnetic shielding tensors.
 SCF GIAO Magnetic shielding tensor (ppm):
      1  C    Isotropic =   163.1632   Anisotropy =    24.4397
   XX=   170.3119   YX=     3.7511   ZX=    15.4314
   XY=    -2.8012   YY=   165.8048   ZY=    -4.4395
   XZ=    10.8325   YZ=   -16.7695   ZZ=   153.3728
   Eigenvalues:   142.2496   167.7836   179.4563
      2  C    Isotropic =   127.5205   Anisotropy =    56.9932
   XX=   124.8565   YX=    11.8642   ZX=    11.7263
   XY=    19.7513   YY=   159.2230   ZY=    -1.5369
   XZ=    -1.1326   YZ=     3.6662   ZZ=    98.4820
   Eigenvalues:    97.3861   119.6595   165.5160
      3  N    Isotropic =   201.2800   Anisotropy =    65.9689
   XX=   239.0817   YX=    15.7537   ZX=     4.2631
   XY=     6.1400   YY=   225.4829   ZY=   -16.0186
   XZ=     0.7250   YZ=    -5.4179   ZZ=   139.2753
   Eigenvalues:   137.8178   220.7629   245.2593
      4  C    Isotropic =   141.4026   Anisotropy =    53.2881
   XX=   138.9422   YX=   -20.9503   ZX=    12.0332
   XY=   -11.8746   YY=   156.3515   ZY=   -18.2101
   XZ=    27.0278   YZ=   -10.1706   ZZ=   128.9142
   Eigenvalues:   113.7215   133.5584   176.9280
      5  C    Isotropic =   171.3564   Anisotropy =    20.0051
   XX=   169.5612   YX=     5.6879   ZX=    14.1215
   XY=     5.1828   YY=   182.3085   ZY=    -4.2073
   XZ=    19.3840   YZ=   -10.4397   ZZ=   162.1993
   Eigenvalues:   146.4139   182.9621   184.6931
      6  C    Isotropic =   127.0091   Anisotropy =    48.2071
   XX=   139.4364   YX=   -20.1306   ZX=   -17.1420
   XY=    -4.3241   YY=   124.0050   ZY=     6.9217
   XZ=   -31.7253   YZ=    -1.9854   ZZ=   117.5859
   Eigenvalues:   100.7375   121.1427   159.1472
      7  C    Isotropic =   112.6796   Anisotropy =    26.8819
   XX=   121.7304   YX=    -3.5492   ZX=   -16.9093
   XY=    -3.7409   YY=   116.0567   ZY=    12.4169
   XZ=    -8.6535   YZ=     2.0327   ZZ=   100.2516
   Eigenvalues:    93.1426   114.2953   130.6009
      8  C    Isotropic =   113.4594   Anisotropy =    29.0251
   XX=   121.8681   YX=    10.8040   ZX=    -4.6311
   XY=     3.0472   YY=   127.7899   ZY=   -13.1377
   XZ=     2.6159   YZ=     4.0786   ZZ=    90.7201
   Eigenvalues:    90.1737   117.3950   132.8094
      9  H    Isotropic =    29.7953   Anisotropy =    11.7813
   XX=    34.9412   YX=    -0.7145   ZX=    -4.4901
   XY=    -1.9769   YY=    25.7163   ZY=    -0.5639
   XZ=    -5.2301   YZ=    -1.2687   ZZ=    28.7285
   Eigenvalues:    24.4075    27.3290    37.6495
     10  H    Isotropic =    29.7214   Anisotropy =     9.4059
   XX=    30.7718   YX=     3.0303   ZX=     3.4198
   XY=     3.5432   YY=    31.5809   ZY=     2.3310
   XZ=     2.7285   YZ=     2.1064   ZZ=    26.8114
   Eigenvalues:    25.1027    28.0694    35.9919
     11  H    Isotropic =    28.2404   Anisotropy =     6.9583
   XX=    27.3381   YX=     1.3680   ZX=    -1.9986
   XY=     0.9744   YY=    27.1931   ZY=    -3.1091
   XZ=    -1.4513   YZ=    -3.0044   ZZ=    30.1901
   Eigenvalues:    25.2826    26.5593    32.8793
     12  H    Isotropic =    28.9643   Anisotropy =    11.9518
   XX=    27.3404   YX=    -5.1218   ZX=    -1.0724
   XY=    -4.5162   YY=    31.8749   ZY=     4.7820
   XZ=     0.0586   YZ=     4.5728   ZZ=    27.6775
   Eigenvalues:    22.9493    27.0114    36.9321
     13  H    Isotropic =    28.9347   Anisotropy =     8.4627
   XX=    28.8460   YX=     1.6868   ZX=     1.6131
   XY=     2.0074   YY=    33.4692   ZY=    -2.9571
   XZ=     0.1214   YZ=    -2.1176   ZZ=    24.4891
   Eigenvalues:    23.4878    28.7399    34.5766
     14  H    Isotropic =    30.0724   Anisotropy =    12.6363
   XX=    32.5217   YX=    -4.5233   ZX=     3.6284
   XY=    -4.9761   YY=    30.5738   ZY=    -3.3695
   XZ=     3.7357   YZ=    -3.0668   ZZ=    27.1218
   Eigenvalues:    25.0080    26.7126    38.4966
     15  H    Isotropic =    29.8319   Anisotropy =     8.7965
   XX=    27.5118   YX=     0.2918   ZX=    -1.4023
   XY=    -0.1428   YY=    26.4487   ZY=     0.2726
   XZ=    -0.8846   YZ=    -0.4725   ZZ=    35.5351
   Eigenvalues:    26.4435    27.3560    35.6962
     16  H    Isotropic =    29.1484   Anisotropy =     5.4992
   XX=    31.9919   YX=     0.4765   ZX=    -1.6826
   XY=    -0.4438   YY=    26.7770   ZY=    -0.5592
   XZ=    -1.9486   YZ=    -1.1486   ZZ=    28.6763
   Eigenvalues:    26.3608    28.2699    32.8145
     17  H    Isotropic =    27.5995   Anisotropy =     1.6442
   XX=    27.9188   YX=    -1.2797   ZX=    -0.8561
   XY=    -1.3857   YY=    26.3330   ZY=     0.3515
   XZ=     0.4167   YZ=    -0.9424   ZZ=    28.5468
   Eigenvalues:    25.5309    28.5720    28.6957
     18  H    Isotropic =    27.8529   Anisotropy =     3.5075
   XX=    25.9573   YX=    -0.2979   ZX=     0.3998
   XY=    -0.5748   YY=    30.1167   ZY=    -1.1310
   XZ=     0.3669   YZ=     0.6476   ZZ=    27.4848
   Eigenvalues:    25.8342    27.5333    30.1913
     19  O    Isotropic =   296.9024   Anisotropy =    42.4065
   XX=   270.5197   YX=   -24.7460   ZX=     5.7695
   XY=   -10.9243   YY=   318.9366   ZY=    -0.5326
   XZ=    -9.9522   YZ=    -7.1363   ZZ=   301.2509
   Eigenvalues:   264.3832   301.1507   325.1735
     20  H    Isotropic =    29.4239   Anisotropy =    18.9651
   XX=    25.4796   YX=    -3.6381   ZX=    -5.6914
   XY=    -5.0079   YY=    37.7987   ZY=     5.6184
   XZ=    -4.9347   YZ=     5.5119   ZZ=    24.9934
   Eigenvalues:    19.8377    26.3667    42.0673
     21  O    Isotropic =   291.5524   Anisotropy =    35.1376
   XX=   311.9779   YX=    12.5337   ZX=    -2.6684
   XY=     7.7555   YY=   279.6103   ZY=     6.2759
   XZ=    -6.1121   YZ=    13.0339   ZZ=   283.0690
   Eigenvalues:   268.8971   290.7827   314.9775
     22  H    Isotropic =    28.0908   Anisotropy =    19.8452
   XX=    36.9798   YX=     7.5343   ZX=    -1.2455
   XY=     7.3291   YY=    28.4427   ZY=     4.3156
   XZ=    -2.0371   YZ=     4.9938   ZZ=    18.8499
   Eigenvalues:    15.9459    27.0055    41.3209
     23  C    Isotropic =   125.2848   Anisotropy =    59.8723
   XX=   155.2425   YX=    -2.3964   ZX=   -22.8875
   XY=     0.9324   YY=   106.0999   ZY=    13.8460
   XZ=   -20.4351   YZ=    11.9850   ZZ=   114.5122
   Eigenvalues:    93.8188   116.8360   165.1997
     24  H    Isotropic =    28.0055   Anisotropy =     3.9966
   XX=    29.0028   YX=     0.7304   ZX=    -0.8223
   XY=     0.2286   YY=    24.9087   ZY=     2.2822
   XZ=     1.0738   YZ=     1.1800   ZZ=    30.1051
   Eigenvalues:    24.3464    29.0002    30.6699
     25  H    Isotropic =    27.5409   Anisotropy =     4.9324
   XX=    29.5228   YX=    -0.4596   ZX=    -0.7105
   XY=     0.8324   YY=    30.4301   ZY=     1.3085
   XZ=    -1.1583   YZ=     2.2988   ZZ=    22.6698
   Eigenvalues:    22.1480    29.6456    30.8292
     26  O    Isotropic =   311.2354   Anisotropy =    65.5309
   XX=   291.8430   YX=     4.5410   ZX=    12.6633
   XY=     8.2003   YY=   290.3224   ZY=   -15.2251
   XZ=    -6.7735   YZ=   -14.1791   ZZ=   351.5409
   Eigenvalues:   282.1149   296.6687   354.9227
     27  H    Isotropic =    30.5489   Anisotropy =    16.6433
   XX=    28.3091   YX=     0.3489   ZX=    -3.8344
   XY=     0.4008   YY=    24.4818   ZY=    -5.2219
   XZ=    -2.7185   YZ=    -6.2598   ZZ=    38.8558
   Eigenvalues:    22.3714    27.6309    41.6444
 End of Minotr Frequency-dependent properties file   721 does not exist.
 End of Minotr Frequency-dependent properties file   722 does not exist.

 **********************************************************************

            Population analysis using the SCF density.

 **********************************************************************

 Orbital symmetries:
       Occupied  (A) (A) (A) (A) (A) (A) (A) (A) (A) (A) (A) (A)
                 (A) (A) (A) (A) (A) (A) (A) (A) (A) (A) (A) (A)
                 (A) (A) (A) (A) (A) (A) (A) (A) (A) (A) (A) (A)
                 (A) (A) (A) (A) (A) (A) (A) (A) (A) (A) (A)
       Virtual   (A) (A) (A) (A) (A) (A) (A) (A) (A) (A) (A) (A)
                 (A) (A) (A) (A) (A) (A) (A) (A) (A) (A) (A) (A)
                 (A) (A) (A) (A) (A) (A) (A) (A) (A) (A) (A) (A)
                 (A) (A) (A) (A) (A) (A) (A) (A) (A) (A) (A) (A)
                 (A) (A) (A) (A) (A) (A) (A) (A) (A) (A) (A) (A)
                 (A) (A) (A) (A) (A) (A) (A) (A) (A) (A) (A) (A)
                 (A) (A) (A) (A) (A) (A) (A) (A) (A) (A) (A) (A)
                 (A) (A) (A) (A) (A) (A) (A) (A) (A) (A) (A) (A)
                 (A) (A) (A) (A) (A) (A) (A) (A) (A) (A) (A) (A)
                 (A) (A) (A) (A) (A) (A) (A) (A) (A) (A) (A) (A)
                 (A) (A) (A) (A) (A) (A) (A) (A) (A) (A) (A) (A)
                 (A) (A) (A) (A) (A) (A) (A) (A) (A) (A) (A) (A)
                 (A) (A) (A) (A) (A) (A) (A) (A) (A) (A) (A) (A)
                 (A) (A) (A) (A) (A) (A) (A) (A) (A) (A) (A) (A)
                 (A) (A) (A) (A) (A) (A) (A) (A) (A) (A) (A) (A)
                 (A) (A) (A) (A) (A) (A) (A) (A) (A) (A) (A) (A)
                 (A) (A) (A) (A) (A) (A) (A) (A) (A) (A) (A) (A)
                 (A) (A) (A) (A) (A) (A) (A) (A) (A) (A) (A) (A)
                 (A) (A) (A) (A) (A) (A) (A) (A) (A) (A) (A) (A)
                 (A) (A) (A) (A) (A) (A) (A) (A) (A) (A) (A) (A)
                 (A) (A) (A) (A) (A) (A) (A) (A) (A) (A) (A) (A)
                 (A) (A) (A) (A)
 The electronic state is 1-A.
 Alpha  occ. eigenvalues --  -19.26947 -19.26023 -19.25399 -14.41778 -10.30407
 Alpha  occ. eigenvalues --  -10.30181 -10.30048 -10.28296 -10.27962 -10.27023
 Alpha  occ. eigenvalues --  -10.24704 -10.24559  -1.07457  -1.06538  -1.05138
 Alpha  occ. eigenvalues --   -0.96924  -0.82854  -0.79706  -0.75386  -0.71733
 Alpha  occ. eigenvalues --   -0.66721  -0.62065  -0.60462  -0.58614  -0.55571
 Alpha  occ. eigenvalues --   -0.54017  -0.51796  -0.50162  -0.49425  -0.47927
 Alpha  occ. eigenvalues --   -0.45880  -0.44808  -0.43260  -0.42614  -0.41145
 Alpha  occ. eigenvalues --   -0.39802  -0.38790  -0.37686  -0.36815  -0.35683
 Alpha  occ. eigenvalues --   -0.35316  -0.34827  -0.33449  -0.31613  -0.29750
 Alpha  occ. eigenvalues --   -0.28848  -0.23763
 Alpha virt. eigenvalues --    0.00624   0.01478   0.01823   0.01907   0.03666
 Alpha virt. eigenvalues --    0.04039   0.04574   0.04890   0.05435   0.07037
 Alpha virt. eigenvalues --    0.07836   0.08019   0.08488   0.09117   0.09270
 Alpha virt. eigenvalues --    0.10076   0.11273   0.11731   0.12350   0.12678
 Alpha virt. eigenvalues --    0.13123   0.13583   0.14368   0.14826   0.15131
 Alpha virt. eigenvalues --    0.15620   0.15933   0.16910   0.17704   0.18584
 Alpha virt. eigenvalues --    0.18808   0.19036   0.19664   0.20204   0.20681
 Alpha virt. eigenvalues --    0.21353   0.21543   0.22401   0.22917   0.23324
 Alpha virt. eigenvalues --    0.23668   0.24181   0.24645   0.24901   0.25560
 Alpha virt. eigenvalues --    0.26469   0.26997   0.27962   0.28444   0.28879
 Alpha virt. eigenvalues --    0.29605   0.30140   0.30599   0.31303   0.31363
 Alpha virt. eigenvalues --    0.32551   0.32904   0.33099   0.33960   0.34772
 Alpha virt. eigenvalues --    0.35334   0.35755   0.36602   0.36861   0.37876
 Alpha virt. eigenvalues --    0.38653   0.39515   0.40681   0.41543   0.41671
 Alpha virt. eigenvalues --    0.42139   0.42251   0.43527   0.45491   0.47450
 Alpha virt. eigenvalues --    0.50027   0.62300   0.65006   0.67000   0.67737
 Alpha virt. eigenvalues --    0.69982   0.70351   0.70972   0.71807   0.75411
 Alpha virt. eigenvalues --    0.76719   0.77911   0.79277   0.80539   0.82141
 Alpha virt. eigenvalues --    0.82967   0.83315   0.86247   0.86645   0.87994
 Alpha virt. eigenvalues --    0.88361   0.89420   0.91608   0.94367   0.96555
 Alpha virt. eigenvalues --    0.99177   1.00558   1.01410   1.03732   1.05227
 Alpha virt. eigenvalues --    1.05464   1.07217   1.08314   1.09198   1.10798
 Alpha virt. eigenvalues --    1.11553   1.13114   1.13699   1.15012   1.15925
 Alpha virt. eigenvalues --    1.16481   1.18755   1.20280   1.21872   1.24322
 Alpha virt. eigenvalues --    1.26047   1.28265   1.29792   1.30201   1.32831
 Alpha virt. eigenvalues --    1.33662   1.34142   1.35339   1.38015   1.42095
 Alpha virt. eigenvalues --    1.43619   1.47137   1.48121   1.50571   1.53411
 Alpha virt. eigenvalues --    1.54323   1.56420   1.56638   1.57902   1.60643
 Alpha virt. eigenvalues --    1.62801   1.66040   1.66847   1.68280   1.72125
 Alpha virt. eigenvalues --    1.72334   1.74373   1.74898   1.76480   1.78454
 Alpha virt. eigenvalues --    1.82027   1.82674   1.83975   1.85091   1.85418
 Alpha virt. eigenvalues --    1.87851   1.88601   1.92021   1.92656   1.94539
 Alpha virt. eigenvalues --    1.96544   1.99802   2.01197   2.02628   2.03325
 Alpha virt. eigenvalues --    2.04393   2.05629   2.06495   2.07606   2.10066
 Alpha virt. eigenvalues --    2.11609   2.14710   2.15736   2.17837   2.19090
 Alpha virt. eigenvalues --    2.20554   2.23431   2.25432   2.29308   2.29982
 Alpha virt. eigenvalues --    2.31906   2.34119   2.35362   2.37212   2.38181
 Alpha virt. eigenvalues --    2.40307   2.41619   2.42186   2.43221   2.45900
 Alpha virt. eigenvalues --    2.47798   2.49448   2.50636   2.52927   2.53641
 Alpha virt. eigenvalues --    2.54934   2.56863   2.59212   2.60811   2.62528
 Alpha virt. eigenvalues --    2.64401   2.66425   2.67208   2.68963   2.70451
 Alpha virt. eigenvalues --    2.71717   2.73155   2.75190   2.76919   2.77683
 Alpha virt. eigenvalues --    2.79911   2.80956   2.81955   2.83576   2.86826
 Alpha virt. eigenvalues --    2.88370   2.88416   2.91759   2.93952   2.94910
 Alpha virt. eigenvalues --    2.95875   2.99546   3.01084   3.03328   3.04077
 Alpha virt. eigenvalues --    3.05296   3.07887   3.11111   3.18372   3.32120
 Alpha virt. eigenvalues --    3.33041   3.36524   3.38621   3.39280   3.42310
 Alpha virt. eigenvalues --    3.45136   3.50408   3.53358   3.55291   3.55912
 Alpha virt. eigenvalues --    3.57392   3.58329   3.59065   3.64050   4.30463
 Alpha virt. eigenvalues --    4.37793   4.39186   4.44479   4.49304   4.54256
 Alpha virt. eigenvalues --    4.58809   4.64760   4.76220   4.80946   4.86132
 Alpha virt. eigenvalues --    4.93361
          Condensed to atoms (all electrons):
              1          2          3          4          5          6
     1  C    5.827730  -0.662111   0.124086  -0.089154   0.283998   0.015114
     2  C   -0.662111   8.119173  -0.427771  -0.244791   0.005616   0.012211
     3  N    0.124086  -0.427771   7.419439   0.210113  -0.150218   0.027342
     4  C   -0.089154  -0.244791   0.210113   5.666312   0.205824  -0.259278
     5  C    0.283998   0.005616  -0.150218   0.205824   5.354631   0.085880
     6  C    0.015114   0.012211   0.027342  -0.259278   0.085880   8.631147
     7  C   -0.001534  -0.121278  -0.136090  -0.199826  -0.051149  -1.345518
     8  C   -0.004143  -0.207439  -0.096262   0.067961  -0.062840   0.098969
     9  H    0.432124  -0.069111   0.009837   0.004424  -0.055586   0.011658
    10  H    0.425454  -0.147815   0.018703   0.025817  -0.025041   0.001672
    11  H    0.062492   0.158203   0.004234  -0.005886   0.007681   0.018108
    12  H    0.008632  -0.027510  -0.026237   0.388847  -0.048687   0.006110
    13  H    0.015253   0.029332  -0.064649   0.352416  -0.018769   0.044610
    14  H   -0.040076   0.028595   0.012678  -0.036568   0.366871  -0.000739
    15  H   -0.052172  -0.000239   0.010705  -0.061990   0.411763   0.019690
    16  H   -0.000125   0.052401  -0.065489   0.059525  -0.009223   0.336054
    17  H    0.015776  -0.010092   0.050720   0.012506  -0.001560  -0.100512
    18  H    0.071648  -0.211942   0.048932   0.011425  -0.016410   0.035543
    19  O    0.013597  -0.185906   0.030707   0.006923  -0.003776   0.001331
    20  H   -0.009405   0.045735  -0.003250  -0.001742   0.002329   0.019826
    21  O    0.000932   0.023128   0.013498  -0.000467   0.003848  -0.125570
    22  H    0.000252  -0.002697   0.001580  -0.000817  -0.000149  -0.062138
    23  C    0.103967  -0.312667   0.118270   0.090982  -0.046112  -1.006507
    24  H    0.000632   0.004352   0.014918   0.014110  -0.001155  -0.101483
    25  H    0.002330  -0.000715  -0.009028   0.001798  -0.001512   0.007647
    26  O   -0.001153   0.011518   0.006696   0.005290   0.003118   0.086347
    27  H   -0.000169  -0.000264   0.001174   0.003311   0.000036   0.007336
              7          8          9         10         11         12
     1  C   -0.001534  -0.004143   0.432124   0.425454   0.062492   0.008632
     2  C   -0.121278  -0.207439  -0.069111  -0.147815   0.158203  -0.027510
     3  N   -0.136090  -0.096262   0.009837   0.018703   0.004234  -0.026237
     4  C   -0.199826   0.067961   0.004424   0.025817  -0.005886   0.388847
     5  C   -0.051149  -0.062840  -0.055586  -0.025041   0.007681  -0.048687
     6  C   -1.345518   0.098969   0.011658   0.001672   0.018108   0.006110
     7  C    7.610600  -0.252922  -0.006397  -0.002374  -0.018832   0.002807
     8  C   -0.252922   6.215398   0.002684   0.030922   0.019365   0.003496
     9  H   -0.006397   0.002684   0.521030  -0.023720  -0.006478   0.001634
    10  H   -0.002374   0.030922  -0.023720   0.513890   0.002981  -0.000012
    11  H   -0.018832   0.019365  -0.006478   0.002981   0.556357   0.000859
    12  H    0.002807   0.003496   0.001634  -0.000012   0.000859   0.544606
    13  H    0.017209  -0.003260  -0.000111  -0.000141  -0.000165  -0.028434
    14  H    0.004665   0.005425  -0.004916   0.000625  -0.000051  -0.002567
    15  H   -0.004530   0.006218   0.004174  -0.005116  -0.000104   0.004065
    16  H   -0.110347  -0.019217  -0.000004  -0.000050  -0.000572  -0.000329
    17  H    0.417392  -0.150016   0.000007  -0.000006   0.000762   0.000014
    18  H   -0.095373   0.434480   0.000232   0.000563   0.004449   0.000018
    19  O   -0.103788   0.328429  -0.000313   0.003781   0.008545   0.000075
    20  H   -0.054150   0.004840   0.000006  -0.000092   0.000016   0.000000
    21  O    0.384994  -0.240862   0.000027  -0.000079  -0.000484   0.000012
    22  H    0.041866   0.043970   0.000000   0.000000   0.000007   0.000000
    23  C    0.160835  -0.191970   0.000046   0.000583   0.018488   0.005973
    24  H   -0.054987   0.000243   0.000000   0.000000  -0.000038   0.000014
    25  H   -0.005079  -0.004761   0.000000   0.000000   0.000010  -0.000148
    26  O   -0.072977   0.022295  -0.000001  -0.000004  -0.000080   0.000002
    27  H   -0.045863   0.003289   0.000000   0.000000   0.000000   0.000000
             13         14         15         16         17         18
     1  C    0.015253  -0.040076  -0.052172  -0.000125   0.015776   0.071648
     2  C    0.029332   0.028595  -0.000239   0.052401  -0.010092  -0.211942
     3  N   -0.064649   0.012678   0.010705  -0.065489   0.050720   0.048932
     4  C    0.352416  -0.036568  -0.061990   0.059525   0.012506   0.011425
     5  C   -0.018769   0.366871   0.411763  -0.009223  -0.001560  -0.016410
     6  C    0.044610  -0.000739   0.019690   0.336054  -0.100512   0.035543
     7  C    0.017209   0.004665  -0.004530  -0.110347   0.417392  -0.095373
     8  C   -0.003260   0.005425   0.006218  -0.019217  -0.150016   0.434480
     9  H   -0.000111  -0.004916   0.004174  -0.000004   0.000007   0.000232
    10  H   -0.000141   0.000625  -0.005116  -0.000050  -0.000006   0.000563
    11  H   -0.000165  -0.000051  -0.000104  -0.000572   0.000762   0.004449
    12  H   -0.028434  -0.002567   0.004065  -0.000329   0.000014   0.000018
    13  H    0.529241   0.000944  -0.005556   0.000864  -0.000021  -0.000023
    14  H    0.000944   0.515244  -0.022868  -0.000160   0.000000  -0.000048
    15  H   -0.005556  -0.022868   0.521886   0.000008   0.000003  -0.000023
    16  H    0.000864  -0.000160   0.000008   0.567922   0.003965  -0.000254
    17  H   -0.000021   0.000000   0.000003   0.003965   0.562835   0.004602
    18  H   -0.000023  -0.000048  -0.000023  -0.000254   0.004602   0.557655
    19  O   -0.000017  -0.000009  -0.000005  -0.001156  -0.000240  -0.039931
    20  H    0.000000   0.000000  -0.000001   0.000008  -0.000035  -0.005637
    21  O   -0.000085  -0.000013   0.000001   0.005478  -0.043410   0.000941
    22  H   -0.000002   0.000000  -0.000001  -0.001478  -0.003601  -0.000020
    23  C   -0.036290  -0.001517  -0.000717   0.004454   0.063519   0.025468
    24  H    0.000014   0.000000   0.000000   0.004403   0.003087  -0.000008
    25  H    0.000861   0.000001  -0.000006  -0.006301   0.000043   0.000007
    26  O   -0.000018  -0.000005  -0.000006  -0.003791  -0.000043  -0.000268
    27  H    0.000006   0.000000   0.000000   0.003930   0.000060   0.000004
             19         20         21         22         23         24
     1  C    0.013597  -0.009405   0.000932   0.000252   0.103967   0.000632
     2  C   -0.185906   0.045735   0.023128  -0.002697  -0.312667   0.004352
     3  N    0.030707  -0.003250   0.013498   0.001580   0.118270   0.014918
     4  C    0.006923  -0.001742  -0.000467  -0.000817   0.090982   0.014110
     5  C   -0.003776   0.002329   0.003848  -0.000149  -0.046112  -0.001155
     6  C    0.001331   0.019826  -0.125570  -0.062138  -1.006507  -0.101483
     7  C   -0.103788  -0.054150   0.384994   0.041866   0.160835  -0.054987
     8  C    0.328429   0.004840  -0.240862   0.043970  -0.191970   0.000243
     9  H   -0.000313   0.000006   0.000027   0.000000   0.000046   0.000000
    10  H    0.003781  -0.000092  -0.000079   0.000000   0.000583   0.000000
    11  H    0.008545   0.000016  -0.000484   0.000007   0.018488  -0.000038
    12  H    0.000075   0.000000   0.000012   0.000000   0.005973   0.000014
    13  H   -0.000017   0.000000  -0.000085  -0.000002  -0.036290   0.000014
    14  H   -0.000009   0.000000  -0.000013   0.000000  -0.001517   0.000000
    15  H   -0.000005  -0.000001   0.000001  -0.000001  -0.000717   0.000000
    16  H   -0.001156   0.000008   0.005478  -0.001478   0.004454   0.004403
    17  H   -0.000240  -0.000035  -0.043410  -0.003601   0.063519   0.003087
    18  H   -0.039931  -0.005637   0.000941  -0.000020   0.025468  -0.000008
    19  O    8.254956   0.237837  -0.003146   0.000435   0.005198  -0.000122
    20  H    0.237837   0.373038   0.006495  -0.000189  -0.001541   0.000000
    21  O   -0.003146   0.006495   8.268886   0.231352   0.038015   0.002063
    22  H    0.000435  -0.000189   0.231352   0.348294  -0.030017  -0.000082
    23  C    0.005198  -0.001541   0.038015  -0.030017   6.157059   0.499062
    24  H   -0.000122   0.000000   0.002063  -0.000082   0.499062   0.517001
    25  H    0.000045   0.000000  -0.000965   0.000127   0.373340  -0.032938
    26  O    0.000242  -0.000005  -0.009193   0.034237   0.016195  -0.054240
    27  H   -0.000016   0.000000   0.000993  -0.004074   0.021256   0.005646
             25         26         27
     1  C    0.002330  -0.001153  -0.000169
     2  C   -0.000715   0.011518  -0.000264
     3  N   -0.009028   0.006696   0.001174
     4  C    0.001798   0.005290   0.003311
     5  C   -0.001512   0.003118   0.000036
     6  C    0.007647   0.086347   0.007336
     7  C   -0.005079  -0.072977  -0.045863
     8  C   -0.004761   0.022295   0.003289
     9  H    0.000000  -0.000001   0.000000
    10  H    0.000000  -0.000004   0.000000
    11  H    0.000010  -0.000080   0.000000
    12  H   -0.000148   0.000002   0.000000
    13  H    0.000861  -0.000018   0.000006
    14  H    0.000001  -0.000005   0.000000
    15  H   -0.000006  -0.000006   0.000000
    16  H   -0.006301  -0.003791   0.003930
    17  H    0.000043  -0.000043   0.000060
    18  H    0.000007  -0.000268   0.000004
    19  O    0.000045   0.000242  -0.000016
    20  H    0.000000  -0.000005   0.000000
    21  O   -0.000965  -0.009193   0.000993
    22  H    0.000127   0.034237  -0.004074
    23  C    0.373340   0.016195   0.021256
    24  H   -0.032938  -0.054240   0.005646
    25  H    0.555632  -0.039249  -0.007618
    26  O   -0.039249   8.333891   0.259778
    27  H   -0.007618   0.259778   0.351632
 Mulliken atomic charges:
              1
     1  C   -0.543972
     2  C    0.142085
     3  N   -0.144636
     4  C   -0.227066
     5  C   -0.239407
     6  C   -0.464848
     7  C    0.042646
     8  C   -0.054294
     9  H    0.178749
    10  H    0.179460
    11  H    0.170132
    12  H    0.166758
    13  H    0.166792
    14  H    0.174489
    15  H    0.174822
    16  H    0.179484
    17  H    0.174244
    18  H    0.173970
    19  O   -0.553674
    20  H    0.385918
    21  O   -0.556386
    22  H    0.403144
    23  C   -0.075371
    24  H    0.179505
    25  H    0.166480
    26  O   -0.598578
    27  H    0.399554
 Sum of Mulliken atomic charges =   0.00000
 Mulliken charges with hydrogens summed into heavy atoms:
              1
     1  C   -0.185763
     2  C    0.312217
     3  N   -0.144636
     4  C    0.106485
     5  C    0.109904
     6  C   -0.285364
     7  C    0.216890
     8  C    0.119677
    19  O   -0.167756
    21  O   -0.153242
    23  C    0.270614
    26  O   -0.199025
 Sum of Mulliken charges with hydrogens summed into heavy atoms =   0.00000
 Electronic spatial extent (au):  <R**2>=           2111.8835
 Charge=              0.0000 electrons
 Dipole moment (field-independent basis, Debye):
    X=              0.7087    Y=             -3.3456    Z=              2.7114  Tot=              4.3642
 Quadrupole moment (field-independent basis, Debye-Ang):
   XX=            -75.8338   YY=            -72.7104   ZZ=            -73.9513
   XY=             -0.1405   XZ=             -0.9117   YZ=             -1.4920
 Traceless Quadrupole moment (field-independent basis, Debye-Ang):
   XX=             -1.6686   YY=              1.4548   ZZ=              0.2139
   XY=             -0.1405   XZ=             -0.9117   YZ=             -1.4920
 Octapole moment (field-independent basis, Debye-Ang**2):
  XXX=             11.4481  YYY=              2.0751  ZZZ=              5.6698  XYY=            -10.5166
  XXY=            -10.7231  XXZ=             13.8279  XZZ=            -11.5212  YZZ=             -1.8517
  YYZ=             14.2141  XYZ=             13.1834
 Hexadecapole moment (field-independent basis, Debye-Ang**3):
 XXXX=          -1568.9775 YYYY=           -891.0894 ZZZZ=           -247.1445 XXXY=            -27.1079
 XXXZ=            -68.6096 YYYX=              0.4038 YYYZ=             27.2789 ZZZX=            -10.5214
 ZZZY=             -8.0894 XXYY=           -425.8672 XXZZ=           -260.4895 YYZZ=           -212.8151
 XXYZ=            -19.4592 YYXZ=              8.3492 ZZXY=             16.7473
 N-N= 8.011702434614D+02 E-N=-2.988048444622D+03  KE= 5.886696308412D+02
 1\1\GINC-COMPUTE-3-0\SP\RmPW1PW91\6-31+G(d,p)\C8H15N1O3\MAMICHETTI.IQU
 IR\17-May-2024\0\\# mpw1pw91/6-31+G** nmr scrf=(pcm,solvent=water)\\co
 mment\\0,1\C,0,2.650744,-0.069578,0.100898\C,0,1.348551,0.355369,-0.60
 8936\N,0,0.477216,-0.874827,-0.68527\C,0,1.238306,-1.981199,-0.058821\
 C,0,2.241312,-1.319554,0.893737\C,0,-0.786754,-0.561254,0.016196\C,0,-
 0.916942,0.958138,-0.122423\C,0,0.515522,1.42082,0.117721\H,0,3.415214
 ,-0.331367,-0.639916\H,0,3.053943,0.73498,0.724626\H,0,1.559867,0.7312
 24,-1.617316\H,0,1.773728,-2.543927,-0.834864\H,0,0.554114,-2.67753,0.
 434892\H,0,3.086555,-1.968414,1.145035\H,0,1.743119,-1.036244,1.829431
 \H,0,-0.721754,-0.788875,1.095271\H,0,-1.200239,1.21132,-1.156678\H,0,
 0.708727,1.389694,1.200481\O,0,0.829846,2.714957,-0.39559\H,0,0.324382
 ,3.358754,0.128437\O,0,-1.833445,1.544475,0.797728\H,0,-2.65277,1.0216
 42,0.696532\C,0,-1.98879,-1.314244,-0.548874\H,0,-2.125854,-1.070458,-
 1.606789\H,0,-1.850478,-2.400065,-0.462388\O,0,-3.204776,-0.910259,0.1
 099\H,0,-3.153765,-1.23132,1.026854\\Version=AM64L-G09RevC.01\State=1-
 A\HF=-594.2003113\RMSD=6.283e-09\Dipole=0.2788057,-1.3162518,1.0667351
 \Quadrupole=-1.2405934,1.0815809,0.1590126,-0.1044398,-0.6778483,-1.10
 92435\PG=C01 [X(C8H15N1O3)]\\@


 DEMOCRATS BUY MOST OF THE BOOKS THAT HAVE BEEN
 BANNED; REPUBLICANS FORM CENSORSHIP COMMITTEES AND
 READ THEM AS A GROUP.
 Job cpu time:  0 days  0 hours  8 minutes 52.5 seconds.
 File lengths (MBytes):  RWF=    112 Int=      0 D2E=      0 Chk=      7 Scr=      1
 Normal termination of Gaussian 09 at Fri May 17 12:10:46 2024.
