 Entering Gaussian System, Link 0=g09
 Input=/home/mamichetti.iquir/Linux/02_Cardona_A1A3_R__R_R_R_008_OptB.gjc
 Output=/home/mamichetti.iquir/Linux/02_Cardona_A1A3_R__R_R_R_008_OptB.log
 Initial command:
 /opt/ohpc/pub/apps/software/Gaussian/09/AMD64.SSE4a-enabled/g09/l1.exe /local/mamichetti.iquir/Gau-712535.inp -scrdir=/local/mamichetti.iquir/
 Entering Link 1 = /opt/ohpc/pub/apps/software/Gaussian/09/AMD64.SSE4a-enabled/g09/l1.exe PID=    712536.
  
 Copyright (c) 1988,1990,1992,1993,1995,1998,2003,2009,2011,
            Gaussian, Inc.  All Rights Reserved.
  
 This is part of the Gaussian(R) 09 program.  It is based on
 the Gaussian(R) 03 system (copyright 2003, Gaussian, Inc.),
 the Gaussian(R) 98 system (copyright 1998, Gaussian, Inc.),
 the Gaussian(R) 94 system (copyright 1995, Gaussian, Inc.),
 the Gaussian 92(TM) system (copyright 1992, Gaussian, Inc.),
 the Gaussian 90(TM) system (copyright 1990, Gaussian, Inc.),
 the Gaussian 88(TM) system (copyright 1988, Gaussian, Inc.),
 the Gaussian 86(TM) system (copyright 1986, Carnegie Mellon
 University), and the Gaussian 82(TM) system (copyright 1983,
 Carnegie Mellon University). Gaussian is a federally registered
 trademark of Gaussian, Inc.
  
 This software contains proprietary and confidential information,
 including trade secrets, belonging to Gaussian, Inc.
  
 This software is provided under written license and may be
 used, copied, transmitted, or stored only in accord with that
 written license.
  
 The following legend is applicable only to US Government
 contracts under FAR:
  
                    RESTRICTED RIGHTS LEGEND
  
 Use, reproduction and disclosure by the US Government is
 subject to restrictions as set forth in subparagraphs (a)
 and (c) of the Commercial Computer Software - Restricted
 Rights clause in FAR 52.227-19.
  
 Gaussian, Inc.
 340 Quinnipiac St., Bldg. 40, Wallingford CT 06492
  
  
 ---------------------------------------------------------------
 Warning -- This program may not be used in any manner that
 competes with the business of Gaussian, Inc. or will provide
 assistance to any competitor of Gaussian, Inc.  The licensee
 of this program is prohibited from giving any competitor of
 Gaussian, Inc. access to this program.  By using this program,
 the user acknowledges that Gaussian, Inc. is engaged in the
 business of creating and licensing software in the field of
 computational chemistry and represents and warrants to the
 licensee that it is not a competitor of Gaussian, Inc. and that
 it will not use this program in any manner prohibited above.
 ---------------------------------------------------------------
  

 Cite this work as:
 Gaussian 09, Revision C.01,
 M. J. Frisch, G. W. Trucks, H. B. Schlegel, G. E. Scuseria, 
 M. A. Robb, J. R. Cheeseman, G. Scalmani, V. Barone, B. Mennucci, 
 G. A. Petersson, H. Nakatsuji, M. Caricato, X. Li, H. P. Hratchian, 
 A. F. Izmaylov, J. Bloino, G. Zheng, J. L. Sonnenberg, M. Hada, 
 M. Ehara, K. Toyota, R. Fukuda, J. Hasegawa, M. Ishida, T. Nakajima, 
 Y. Honda, O. Kitao, H. Nakai, T. Vreven, J. A. Montgomery, Jr., 
 J. E. Peralta, F. Ogliaro, M. Bearpark, J. J. Heyd, E. Brothers, 
 K. N. Kudin, V. N. Staroverov, T. Keith, R. Kobayashi, J. Normand, 
 K. Raghavachari, A. Rendell, J. C. Burant, S. S. Iyengar, J. Tomasi, 
 M. Cossi, N. Rega, J. M. Millam, M. Klene, J. E. Knox, J. B. Cross, 
 V. Bakken, C. Adamo, J. Jaramillo, R. Gomperts, R. E. Stratmann, 
 O. Yazyev, A. J. Austin, R. Cammi, C. Pomelli, J. W. Ochterski, 
 R. L. Martin, K. Morokuma, V. G. Zakrzewski, G. A. Voth, 
 P. Salvador, J. J. Dannenberg, S. Dapprich, A. D. Daniels, 
 O. Farkas, J. B. Foresman, J. V. Ortiz, J. Cioslowski, 
 and D. J. Fox, Gaussian, Inc., Wallingford CT, 2010.
 
 ******************************************
 Gaussian 09:  AM64L-G09RevC.01 23-Sep-2011
                17-May-2024 
 ******************************************
 %nprocshared=4
 Will use up to    4 processors via shared memory.
 ------------------------------------------------
 # mpw1pw91/6-31+G** nmr scrf=(pcm,solvent=water)
 ------------------------------------------------
 1/38=1/1;
 2/12=2,17=6,18=5,40=1/2;
 3/5=1,6=6,7=111,11=2,16=1,25=1,30=1,70=2201,72=1,74=-7/1,2,8,3;
 4//1;
 5/5=2,38=5,53=1/2;
 8/6=1,10=90,11=11/1;
 10/13=100,45=16/2;
 6/7=2,8=2,9=2,10=2,28=1/1;
 99/9=1/99;
 -------
 comment
 -------
 Charge =  0 Multiplicity = 1
 Symbolic Z-Matrix:
 6                    -2.53844  -0.00734   0.22844 
 6                    -1.106     0.30374   0.71028 
 7                    -0.27553  -0.92049   0.40535 
 6                    -1.18368  -1.91712  -0.21426 
 6                    -2.3388   -1.11178  -0.82063 
 6                     0.83991  -0.50583  -0.48327 
 6                     1.03522   0.97305  -0.14876 
 6                    -0.40005   1.46628  -0.01081 
 1                    -3.14175  -0.38737   1.061 
 1                    -3.03785   0.88545  -0.16329 
 1                    -1.08963   0.51204   1.78643 
 1                    -1.56536  -2.59626   0.55894 
 1                    -0.63728  -2.52449  -0.94198 
 1                    -3.23699  -1.71435  -0.9892 
 1                    -2.03446  -0.68029  -1.78231 
 1                     0.57081  -0.57794  -1.54991 
 1                     1.54038   1.07271   0.82249 
 1                    -0.81661   1.59508  -1.02049 
 8                    -0.43619   2.70771   0.69166 
 1                    -1.34796   3.04128   0.64551 
 8                     1.79388   1.61323  -1.17058 
 1                     1.94075   2.52943  -0.88141 
 6                     2.06845  -1.38098  -0.24135 
 1                     1.87364  -2.39664  -0.61823 
 1                     2.92877  -0.9808   -0.78815 
 8                     2.4141   -1.41738   1.14305 
 1                     1.54831  -1.48305   1.59227 
 
                          Input orientation:                          
 ---------------------------------------------------------------------
 Center     Atomic      Atomic             Coordinates (Angstroms)
 Number     Number       Type             X           Y           Z
 ---------------------------------------------------------------------
      1          6           0       -2.538442   -0.007337    0.228437
      2          6           0       -1.105999    0.303743    0.710275
      3          7           0       -0.275534   -0.920485    0.405352
      4          6           0       -1.183683   -1.917116   -0.214255
      5          6           0       -2.338797   -1.111783   -0.820628
      6          6           0        0.839908   -0.505833   -0.483274
      7          6           0        1.035217    0.973045   -0.148757
      8          6           0       -0.400047    1.466277   -0.010807
      9          1           0       -3.141752   -0.387365    1.061005
     10          1           0       -3.037849    0.885452   -0.163288
     11          1           0       -1.089625    0.512040    1.786427
     12          1           0       -1.565361   -2.596261    0.558935
     13          1           0       -0.637283   -2.524492   -0.941982
     14          1           0       -3.236985   -1.714347   -0.989197
     15          1           0       -2.034465   -0.680288   -1.782306
     16          1           0        0.570806   -0.577935   -1.549910
     17          1           0        1.540384    1.072712    0.822490
     18          1           0       -0.816606    1.595077   -1.020485
     19          8           0       -0.436186    2.707708    0.691660
     20          1           0       -1.347964    3.041284    0.645509
     21          8           0        1.793883    1.613228   -1.170579
     22          1           0        1.940747    2.529430   -0.881406
     23          6           0        2.068447   -1.380980   -0.241354
     24          1           0        1.873640   -2.396638   -0.618229
     25          1           0        2.928769   -0.980796   -0.788152
     26          8           0        2.414096   -1.417378    1.143050
     27          1           0        1.548312   -1.483047    1.592266
 ---------------------------------------------------------------------
                    Distance matrix (angstroms):
                    1          2          3          4          5
     1  C    0.000000
     2  C    1.542994   0.000000
     3  N    2.446608   1.510425   0.000000
     4  C    2.382982   2.406866   1.483887   0.000000
     5  C    1.536293   2.422224   2.407629   1.533146   0.000000
     6  C    3.488306   2.422091   1.485195   2.481736   3.253483
     7  C    3.724844   2.402230   2.368662   3.644288   4.022672
     8  C    2.607970   1.539420   2.425969   3.478911   3.325801
     9  H    1.096163   2.178287   2.988194   2.792930   2.170267
    10  H    1.095412   2.198532   3.348902   3.360791   2.215788
    11  H    2.190013   1.096248   2.149940   3.148392   3.315715
    12  H    2.785434   2.940058   2.120252   1.097606   2.169118
    13  H    3.364574   3.308861   2.125796   1.094096   2.214864
    14  H    2.210086   3.391459   3.368260   2.204019   1.094642
    15  H    2.179436   2.836076   2.817336   2.170797   1.097101
    16  H    3.627054   2.949147   2.157935   2.579847   3.046742
    17  H    4.261012   2.758124   2.728442   4.175458   4.745514
    18  H    2.663129   2.178720   2.941738   3.622189   3.111929
    19  O    3.464899   2.495605   3.643016   4.771628   4.527191
    20  H    3.299284   2.748977   4.111374   5.035068   4.514341
    21  O    4.832444   3.696171   3.631218   4.716332   4.962579
    22  H    5.265935   4.095094   4.297623   5.475301   5.619308
    23  C    4.830220   3.717660   2.474779   3.296138   4.453294
    24  H    5.088425   4.235000   2.801017   3.120955   4.408678
    25  H    5.645482   4.491623   3.419890   4.256561   5.269294
    26  O    5.229949   3.942159   2.832880   3.877632   5.151642
    27  H    4.554043   3.319020   2.247589   3.303896   4.590154
                    6          7          8          9         10
     6  C    0.000000
     7  C    1.528767   0.000000
     8  C    2.376958   1.523906   0.000000
     9  H    4.272288   4.556458   3.478752   0.000000
    10  H    4.132198   4.074034   2.705293   1.769111   0.000000
    11  H    3.148127   2.910742   2.148520   2.355078   2.781439
    12  H    3.352821   4.472558   4.264596   2.759765   3.848656
    13  H    2.543126   3.957174   4.104827   3.853782   4.242263
    14  H    4.282233   5.116652   4.372852   2.444029   2.735093
    15  H    3.159104   3.850317   3.227580   3.065339   2.465672
    16  H    1.102419   2.141132   2.736822   4.542717   4.133596
    17  H    2.165061   1.099294   2.148150   4.910307   4.686901
    18  H    2.728820   2.139178   1.099800   3.697158   2.484406
    19  O    3.651812   2.424950   1.426856   4.127467   3.289408
    20  H    4.317751   3.253924   1.951908   3.891779   2.856129
    21  O    2.423402   1.424615   2.485959   5.774325   4.988981
    22  H    3.253180   1.943989   2.714324   6.173528   5.291954
    23  C    1.527650   2.572464   3.775379   5.461647   5.587224
    24  H    2.159157   3.504015   4.523353   5.657841   5.924678
    25  H    2.163765   2.794970   4.203980   6.373599   6.282823
    26  O    2.440064   3.046998   4.191211   5.651115   6.060796
    27  H    2.400968   3.053984   3.881296   4.845561   5.452030
                   11         12         13         14         15
    11  H    0.000000
    12  H    3.375588   0.000000
    13  H    4.107232   1.766135   0.000000
    14  H    4.155965   2.443115   2.723420   0.000000
    15  H    3.879462   3.061441   2.461575   1.773233   0.000000
    16  H    3.882811   3.617192   2.370262   4.013116   2.617617
    17  H    2.856655   4.814195   4.560205   5.820065   4.757890
    18  H    3.020971   4.541202   4.124217   4.100183   2.690880
    19  O    2.538987   5.424458   5.484993   5.497665   4.489267
    20  H    2.786666   5.642399   5.831214   5.371842   4.496184
    21  O    4.274473   5.656460   4.804534   6.034508   4.504517
    22  H    4.513352   6.374958   5.673803   6.695534   5.188085
    23  C    4.203432   3.914324   3.019847   5.368241   4.438399
    24  H    4.798304   3.640370   2.534935   5.169296   4.424276
    25  H    5.000451   4.962013   3.888880   6.212491   5.070734
    26  O    4.051253   4.191305   3.857975   6.047263   5.375007
    27  H    3.313123   3.464387   3.504832   5.442106   4.986828
                   16         17         18         19         20
    16  H    0.000000
    17  H    3.048442   0.000000
    18  H    2.631954   3.037240   0.000000
    19  O    4.102940   2.568493   2.077043   0.000000
    20  H    4.647611   3.499879   2.269227   0.971978   0.000000
    21  O    2.537913   2.080563   2.614863   3.104678   3.899836
    22  H    3.461120   2.277187   2.914679   2.855894   3.661842
    23  C    2.144791   2.726026   4.217522   4.884780   5.658163
    24  H    2.423445   3.771355   4.830427   5.753734   6.445678
    25  H    2.510490   2.956125   4.551586   5.207478   6.043423
    26  O    3.369631   2.658323   4.918659   5.034302   5.854939
    27  H    3.412919   2.669180   4.679119   4.723532   5.454753
                   21         22         23         24         25
    21  O    0.000000
    22  H    0.971914   0.000000
    23  C    3.147082   3.964503   0.000000
    24  H    4.048515   4.933550   1.100702   0.000000
    25  H    2.857127   3.647817   1.095121   1.773916   0.000000
    26  O    3.862915   4.460916   1.427366   2.086420   2.045735
    27  H    4.156986   4.730014   1.908696   2.413871   2.797196
                   26         27
    26  O    0.000000
    27  H    0.977594   0.000000
 Stoichiometry    C8H15NO3
 Framework group  C1[X(C8H15NO3)]
 Deg. of freedom    75
 Full point group                 C1      NOp   1
 Largest Abelian subgroup         C1      NOp   1
 Largest concise Abelian subgroup C1      NOp   1
                         Standard orientation:                         
 ---------------------------------------------------------------------
 Center     Atomic      Atomic             Coordinates (Angstroms)
 Number     Number       Type             X           Y           Z
 ---------------------------------------------------------------------
      1          6           0        2.538442   -0.007337   -0.228437
      2          6           0        1.105999    0.303743   -0.710275
      3          7           0        0.275534   -0.920485   -0.405352
      4          6           0        1.183683   -1.917116    0.214255
      5          6           0        2.338797   -1.111783    0.820628
      6          6           0       -0.839908   -0.505833    0.483274
      7          6           0       -1.035217    0.973045    0.148757
      8          6           0        0.400047    1.466277    0.010807
      9          1           0        3.141752   -0.387365   -1.061005
     10          1           0        3.037849    0.885452    0.163288
     11          1           0        1.089625    0.512040   -1.786427
     12          1           0        1.565361   -2.596261   -0.558935
     13          1           0        0.637283   -2.524492    0.941982
     14          1           0        3.236985   -1.714347    0.989197
     15          1           0        2.034465   -0.680288    1.782306
     16          1           0       -0.570806   -0.577935    1.549910
     17          1           0       -1.540384    1.072712   -0.822490
     18          1           0        0.816606    1.595077    1.020485
     19          8           0        0.436186    2.707708   -0.691660
     20          1           0        1.347964    3.041284   -0.645509
     21          8           0       -1.793883    1.613228    1.170579
     22          1           0       -1.940747    2.529430    0.881406
     23          6           0       -2.068447   -1.380980    0.241354
     24          1           0       -1.873640   -2.396638    0.618229
     25          1           0       -2.928769   -0.980796    0.788152
     26          8           0       -2.414096   -1.417378   -1.143050
     27          1           0       -1.548312   -1.483047   -1.592266
 ---------------------------------------------------------------------
 Rotational constants (GHZ):      1.0912739      0.9192523      0.6074537
 Standard basis: 6-31+G(d,p) (6D, 7F)
 There are   303 symmetry adapted basis functions of A   symmetry.
 Integral buffers will be    131072 words long.
 Raffenetti 2 integral format.
 Two-electron integral symmetry is turned on.
   303 basis functions,   489 primitive gaussians,   303 cartesian basis functions
    47 alpha electrons       47 beta electrons
       nuclear repulsion energy       805.1523513526 Hartrees.
 NAtoms=   27 NActive=   27 NUniq=   27 SFac= 1.00D+00 NAtFMM=   60 NAOKFM=F Big=F
 ------------------------------------------------------------------------------
 Polarizable Continuum Model (PCM)
 =================================
 Model                : PCM.
 Atomic radii         : UFF (Universal Force Field).
 Polarization charges : Total charges.
 Charge compensation  : None.
 Solution method      : Matrix inversion.
 Cavity type          : Scaled VdW (van der Waals Surface) (Alpha=1.100).
 Cavity algorithm     : GePol (No added spheres)
                        Default sphere list used, NSphG=   27.
                        Lebedev-Laikov grids with approx.  5.0 points / Ang**2.
                        Smoothing algorithm: Karplus/York (Gamma=1.0000).
                        Polarization charges: spherical gaussians, with
                                              point-specific exponents (IZeta= 3).
                        Self-potential: point-specific (ISelfS= 7).
                        Self-field    : sphere-specific E.n sum rule (ISelfD= 2).
 Solvent              : Water, Eps=  78.355300 Eps(inf)=   1.777849
 ------------------------------------------------------------------------------
 One-electron integrals computed using PRISM.
 NBasis=   303 RedAO= T  NBF=   303
 NBsUse=   303 1.00D-06 NBFU=   303
 Harris functional with IExCor=  908 diagonalized for initial guess.
 ExpMin= 4.38D-02 ExpMax= 5.48D+03 ExpMxC= 8.25D+02 IAcc=2 IRadAn=         4 AccDes= 0.00D+00
 HarFok:  IExCor=  908 AccDes= 0.00D+00 IRadAn=         4 IDoV= 1
 ScaDFX=  1.000000  1.000000  1.000000  1.000000
 FoFCou: FMM=F IPFlag=           0 FMFlag=      100000 FMFlg1=           0
         NFxFlg=           0 DoJE=T BraDBF=F KetDBF=T FulRan=T
         Omega=  0.000000  0.000000  1.000000  0.000000  0.000000 ICntrl=     500 IOpCl=  0
         NMat0=    1 NMatS0=    1 NMatT0=    0 NMatD0=    1 NMtDS0=    0 NMtDT0=    0
         I1Cent=           4 NGrid=           0.
 Petite list used in FoFCou.
 Initial guess orbital symmetries:
       Occupied  (A) (A) (A) (A) (A) (A) (A) (A) (A) (A) (A) (A)
                 (A) (A) (A) (A) (A) (A) (A) (A) (A) (A) (A) (A)
                 (A) (A) (A) (A) (A) (A) (A) (A) (A) (A) (A) (A)
                 (A) (A) (A) (A) (A) (A) (A) (A) (A) (A) (A)
       Virtual   (A) (A) (A) (A) (A) (A) (A) (A) (A) (A) (A) (A)
                 (A) (A) (A) (A) (A) (A) (A) (A) (A) (A) (A) (A)
                 (A) (A) (A) (A) (A) (A) (A) (A) (A) (A) (A) (A)
                 (A) (A) (A) (A) (A) (A) (A) (A) (A) (A) (A) (A)
                 (A) (A) (A) (A) (A) (A) (A) (A) (A) (A) (A) (A)
                 (A) (A) (A) (A) (A) (A) (A) (A) (A) (A) (A) (A)
                 (A) (A) (A) (A) (A) (A) (A) (A) (A) (A) (A) (A)
                 (A) (A) (A) (A) (A) (A) (A) (A) (A) (A) (A) (A)
                 (A) (A) (A) (A) (A) (A) (A) (A) (A) (A) (A) (A)
                 (A) (A) (A) (A) (A) (A) (A) (A) (A) (A) (A) (A)
                 (A) (A) (A) (A) (A) (A) (A) (A) (A) (A) (A) (A)
                 (A) (A) (A) (A) (A) (A) (A) (A) (A) (A) (A) (A)
                 (A) (A) (A) (A) (A) (A) (A) (A) (A) (A) (A) (A)
                 (A) (A) (A) (A) (A) (A) (A) (A) (A) (A) (A) (A)
                 (A) (A) (A) (A) (A) (A) (A) (A) (A) (A) (A) (A)
                 (A) (A) (A) (A) (A) (A) (A) (A) (A) (A) (A) (A)
                 (A) (A) (A) (A) (A) (A) (A) (A) (A) (A) (A) (A)
                 (A) (A) (A) (A) (A) (A) (A) (A) (A) (A) (A) (A)
                 (A) (A) (A) (A) (A) (A) (A) (A) (A) (A) (A) (A)
                 (A) (A) (A) (A) (A) (A) (A) (A) (A) (A) (A) (A)
                 (A) (A) (A) (A) (A) (A) (A) (A) (A) (A) (A) (A)
                 (A) (A) (A) (A)
 The electronic state of the initial guess is 1-A.
 Requested convergence on RMS density matrix=1.00D-08 within 128 cycles.
 Requested convergence on MAX density matrix=1.00D-06.
 Requested convergence on             energy=1.00D-06.
 No special actions if energy rises.
 Error on total polarization charges =  0.01428
 SCF Done:  E(RmPW1PW91) =  -594.202833545     A.U. after   13 cycles
             Convg  =    0.1573D-08             -V/T =  2.0094
 Range of M.O.s used for correlation:     1   303
 NBasis=   303 NAE=    47 NBE=    47 NFC=     0 NFV=     0
 NROrb=    303 NOA=    47 NOB=    47 NVA=   256 NVB=   256

 **** Warning!!: The largest alpha MO coefficient is  0.62227425D+02

 NEqPCM:  Using equilibrium solvation (IEInf=0, Eps=  78.3553, EpsInf=   1.7778)
          Differentiating once with respect to magnetic field using GIAOs.
          Electric field/nuclear overlap derivatives assumed to be zero.
 FoFCou: FMM=F IPFlag=           0 FMFlag=    10101102 FMFlg1=           0
         NFxFlg=    40000000 DoJE=F BraDBF=F KetDBF=T FulRan=T
         Omega=  0.000000  0.000000  1.000000  0.000000  0.000000 ICntrl=    6100 IOpCl=  0
         NMat0=    1 NMatS0=    1 NMatT0=    0 NMatD0=    1 NMtDS0=    0 NMtDT0=    0
         I1Cent=           7 NGrid=        1844.
 Symmetry not used in FoFCou.
          There are     3 degrees of freedom in the 1st order CPHF.  IDoFFX=0.
      3 vectors produced by pass  0 Test12= 4.01D-13 3.33D-08 XBig12= 2.86D+01 6.91D-01.
 AX will form     3 AO Fock derivatives at one time.
      3 vectors produced by pass  1 Test12= 4.01D-13 3.33D-08 XBig12= 7.36D-02 3.47D-02.
      3 vectors produced by pass  2 Test12= 4.01D-13 3.33D-08 XBig12= 1.33D-04 2.06D-03.
      3 vectors produced by pass  3 Test12= 4.01D-13 3.33D-08 XBig12= 5.43D-07 1.90D-04.
      3 vectors produced by pass  4 Test12= 4.01D-13 3.33D-08 XBig12= 2.16D-09 7.29D-06.
      3 vectors produced by pass  5 Test12= 4.01D-13 3.33D-08 XBig12= 6.36D-12 4.41D-07.
 Inverted reduced A of dimension    18 with in-core refinement.
 Calculating GIAO nuclear magnetic shielding tensors.
 SCF GIAO Magnetic shielding tensor (ppm):
      1  C    Isotropic =   163.5249   Anisotropy =    24.2678
   XX=   175.1105   YX=     2.3931   ZX=    10.7526
   XY=    -2.1965   YY=   162.2592   ZY=    -5.8808
   XZ=     7.3399   YZ=   -19.1163   ZZ=   153.2049
   Eigenvalues:   142.6718   168.1994   179.7034
      2  C    Isotropic =   126.4647   Anisotropy =    55.6455
   XX=   119.8008   YX=     8.5816   ZX=     4.5655
   XY=    15.4491   YY=   157.6410   ZY=   -15.3184
   XZ=    -9.2488   YZ=    -8.7878   ZZ=   101.9522
   Eigenvalues:    99.4543   116.3781   163.5617
      3  N    Isotropic =   203.9379   Anisotropy =    67.2182
   XX=   232.5931   YX=    10.1676   ZX=   -15.6254
   XY=    -2.2615   YY=   235.6859   ZY=   -34.6286
   XZ=   -18.7915   YZ=   -21.7908   ZZ=   143.5347
   Eigenvalues:   133.1556   229.9080   248.7500
      4  C    Isotropic =   142.4562   Anisotropy =    52.9251
   XX=   148.5040   YX=   -21.1011   ZX=    12.4296
   XY=   -11.6931   YY=   152.0173   ZY=   -19.3182
   XZ=    26.8079   YZ=    -8.6138   ZZ=   126.8473
   Eigenvalues:   114.7679   134.8611   177.7396
      5  C    Isotropic =   171.1993   Anisotropy =    18.5363
   XX=   175.9509   YX=     4.5693   ZX=    11.1851
   XY=     7.4554   YY=   178.5280   ZY=    -7.9236
   XZ=    16.0794   YZ=   -13.6976   ZZ=   159.1191
   Eigenvalues:   146.7057   183.3354   183.5568
      6  C    Isotropic =   126.3099   Anisotropy =    40.9898
   XX=   131.9268   YX=   -18.8303   ZX=   -10.5669
   XY=   -10.8543   YY=   128.6704   ZY=    10.7741
   XZ=   -26.2296   YZ=    -1.7487   ZZ=   118.3324
   Eigenvalues:   104.3111   120.9821   153.6364
      7  C    Isotropic =   121.4288   Anisotropy =    48.2656
   XX=   133.0193   YX=    -6.7013   ZX=   -30.9108
   XY=    -6.3530   YY=   122.5022   ZY=    20.8199
   XZ=   -17.2866   YZ=     7.8469   ZZ=   108.7649
   Eigenvalues:    91.1907   119.4898   153.6058
      8  C    Isotropic =   111.8769   Anisotropy =    23.6487
   XX=   114.7227   YX=     8.1666   ZX=   -14.6319
   XY=    -2.0060   YY=   123.0329   ZY=   -13.7542
   XZ=    -8.8147   YZ=     2.1236   ZZ=    97.8753
   Eigenvalues:    91.3995   116.5886   127.6427
      9  H    Isotropic =    29.7448   Anisotropy =    11.7507
   XX=    32.8215   YX=    -1.5259   ZX=    -5.1342
   XY=    -2.6459   YY=    25.4503   ZY=     0.6035
   XZ=    -5.6044   YZ=    -0.3196   ZZ=    30.9627
   Eigenvalues:    24.4604    27.1955    37.5786
     10  H    Isotropic =    29.8118   Anisotropy =     9.5270
   XX=    31.6826   YX=     3.7866   ZX=     1.7236
   XY=     4.1972   YY=    32.3066   ZY=     0.5860
   XZ=     1.0197   YZ=     0.4858   ZZ=    25.4463
   Eigenvalues:    25.1396    28.1327    36.1632
     11  H    Isotropic =    28.3644   Anisotropy =     6.7771
   XX=    27.0778   YX=     0.7708   ZX=    -1.0826
   XY=     0.7790   YY=    26.4831   ZY=    -2.6831
   XZ=    -0.6234   YZ=    -2.6429   ZZ=    31.5323
   Eigenvalues:    25.2537    26.9571    32.8825
     12  H    Isotropic =    28.9479   Anisotropy =    12.0268
   XX=    27.5317   YX=    -4.4426   ZX=    -0.4322
   XY=    -3.7303   YY=    33.2429   ZY=     4.6935
   XZ=     0.7434   YZ=     4.6658   ZZ=    26.0689
   Eigenvalues:    22.7529    27.1250    36.9657
     13  H    Isotropic =    28.8250   Anisotropy =     8.6562
   XX=    28.7661   YX=     1.1577   ZX=     0.5921
   XY=     1.1228   YY=    32.2545   ZY=    -4.8816
   XZ=    -0.1425   YZ=    -4.0030   ZZ=    25.4543
   Eigenvalues:    23.1698    28.7094    34.5958
     14  H    Isotropic =    30.0325   Anisotropy =    12.7346
   XX=    34.1239   YX=    -4.5498   ZX=     3.1237
   XY=    -4.9420   YY=    29.3873   ZY=    -2.7765
   XZ=     3.3847   YZ=    -2.5698   ZZ=    26.5864
   Eigenvalues:    24.9404    26.6349    38.5223
     15  H    Isotropic =    29.8846   Anisotropy =     9.0064
   XX=    27.3166   YX=     0.2546   ZX=     0.2863
   XY=     0.1357   YY=    26.7017   ZY=     1.6295
   XZ=     1.1125   YZ=     1.0243   ZZ=    35.6354
   Eigenvalues:    26.4976    27.2672    35.8888
     16  H    Isotropic =    28.9528   Anisotropy =     4.0220
   XX=    29.6038   YX=    -0.2097   ZX=    -1.8100
   XY=    -0.3434   YY=    26.4171   ZY=     0.2763
   XZ=    -0.6571   YZ=     0.3766   ZZ=    30.8374
   Eigenvalues:    26.3812    28.8431    31.6341
     17  H    Isotropic =    27.3876   Anisotropy =     2.3869
   XX=    27.1226   YX=    -1.2813   ZX=     0.4159
   XY=    -0.1488   YY=    27.3982   ZY=     1.9225
   XZ=     1.4564   YZ=     0.9236   ZZ=    27.6419
   Eigenvalues:    25.3345    27.8494    28.9789
     18  H    Isotropic =    27.9663   Anisotropy =     4.0189
   XX=    25.9818   YX=    -0.9006   ZX=     0.7320
   XY=    -0.9636   YY=    30.4261   ZY=    -1.0925
   XZ=     0.9133   YZ=     0.7894   ZZ=    27.4910
   Eigenvalues:    25.4900    27.7633    30.6455
     19  O    Isotropic =   296.6476   Anisotropy =    32.3553
   XX=   301.7914   YX=    23.1026   ZX=    -2.4289
   XY=    13.0059   YY=   293.1792   ZY=    -8.5610
   XZ=    13.3450   YZ=   -24.5407   ZZ=   294.9722
   Eigenvalues:   268.5025   303.2225   318.2178
     20  H    Isotropic =    29.6877   Anisotropy =    18.9829
   XX=    36.8039   YX=     7.5072   ZX=     0.7707
   XY=     7.8492   YY=    31.5298   ZY=    -2.9715
   XZ=     0.3124   YZ=    -2.3579   ZZ=    20.7295
   Eigenvalues:    19.7032    27.0170    42.3430
     21  O    Isotropic =   301.6256   Anisotropy =    41.5662
   XX=   277.1064   YX=    -7.5656   ZX=    16.3541
   XY=   -20.5842   YY=   318.1975   ZY=    13.7407
   XZ=   -12.1445   YZ=    11.4403   ZZ=   309.5730
   Eigenvalues:   271.8132   303.7273   329.3365
     22  H    Isotropic =    29.4248   Anisotropy =    19.4064
   XX=    24.9961   YX=    -6.9693   ZX=    -3.0972
   XY=    -5.9842   YY=    39.8666   ZY=    -2.8199
   XZ=    -2.0798   YZ=    -1.5515   ZZ=    23.4116
   Eigenvalues:    19.7478    26.1641    42.3624
     23  C    Isotropic =   135.4034   Anisotropy =    52.6069
   XX=   120.1431   YX=     4.2187   ZX=    12.9538
   XY=     3.8203   YY=   120.3698   ZY=     3.2178
   XZ=    17.5052   YZ=     0.1540   ZZ=   165.6973
   Eigenvalues:   113.7759   121.9597   170.4747
     24  H    Isotropic =    27.9892   Anisotropy =     7.8725
   XX=    26.0709   YX=     1.6286   ZX=     1.6750
   XY=     2.0301   YY=    29.5912   ZY=    -3.2335
   XZ=     1.2725   YZ=    -5.1915   ZZ=    28.3056
   Eigenvalues:    22.9614    27.7688    33.2375
     25  H    Isotropic =    27.9316   Anisotropy =     6.6676
   XX=    29.7148   YX=     1.6014   ZX=    -2.1017
   XY=     0.3529   YY=    25.4844   ZY=     1.2809
   XZ=    -4.2432   YZ=     1.0345   ZZ=    28.5955
   Eigenvalues:    24.1776    27.2405    32.3766
     26  O    Isotropic =   331.1110   Anisotropy =    47.0684
   XX=   349.9939   YX=     0.6698   ZX=   -23.7714
   XY=     1.0984   YY=   317.4545   ZY=   -22.9560
   XZ=   -16.0261   YZ=    -3.9731   ZZ=   325.8846
   Eigenvalues:   304.2524   326.5907   362.4899
     27  H    Isotropic =    28.6359   Anisotropy =    16.3904
   XX=    37.6320   YX=     0.3169   ZX=    -3.7467
   XY=     2.0053   YY=    18.9824   ZY=     4.7824
   XZ=    -5.1174   YZ=     3.3095   ZZ=    29.2933
   Eigenvalues:    17.2488    29.0961    39.5628
 End of Minotr Frequency-dependent properties file   721 does not exist.
 End of Minotr Frequency-dependent properties file   722 does not exist.

 **********************************************************************

            Population analysis using the SCF density.

 **********************************************************************

 Orbital symmetries:
       Occupied  (A) (A) (A) (A) (A) (A) (A) (A) (A) (A) (A) (A)
                 (A) (A) (A) (A) (A) (A) (A) (A) (A) (A) (A) (A)
                 (A) (A) (A) (A) (A) (A) (A) (A) (A) (A) (A) (A)
                 (A) (A) (A) (A) (A) (A) (A) (A) (A) (A) (A)
       Virtual   (A) (A) (A) (A) (A) (A) (A) (A) (A) (A) (A) (A)
                 (A) (A) (A) (A) (A) (A) (A) (A) (A) (A) (A) (A)
                 (A) (A) (A) (A) (A) (A) (A) (A) (A) (A) (A) (A)
                 (A) (A) (A) (A) (A) (A) (A) (A) (A) (A) (A) (A)
                 (A) (A) (A) (A) (A) (A) (A) (A) (A) (A) (A) (A)
                 (A) (A) (A) (A) (A) (A) (A) (A) (A) (A) (A) (A)
                 (A) (A) (A) (A) (A) (A) (A) (A) (A) (A) (A) (A)
                 (A) (A) (A) (A) (A) (A) (A) (A) (A) (A) (A) (A)
                 (A) (A) (A) (A) (A) (A) (A) (A) (A) (A) (A) (A)
                 (A) (A) (A) (A) (A) (A) (A) (A) (A) (A) (A) (A)
                 (A) (A) (A) (A) (A) (A) (A) (A) (A) (A) (A) (A)
                 (A) (A) (A) (A) (A) (A) (A) (A) (A) (A) (A) (A)
                 (A) (A) (A) (A) (A) (A) (A) (A) (A) (A) (A) (A)
                 (A) (A) (A) (A) (A) (A) (A) (A) (A) (A) (A) (A)
                 (A) (A) (A) (A) (A) (A) (A) (A) (A) (A) (A) (A)
                 (A) (A) (A) (A) (A) (A) (A) (A) (A) (A) (A) (A)
                 (A) (A) (A) (A) (A) (A) (A) (A) (A) (A) (A) (A)
                 (A) (A) (A) (A) (A) (A) (A) (A) (A) (A) (A) (A)
                 (A) (A) (A) (A) (A) (A) (A) (A) (A) (A) (A) (A)
                 (A) (A) (A) (A) (A) (A) (A) (A) (A) (A) (A) (A)
                 (A) (A) (A) (A) (A) (A) (A) (A) (A) (A) (A) (A)
                 (A) (A) (A) (A)
 The electronic state is 1-A.
 Alpha  occ. eigenvalues --  -19.26225 -19.26113 -19.24811 -14.42171 -10.30476
 Alpha  occ. eigenvalues --  -10.30361 -10.29266 -10.28411 -10.27954 -10.27168
 Alpha  occ. eigenvalues --  -10.24887 -10.24694  -1.07443  -1.05741  -1.05223
 Alpha  occ. eigenvalues --   -0.96879  -0.82925  -0.79623  -0.75438  -0.71791
 Alpha  occ. eigenvalues --   -0.66585  -0.61855  -0.60299  -0.58533  -0.56406
 Alpha  occ. eigenvalues --   -0.53168  -0.50730  -0.49959  -0.49632  -0.48795
 Alpha  occ. eigenvalues --   -0.45308  -0.44995  -0.43666  -0.42105  -0.40909
 Alpha  occ. eigenvalues --   -0.40464  -0.38481  -0.37816  -0.36346  -0.35542
 Alpha  occ. eigenvalues --   -0.35118  -0.34317  -0.33816  -0.31028  -0.29323
 Alpha  occ. eigenvalues --   -0.29180  -0.24252
 Alpha virt. eigenvalues --    0.00656   0.01422   0.01755   0.01968   0.03473
 Alpha virt. eigenvalues --    0.03989   0.04412   0.05138   0.05386   0.07153
 Alpha virt. eigenvalues --    0.07962   0.08136   0.08524   0.09087   0.09423
 Alpha virt. eigenvalues --    0.10202   0.11322   0.11735   0.11949   0.12529
 Alpha virt. eigenvalues --    0.13071   0.13845   0.14343   0.14706   0.15161
 Alpha virt. eigenvalues --    0.15910   0.15921   0.16938   0.17241   0.18228
 Alpha virt. eigenvalues --    0.18663   0.19334   0.19905   0.20520   0.20638
 Alpha virt. eigenvalues --    0.20845   0.21867   0.22241   0.22417   0.23203
 Alpha virt. eigenvalues --    0.23915   0.24498   0.24995   0.25660   0.25955
 Alpha virt. eigenvalues --    0.26606   0.26717   0.27688   0.28745   0.28964
 Alpha virt. eigenvalues --    0.29760   0.29935   0.30842   0.31154   0.31928
 Alpha virt. eigenvalues --    0.32436   0.32620   0.33557   0.34035   0.34505
 Alpha virt. eigenvalues --    0.35297   0.35626   0.36300   0.37218   0.38805
 Alpha virt. eigenvalues --    0.39489   0.40126   0.40500   0.40863   0.41757
 Alpha virt. eigenvalues --    0.42289   0.42913   0.45344   0.45978   0.46876
 Alpha virt. eigenvalues --    0.47838   0.63888   0.64165   0.66286   0.69298
 Alpha virt. eigenvalues --    0.69592   0.70604   0.72469   0.73963   0.76218
 Alpha virt. eigenvalues --    0.76532   0.77464   0.78684   0.79975   0.82134
 Alpha virt. eigenvalues --    0.82759   0.83404   0.84315   0.85984   0.87262
 Alpha virt. eigenvalues --    0.88972   0.89683   0.93252   0.94280   0.97861
 Alpha virt. eigenvalues --    0.98741   1.00033   1.02129   1.04100   1.05143
 Alpha virt. eigenvalues --    1.06105   1.07886   1.08309   1.09916   1.10641
 Alpha virt. eigenvalues --    1.12194   1.12755   1.13656   1.14452   1.16033
 Alpha virt. eigenvalues --    1.17748   1.18550   1.20959   1.24482   1.25588
 Alpha virt. eigenvalues --    1.26025   1.27901   1.29322   1.31284   1.31818
 Alpha virt. eigenvalues --    1.33670   1.34275   1.37996   1.38649   1.40143
 Alpha virt. eigenvalues --    1.42079   1.45722   1.48864   1.50103   1.53809
 Alpha virt. eigenvalues --    1.54207   1.55125   1.56609   1.59739   1.61049
 Alpha virt. eigenvalues --    1.62441   1.63728   1.66958   1.68322   1.72865
 Alpha virt. eigenvalues --    1.73454   1.74092   1.74733   1.78355   1.80578
 Alpha virt. eigenvalues --    1.82070   1.83237   1.83908   1.84397   1.87474
 Alpha virt. eigenvalues --    1.88705   1.90799   1.91847   1.93676   1.94033
 Alpha virt. eigenvalues --    1.95578   2.00408   2.01496   2.03255   2.03739
 Alpha virt. eigenvalues --    2.04946   2.05350   2.06804   2.10489   2.12805
 Alpha virt. eigenvalues --    2.13955   2.15584   2.17132   2.17158   2.18269
 Alpha virt. eigenvalues --    2.21091   2.22474   2.23211   2.27604   2.29744
 Alpha virt. eigenvalues --    2.30925   2.33010   2.33749   2.34808   2.40008
 Alpha virt. eigenvalues --    2.41511   2.43176   2.44615   2.46931   2.47538
 Alpha virt. eigenvalues --    2.48779   2.50413   2.51514   2.53278   2.55195
 Alpha virt. eigenvalues --    2.56897   2.57241   2.58980   2.59819   2.63859
 Alpha virt. eigenvalues --    2.64204   2.65827   2.68123   2.68436   2.69337
 Alpha virt. eigenvalues --    2.70632   2.71675   2.73553   2.75167   2.76471
 Alpha virt. eigenvalues --    2.79264   2.80171   2.81810   2.84334   2.85504
 Alpha virt. eigenvalues --    2.86993   2.88786   2.91643   2.94959   2.96521
 Alpha virt. eigenvalues --    2.99147   2.99769   3.00856   3.02937   3.04084
 Alpha virt. eigenvalues --    3.06996   3.08440   3.09196   3.20766   3.32635
 Alpha virt. eigenvalues --    3.34406   3.36306   3.38717   3.39502   3.44058
 Alpha virt. eigenvalues --    3.47794   3.50279   3.52452   3.53846   3.55917
 Alpha virt. eigenvalues --    3.56629   3.58111   3.60497   3.63638   4.30105
 Alpha virt. eigenvalues --    4.37865   4.40219   4.43382   4.49212   4.54348
 Alpha virt. eigenvalues --    4.59026   4.70552   4.78011   4.81685   4.88102
 Alpha virt. eigenvalues --    4.94169
          Condensed to atoms (all electrons):
              1          2          3          4          5          6
     1  C    5.954567  -0.666354   0.036655  -0.006094   0.206515   0.208516
     2  C   -0.666354   8.000794  -0.182872  -0.201061  -0.014223  -0.814051
     3  N    0.036655  -0.182872   7.576940   0.168520  -0.103310  -0.466950
     4  C   -0.006094  -0.201061   0.168520   5.971786   0.006954  -0.387895
     5  C    0.206515  -0.014223  -0.103310   0.006954   5.465396   0.052086
     6  C    0.208516  -0.814051  -0.466950  -0.387895   0.052086   9.555046
     7  C   -0.319842   0.612439  -0.198751  -0.213009   0.058487  -0.349032
     8  C    0.123556  -0.542383  -0.045954  -0.054602   0.015018   0.136117
     9  H    0.437898  -0.085391   0.014430  -0.001231  -0.042484   0.004148
    10  H    0.405028  -0.123089   0.015488   0.029778  -0.028353   0.008326
    11  H    0.060323   0.169137  -0.005448  -0.010474   0.013165   0.054273
    12  H    0.008043  -0.031565  -0.024356   0.374296  -0.033407   0.009569
    13  H    0.017057   0.025405  -0.064286   0.351884  -0.014612   0.049066
    14  H   -0.039465   0.030559   0.009531  -0.036239   0.364817   0.003812
    15  H   -0.052521  -0.003643   0.016316  -0.072593   0.426530   0.008152
    16  H    0.000841   0.068801  -0.016252   0.074476  -0.019640   0.121478
    17  H    0.011919  -0.007401   0.062706   0.014755  -0.002464  -0.191140
    18  H    0.074656  -0.228928   0.054268   0.013876  -0.014292   0.014666
    19  O    0.006365  -0.170434   0.027685   0.007475  -0.005680  -0.001954
    20  H   -0.027658   0.017939  -0.004002  -0.001334   0.002479  -0.003427
    21  O   -0.007697   0.039676   0.021567   0.001356   0.003319  -0.168484
    22  H    0.000901   0.000860  -0.003045  -0.000386  -0.000174   0.054024
    23  C    0.048926  -0.024242   0.310800   0.187548  -0.064797  -1.551537
    24  H    0.007495  -0.019308  -0.018650   0.024514  -0.008146  -0.015734
    25  H   -0.000869   0.014855   0.017801   0.000361   0.000789  -0.194160
    26  O    0.012097  -0.022607   0.043594   0.004303  -0.006631  -0.175667
    27  H   -0.000342   0.025486   0.056706   0.014940  -0.001765  -0.113309
              7          8          9         10         11         12
     1  C   -0.319842   0.123556   0.437898   0.405028   0.060323   0.008043
     2  C    0.612439  -0.542383  -0.085391  -0.123089   0.169137  -0.031565
     3  N   -0.198751  -0.045954   0.014430   0.015488  -0.005448  -0.024356
     4  C   -0.213009  -0.054602  -0.001231   0.029778  -0.010474   0.374296
     5  C    0.058487   0.015018  -0.042484  -0.028353   0.013165  -0.033407
     6  C   -0.349032   0.136117   0.004148   0.008326   0.054273   0.009569
     7  C    6.390194  -0.214834  -0.003382  -0.009487  -0.048675   0.004611
     8  C   -0.214834   6.224264   0.006810   0.031885   0.026565   0.004132
     9  H   -0.003382   0.006810   0.518299  -0.024034  -0.006496   0.001521
    10  H   -0.009487   0.031885  -0.024034   0.517783   0.002683  -0.000023
    11  H   -0.048675   0.026565  -0.006496   0.002683   0.552603   0.000767
    12  H    0.004611   0.004132   0.001521  -0.000023   0.000767   0.539679
    13  H    0.014149  -0.003126  -0.000113  -0.000139  -0.000160  -0.028330
    14  H    0.002836   0.005212  -0.005026   0.000616  -0.000060  -0.002648
    15  H    0.002272   0.006367   0.004113  -0.005156  -0.000114   0.003966
    16  H   -0.017120  -0.046123   0.000003  -0.000052  -0.000542  -0.000227
    17  H    0.394580  -0.050944   0.000008  -0.000008   0.000418   0.000012
    18  H   -0.145339   0.518612   0.000168   0.000872   0.004228   0.000015
    19  O   -0.179249   0.420781  -0.000158   0.000555   0.005692   0.000060
    20  H    0.055895  -0.033255  -0.000097   0.000679  -0.000288   0.000000
    21  O    0.324879  -0.156576   0.000030  -0.000048  -0.000567   0.000025
    22  H   -0.011249  -0.023901   0.000000  -0.000001   0.000000   0.000000
    23  C   -0.064438  -0.139911  -0.000071   0.000105   0.007714   0.003669
    24  H   -0.010813   0.001024   0.000000   0.000000   0.000009  -0.000093
    25  H    0.002153  -0.007057   0.000000   0.000000  -0.000003   0.000002
    26  O    0.013075  -0.022305   0.000035   0.000003   0.000927   0.001123
    27  H   -0.026725  -0.010032   0.000000  -0.000001  -0.000627  -0.000199
             13         14         15         16         17         18
     1  C    0.017057  -0.039465  -0.052521   0.000841   0.011919   0.074656
     2  C    0.025405   0.030559  -0.003643   0.068801  -0.007401  -0.228928
     3  N   -0.064286   0.009531   0.016316  -0.016252   0.062706   0.054268
     4  C    0.351884  -0.036239  -0.072593   0.074476   0.014755   0.013876
     5  C   -0.014612   0.364817   0.426530  -0.019640  -0.002464  -0.014292
     6  C    0.049066   0.003812   0.008152   0.121478  -0.191140   0.014666
     7  C    0.014149   0.002836   0.002272  -0.017120   0.394580  -0.145339
     8  C   -0.003126   0.005212   0.006367  -0.046123  -0.050944   0.518612
     9  H   -0.000113  -0.005026   0.004113   0.000003   0.000008   0.000168
    10  H   -0.000139   0.000616  -0.005156  -0.000052  -0.000008   0.000872
    11  H   -0.000160  -0.000060  -0.000114  -0.000542   0.000418   0.004228
    12  H   -0.028330  -0.002648   0.003966  -0.000227   0.000012   0.000015
    13  H    0.526809   0.000945  -0.005569   0.000604  -0.000017   0.000001
    14  H    0.000945   0.513676  -0.022858  -0.000155   0.000000  -0.000046
    15  H   -0.005569  -0.022858   0.519361   0.000359   0.000004  -0.000045
    16  H    0.000604  -0.000155   0.000359   0.567098   0.004332   0.000284
    17  H   -0.000017   0.000000   0.000004   0.004332   0.546680   0.004485
    18  H    0.000001  -0.000046  -0.000045   0.000284   0.004485   0.557295
    19  O   -0.000009  -0.000007  -0.000067  -0.000862   0.000205  -0.042123
    20  H    0.000000   0.000000  -0.000003   0.000000  -0.000026  -0.005873
    21  O   -0.000150  -0.000012   0.000066   0.006692  -0.035281  -0.001529
    22  H    0.000000   0.000000   0.000000   0.000044  -0.006124  -0.000432
    23  C   -0.039070  -0.001227  -0.001319   0.070839   0.061713   0.017478
    24  H    0.001659   0.000001   0.000002  -0.002138   0.000108   0.000005
    25  H   -0.000041   0.000000  -0.000001   0.001378   0.000452  -0.000008
    26  O   -0.000440   0.000008   0.000065   0.008339   0.008760   0.000148
    27  H    0.000087  -0.000002   0.000000   0.000863   0.000201  -0.000010
             19         20         21         22         23         24
     1  C    0.006365  -0.027658  -0.007697   0.000901   0.048926   0.007495
     2  C   -0.170434   0.017939   0.039676   0.000860  -0.024242  -0.019308
     3  N    0.027685  -0.004002   0.021567  -0.003045   0.310800  -0.018650
     4  C    0.007475  -0.001334   0.001356  -0.000386   0.187548   0.024514
     5  C   -0.005680   0.002479   0.003319  -0.000174  -0.064797  -0.008146
     6  C   -0.001954  -0.003427  -0.168484   0.054024  -1.551537  -0.015734
     7  C   -0.179249   0.055895   0.324879  -0.011249  -0.064438  -0.010813
     8  C    0.420781  -0.033255  -0.156576  -0.023901  -0.139911   0.001024
     9  H   -0.000158  -0.000097   0.000030   0.000000  -0.000071   0.000000
    10  H    0.000555   0.000679  -0.000048  -0.000001   0.000105   0.000000
    11  H    0.005692  -0.000288  -0.000567   0.000000   0.007714   0.000009
    12  H    0.000060   0.000000   0.000025   0.000000   0.003669  -0.000093
    13  H   -0.000009   0.000000  -0.000150   0.000000  -0.039070   0.001659
    14  H   -0.000007   0.000000  -0.000012   0.000000  -0.001227   0.000001
    15  H   -0.000067  -0.000003   0.000066   0.000000  -0.001319   0.000002
    16  H   -0.000862   0.000000   0.006692   0.000044   0.070839  -0.002138
    17  H    0.000205  -0.000026  -0.035281  -0.006124   0.061713   0.000108
    18  H   -0.042123  -0.005873  -0.001529  -0.000432   0.017478   0.000005
    19  O    8.233900   0.240710  -0.003611   0.007194   0.000149   0.000042
    20  H    0.240710   0.369123   0.000064  -0.000302   0.000698   0.000000
    21  O   -0.003611   0.000064   8.240613   0.239462   0.036220  -0.000813
    22  H    0.007194  -0.000302   0.239462   0.369270  -0.014632   0.000006
    23  C    0.000149   0.000698   0.036220  -0.014632   6.204347   0.397722
    24  H    0.000042   0.000000  -0.000813   0.000006   0.397722   0.588820
    25  H   -0.000052   0.000000   0.008533  -0.000170   0.538510  -0.039586
    26  O    0.001356  -0.000031  -0.000123   0.000393   0.268746  -0.052212
    27  H   -0.000127   0.000000   0.000579  -0.000004   0.062191  -0.003291
             25         26         27
     1  C   -0.000869   0.012097  -0.000342
     2  C    0.014855  -0.022607   0.025486
     3  N    0.017801   0.043594   0.056706
     4  C    0.000361   0.004303   0.014940
     5  C    0.000789  -0.006631  -0.001765
     6  C   -0.194160  -0.175667  -0.113309
     7  C    0.002153   0.013075  -0.026725
     8  C   -0.007057  -0.022305  -0.010032
     9  H    0.000000   0.000035   0.000000
    10  H    0.000000   0.000003  -0.000001
    11  H   -0.000003   0.000927  -0.000627
    12  H    0.000002   0.001123  -0.000199
    13  H   -0.000041  -0.000440   0.000087
    14  H    0.000000   0.000008  -0.000002
    15  H   -0.000001   0.000065   0.000000
    16  H    0.001378   0.008339   0.000863
    17  H    0.000452   0.008760   0.000201
    18  H   -0.000008   0.000148  -0.000010
    19  O   -0.000052   0.001356  -0.000127
    20  H    0.000000  -0.000031   0.000000
    21  O    0.008533  -0.000123   0.000579
    22  H   -0.000170   0.000393  -0.000004
    23  C    0.538510   0.268746   0.062191
    24  H   -0.039586  -0.052212  -0.003291
    25  H    0.535997  -0.052266   0.006140
    26  O   -0.052266   8.286613   0.245625
    27  H    0.006140   0.245625   0.356369
 Mulliken atomic charges:
              1
     1  C   -0.500518
     2  C    0.131604
     3  N   -0.299132
     4  C   -0.261905
     5  C   -0.255579
     6  C    0.154060
     7  C   -0.063625
     8  C   -0.169343
     9  H    0.181018
    10  H    0.176589
    11  H    0.174949
    12  H    0.169358
    13  H    0.168397
    14  H    0.175732
    15  H    0.176317
    16  H    0.176681
    17  H    0.182071
    18  H    0.177569
    19  O   -0.547836
    20  H    0.388707
    21  O   -0.548190
    22  H    0.388265
    23  C   -0.316128
    24  H    0.149378
    25  H    0.167241
    26  O   -0.562927
    27  H    0.387246
 Sum of Mulliken atomic charges =   0.00000
 Mulliken charges with hydrogens summed into heavy atoms:
              1
     1  C   -0.142911
     2  C    0.306552
     3  N   -0.299132
     4  C    0.075850
     5  C    0.096470
     6  C    0.330741
     7  C    0.118446
     8  C    0.008226
    19  O   -0.159128
    21  O   -0.159926
    23  C    0.000491
    26  O   -0.175680
 Sum of Mulliken charges with hydrogens summed into heavy atoms =   0.00000
 Electronic spatial extent (au):  <R**2>=           2036.9287
 Charge=              0.0000 electrons
 Dipole moment (field-independent basis, Debye):
    X=              5.7945    Y=              0.5171    Z=              1.5405  Tot=              6.0180
 Quadrupole moment (field-independent basis, Debye-Ang):
   XX=            -76.2906   YY=            -69.5439   ZZ=            -77.1679
   XY=             -1.2441   XZ=             -3.5330   YZ=             -2.7311
 Traceless Quadrupole moment (field-independent basis, Debye-Ang):
   XX=             -1.9564   YY=              4.7902   ZZ=             -2.8338
   XY=             -1.2441   XZ=             -3.5330   YZ=             -2.7311
 Octapole moment (field-independent basis, Debye-Ang**2):
  XXX=             32.1767  YYY=             21.0686  ZZZ=             -7.0049  XYY=             11.6760
  XXY=             27.1987  XXZ=              8.8879  XZZ=              8.3328  YZZ=             -2.9505
  YYZ=             10.8116  XYZ=              8.1775
 Hexadecapole moment (field-independent basis, Debye-Ang**3):
 XXXX=          -1346.9479 YYYY=           -948.9847 ZZZZ=           -322.9585 XXXY=            -38.3105
 XXXZ=            -49.4975 YYYX=              0.4404 YYYZ=             18.0064 ZZZX=              3.7851
 ZZZY=              3.5171 XXYY=           -339.6023 XXZZ=           -293.3012 YYZZ=           -231.9050
 XXYZ=            -32.0680 YYXZ=            -26.4234 ZZXY=              2.6716
 N-N= 8.051523513526D+02 E-N=-2.996000897443D+03  KE= 5.886616927971D+02
 1\1\GINC-COMPUTE-3-0\SP\RmPW1PW91\6-31+G(d,p)\C8H15N1O3\MAMICHETTI.IQU
 IR\17-May-2024\0\\# mpw1pw91/6-31+G** nmr scrf=(pcm,solvent=water)\\co
 mment\\0,1\C,0,-2.538442,-0.007337,0.228437\C,0,-1.105999,0.303743,0.7
 10275\N,0,-0.275534,-0.920485,0.405352\C,0,-1.183683,-1.917116,-0.2142
 55\C,0,-2.338797,-1.111783,-0.820628\C,0,0.839908,-0.505833,-0.483274\
 C,0,1.035217,0.973045,-0.148757\C,0,-0.400047,1.466277,-0.010807\H,0,-
 3.141752,-0.387365,1.061005\H,0,-3.037849,0.885452,-0.163288\H,0,-1.08
 9625,0.51204,1.786427\H,0,-1.565361,-2.596261,0.558935\H,0,-0.637283,-
 2.524492,-0.941982\H,0,-3.236985,-1.714347,-0.989197\H,0,-2.034465,-0.
 680288,-1.782306\H,0,0.570806,-0.577935,-1.54991\H,0,1.540384,1.072712
 ,0.82249\H,0,-0.816606,1.595077,-1.020485\O,0,-0.436186,2.707708,0.691
 66\H,0,-1.347964,3.041284,0.645509\O,0,1.793883,1.613228,-1.170579\H,0
 ,1.940747,2.52943,-0.881406\C,0,2.068447,-1.38098,-0.241354\H,0,1.8736
 4,-2.396638,-0.618229\H,0,2.928769,-0.980796,-0.788152\O,0,2.414096,-1
 .417378,1.14305\H,0,1.548312,-1.483047,1.592266\\Version=AM64L-G09RevC
 .01\State=1-A\HF=-594.2028335\RMSD=1.573e-09\Dipole=-2.2797182,0.20346
 05,-0.6060738\Quadrupole=-1.4545458,3.5614105,-2.1068647,0.9249649,-2.
 6266897,2.0304712\PG=C01 [X(C8H15N1O3)]\\@


 The lyf so short, the craft so long to lerne.
                             -- Chaucer
 Job cpu time:  0 days  0 hours  9 minutes  4.0 seconds.
 File lengths (MBytes):  RWF=    114 Int=      0 D2E=      0 Chk=      7 Scr=      1
 Normal termination of Gaussian 09 at Fri May 17 12:31:30 2024.
