 Entering Gaussian System, Link 0=g09
 Input=/home/mamichetti.iquir/Linux/02_Cardona_A1A3_R__R_R_R_021_OptB.gjc
 Output=/home/mamichetti.iquir/Linux/02_Cardona_A1A3_R__R_R_R_021_OptB.log
 Initial command:
 /opt/ohpc/pub/apps/software/Gaussian/09/AMD64.SSE4a-enabled/g09/l1.exe /local/mamichetti.iquir/Gau-712015.inp -scrdir=/local/mamichetti.iquir/
 Entering Link 1 = /opt/ohpc/pub/apps/software/Gaussian/09/AMD64.SSE4a-enabled/g09/l1.exe PID=    712016.
  
 Copyright (c) 1988,1990,1992,1993,1995,1998,2003,2009,2011,
            Gaussian, Inc.  All Rights Reserved.
  
 This is part of the Gaussian(R) 09 program.  It is based on
 the Gaussian(R) 03 system (copyright 2003, Gaussian, Inc.),
 the Gaussian(R) 98 system (copyright 1998, Gaussian, Inc.),
 the Gaussian(R) 94 system (copyright 1995, Gaussian, Inc.),
 the Gaussian 92(TM) system (copyright 1992, Gaussian, Inc.),
 the Gaussian 90(TM) system (copyright 1990, Gaussian, Inc.),
 the Gaussian 88(TM) system (copyright 1988, Gaussian, Inc.),
 the Gaussian 86(TM) system (copyright 1986, Carnegie Mellon
 University), and the Gaussian 82(TM) system (copyright 1983,
 Carnegie Mellon University). Gaussian is a federally registered
 trademark of Gaussian, Inc.
  
 This software contains proprietary and confidential information,
 including trade secrets, belonging to Gaussian, Inc.
  
 This software is provided under written license and may be
 used, copied, transmitted, or stored only in accord with that
 written license.
  
 The following legend is applicable only to US Government
 contracts under FAR:
  
                    RESTRICTED RIGHTS LEGEND
  
 Use, reproduction and disclosure by the US Government is
 subject to restrictions as set forth in subparagraphs (a)
 and (c) of the Commercial Computer Software - Restricted
 Rights clause in FAR 52.227-19.
  
 Gaussian, Inc.
 340 Quinnipiac St., Bldg. 40, Wallingford CT 06492
  
  
 ---------------------------------------------------------------
 Warning -- This program may not be used in any manner that
 competes with the business of Gaussian, Inc. or will provide
 assistance to any competitor of Gaussian, Inc.  The licensee
 of this program is prohibited from giving any competitor of
 Gaussian, Inc. access to this program.  By using this program,
 the user acknowledges that Gaussian, Inc. is engaged in the
 business of creating and licensing software in the field of
 computational chemistry and represents and warrants to the
 licensee that it is not a competitor of Gaussian, Inc. and that
 it will not use this program in any manner prohibited above.
 ---------------------------------------------------------------
  

 Cite this work as:
 Gaussian 09, Revision C.01,
 M. J. Frisch, G. W. Trucks, H. B. Schlegel, G. E. Scuseria, 
 M. A. Robb, J. R. Cheeseman, G. Scalmani, V. Barone, B. Mennucci, 
 G. A. Petersson, H. Nakatsuji, M. Caricato, X. Li, H. P. Hratchian, 
 A. F. Izmaylov, J. Bloino, G. Zheng, J. L. Sonnenberg, M. Hada, 
 M. Ehara, K. Toyota, R. Fukuda, J. Hasegawa, M. Ishida, T. Nakajima, 
 Y. Honda, O. Kitao, H. Nakai, T. Vreven, J. A. Montgomery, Jr., 
 J. E. Peralta, F. Ogliaro, M. Bearpark, J. J. Heyd, E. Brothers, 
 K. N. Kudin, V. N. Staroverov, T. Keith, R. Kobayashi, J. Normand, 
 K. Raghavachari, A. Rendell, J. C. Burant, S. S. Iyengar, J. Tomasi, 
 M. Cossi, N. Rega, J. M. Millam, M. Klene, J. E. Knox, J. B. Cross, 
 V. Bakken, C. Adamo, J. Jaramillo, R. Gomperts, R. E. Stratmann, 
 O. Yazyev, A. J. Austin, R. Cammi, C. Pomelli, J. W. Ochterski, 
 R. L. Martin, K. Morokuma, V. G. Zakrzewski, G. A. Voth, 
 P. Salvador, J. J. Dannenberg, S. Dapprich, A. D. Daniels, 
 O. Farkas, J. B. Foresman, J. V. Ortiz, J. Cioslowski, 
 and D. J. Fox, Gaussian, Inc., Wallingford CT, 2010.
 
 ******************************************
 Gaussian 09:  AM64L-G09RevC.01 23-Sep-2011
                17-May-2024 
 ******************************************
 %nprocshared=4
 Will use up to    4 processors via shared memory.
 ------------------------------------------------
 # mpw1pw91/6-31+G** nmr scrf=(pcm,solvent=water)
 ------------------------------------------------
 1/38=1/1;
 2/12=2,17=6,18=5,40=1/2;
 3/5=1,6=6,7=111,11=2,16=1,25=1,30=1,70=2201,72=1,74=-7/1,2,8,3;
 4//1;
 5/5=2,38=5,53=1/2;
 8/6=1,10=90,11=11/1;
 10/13=100,45=16/2;
 6/7=2,8=2,9=2,10=2,28=1/1;
 99/9=1/99;
 -------
 comment
 -------
 Charge =  0 Multiplicity = 1
 Symbolic Z-Matrix:
 6                     2.64875  -0.05096   0.08954 
 6                     1.3396    0.36063  -0.61463 
 7                     0.47887  -0.87873  -0.68138 
 6                     1.25097  -1.97519  -0.05153 
 6                     2.25303  -1.29957   0.89213 
 6                    -0.78806  -0.57945   0.0195 
 6                    -0.92914   0.93593  -0.12179 
 6                     0.49437   1.41939   0.119 
 1                     3.41167  -0.31078  -0.65357 
 1                     3.05017   0.7596    0.70765 
 1                     1.53902   0.7366   -1.62519 
 1                     1.78724  -2.53828  -0.82665 
 1                     0.57472  -2.67406   0.4496 
 1                     3.10475  -1.93987   1.14356 
 1                     1.75681  -1.01459   1.82841 
 1                    -0.72609  -0.80793   1.09748 
 1                    -1.22309   1.19245  -1.14977 
 1                     0.69478   1.38748   1.19969 
 8                     0.66017   2.74959  -0.36882 
 1                     1.54145   3.05061  -0.09166 
 8                    -1.90931   1.42583   0.79848 
 1                    -2.10023   2.34723   0.55438 
 6                    -1.98447  -1.34423  -0.54483 
 1                    -2.12506  -1.08061  -1.60445 
 1                    -1.81089  -2.42453  -0.49 
 8                    -3.17189  -1.07727   0.21009 
 1                    -3.1693   -0.11673   0.3878 
 
                          Input orientation:                          
 ---------------------------------------------------------------------
 Center     Atomic      Atomic             Coordinates (Angstroms)
 Number     Number       Type             X           Y           Z
 ---------------------------------------------------------------------
      1          6           0        2.648750   -0.050961    0.089541
      2          6           0        1.339597    0.360631   -0.614626
      3          7           0        0.478867   -0.878730   -0.681377
      4          6           0        1.250967   -1.975190   -0.051532
      5          6           0        2.253025   -1.299565    0.892133
      6          6           0       -0.788059   -0.579446    0.019497
      7          6           0       -0.929136    0.935929   -0.121788
      8          6           0        0.494365    1.419386    0.119002
      9          1           0        3.411674   -0.310779   -0.653567
     10          1           0        3.050174    0.759597    0.707646
     11          1           0        1.539020    0.736604   -1.625188
     12          1           0        1.787240   -2.538280   -0.826649
     13          1           0        0.574716   -2.674059    0.449598
     14          1           0        3.104751   -1.939869    1.143556
     15          1           0        1.756808   -1.014594    1.828407
     16          1           0       -0.726089   -0.807932    1.097478
     17          1           0       -1.223088    1.192447   -1.149773
     18          1           0        0.694777    1.387479    1.199686
     19          8           0        0.660169    2.749591   -0.368821
     20          1           0        1.541445    3.050613   -0.091663
     21          8           0       -1.909307    1.425829    0.798483
     22          1           0       -2.100226    2.347235    0.554378
     23          6           0       -1.984470   -1.344226   -0.544827
     24          1           0       -2.125055   -1.080614   -1.604454
     25          1           0       -1.810893   -2.424532   -0.490004
     26          8           0       -3.171893   -1.077275    0.210087
     27          1           0       -3.169303   -0.116725    0.387798
 ---------------------------------------------------------------------
                    Distance matrix (angstroms):
                    1          2          3          4          5
     1  C    0.000000
     2  C    1.542446   0.000000
     3  N    2.447020   1.510406   0.000000
     4  C    2.382510   2.404369   1.481576   0.000000
     5  C    1.536152   2.420935   2.408459   1.533327   0.000000
     6  C    3.477910   2.410970   1.478478   2.471998   3.244728
     7  C    3.717510   2.391863   2.364022   3.637636   4.018908
     8  C    2.608479   1.540646   2.433554   3.482050   3.329161
     9  H    1.096252   2.178488   2.987423   2.793092   2.170105
    10  H    1.095536   2.198557   3.350391   3.360440   2.215769
    11  H    2.189076   1.096522   2.150351   3.148523   3.315523
    12  H    2.787178   2.940922   2.118266   1.097937   2.169235
    13  H    3.363317   3.305595   2.124029   1.094013   2.213999
    14  H    2.210624   3.391058   3.369223   2.205901   1.094824
    15  H    2.178946   2.834382   2.819682   2.170896   1.097292
    16  H    3.602566   2.926414   2.149711   2.567385   3.026382
    17  H    4.251246   2.746935   2.721364   4.166654   4.739501
    18  H    2.668247   2.182186   2.953086   3.630763   3.121367
    19  O    3.465204   2.495831   3.646269   4.772135   4.530216
    20  H    3.298291   2.747769   4.112976   5.034350   4.516442
    21  O    4.843490   3.699581   3.633779   4.719829   4.976098
    22  H    5.340430   4.140718   4.311109   5.502816   5.688939
    23  C    4.851977   3.736420   2.510650   3.333093   4.474730
    24  H    5.169044   3.880820   2.770061   3.822219   5.044648
    25  H    5.085089   4.206929   2.769319   3.125564   4.437486
    26  O    5.911661   4.806378   3.763267   4.520662   5.472142
    27  H    5.826064   4.643587   3.877232   4.815152   5.572711
                    6          7          8          9         10
     6  C    0.000000
     7  C    1.528472   0.000000
     8  C    2.376940   1.522519   0.000000
     9  H    4.261802   4.547494   3.478653   0.000000
    10  H    4.122938   4.068656   2.704438   1.768979   0.000000
    11  H    3.138833   2.896849   2.144690   2.355396   2.779610
    12  H    3.344422   4.466056   4.269532   2.762337   3.850332
    13  H    2.535655   3.952223   4.107559   3.853621   4.240811
    14  H    4.274135   5.113077   4.375891   2.444951   2.734979
    15  H    3.152437   3.849947   3.231112   3.064985   2.465087
    16  H    1.103671   2.137496   2.721740   4.520443   4.107223
    17  H    2.167037   1.099528   2.147309   4.897645   4.679544
    18  H    2.731381   2.141795   1.099573   3.701372   2.486812
    19  O    3.651115   2.424105   1.426502   4.125254   3.291046
    20  H    4.314658   3.252163   1.949784   3.887473   2.857256
    21  O    2.425932   1.430956   2.497874   5.782482   5.004854
    22  H    3.251668   1.954594   2.789688   6.237404   5.391726
    23  C    1.527989   2.547901   3.771318   5.495290   5.598428
    24  H    2.162393   2.773980   4.010195   5.670291   5.959461
    25  H    2.170282   3.493677   4.523363   5.636480   5.933213
    26  O    2.442708   3.032011   4.436560   6.684068   6.506595
    27  H    2.453585   2.527075   3.981752   6.665685   6.289049
                   11         12         13         14         15
    11  H    0.000000
    12  H    3.379962   0.000000
    13  H    4.106975   1.765632   0.000000
    14  H    4.157038   2.444512   2.724278   0.000000
    15  H    3.878330   3.061351   2.460138   1.772598   0.000000
    16  H    3.863835   3.607380   2.365221   3.994839   2.596487
    17  H    2.839552   4.804665   4.554114   5.813859   4.756087
    18  H    3.019321   4.550944   4.131965   4.108816   2.700584
    19  O    2.530406   5.426000   5.485717   5.500391   4.494387
    20  H    2.776030   5.642370   5.830900   5.373509   4.500995
    21  O    4.270851   5.658593   4.806368   6.048783   4.522920
    22  H    4.537483   6.394363   5.690315   6.768913   5.272737
    23  C    4.232259   3.966231   3.050700   5.394960   4.442753
    24  H    4.090007   4.246860   3.747927   5.969987   5.182447
    25  H    4.743769   3.615637   2.576091   5.202593   4.482348
    26  O    5.371321   5.272794   4.079726   6.404037   5.187965
    27  H    5.191203   5.648551   4.534474   6.577141   5.210383
                   16         17         18         19         20
    16  H    0.000000
    17  H    3.049371   0.000000
    18  H    2.617085   3.039112   0.000000
    19  O    4.089953   2.565393   2.077682   0.000000
    20  H    4.630781   3.494999   2.269459   0.971637   0.000000
    21  O    2.545406   2.078717   2.635088   3.117235   3.916628
    22  H    3.484005   2.237641   3.024830   2.938361   3.764821
    23  C    2.137358   2.716684   4.205223   4.876928   5.652614
    24  H    3.054816   2.487385   4.680399   4.894357   5.727023
    25  H    2.512030   3.723352   4.864654   5.735188   6.432267
    26  O    2.615715   3.286137   4.690997   5.446534   6.272644
    27  H    2.636419   2.804605   4.225270   4.842840   5.696759
                   21         22         23         24         25
    21  O    0.000000
    22  H    0.972125   0.000000
    23  C    3.079503   3.853380   0.000000
    24  H    3.478924   4.051089   1.100938   0.000000
    25  H    4.061424   4.893282   1.095534   1.773926   0.000000
    26  O    2.864588   3.604757   1.432177   2.094860   2.039007
    27  H    2.033648   2.691054   1.944319   2.447162   2.818118
                   26         27
    26  O    0.000000
    27  H    0.976854   0.000000
 Stoichiometry    C8H15NO3
 Framework group  C1[X(C8H15NO3)]
 Deg. of freedom    75
 Full point group                 C1      NOp   1
 Largest Abelian subgroup         C1      NOp   1
 Largest concise Abelian subgroup C1      NOp   1
                         Standard orientation:                         
 ---------------------------------------------------------------------
 Center     Atomic      Atomic             Coordinates (Angstroms)
 Number     Number       Type             X           Y           Z
 ---------------------------------------------------------------------
      1          6           0        2.648750   -0.050961    0.089541
      2          6           0        1.339597    0.360631   -0.614626
      3          7           0        0.478867   -0.878730   -0.681377
      4          6           0        1.250967   -1.975190   -0.051532
      5          6           0        2.253025   -1.299565    0.892133
      6          6           0       -0.788059   -0.579446    0.019497
      7          6           0       -0.929136    0.935929   -0.121788
      8          6           0        0.494365    1.419386    0.119002
      9          1           0        3.411674   -0.310779   -0.653567
     10          1           0        3.050174    0.759597    0.707646
     11          1           0        1.539020    0.736604   -1.625188
     12          1           0        1.787240   -2.538280   -0.826649
     13          1           0        0.574716   -2.674059    0.449598
     14          1           0        3.104751   -1.939869    1.143556
     15          1           0        1.756808   -1.014594    1.828407
     16          1           0       -0.726089   -0.807932    1.097478
     17          1           0       -1.223088    1.192447   -1.149773
     18          1           0        0.694777    1.387479    1.199686
     19          8           0        0.660169    2.749591   -0.368821
     20          1           0        1.541445    3.050613   -0.091663
     21          8           0       -1.909307    1.425829    0.798483
     22          1           0       -2.100226    2.347235    0.554378
     23          6           0       -1.984470   -1.344226   -0.544827
     24          1           0       -2.125055   -1.080614   -1.604454
     25          1           0       -1.810893   -2.424532   -0.490004
     26          8           0       -3.171893   -1.077275    0.210087
     27          1           0       -3.169303   -0.116725    0.387798
 ---------------------------------------------------------------------
 Rotational constants (GHZ):      1.2276793      0.8365556      0.5568534
 Standard basis: 6-31+G(d,p) (6D, 7F)
 There are   303 symmetry adapted basis functions of A   symmetry.
 Integral buffers will be    131072 words long.
 Raffenetti 2 integral format.
 Two-electron integral symmetry is turned on.
   303 basis functions,   489 primitive gaussians,   303 cartesian basis functions
    47 alpha electrons       47 beta electrons
       nuclear repulsion energy       801.2856458519 Hartrees.
 NAtoms=   27 NActive=   27 NUniq=   27 SFac= 1.00D+00 NAtFMM=   60 NAOKFM=F Big=F
 ------------------------------------------------------------------------------
 Polarizable Continuum Model (PCM)
 =================================
 Model                : PCM.
 Atomic radii         : UFF (Universal Force Field).
 Polarization charges : Total charges.
 Charge compensation  : None.
 Solution method      : Matrix inversion.
 Cavity type          : Scaled VdW (van der Waals Surface) (Alpha=1.100).
 Cavity algorithm     : GePol (No added spheres)
                        Default sphere list used, NSphG=   27.
                        Lebedev-Laikov grids with approx.  5.0 points / Ang**2.
                        Smoothing algorithm: Karplus/York (Gamma=1.0000).
                        Polarization charges: spherical gaussians, with
                                              point-specific exponents (IZeta= 3).
                        Self-potential: point-specific (ISelfS= 7).
                        Self-field    : sphere-specific E.n sum rule (ISelfD= 2).
 Solvent              : Water, Eps=  78.355300 Eps(inf)=   1.777849
 ------------------------------------------------------------------------------
 One-electron integrals computed using PRISM.
 NBasis=   303 RedAO= T  NBF=   303
 NBsUse=   303 1.00D-06 NBFU=   303
 Harris functional with IExCor=  908 diagonalized for initial guess.
 ExpMin= 4.38D-02 ExpMax= 5.48D+03 ExpMxC= 8.25D+02 IAcc=2 IRadAn=         4 AccDes= 0.00D+00
 HarFok:  IExCor=  908 AccDes= 0.00D+00 IRadAn=         4 IDoV= 1
 ScaDFX=  1.000000  1.000000  1.000000  1.000000
 FoFCou: FMM=F IPFlag=           0 FMFlag=      100000 FMFlg1=           0
         NFxFlg=           0 DoJE=T BraDBF=F KetDBF=T FulRan=T
         Omega=  0.000000  0.000000  1.000000  0.000000  0.000000 ICntrl=     500 IOpCl=  0
         NMat0=    1 NMatS0=    1 NMatT0=    0 NMatD0=    1 NMtDS0=    0 NMtDT0=    0
         I1Cent=           4 NGrid=           0.
 Petite list used in FoFCou.
 Initial guess orbital symmetries:
       Occupied  (A) (A) (A) (A) (A) (A) (A) (A) (A) (A) (A) (A)
                 (A) (A) (A) (A) (A) (A) (A) (A) (A) (A) (A) (A)
                 (A) (A) (A) (A) (A) (A) (A) (A) (A) (A) (A) (A)
                 (A) (A) (A) (A) (A) (A) (A) (A) (A) (A) (A)
       Virtual   (A) (A) (A) (A) (A) (A) (A) (A) (A) (A) (A) (A)
                 (A) (A) (A) (A) (A) (A) (A) (A) (A) (A) (A) (A)
                 (A) (A) (A) (A) (A) (A) (A) (A) (A) (A) (A) (A)
                 (A) (A) (A) (A) (A) (A) (A) (A) (A) (A) (A) (A)
                 (A) (A) (A) (A) (A) (A) (A) (A) (A) (A) (A) (A)
                 (A) (A) (A) (A) (A) (A) (A) (A) (A) (A) (A) (A)
                 (A) (A) (A) (A) (A) (A) (A) (A) (A) (A) (A) (A)
                 (A) (A) (A) (A) (A) (A) (A) (A) (A) (A) (A) (A)
                 (A) (A) (A) (A) (A) (A) (A) (A) (A) (A) (A) (A)
                 (A) (A) (A) (A) (A) (A) (A) (A) (A) (A) (A) (A)
                 (A) (A) (A) (A) (A) (A) (A) (A) (A) (A) (A) (A)
                 (A) (A) (A) (A) (A) (A) (A) (A) (A) (A) (A) (A)
                 (A) (A) (A) (A) (A) (A) (A) (A) (A) (A) (A) (A)
                 (A) (A) (A) (A) (A) (A) (A) (A) (A) (A) (A) (A)
                 (A) (A) (A) (A) (A) (A) (A) (A) (A) (A) (A) (A)
                 (A) (A) (A) (A) (A) (A) (A) (A) (A) (A) (A) (A)
                 (A) (A) (A) (A) (A) (A) (A) (A) (A) (A) (A) (A)
                 (A) (A) (A) (A) (A) (A) (A) (A) (A) (A) (A) (A)
                 (A) (A) (A) (A) (A) (A) (A) (A) (A) (A) (A) (A)
                 (A) (A) (A) (A) (A) (A) (A) (A) (A) (A) (A) (A)
                 (A) (A) (A) (A) (A) (A) (A) (A) (A) (A) (A) (A)
                 (A) (A) (A) (A)
 The electronic state of the initial guess is 1-A.
 Requested convergence on RMS density matrix=1.00D-08 within 128 cycles.
 Requested convergence on MAX density matrix=1.00D-06.
 Requested convergence on             energy=1.00D-06.
 No special actions if energy rises.
 Error on total polarization charges =  0.01476
 SCF Done:  E(RmPW1PW91) =  -594.200220878     A.U. after   13 cycles
             Convg  =    0.4925D-08             -V/T =  2.0094
 Range of M.O.s used for correlation:     1   303
 NBasis=   303 NAE=    47 NBE=    47 NFC=     0 NFV=     0
 NROrb=    303 NOA=    47 NOB=    47 NVA=   256 NVB=   256

 **** Warning!!: The largest alpha MO coefficient is  0.62102106D+02

 NEqPCM:  Using equilibrium solvation (IEInf=0, Eps=  78.3553, EpsInf=   1.7778)
          Differentiating once with respect to magnetic field using GIAOs.
          Electric field/nuclear overlap derivatives assumed to be zero.
 FoFCou: FMM=F IPFlag=           0 FMFlag=    10101102 FMFlg1=           0
         NFxFlg=    40000000 DoJE=F BraDBF=F KetDBF=T FulRan=T
         Omega=  0.000000  0.000000  1.000000  0.000000  0.000000 ICntrl=    6100 IOpCl=  0
         NMat0=    1 NMatS0=    1 NMatT0=    0 NMatD0=    1 NMtDS0=    0 NMtDT0=    0
         I1Cent=           7 NGrid=        1835.
 Symmetry not used in FoFCou.
          There are     3 degrees of freedom in the 1st order CPHF.  IDoFFX=0.
      3 vectors produced by pass  0 Test12= 4.01D-13 3.33D-08 XBig12= 3.19D+01 8.31D-01.
 AX will form     3 AO Fock derivatives at one time.
      3 vectors produced by pass  1 Test12= 4.01D-13 3.33D-08 XBig12= 7.82D-02 4.58D-02.
      3 vectors produced by pass  2 Test12= 4.01D-13 3.33D-08 XBig12= 1.39D-04 2.02D-03.
      3 vectors produced by pass  3 Test12= 4.01D-13 3.33D-08 XBig12= 5.23D-07 1.36D-04.
      3 vectors produced by pass  4 Test12= 4.01D-13 3.33D-08 XBig12= 2.09D-09 6.60D-06.
      3 vectors produced by pass  5 Test12= 4.01D-13 3.33D-08 XBig12= 6.42D-12 6.22D-07.
 Inverted reduced A of dimension    18 with in-core refinement.
 Calculating GIAO nuclear magnetic shielding tensors.
 SCF GIAO Magnetic shielding tensor (ppm):
      1  C    Isotropic =   163.6406   Anisotropy =    23.4867
   XX=   170.6631   YX=     4.1048   ZX=    14.9142
   XY=    -2.3794   YY=   166.2484   ZY=    -4.4932
   XZ=    10.1695   YZ=   -17.1632   ZZ=   154.0103
   Eigenvalues:   142.9335   168.6899   179.2984
      2  C    Isotropic =   125.8848   Anisotropy =    55.4816
   XX=   119.5598   YX=     8.3065   ZX=     9.2047
   XY=    18.2522   YY=   158.7912   ZY=    -2.4815
   XZ=    -3.0817   YZ=     2.1957   ZZ=    99.3034
   Eigenvalues:    98.7673   116.0147   162.8725
      3  N    Isotropic =   200.7673   Anisotropy =    67.8939
   XX=   238.2906   YX=    18.0015   ZX=     4.2085
   XY=     6.8200   YY=   225.6720   ZY=   -15.8362
   XZ=    -0.6012   YZ=    -3.9339   ZZ=   138.3391
   Eigenvalues:   137.1332   219.1387   246.0299
      4  C    Isotropic =   141.5183   Anisotropy =    53.1928
   XX=   139.6621   YX=   -21.3646   ZX=    11.9251
   XY=   -11.8860   YY=   155.8976   ZY=   -18.1016
   XZ=    26.9778   YZ=   -10.0679   ZZ=   128.9952
   Eigenvalues:   114.1178   133.4570   176.9802
      5  C    Isotropic =   171.1738   Anisotropy =    19.6253
   XX=   169.6038   YX=     5.0404   ZX=    14.6335
   XY=     5.5166   YY=   181.9160   ZY=    -4.0675
   XZ=    19.6021   YZ=   -10.2585   ZZ=   162.0015
   Eigenvalues:   146.0632   183.2009   184.2573
      6  C    Isotropic =   129.6820   Anisotropy =    48.8915
   XX=   146.7486   YX=   -20.5302   ZX=   -16.2580
   XY=     0.4792   YY=   123.1085   ZY=     7.9049
   XZ=   -29.2115   YZ=    -1.4617   ZZ=   119.1889
   Eigenvalues:   106.0869   120.6828   162.2763
      7  C    Isotropic =   113.4667   Anisotropy =    33.0265
   XX=   124.6450   YX=    -1.4879   ZX=   -19.8751
   XY=    -2.5339   YY=   116.7100   ZY=    19.6314
   XZ=    -9.5381   YZ=     9.7466   ZZ=    99.0452
   Eigenvalues:    86.8299   118.0859   135.4844
      8  C    Isotropic =   112.8332   Anisotropy =    23.7368
   XX=   118.5609   YX=     9.3469   ZX=    -9.6936
   XY=     0.8400   YY=   125.3532   ZY=    -9.9597
   XZ=    -4.8157   YZ=     8.0673   ZZ=    94.5855
   Eigenvalues:    92.5546   117.2872   128.6577
      9  H    Isotropic =    29.8218   Anisotropy =    11.7924
   XX=    34.8927   YX=    -0.6713   ZX=    -4.5222
   XY=    -1.8720   YY=    25.7366   ZY=    -0.5756
   XZ=    -5.3276   YZ=    -1.2506   ZZ=    28.8360
   Eigenvalues:    24.4628    27.3191    37.6833
     10  H    Isotropic =    29.8397   Anisotropy =     9.3807
   XX=    30.8267   YX=     3.0779   ZX=     3.3500
   XY=     3.6014   YY=    31.8582   ZY=     2.2596
   XZ=     2.5555   YZ=     2.0216   ZZ=    26.8343
   Eigenvalues:    25.2426    28.1831    36.0936
     11  H    Isotropic =    28.3697   Anisotropy =     6.8937
   XX=    27.5014   YX=     1.5292   ZX=    -1.7941
   XY=     1.0643   YY=    27.3257   ZY=    -3.0350
   XZ=    -1.2592   YZ=    -3.1786   ZZ=    30.2819
   Eigenvalues:    25.3145    26.8290    32.9655
     12  H    Isotropic =    28.9629   Anisotropy =    11.9907
   XX=    27.4225   YX=    -5.2287   ZX=    -1.0732
   XY=    -4.4562   YY=    31.8600   ZY=     4.7543
   XZ=     0.0218   YZ=     4.6281   ZZ=    27.6064
   Eigenvalues:    22.9387    26.9934    36.9568
     13  H    Isotropic =    28.8416   Anisotropy =     8.4651
   XX=    28.7520   YX=     1.5879   ZX=     1.6478
   XY=     2.0274   YY=    33.4033   ZY=    -2.9885
   XZ=     0.1352   YZ=    -2.0929   ZZ=    24.3696
   Eigenvalues:    23.3667    28.6731    34.4850
     14  H    Isotropic =    30.0657   Anisotropy =    12.6539
   XX=    32.6426   YX=    -4.5498   ZX=     3.7084
   XY=    -4.8772   YY=    30.4589   ZY=    -3.3387
   XZ=     3.7663   YZ=    -3.0337   ZZ=    27.0954
   Eigenvalues:    24.9695    26.7259    38.5016
     15  H    Isotropic =    29.8286   Anisotropy =     8.7361
   XX=    27.4968   YX=     0.2859   ZX=    -1.3600
   XY=    -0.0314   YY=    26.4920   ZY=     0.2877
   XZ=    -0.8861   YZ=    -0.4404   ZZ=    35.4971
   Eigenvalues:    26.4756    27.3576    35.6527
     16  H    Isotropic =    28.8436   Anisotropy =     4.9335
   XX=    31.3027   YX=     0.2783   ZX=    -1.6279
   XY=    -0.5841   YY=    26.6736   ZY=    -0.6082
   XZ=    -1.7807   YZ=    -1.3235   ZZ=    28.5546
   Eigenvalues:    26.1186    28.2796    32.1327
     17  H    Isotropic =    27.5349   Anisotropy =     1.9860
   XX=    28.3592   YX=    -1.2121   ZX=    -0.9990
   XY=    -0.9258   YY=    25.8231   ZY=     0.6087
   XZ=     0.5359   YZ=    -0.6059   ZZ=    28.4224
   Eigenvalues:    25.4306    28.3152    28.8589
     18  H    Isotropic =    27.9119   Anisotropy =     3.9567
   XX=    25.7147   YX=    -1.0266   ZX=     0.1050
   XY=    -0.5596   YY=    30.4137   ZY=    -0.9261
   XZ=     0.1410   YZ=     0.7049   ZZ=    27.6072
   Eigenvalues:    25.5791    27.6068    30.5496
     19  O    Isotropic =   296.7636   Anisotropy =    30.4901
   XX=   298.3970   YX=    27.8323   ZX=     2.8156
   XY=    11.3244   YY=   296.3231   ZY=    -6.7523
   XZ=    17.2689   YZ=   -18.3928   ZZ=   295.5707
   Eigenvalues:   268.3112   304.8893   317.0903
     20  H    Isotropic =    29.7189   Anisotropy =    18.9040
   XX=    35.8707   YX=     7.2172   ZX=     5.0442
   XY=     7.5968   YY=    31.6993   ZY=     0.1570
   XZ=     4.6866   YZ=     0.6921   ZZ=    21.5867
   Eigenvalues:    19.7371    27.0980    42.3216
     21  O    Isotropic =   296.4953   Anisotropy =    36.5410
   XX=   276.4523   YX=    -6.8404   ZX=     6.1899
   XY=   -21.6822   YY=   311.9392   ZY=    11.0250
   XZ=   -16.3784   YZ=     3.9412   ZZ=   301.0944
   Eigenvalues:   271.2404   297.3895   320.8560
     22  H    Isotropic =    29.0466   Anisotropy =    19.5955
   XX=    26.1392   YX=    -6.9910   ZX=    -2.3939
   XY=    -6.3121   YY=    39.2418   ZY=    -2.8881
   XZ=    -1.6169   YZ=    -1.5918   ZZ=    21.7587
   Eigenvalues:    19.6788    25.3507    42.1102
     23  C    Isotropic =   125.4986   Anisotropy =    58.7262
   XX=   155.1100   YX=    -2.1196   ZX=   -21.5505
   XY=     0.5049   YY=   102.0527   ZY=     8.1788
   XZ=   -19.3729   YZ=     7.2480   ZZ=   119.3330
   Eigenvalues:    98.0798   113.7666   164.6494
     24  H    Isotropic =    27.8274   Anisotropy =     4.1509
   XX=    28.7211   YX=     0.5332   ZX=    -0.9996
   XY=     0.2423   YY=    24.4389   ZY=     1.7061
   XZ=     1.0573   YZ=     0.8529   ZZ=    30.3222
   Eigenvalues:    24.1422    28.7454    30.5946
     25  H    Isotropic =    27.8297   Anisotropy =     4.4559
   XX=    29.4277   YX=    -0.5776   ZX=    -0.4090
   XY=     1.0357   YY=    30.4533   ZY=     1.2472
   XZ=    -1.2879   YZ=     1.9056   ZZ=    23.6081
   Eigenvalues:    23.1399    29.5489    30.8003
     26  O    Isotropic =   314.2012   Anisotropy =    40.1215
   XX=   307.9951   YX=    14.8861   ZX=     3.3983
   XY=     4.4788   YY=   334.3842   ZY=    15.2021
   XZ=     3.3829   YZ=     7.3156   ZZ=   300.2242
   Eigenvalues:   296.8220   304.8327   340.9488
     27  H    Isotropic =    28.2875   Anisotropy =    19.6099
   XX=    27.2592   YX=     1.6421   ZX=    -2.7125
   XY=     2.0935   YY=    39.9015   ZY=     5.3628
   XZ=    -2.9089   YZ=     5.9636   ZZ=    17.7018
   Eigenvalues:    15.4837    28.0180    41.3608
 End of Minotr Frequency-dependent properties file   721 does not exist.
 End of Minotr Frequency-dependent properties file   722 does not exist.

 **********************************************************************

            Population analysis using the SCF density.

 **********************************************************************

 Orbital symmetries:
       Occupied  (A) (A) (A) (A) (A) (A) (A) (A) (A) (A) (A) (A)
                 (A) (A) (A) (A) (A) (A) (A) (A) (A) (A) (A) (A)
                 (A) (A) (A) (A) (A) (A) (A) (A) (A) (A) (A) (A)
                 (A) (A) (A) (A) (A) (A) (A) (A) (A) (A) (A)
       Virtual   (A) (A) (A) (A) (A) (A) (A) (A) (A) (A) (A) (A)
                 (A) (A) (A) (A) (A) (A) (A) (A) (A) (A) (A) (A)
                 (A) (A) (A) (A) (A) (A) (A) (A) (A) (A) (A) (A)
                 (A) (A) (A) (A) (A) (A) (A) (A) (A) (A) (A) (A)
                 (A) (A) (A) (A) (A) (A) (A) (A) (A) (A) (A) (A)
                 (A) (A) (A) (A) (A) (A) (A) (A) (A) (A) (A) (A)
                 (A) (A) (A) (A) (A) (A) (A) (A) (A) (A) (A) (A)
                 (A) (A) (A) (A) (A) (A) (A) (A) (A) (A) (A) (A)
                 (A) (A) (A) (A) (A) (A) (A) (A) (A) (A) (A) (A)
                 (A) (A) (A) (A) (A) (A) (A) (A) (A) (A) (A) (A)
                 (A) (A) (A) (A) (A) (A) (A) (A) (A) (A) (A) (A)
                 (A) (A) (A) (A) (A) (A) (A) (A) (A) (A) (A) (A)
                 (A) (A) (A) (A) (A) (A) (A) (A) (A) (A) (A) (A)
                 (A) (A) (A) (A) (A) (A) (A) (A) (A) (A) (A) (A)
                 (A) (A) (A) (A) (A) (A) (A) (A) (A) (A) (A) (A)
                 (A) (A) (A) (A) (A) (A) (A) (A) (A) (A) (A) (A)
                 (A) (A) (A) (A) (A) (A) (A) (A) (A) (A) (A) (A)
                 (A) (A) (A) (A) (A) (A) (A) (A) (A) (A) (A) (A)
                 (A) (A) (A) (A) (A) (A) (A) (A) (A) (A) (A) (A)
                 (A) (A) (A) (A) (A) (A) (A) (A) (A) (A) (A) (A)
                 (A) (A) (A) (A) (A) (A) (A) (A) (A) (A) (A) (A)
                 (A) (A) (A) (A)
 The electronic state is 1-A.
 Alpha  occ. eigenvalues --  -19.27233 -19.26297 -19.24820 -14.41809 -10.31057
 Alpha  occ. eigenvalues --  -10.30541 -10.29356 -10.28412 -10.27923 -10.27035
 Alpha  occ. eigenvalues --  -10.24856 -10.24624  -1.08094  -1.06242  -1.04848
 Alpha  occ. eigenvalues --   -0.96998  -0.83117  -0.79731  -0.75237  -0.71873
 Alpha  occ. eigenvalues --   -0.66779  -0.61947  -0.60450  -0.58975  -0.56428
 Alpha  occ. eigenvalues --   -0.53530  -0.52280  -0.50188  -0.49725  -0.46748
 Alpha  occ. eigenvalues --   -0.46422  -0.44290  -0.43523  -0.42007  -0.40936
 Alpha  occ. eigenvalues --   -0.40639  -0.39740  -0.38456  -0.35991  -0.35478
 Alpha  occ. eigenvalues --   -0.35319  -0.34652  -0.33740  -0.31106  -0.29537
 Alpha  occ. eigenvalues --   -0.29426  -0.23706
 Alpha virt. eigenvalues --    0.00578   0.01382   0.01775   0.02121   0.03405
 Alpha virt. eigenvalues --    0.04228   0.04492   0.05052   0.05291   0.06818
 Alpha virt. eigenvalues --    0.07810   0.08367   0.08471   0.09248   0.09477
 Alpha virt. eigenvalues --    0.10121   0.11394   0.11549   0.12112   0.12576
 Alpha virt. eigenvalues --    0.13030   0.13404   0.14442   0.14741   0.14983
 Alpha virt. eigenvalues --    0.15854   0.15937   0.16914   0.17361   0.18404
 Alpha virt. eigenvalues --    0.18950   0.19000   0.20098   0.20528   0.20902
 Alpha virt. eigenvalues --    0.21283   0.21751   0.22565   0.22926   0.23328
 Alpha virt. eigenvalues --    0.23896   0.24295   0.24539   0.24946   0.25509
 Alpha virt. eigenvalues --    0.26557   0.26886   0.27305   0.28477   0.29072
 Alpha virt. eigenvalues --    0.29347   0.29641   0.30582   0.31186   0.31812
 Alpha virt. eigenvalues --    0.32408   0.32882   0.33279   0.33839   0.34001
 Alpha virt. eigenvalues --    0.35287   0.35840   0.37292   0.37511   0.37769
 Alpha virt. eigenvalues --    0.39370   0.39508   0.40447   0.41232   0.41351
 Alpha virt. eigenvalues --    0.41886   0.42693   0.43605   0.44476   0.45997
 Alpha virt. eigenvalues --    0.48169   0.63136   0.64242   0.66898   0.68712
 Alpha virt. eigenvalues --    0.69520   0.69861   0.71275   0.71441   0.75892
 Alpha virt. eigenvalues --    0.76420   0.77164   0.79425   0.80150   0.81745
 Alpha virt. eigenvalues --    0.82702   0.83171   0.84984   0.86473   0.87427
 Alpha virt. eigenvalues --    0.87889   0.90429   0.91541   0.94198   0.97173
 Alpha virt. eigenvalues --    0.98826   1.00833   1.02151   1.03855   1.04558
 Alpha virt. eigenvalues --    1.05990   1.06721   1.09142   1.09514   1.11055
 Alpha virt. eigenvalues --    1.11452   1.12892   1.13459   1.14011   1.16005
 Alpha virt. eigenvalues --    1.16357   1.18466   1.20976   1.23716   1.24831
 Alpha virt. eigenvalues --    1.25433   1.27661   1.28296   1.29045   1.31994
 Alpha virt. eigenvalues --    1.32967   1.35522   1.37450   1.38486   1.40899
 Alpha virt. eigenvalues --    1.43090   1.45541   1.48293   1.50552   1.52141
 Alpha virt. eigenvalues --    1.53853   1.55369   1.57111   1.59167   1.61757
 Alpha virt. eigenvalues --    1.63241   1.65038   1.67939   1.70477   1.70996
 Alpha virt. eigenvalues --    1.72683   1.75178   1.76285   1.77467   1.80093
 Alpha virt. eigenvalues --    1.81784   1.82220   1.82597   1.84275   1.86638
 Alpha virt. eigenvalues --    1.87987   1.89541   1.91513   1.92256   1.92958
 Alpha virt. eigenvalues --    1.94971   1.98964   2.00561   2.02447   2.03587
 Alpha virt. eigenvalues --    2.04230   2.05049   2.06535   2.08945   2.11301
 Alpha virt. eigenvalues --    2.12505   2.14852   2.16812   2.17020   2.19370
 Alpha virt. eigenvalues --    2.20032   2.21727   2.24345   2.26997   2.29678
 Alpha virt. eigenvalues --    2.31107   2.32347   2.33618   2.36776   2.40107
 Alpha virt. eigenvalues --    2.40399   2.41653   2.42447   2.45720   2.46291
 Alpha virt. eigenvalues --    2.47883   2.49775   2.52419   2.53018   2.54434
 Alpha virt. eigenvalues --    2.57063   2.58412   2.58517   2.60642   2.64429
 Alpha virt. eigenvalues --    2.65144   2.66140   2.67686   2.68645   2.69285
 Alpha virt. eigenvalues --    2.70987   2.72196   2.73689   2.74385   2.76955
 Alpha virt. eigenvalues --    2.80400   2.81247   2.82682   2.84886   2.85394
 Alpha virt. eigenvalues --    2.86683   2.88081   2.91350   2.94848   2.95580
 Alpha virt. eigenvalues --    2.98737   2.99308   3.00394   3.02860   3.03251
 Alpha virt. eigenvalues --    3.05874   3.07074   3.12366   3.18216   3.32222
 Alpha virt. eigenvalues --    3.33184   3.36405   3.38557   3.39907   3.42756
 Alpha virt. eigenvalues --    3.46655   3.50764   3.52383   3.53965   3.55951
 Alpha virt. eigenvalues --    3.56191   3.58024   3.59303   3.65327   4.30340
 Alpha virt. eigenvalues --    4.39025   4.40118   4.44364   4.48694   4.54025
 Alpha virt. eigenvalues --    4.59447   4.66338   4.76530   4.79989   4.86137
 Alpha virt. eigenvalues --    4.93383
          Condensed to atoms (all electrons):
              1          2          3          4          5          6
     1  C    5.853695  -0.539517   0.048685  -0.082838   0.260045   0.086312
     2  C   -0.539517   7.693654  -0.293964  -0.190667  -0.036819  -0.284752
     3  N    0.048685  -0.293964   7.369879   0.203351  -0.150662   0.033322
     4  C   -0.082838  -0.190667   0.203351   5.784960   0.128788  -0.250051
     5  C    0.260045  -0.036819  -0.150662   0.128788   5.385350   0.084127
     6  C    0.086312  -0.284752   0.033322  -0.250051   0.084127   9.061525
     7  C   -0.175576   0.461478  -0.257395  -0.226376  -0.024163  -1.385976
     8  C    0.101869  -0.485574   0.021786  -0.002384   0.012837   0.003699
     9  H    0.437474  -0.078952   0.010795   0.002387  -0.051830   0.010193
    10  H    0.403901  -0.119760   0.016802   0.028344  -0.026751   0.003642
    11  H    0.061467   0.175314   0.001569  -0.008937   0.010325   0.024084
    12  H    0.005142  -0.024588  -0.025459   0.384611  -0.044642   0.006162
    13  H    0.016841   0.026384  -0.063275   0.350505  -0.018128   0.041698
    14  H   -0.043443   0.029965   0.012941  -0.038611   0.371179  -0.000390
    15  H   -0.050965  -0.002697   0.011651  -0.065581   0.415685   0.020017
    16  H    0.005515   0.055829  -0.060417   0.067989  -0.021678   0.256226
    17  H    0.013646  -0.016582   0.041738   0.012641  -0.002885  -0.098024
    18  H    0.075977  -0.223831   0.049286   0.011401  -0.014942   0.025275
    19  O   -0.006946  -0.149918   0.029085   0.007056  -0.004030   0.041034
    20  H   -0.022867   0.015724  -0.003363  -0.001457   0.002037  -0.013397
    21  O   -0.006831   0.028073   0.015114  -0.000869   0.003500  -0.162845
    22  H    0.000544   0.002806  -0.003046   0.000212  -0.000274   0.062893
    23  C    0.085449  -0.210214   0.131658   0.089370  -0.050741  -1.037268
    24  H    0.000676  -0.001309   0.018273   0.016694  -0.001868  -0.083738
    25  H    0.002241   0.001428  -0.007787   0.000529  -0.001166  -0.056757
    26  O   -0.001883   0.009745  -0.004652   0.010432   0.000541   0.001912
    27  H    0.000125   0.001675   0.002095  -0.000147   0.000067  -0.027931
              7          8          9         10         11         12
     1  C   -0.175576   0.101869   0.437474   0.403901   0.061467   0.005142
     2  C    0.461478  -0.485574  -0.078952  -0.119760   0.175314  -0.024588
     3  N   -0.257395   0.021786   0.010795   0.016802   0.001569  -0.025459
     4  C   -0.226376  -0.002384   0.002387   0.028344  -0.008937   0.384611
     5  C   -0.024163   0.012837  -0.051830  -0.026751   0.010325  -0.044642
     6  C   -1.385976   0.003699   0.010193   0.003642   0.024084   0.006162
     7  C    7.781984  -0.598459  -0.007648  -0.008268  -0.028131   0.001649
     8  C   -0.598459   6.512248   0.007975   0.030591   0.010426   0.004844
     9  H   -0.007648   0.007975   0.518576  -0.023969  -0.006349   0.001601
    10  H   -0.008268   0.030591  -0.023969   0.518269   0.002783  -0.000012
    11  H   -0.028131   0.010426  -0.006349   0.002783   0.557409   0.000854
    12  H    0.001649   0.004844   0.001601  -0.000012   0.000854   0.544576
    13  H    0.019174  -0.004518  -0.000109  -0.000140  -0.000161  -0.028222
    14  H    0.003715   0.005824  -0.004897   0.000648  -0.000054  -0.002489
    15  H   -0.008590   0.010794   0.004144  -0.005147  -0.000104   0.004059
    16  H   -0.048264  -0.046847  -0.000001  -0.000051  -0.000564  -0.000292
    17  H    0.353131  -0.042988   0.000007  -0.000005   0.000657   0.000011
    18  H   -0.140618   0.501849   0.000168   0.000994   0.004405   0.000017
    19  O   -0.229406   0.414081  -0.000068   0.000619   0.006195   0.000068
    20  H    0.067533  -0.037519  -0.000098   0.000663  -0.000343   0.000000
    21  O    0.315028  -0.147313   0.000023  -0.000029  -0.000479   0.000013
    22  H   -0.021450  -0.023727   0.000000   0.000000   0.000000   0.000000
    23  C    0.247573  -0.132536  -0.000341   0.000461   0.016038   0.005325
    24  H   -0.062986  -0.000888   0.000000   0.000000  -0.000037   0.000025
    25  H    0.001309   0.001420   0.000000   0.000000   0.000008  -0.000172
    26  O   -0.070721  -0.009169  -0.000001  -0.000003  -0.000061  -0.000022
    27  H    0.006840   0.017410   0.000000   0.000000   0.000001   0.000000
             13         14         15         16         17         18
     1  C    0.016841  -0.043443  -0.050965   0.005515   0.013646   0.075977
     2  C    0.026384   0.029965  -0.002697   0.055829  -0.016582  -0.223831
     3  N   -0.063275   0.012941   0.011651  -0.060417   0.041738   0.049286
     4  C    0.350505  -0.038611  -0.065581   0.067989   0.012641   0.011401
     5  C   -0.018128   0.371179   0.415685  -0.021678  -0.002885  -0.014942
     6  C    0.041698  -0.000390   0.020017   0.256226  -0.098024   0.025275
     7  C    0.019174   0.003715  -0.008590  -0.048264   0.353131  -0.140618
     8  C   -0.004518   0.005824   0.010794  -0.046847  -0.042988   0.501849
     9  H   -0.000109  -0.004897   0.004144  -0.000001   0.000007   0.000168
    10  H   -0.000140   0.000648  -0.005147  -0.000051  -0.000005   0.000994
    11  H   -0.000161  -0.000054  -0.000104  -0.000564   0.000657   0.004405
    12  H   -0.028222  -0.002489   0.004059  -0.000292   0.000011   0.000017
    13  H    0.528235   0.000963  -0.005555   0.000770  -0.000016  -0.000002
    14  H    0.000963   0.514374  -0.022689  -0.000157   0.000000  -0.000039
    15  H   -0.005555  -0.022689   0.520886   0.000038   0.000002  -0.000043
    16  H    0.000770  -0.000157   0.000038   0.557942   0.004163  -0.000144
    17  H   -0.000016   0.000000   0.000002   0.004163   0.542147   0.004387
    18  H   -0.000002  -0.000039  -0.000043  -0.000144   0.004387   0.553955
    19  O   -0.000014  -0.000010  -0.000029  -0.000861   0.001510  -0.040383
    20  H    0.000000   0.000000  -0.000003   0.000004  -0.000018  -0.005858
    21  O   -0.000110  -0.000011   0.000008   0.006333  -0.046708  -0.001952
    22  H    0.000000   0.000000   0.000000   0.000078  -0.005716  -0.000204
    23  C   -0.032917  -0.001771  -0.001381   0.032645   0.048502   0.021625
    24  H   -0.000024   0.000000   0.000000   0.004720   0.003526  -0.000007
    25  H    0.001338   0.000001  -0.000007  -0.005589   0.000105   0.000005
    26  O   -0.000073  -0.000003  -0.000030   0.010534  -0.000712  -0.000217
    27  H   -0.000003   0.000000   0.000000  -0.002138   0.000079   0.000009
             19         20         21         22         23         24
     1  C   -0.006946  -0.022867  -0.006831   0.000544   0.085449   0.000676
     2  C   -0.149918   0.015724   0.028073   0.002806  -0.210214  -0.001309
     3  N    0.029085  -0.003363   0.015114  -0.003046   0.131658   0.018273
     4  C    0.007056  -0.001457  -0.000869   0.000212   0.089370   0.016694
     5  C   -0.004030   0.002037   0.003500  -0.000274  -0.050741  -0.001868
     6  C    0.041034  -0.013397  -0.162845   0.062893  -1.037268  -0.083738
     7  C   -0.229406   0.067533   0.315028  -0.021450   0.247573  -0.062986
     8  C    0.414081  -0.037519  -0.147313  -0.023727  -0.132536  -0.000888
     9  H   -0.000068  -0.000098   0.000023   0.000000  -0.000341   0.000000
    10  H    0.000619   0.000663  -0.000029   0.000000   0.000461   0.000000
    11  H    0.006195  -0.000343  -0.000479   0.000000   0.016038  -0.000037
    12  H    0.000068   0.000000   0.000013   0.000000   0.005325   0.000025
    13  H   -0.000014   0.000000  -0.000110   0.000000  -0.032917  -0.000024
    14  H   -0.000010   0.000000  -0.000011   0.000000  -0.001771   0.000000
    15  H   -0.000029  -0.000003   0.000008   0.000000  -0.001381   0.000000
    16  H   -0.000861   0.000004   0.006333   0.000078   0.032645   0.004720
    17  H    0.001510  -0.000018  -0.046708  -0.005716   0.048502   0.003526
    18  H   -0.040383  -0.005858  -0.001952  -0.000204   0.021625  -0.000007
    19  O    8.238510   0.241491   0.001643   0.005533   0.000285  -0.000089
    20  H    0.241491   0.367808  -0.000164  -0.000210   0.000832   0.000000
    21  O    0.001643  -0.000164   8.306551   0.242706   0.022280   0.002712
    22  H    0.005533  -0.000210   0.242706   0.354693  -0.014139   0.000027
    23  C    0.000285   0.000832   0.022280  -0.014139   5.827628   0.469654
    24  H   -0.000089   0.000000   0.002712   0.000027   0.469654   0.573512
    25  H    0.000039   0.000000  -0.001082   0.000008   0.446497  -0.041057
    26  O   -0.000087   0.000004  -0.009816   0.000688   0.201886  -0.051208
    27  H    0.000053   0.000000   0.012360  -0.000603  -0.016119  -0.003415
             25         26         27
     1  C    0.002241  -0.001883   0.000125
     2  C    0.001428   0.009745   0.001675
     3  N   -0.007787  -0.004652   0.002095
     4  C    0.000529   0.010432  -0.000147
     5  C   -0.001166   0.000541   0.000067
     6  C   -0.056757   0.001912  -0.027931
     7  C    0.001309  -0.070721   0.006840
     8  C    0.001420  -0.009169   0.017410
     9  H    0.000000  -0.000001   0.000000
    10  H    0.000000  -0.000003   0.000000
    11  H    0.000008  -0.000061   0.000001
    12  H   -0.000172  -0.000022   0.000000
    13  H    0.001338  -0.000073  -0.000003
    14  H    0.000001  -0.000003   0.000000
    15  H   -0.000007  -0.000030   0.000000
    16  H   -0.005589   0.010534  -0.002138
    17  H    0.000105  -0.000712   0.000079
    18  H    0.000005  -0.000217   0.000009
    19  O    0.000039  -0.000087   0.000053
    20  H    0.000000   0.000004   0.000000
    21  O   -0.001082  -0.009816   0.012360
    22  H    0.000008   0.000688  -0.000603
    23  C    0.446497   0.201886  -0.016119
    24  H   -0.041057  -0.051208  -0.003415
    25  H    0.551066  -0.058827   0.005981
    26  O   -0.058827   8.272323   0.252619
    27  H    0.005981   0.252619   0.359002
 Mulliken atomic charges:
              1
     1  C   -0.528739
     2  C    0.157069
     3  N   -0.148010
     4  C   -0.231352
     5  C   -0.223902
     6  C   -0.360993
     7  C    0.034612
     8  C   -0.125733
     9  H    0.180920
    10  H    0.176422
    11  H    0.173685
    12  H    0.166939
    13  H    0.167358
    14  H    0.174956
    15  H    0.175536
    16  H    0.184217
    17  H    0.187403
    18  H    0.178890
    19  O   -0.555364
    20  H    0.389198
    21  O   -0.578134
    22  H    0.399184
    23  C   -0.150282
    24  H    0.156807
    25  H    0.160471
    26  O   -0.553199
    27  H    0.392041
 Sum of Mulliken atomic charges =   0.00000
 Mulliken charges with hydrogens summed into heavy atoms:
              1
     1  C   -0.171398
     2  C    0.330754
     3  N   -0.148010
     4  C    0.102946
     5  C    0.126590
     6  C   -0.176775
     7  C    0.222016
     8  C    0.053156
    19  O   -0.166166
    21  O   -0.178950
    23  C    0.166997
    26  O   -0.161158
 Sum of Mulliken charges with hydrogens summed into heavy atoms =   0.00000
 Electronic spatial extent (au):  <R**2>=           2112.0167
 Charge=              0.0000 electrons
 Dipole moment (field-independent basis, Debye):
    X=              5.0055    Y=              2.0106    Z=              0.5807  Tot=              5.4254
 Quadrupole moment (field-independent basis, Debye-Ang):
   XX=            -76.9114   YY=            -70.0364   ZZ=            -76.9839
   XY=             -6.0274   XZ=              4.9990   YZ=              1.2730
 Traceless Quadrupole moment (field-independent basis, Debye-Ang):
   XX=             -2.2675   YY=              4.6075   ZZ=             -2.3400
   XY=             -6.0274   XZ=              4.9990   YZ=              1.2730
 Octapole moment (field-independent basis, Debye-Ang**2):
  XXX=             47.2049  YYY=             14.7009  ZZZ=              2.9088  XYY=              7.5116
  XXY=             45.8189  XXZ=             -8.2111  XZZ=             -0.8995  YZZ=              3.7582
  YYZ=              9.6596  XYZ=             -0.4146
 Hexadecapole moment (field-independent basis, Debye-Ang**3):
 XXXX=          -1624.8534 YYYY=           -929.0004 ZZZZ=           -249.8661 XXXY=           -103.1908
 XXXZ=              2.8038 YYYX=              4.0803 YYYZ=             30.7595 ZZZX=              0.2664
 ZZZY=             -3.6792 XXYY=           -364.8501 XXZZ=           -292.0372 YYZZ=           -215.2678
 XXYZ=             13.4124 YYXZ=              6.6832 ZZXY=              1.9256
 N-N= 8.012856458519D+02 E-N=-2.988167696051D+03  KE= 5.886702803855D+02
 1\1\GINC-COMPUTE-3-0\SP\RmPW1PW91\6-31+G(d,p)\C8H15N1O3\MAMICHETTI.IQU
 IR\17-May-2024\0\\# mpw1pw91/6-31+G** nmr scrf=(pcm,solvent=water)\\co
 mment\\0,1\C,0,2.64875,-0.050961,0.089541\C,0,1.339597,0.360631,-0.614
 626\N,0,0.478867,-0.87873,-0.681377\C,0,1.250967,-1.97519,-0.051532\C,
 0,2.253025,-1.299565,0.892133\C,0,-0.788059,-0.579446,0.019497\C,0,-0.
 929136,0.935929,-0.121788\C,0,0.494365,1.419386,0.119002\H,0,3.411674,
 -0.310779,-0.653567\H,0,3.050174,0.759597,0.707646\H,0,1.53902,0.73660
 4,-1.625188\H,0,1.78724,-2.53828,-0.826649\H,0,0.574716,-2.674059,0.44
 9598\H,0,3.104751,-1.939869,1.143556\H,0,1.756808,-1.014594,1.828407\H
 ,0,-0.726089,-0.807932,1.097478\H,0,-1.223088,1.192447,-1.149773\H,0,0
 .694777,1.387479,1.199686\O,0,0.660169,2.749591,-0.368821\H,0,1.541445
 ,3.050613,-0.091663\O,0,-1.909307,1.425829,0.798483\H,0,-2.100226,2.34
 7235,0.554378\C,0,-1.98447,-1.344226,-0.544827\H,0,-2.125055,-1.080614
 ,-1.604454\H,0,-1.810893,-2.424532,-0.490004\O,0,-3.171893,-1.077275,0
 .210087\H,0,-3.169303,-0.116725,0.387798\\Version=AM64L-G09RevC.01\Sta
 te=1-A\HF=-594.2002209\RMSD=4.925e-09\Dipole=1.9693249,0.7910226,0.228
 448\Quadrupole=-1.6858304,3.4255494,-1.739719,-4.4812573,3.7166662,0.9
 464248\PG=C01 [X(C8H15N1O3)]\\@


 I think that all right-thinking people in this
 country are sick and tired of being told that
 ordinary, decent people are fed up in this country
 with being sick and tired.  I'm certainly not!
 But I'm sick and tired of being told that I am!
                               -- Monty Python
 Job cpu time:  0 days  0 hours  8 minutes 51.6 seconds.
 File lengths (MBytes):  RWF=    113 Int=      0 D2E=      0 Chk=      7 Scr=      1
 Normal termination of Gaussian 09 at Fri May 17 12:26:28 2024.
