 Entering Gaussian System, Link 0=g09
 Input=/home/mamichetti.iquir/Linux/02_Cardona_A1A3_R__R_R_R_005_OptB.gjc
 Output=/home/mamichetti.iquir/Linux/02_Cardona_A1A3_R__R_R_R_005_OptB.log
 Initial command:
 /opt/ohpc/pub/apps/software/Gaussian/09/AMD64.SSE4a-enabled/g09/l1.exe /local/mamichetti.iquir/Gau-711636.inp -scrdir=/local/mamichetti.iquir/
 Entering Link 1 = /opt/ohpc/pub/apps/software/Gaussian/09/AMD64.SSE4a-enabled/g09/l1.exe PID=    711637.
  
 Copyright (c) 1988,1990,1992,1993,1995,1998,2003,2009,2011,
            Gaussian, Inc.  All Rights Reserved.
  
 This is part of the Gaussian(R) 09 program.  It is based on
 the Gaussian(R) 03 system (copyright 2003, Gaussian, Inc.),
 the Gaussian(R) 98 system (copyright 1998, Gaussian, Inc.),
 the Gaussian(R) 94 system (copyright 1995, Gaussian, Inc.),
 the Gaussian 92(TM) system (copyright 1992, Gaussian, Inc.),
 the Gaussian 90(TM) system (copyright 1990, Gaussian, Inc.),
 the Gaussian 88(TM) system (copyright 1988, Gaussian, Inc.),
 the Gaussian 86(TM) system (copyright 1986, Carnegie Mellon
 University), and the Gaussian 82(TM) system (copyright 1983,
 Carnegie Mellon University). Gaussian is a federally registered
 trademark of Gaussian, Inc.
  
 This software contains proprietary and confidential information,
 including trade secrets, belonging to Gaussian, Inc.
  
 This software is provided under written license and may be
 used, copied, transmitted, or stored only in accord with that
 written license.
  
 The following legend is applicable only to US Government
 contracts under FAR:
  
                    RESTRICTED RIGHTS LEGEND
  
 Use, reproduction and disclosure by the US Government is
 subject to restrictions as set forth in subparagraphs (a)
 and (c) of the Commercial Computer Software - Restricted
 Rights clause in FAR 52.227-19.
  
 Gaussian, Inc.
 340 Quinnipiac St., Bldg. 40, Wallingford CT 06492
  
  
 ---------------------------------------------------------------
 Warning -- This program may not be used in any manner that
 competes with the business of Gaussian, Inc. or will provide
 assistance to any competitor of Gaussian, Inc.  The licensee
 of this program is prohibited from giving any competitor of
 Gaussian, Inc. access to this program.  By using this program,
 the user acknowledges that Gaussian, Inc. is engaged in the
 business of creating and licensing software in the field of
 computational chemistry and represents and warrants to the
 licensee that it is not a competitor of Gaussian, Inc. and that
 it will not use this program in any manner prohibited above.
 ---------------------------------------------------------------
  

 Cite this work as:
 Gaussian 09, Revision C.01,
 M. J. Frisch, G. W. Trucks, H. B. Schlegel, G. E. Scuseria, 
 M. A. Robb, J. R. Cheeseman, G. Scalmani, V. Barone, B. Mennucci, 
 G. A. Petersson, H. Nakatsuji, M. Caricato, X. Li, H. P. Hratchian, 
 A. F. Izmaylov, J. Bloino, G. Zheng, J. L. Sonnenberg, M. Hada, 
 M. Ehara, K. Toyota, R. Fukuda, J. Hasegawa, M. Ishida, T. Nakajima, 
 Y. Honda, O. Kitao, H. Nakai, T. Vreven, J. A. Montgomery, Jr., 
 J. E. Peralta, F. Ogliaro, M. Bearpark, J. J. Heyd, E. Brothers, 
 K. N. Kudin, V. N. Staroverov, T. Keith, R. Kobayashi, J. Normand, 
 K. Raghavachari, A. Rendell, J. C. Burant, S. S. Iyengar, J. Tomasi, 
 M. Cossi, N. Rega, J. M. Millam, M. Klene, J. E. Knox, J. B. Cross, 
 V. Bakken, C. Adamo, J. Jaramillo, R. Gomperts, R. E. Stratmann, 
 O. Yazyev, A. J. Austin, R. Cammi, C. Pomelli, J. W. Ochterski, 
 R. L. Martin, K. Morokuma, V. G. Zakrzewski, G. A. Voth, 
 P. Salvador, J. J. Dannenberg, S. Dapprich, A. D. Daniels, 
 O. Farkas, J. B. Foresman, J. V. Ortiz, J. Cioslowski, 
 and D. J. Fox, Gaussian, Inc., Wallingford CT, 2010.
 
 ******************************************
 Gaussian 09:  AM64L-G09RevC.01 23-Sep-2011
                17-May-2024 
 ******************************************
 %nprocshared=4
 Will use up to    4 processors via shared memory.
 ------------------------------------------------
 # mpw1pw91/6-31+G** nmr scrf=(pcm,solvent=water)
 ------------------------------------------------
 1/38=1/1;
 2/12=2,17=6,18=5,40=1/2;
 3/5=1,6=6,7=111,11=2,16=1,25=1,30=1,70=2201,72=1,74=-7/1,2,8,3;
 4//1;
 5/5=2,38=5,53=1/2;
 8/6=1,10=90,11=11/1;
 10/13=100,45=16/2;
 6/7=2,8=2,9=2,10=2,28=1/1;
 99/9=1/99;
 -------
 comment
 -------
 Charge =  0 Multiplicity = 1
 Symbolic Z-Matrix:
 6                    -2.46389   0.60779  -0.10355 
 6                    -1.05033   0.58853   0.49866 
 7                    -0.50101  -0.78331   0.21294 
 6                    -1.54527  -1.56981  -0.47854 
 6                    -2.85859  -0.87721  -0.10028 
 6                     0.77121  -0.63454  -0.51954 
 6                     1.27148   0.74769  -0.07198 
 6                    -0.01533   1.56972  -0.06343 
 1                    -3.15284   1.24175   0.46281 
 1                    -2.42865   0.98217  -1.13424 
 1                    -1.10414   0.74307   1.5848 
 1                    -1.52011  -2.62167  -0.17289 
 1                    -1.40045  -1.53857  -1.57114 
 1                    -3.17667  -1.18667   0.90276 
 1                    -3.66791  -1.11185  -0.79844 
 1                     0.61051  -0.59932  -1.61184 
 1                     1.66698   0.68961   0.9508 
 1                    -0.259     1.82785  -1.10501 
 8                     0.03719   2.75219   0.73288 
 1                     0.70795   3.33059   0.33181 
 8                     2.23444   1.33587  -0.94247 
 1                     3.08475   0.89644  -0.77568 
 6                     1.73115  -1.78692  -0.23129 
 1                     1.32855  -2.71697  -0.661 
 1                     2.69817  -1.5924   -0.70894 
 8                     1.97606  -1.94563   1.16659 
 1                     1.09583  -1.87168   1.57937 
 
                          Input orientation:                          
 ---------------------------------------------------------------------
 Center     Atomic      Atomic             Coordinates (Angstroms)
 Number     Number       Type             X           Y           Z
 ---------------------------------------------------------------------
      1          6           0       -2.463886    0.607792   -0.103553
      2          6           0       -1.050332    0.588525    0.498655
      3          7           0       -0.501013   -0.783313    0.212939
      4          6           0       -1.545274   -1.569814   -0.478541
      5          6           0       -2.858587   -0.877208   -0.100275
      6          6           0        0.771212   -0.634544   -0.519543
      7          6           0        1.271478    0.747686   -0.071978
      8          6           0       -0.015328    1.569717   -0.063428
      9          1           0       -3.152838    1.241752    0.462813
     10          1           0       -2.428648    0.982166   -1.134245
     11          1           0       -1.104139    0.743065    1.584795
     12          1           0       -1.520105   -2.621671   -0.172892
     13          1           0       -1.400450   -1.538566   -1.571136
     14          1           0       -3.176672   -1.186669    0.902758
     15          1           0       -3.667914   -1.111847   -0.798438
     16          1           0        0.610512   -0.599322   -1.611837
     17          1           0        1.666984    0.689606    0.950796
     18          1           0       -0.258998    1.827853   -1.105008
     19          8           0        0.037189    2.752188    0.732877
     20          1           0        0.707954    3.330594    0.331814
     21          8           0        2.234440    1.335868   -0.942469
     22          1           0        3.084748    0.896439   -0.775675
     23          6           0        1.731152   -1.786915   -0.231294
     24          1           0        1.328546   -2.716971   -0.661001
     25          1           0        2.698173   -1.592402   -0.708935
     26          8           0        1.976058   -1.945630    1.166590
     27          1           0        1.095830   -1.871681    1.579365
 ---------------------------------------------------------------------
                    Distance matrix (angstroms):
                    1          2          3          4          5
     1  C    0.000000
     2  C    1.536607   0.000000
     3  N    2.426564   1.505099   0.000000
     4  C    2.392996   2.420394   1.478922   0.000000
     5  C    1.536563   2.403513   2.380142   1.532181   0.000000
     6  C    3.490316   2.418811   1.475540   2.498503   3.661982
     7  C    3.738116   2.396196   2.359419   3.670176   4.438301
     8  C    2.631035   1.532941   2.418474   3.517060   3.751389
     9  H    1.094226   2.201936   3.345968   3.372731   2.212158
    10  H    1.097143   2.172802   2.940680   2.779010   2.170533
    11  H    2.172034   1.098398   2.139060   3.130713   2.922813
    12  H    3.365258   3.313159   2.137048   1.095654   2.199991
    13  H    2.809190   2.988500   2.135958   1.102594   2.174164
    14  H    2.177341   2.799274   2.792436   2.171692   1.096822
    15  H    2.211268   3.380155   3.340671   2.194919   1.094302
    16  H    3.630973   2.936590   2.144562   2.621760   3.794297
    17  H    4.264086   2.756530   2.722891   4.179304   4.903106
    18  H    2.711640   2.175748   2.934918   3.686612   3.883903
    19  O    3.399033   2.432899   3.613830   4.759351   4.717221
    20  H    4.202828   3.261648   4.289518   5.454146   5.532858
    21  O    4.827851   3.664026   3.648095   4.790037   5.616575
    22  H    5.596642   4.337927   4.081251   5.254312   6.239008
    23  C    4.832110   3.729905   2.487392   3.292906   4.680859
    24  H    5.074183   4.234403   2.801801   3.099694   4.607735
    25  H    5.643952   4.501778   3.426261   4.249757   5.635561
    26  O    5.276962   4.003388   2.897639   3.904801   5.110799
    27  H    4.653126   3.438976   2.366764   3.361775   4.409941
                    6          7          8          9         10
     6  C    0.000000
     7  C    1.536600   0.000000
     8  C    2.384419   1.526983   0.000000
     9  H    4.459112   4.483824   3.198196   0.000000
    10  H    3.637405   3.856725   2.704807   1.772690   0.000000
    11  H    3.137353   2.896286   2.141379   2.388451   3.033920
    12  H    3.052699   4.376721   4.454668   4.242166   3.838918
    13  H    2.576668   3.822777   3.721985   3.864968   2.757201
    14  H    4.232443   4.947512   4.304100   2.468066   3.068023
    15  H    4.473415   5.327589   4.590469   2.719464   2.456306
    16  H    1.104614   2.149994   2.737513   4.675097   3.459146
    17  H    2.172022   1.098119   2.152538   4.875826   4.605126
    18  H    2.732673   2.139221   1.100408   3.343036   2.328824
    19  O    3.684739   2.487828   1.426568   3.539862   3.563632
    20  H    4.055999   2.674326   1.944233   4.391598   4.183625
    21  O    2.490467   1.425135   2.426696   5.568343   4.680414
    22  H    2.786030   1.950709   3.251318   6.368718   5.525709
    23  C    1.527263   2.580869   3.787526   5.788607   5.078097
    24  H    2.160355   3.514833   4.531974   6.084180   5.293778
    25  H    2.160218   2.813749   4.216487   6.606039   5.752702
    26  O    2.452273   3.047037   4.223296   6.079497   5.767778
    27  H    2.457906   3.101430   3.971985   5.384360   5.284890
                   11         12         13         14         15
    11  H    0.000000
    12  H    3.818892   0.000000
    13  H    3.905578   1.772715   0.000000
    14  H    2.912806   2.441407   3.065770   0.000000
    15  H    3.961495   2.698881   2.433217   1.772282   0.000000
    16  H    3.867879   3.271083   2.219866   4.583768   4.385114
    17  H    2.843226   4.731254   4.553465   5.194586   5.896286
    18  H    3.020938   4.717785   3.585103   4.650945   4.511821
    19  O    2.462716   5.667799   5.077977   5.086488   5.568077
    20  H    3.398374   6.375612   5.636959   5.985145   6.337269
    21  O    4.229017   5.509172   4.676539   6.248855   6.391388
    22  H    4.810625   5.826244   5.165173   6.808954   7.045011
    23  C    4.211633   3.357216   3.415228   5.072781   5.470583
    24  H    4.788883   2.891737   3.108762   5.008408   5.249755
    25  H    5.017288   4.374998   4.188675   6.105406   6.384826
    26  O    4.109938   3.804524   4.365965   5.215003   6.034149
    27  H    3.417132   3.236666   4.033365   4.379647   5.378155
                   16         17         18         19         20
    16  H    0.000000
    17  H    3.056887   0.000000
    18  H    2.627566   3.038313   0.000000
    19  O    4.130255   2.637795   2.078447   0.000000
    20  H    4.385375   2.877098   2.292964   0.972281   0.000000
    21  O    2.613457   2.079450   2.546704   3.104941   2.816538
    22  H    3.009703   2.243554   3.486636   3.873906   3.577819
    23  C    2.138249   2.744925   4.217893   4.939898   5.249088
    24  H    2.429835   3.783807   4.834549   5.789836   6.159859
    25  H    2.481888   3.004267   4.538709   5.294820   5.411102
    26  O    3.375932   2.662060   4.939110   5.100668   5.490308
    27  H    3.469611   2.698427   4.767386   4.818447   5.363814
                   21         22         23         24         25
    21  O    0.000000
    22  H    0.971567   0.000000
    23  C    3.242043   3.054335   0.000000
    24  H    4.162376   4.019220   1.100792   0.000000
    25  H    2.973945   2.519568   1.095950   1.772803   0.000000
    26  O    3.909363   3.616482   1.428023   2.086703   2.040543
    27  H    4.236089   4.143006   1.920756   2.405808   2.807457
                   26         27
    26  O    0.000000
    27  H    0.975014   0.000000
 Stoichiometry    C8H15NO3
 Framework group  C1[X(C8H15NO3)]
 Deg. of freedom    75
 Full point group                 C1      NOp   1
 Largest Abelian subgroup         C1      NOp   1
 Largest concise Abelian subgroup C1      NOp   1
                         Standard orientation:                         
 ---------------------------------------------------------------------
 Center     Atomic      Atomic             Coordinates (Angstroms)
 Number     Number       Type             X           Y           Z
 ---------------------------------------------------------------------
      1          6           0       -2.463886    0.607793   -0.103553
      2          6           0       -1.050332    0.588525    0.498655
      3          7           0       -0.501013   -0.783313    0.212939
      4          6           0       -1.545275   -1.569813   -0.478541
      5          6           0       -2.858587   -0.877207   -0.100275
      6          6           0        0.771212   -0.634544   -0.519543
      7          6           0        1.271478    0.747686   -0.071978
      8          6           0       -0.015327    1.569717   -0.063428
      9          1           0       -3.152838    1.241753    0.462813
     10          1           0       -2.428648    0.982167   -1.134245
     11          1           0       -1.104139    0.743065    1.584795
     12          1           0       -1.520106   -2.621670   -0.172892
     13          1           0       -1.400451   -1.538565   -1.571136
     14          1           0       -3.176672   -1.186668    0.902758
     15          1           0       -3.667914   -1.111846   -0.798438
     16          1           0        0.610512   -0.599322   -1.611837
     17          1           0        1.666984    0.689605    0.950796
     18          1           0       -0.258997    1.827853   -1.105008
     19          8           0        0.037190    2.752188    0.732877
     20          1           0        0.707955    3.330594    0.331814
     21          8           0        2.234441    1.335867   -0.942469
     22          1           0        3.084748    0.896438   -0.775675
     23          6           0        1.731151   -1.786916   -0.231294
     24          1           0        1.328545   -2.716971   -0.661001
     25          1           0        2.698172   -1.592403   -0.708935
     26          8           0        1.976057   -1.945631    1.166590
     27          1           0        1.095829   -1.871681    1.579365
 ---------------------------------------------------------------------
 Rotational constants (GHZ):      1.0929279      0.8992600      0.5741109
 Standard basis: 6-31+G(d,p) (6D, 7F)
 There are   303 symmetry adapted basis functions of A   symmetry.
 Integral buffers will be    131072 words long.
 Raffenetti 2 integral format.
 Two-electron integral symmetry is turned on.
   303 basis functions,   489 primitive gaussians,   303 cartesian basis functions
    47 alpha electrons       47 beta electrons
       nuclear repulsion energy       800.1936987162 Hartrees.
 NAtoms=   27 NActive=   27 NUniq=   27 SFac= 1.00D+00 NAtFMM=   60 NAOKFM=F Big=F
 ------------------------------------------------------------------------------
 Polarizable Continuum Model (PCM)
 =================================
 Model                : PCM.
 Atomic radii         : UFF (Universal Force Field).
 Polarization charges : Total charges.
 Charge compensation  : None.
 Solution method      : Matrix inversion.
 Cavity type          : Scaled VdW (van der Waals Surface) (Alpha=1.100).
 Cavity algorithm     : GePol (No added spheres)
                        Default sphere list used, NSphG=   27.
                        Lebedev-Laikov grids with approx.  5.0 points / Ang**2.
                        Smoothing algorithm: Karplus/York (Gamma=1.0000).
                        Polarization charges: spherical gaussians, with
                                              point-specific exponents (IZeta= 3).
                        Self-potential: point-specific (ISelfS= 7).
                        Self-field    : sphere-specific E.n sum rule (ISelfD= 2).
 Solvent              : Water, Eps=  78.355300 Eps(inf)=   1.777849
 ------------------------------------------------------------------------------
 One-electron integrals computed using PRISM.
 NBasis=   303 RedAO= T  NBF=   303
 NBsUse=   303 1.00D-06 NBFU=   303
 Harris functional with IExCor=  908 diagonalized for initial guess.
 ExpMin= 4.38D-02 ExpMax= 5.48D+03 ExpMxC= 8.25D+02 IAcc=2 IRadAn=         4 AccDes= 0.00D+00
 HarFok:  IExCor=  908 AccDes= 0.00D+00 IRadAn=         4 IDoV= 1
 ScaDFX=  1.000000  1.000000  1.000000  1.000000
 FoFCou: FMM=F IPFlag=           0 FMFlag=      100000 FMFlg1=           0
         NFxFlg=           0 DoJE=T BraDBF=F KetDBF=T FulRan=T
         Omega=  0.000000  0.000000  1.000000  0.000000  0.000000 ICntrl=     500 IOpCl=  0
         NMat0=    1 NMatS0=    1 NMatT0=    0 NMatD0=    1 NMtDS0=    0 NMtDT0=    0
         I1Cent=           4 NGrid=           0.
 Petite list used in FoFCou.
 Initial guess orbital symmetries:
       Occupied  (A) (A) (A) (A) (A) (A) (A) (A) (A) (A) (A) (A)
                 (A) (A) (A) (A) (A) (A) (A) (A) (A) (A) (A) (A)
                 (A) (A) (A) (A) (A) (A) (A) (A) (A) (A) (A) (A)
                 (A) (A) (A) (A) (A) (A) (A) (A) (A) (A) (A)
       Virtual   (A) (A) (A) (A) (A) (A) (A) (A) (A) (A) (A) (A)
                 (A) (A) (A) (A) (A) (A) (A) (A) (A) (A) (A) (A)
                 (A) (A) (A) (A) (A) (A) (A) (A) (A) (A) (A) (A)
                 (A) (A) (A) (A) (A) (A) (A) (A) (A) (A) (A) (A)
                 (A) (A) (A) (A) (A) (A) (A) (A) (A) (A) (A) (A)
                 (A) (A) (A) (A) (A) (A) (A) (A) (A) (A) (A) (A)
                 (A) (A) (A) (A) (A) (A) (A) (A) (A) (A) (A) (A)
                 (A) (A) (A) (A) (A) (A) (A) (A) (A) (A) (A) (A)
                 (A) (A) (A) (A) (A) (A) (A) (A) (A) (A) (A) (A)
                 (A) (A) (A) (A) (A) (A) (A) (A) (A) (A) (A) (A)
                 (A) (A) (A) (A) (A) (A) (A) (A) (A) (A) (A) (A)
                 (A) (A) (A) (A) (A) (A) (A) (A) (A) (A) (A) (A)
                 (A) (A) (A) (A) (A) (A) (A) (A) (A) (A) (A) (A)
                 (A) (A) (A) (A) (A) (A) (A) (A) (A) (A) (A) (A)
                 (A) (A) (A) (A) (A) (A) (A) (A) (A) (A) (A) (A)
                 (A) (A) (A) (A) (A) (A) (A) (A) (A) (A) (A) (A)
                 (A) (A) (A) (A) (A) (A) (A) (A) (A) (A) (A) (A)
                 (A) (A) (A) (A) (A) (A) (A) (A) (A) (A) (A) (A)
                 (A) (A) (A) (A) (A) (A) (A) (A) (A) (A) (A) (A)
                 (A) (A) (A) (A) (A) (A) (A) (A) (A) (A) (A) (A)
                 (A) (A) (A) (A) (A) (A) (A) (A) (A) (A) (A) (A)
                 (A) (A) (A) (A)
 The electronic state of the initial guess is 1-A.
 Requested convergence on RMS density matrix=1.00D-08 within 128 cycles.
 Requested convergence on MAX density matrix=1.00D-06.
 Requested convergence on             energy=1.00D-06.
 No special actions if energy rises.
 Error on total polarization charges =  0.01444
 SCF Done:  E(RmPW1PW91) =  -594.202345748     A.U. after   13 cycles
             Convg  =    0.3399D-08             -V/T =  2.0094
 Range of M.O.s used for correlation:     1   303
 NBasis=   303 NAE=    47 NBE=    47 NFC=     0 NFV=     0
 NROrb=    303 NOA=    47 NOB=    47 NVA=   256 NVB=   256

 **** Warning!!: The largest alpha MO coefficient is  0.61066825D+02

 NEqPCM:  Using equilibrium solvation (IEInf=0, Eps=  78.3553, EpsInf=   1.7778)
          Differentiating once with respect to magnetic field using GIAOs.
          Electric field/nuclear overlap derivatives assumed to be zero.
 FoFCou: FMM=F IPFlag=           0 FMFlag=    10101102 FMFlg1=           0
         NFxFlg=    40000000 DoJE=F BraDBF=F KetDBF=T FulRan=T
         Omega=  0.000000  0.000000  1.000000  0.000000  0.000000 ICntrl=    6100 IOpCl=  0
         NMat0=    1 NMatS0=    1 NMatT0=    0 NMatD0=    1 NMtDS0=    0 NMtDT0=    0
         I1Cent=           7 NGrid=        1884.
 Symmetry not used in FoFCou.
          There are     3 degrees of freedom in the 1st order CPHF.  IDoFFX=0.
      3 vectors produced by pass  0 Test12= 4.01D-13 3.33D-08 XBig12= 3.17D+01 7.70D-01.
 AX will form     3 AO Fock derivatives at one time.
      3 vectors produced by pass  1 Test12= 4.01D-13 3.33D-08 XBig12= 8.39D-02 4.56D-02.
      3 vectors produced by pass  2 Test12= 4.01D-13 3.33D-08 XBig12= 1.75D-04 2.30D-03.
      3 vectors produced by pass  3 Test12= 4.01D-13 3.33D-08 XBig12= 8.71D-07 1.86D-04.
      3 vectors produced by pass  4 Test12= 4.01D-13 3.33D-08 XBig12= 2.88D-09 1.01D-05.
      3 vectors produced by pass  5 Test12= 4.01D-13 3.33D-08 XBig12= 8.52D-12 4.55D-07.
 Inverted reduced A of dimension    18 with in-core refinement.
 Calculating GIAO nuclear magnetic shielding tensors.
 SCF GIAO Magnetic shielding tensor (ppm):
      1  C    Isotropic =   161.8922   Anisotropy =    25.8188
   XX=   172.8309   YX=    11.6050   ZX=    10.1265
   XY=     1.3775   YY=   164.4982   ZY=     0.2137
   XZ=    12.8391   YZ=    -6.4412   ZZ=   148.3476
   Eigenvalues:   142.4955   164.0764   179.1048
      2  C    Isotropic =   128.1524   Anisotropy =    52.9662
   XX=   125.5959   YX=    -0.8091   ZX=     0.7883
   XY=    -6.9909   YY=   161.2715   ZY=     9.8812
   XZ=    -2.6722   YZ=    11.6391   ZZ=    97.5899
   Eigenvalues:    95.8180   125.1761   163.4632
      3  N    Isotropic =   205.7572   Anisotropy =    72.0450
   XX=   252.3585   YX=    -3.1352   ZX=    -9.5497
   XY=     2.5062   YY=   235.0194   ZY=    33.7102
   XZ=    -9.1755   YZ=    30.5597   ZZ=   129.8937
   Eigenvalues:   120.2454   243.2391   253.7872
      4  C    Isotropic =   139.9303   Anisotropy =    56.7141
   XX=   159.1536   YX=    14.5038   ZX=    15.7058
   XY=    23.8654   YY=   128.7004   ZY=    13.5747
   XZ=    12.9667   YZ=    20.5737   ZZ=   131.9368
   Eigenvalues:   112.4985   129.5527   177.7397
      5  C    Isotropic =   164.6034   Anisotropy =    22.3046
   XX=   179.3464   YX=    -0.9110   ZX=     4.7523
   XY=     1.7717   YY=   177.2993   ZY=    10.5940
   XZ=    -6.6052   YZ=     5.7604   ZZ=   137.1643
   Eigenvalues:   135.5398   178.7972   179.4731
      6  C    Isotropic =   121.8510   Anisotropy =    44.6921
   XX=   137.6476   YX=    17.6575   ZX=    -8.7096
   XY=    16.9368   YY=   108.7153   ZY=    -9.4029
   XZ=   -18.5998   YZ=     2.5278   ZZ=   119.1902
   Eigenvalues:   100.1533   113.7540   151.6457
      7  C    Isotropic =   116.5452   Anisotropy =    42.6695
   XX=   135.1291   YX=     5.8462   ZX=   -31.0957
   XY=     4.7510   YY=   119.3452   ZY=    -4.7642
   XZ=   -11.4874   YZ=     8.8685   ZZ=    95.1613
   Eigenvalues:    85.4710   119.1732   144.9915
      8  C    Isotropic =   113.1837   Anisotropy =    23.3401
   XX=   116.2502   YX=    -2.1599   ZX=    -2.2229
   XY=     2.3538   YY=   122.7113   ZY=    17.5474
   XZ=    -0.7559   YZ=     8.4563   ZZ=   100.5895
   Eigenvalues:    94.4910   116.3162   128.7438
      9  H    Isotropic =    29.4361   Anisotropy =     9.7119
   XX=    31.8884   YX=    -3.3175   ZX=    -2.1347
   XY=    -3.8590   YY=    30.3465   ZY=     2.5132
   XZ=    -2.4146   YZ=     2.4188   ZZ=    26.0734
   Eigenvalues:    24.8700    27.5276    35.9107
     10  H    Isotropic =    29.9669   Anisotropy =     8.1667
   XX=    29.0580   YX=    -0.2938   ZX=     2.6215
   XY=     0.2963   YY=    29.3358   ZY=    -4.1726
   XZ=     2.4273   YZ=    -4.2256   ZZ=    31.5069
   Eigenvalues:    25.3549    29.1344    35.4114
     11  H    Isotropic =    28.1873   Anisotropy =     6.7587
   XX=    26.5354   YX=    -1.1687   ZX=    -1.0770
   XY=    -0.9116   YY=    27.5205   ZY=     3.3556
   XZ=    -0.3264   YZ=     2.8972   ZZ=    30.5059
   Eigenvalues:    25.3047    26.5641    32.6931
     12  H    Isotropic =    28.3942   Anisotropy =     9.4741
   XX=    27.5875   YX=     1.9832   ZX=     0.6644
   XY=     1.4196   YY=    34.3037   ZY=    -0.2663
   XZ=     1.0383   YZ=    -0.2192   ZZ=    23.2913
   Eigenvalues:    23.0995    27.3727    34.7102
     13  H    Isotropic =    29.1762   Anisotropy =     8.4833
   XX=    28.4010   YX=     0.5489   ZX=     2.1472
   XY=     0.9940   YY=    26.8563   ZY=     4.3123
   XZ=     0.6053   YZ=     3.8101   ZZ=    32.2714
   Eigenvalues:    24.6826    28.0143    34.8317
     14  H    Isotropic =    29.5505   Anisotropy =    10.6849
   XX=    30.0651   YX=     2.0053   ZX=    -4.7868
   XY=     2.2512   YY=    28.5413   ZY=    -2.9024
   XZ=    -5.1876   YZ=    -3.1237   ZZ=    30.0451
   Eigenvalues:    24.8987    27.0791    36.6738
     15  H    Isotropic =    29.4818   Anisotropy =    11.7188
   XX=    34.2384   YX=     2.5062   ZX=     4.4316
   XY=     3.1464   YY=    27.3692   ZY=     1.9638
   XZ=     4.1424   YZ=     1.5051   ZZ=    26.8379
   Eigenvalues:    24.7775    26.3736    37.2944
     16  H    Isotropic =    29.0662   Anisotropy =     3.6393
   XX=    28.9036   YX=    -0.9282   ZX=    -2.0187
   XY=    -0.8254   YY=    27.4344   ZY=     0.0410
   XZ=    -0.5167   YZ=    -0.4904   ZZ=    30.8605
   Eigenvalues:    26.8704    28.8358    31.4924
     17  H    Isotropic =    27.2643   Anisotropy =     2.7135
   XX=    27.0064   YX=     1.4092   ZX=    -0.4702
   XY=     0.9741   YY=    27.4860   ZY=    -1.8917
   XZ=     0.7824   YZ=    -0.8066   ZZ=    27.3005
   Eigenvalues:    25.4278    27.2918    29.0733
     18  H    Isotropic =    27.6637   Anisotropy =     2.4347
   XX=    26.2420   YX=     0.2837   ZX=     0.9442
   XY=     1.0264   YY=    29.0117   ZY=     0.8313
   XZ=     1.1993   YZ=    -0.4991   ZZ=    27.7374
   Eigenvalues:    25.6066    28.0977    29.2869
     19  O    Isotropic =   297.1994   Anisotropy =    42.7879
   XX=   286.4377   YX=    33.3703   ZX=    14.0085
   XY=    22.7470   YY=   302.1706   ZY=    -1.8508
   XZ=    -3.2087   YZ=    11.7215   ZZ=   302.9899
   Eigenvalues:   265.1165   300.7571   325.7247
     20  H    Isotropic =    29.4199   Anisotropy =    18.6553
   XX=    28.8551   YX=     7.3687   ZX=    -5.7358
   XY=     8.6006   YY=    35.6627   ZY=    -1.4472
   XZ=    -4.5086   YZ=    -1.3768   ZZ=    23.7419
   Eigenvalues:    19.7744    26.6285    41.8568
     21  O    Isotropic =   302.9785   Anisotropy =    38.5695
   XX=   323.7087   YX=   -14.5640   ZX=     1.4010
   XY=   -14.8531   YY=   274.8911   ZY=    -1.2721
   XZ=   -16.3166   YZ=   -25.4702   ZZ=   310.3359
   Eigenvalues:   265.8061   314.4380   328.6915
     22  H    Isotropic =    29.6314   Anisotropy =    19.7724
   XX=    41.7788   YX=    -4.3634   ZX=    -0.5456
   XY=    -4.0508   YY=    25.6593   ZY=    -3.5274
   XZ=    -0.4983   YZ=    -2.5272   ZZ=    21.4561
   Eigenvalues:    19.5899    26.4914    42.8130
     23  C    Isotropic =   136.2499   Anisotropy =    58.8222
   XX=   115.4491   YX=    -4.6028   ZX=    10.0703
   XY=    -4.7664   YY=   120.9794   ZY=    -7.0690
   XZ=    12.8883   YZ=    -5.4633   ZZ=   172.3212
   Eigenvalues:   111.8328   121.4522   175.4647
     24  H    Isotropic =    27.8443   Anisotropy =     7.6348
   XX=    25.0575   YX=    -0.8940   ZX=     2.0098
   XY=    -1.2844   YY=    29.9538   ZY=     2.5094
   XZ=     2.1705   YZ=     4.6768   ZZ=    28.5217
   Eigenvalues:    22.9814    27.6174    32.9342
     25  H    Isotropic =    28.0897   Anisotropy =     6.5074
   XX=    29.4067   YX=    -2.2432   ZX=    -2.1987
   XY=    -1.1192   YY=    26.2874   ZY=    -0.7235
   XZ=    -4.3243   YZ=    -0.2765   ZZ=    28.5751
   Eigenvalues:    24.4348    27.4063    32.4280
     26  O    Isotropic =   330.1870   Anisotropy =    47.5008
   XX=   349.0644   YX=    -2.4059   ZX=   -22.1158
   XY=    -7.3272   YY=   315.2069   ZY=    24.7008
   XZ=   -13.8230   YZ=     4.6218   ZZ=   326.2896
   Eigenvalues:   303.9899   324.7169   361.8542
     27  H    Isotropic =    29.2252   Anisotropy =    16.0420
   XX=    36.9210   YX=    -2.8334   ZX=    -4.9662
   XY=    -4.3205   YY=    21.1830   ZY=    -4.6615
   XZ=    -5.8972   YZ=    -2.8630   ZZ=    29.5718
   Eigenvalues:    18.1611    29.5948    39.9199
 End of Minotr Frequency-dependent properties file   721 does not exist.
 End of Minotr Frequency-dependent properties file   722 does not exist.

 **********************************************************************

            Population analysis using the SCF density.

 **********************************************************************

 Orbital symmetries:
       Occupied  (A) (A) (A) (A) (A) (A) (A) (A) (A) (A) (A) (A)
                 (A) (A) (A) (A) (A) (A) (A) (A) (A) (A) (A) (A)
                 (A) (A) (A) (A) (A) (A) (A) (A) (A) (A) (A) (A)
                 (A) (A) (A) (A) (A) (A) (A) (A) (A) (A) (A)
       Virtual   (A) (A) (A) (A) (A) (A) (A) (A) (A) (A) (A) (A)
                 (A) (A) (A) (A) (A) (A) (A) (A) (A) (A) (A) (A)
                 (A) (A) (A) (A) (A) (A) (A) (A) (A) (A) (A) (A)
                 (A) (A) (A) (A) (A) (A) (A) (A) (A) (A) (A) (A)
                 (A) (A) (A) (A) (A) (A) (A) (A) (A) (A) (A) (A)
                 (A) (A) (A) (A) (A) (A) (A) (A) (A) (A) (A) (A)
                 (A) (A) (A) (A) (A) (A) (A) (A) (A) (A) (A) (A)
                 (A) (A) (A) (A) (A) (A) (A) (A) (A) (A) (A) (A)
                 (A) (A) (A) (A) (A) (A) (A) (A) (A) (A) (A) (A)
                 (A) (A) (A) (A) (A) (A) (A) (A) (A) (A) (A) (A)
                 (A) (A) (A) (A) (A) (A) (A) (A) (A) (A) (A) (A)
                 (A) (A) (A) (A) (A) (A) (A) (A) (A) (A) (A) (A)
                 (A) (A) (A) (A) (A) (A) (A) (A) (A) (A) (A) (A)
                 (A) (A) (A) (A) (A) (A) (A) (A) (A) (A) (A) (A)
                 (A) (A) (A) (A) (A) (A) (A) (A) (A) (A) (A) (A)
                 (A) (A) (A) (A) (A) (A) (A) (A) (A) (A) (A) (A)
                 (A) (A) (A) (A) (A) (A) (A) (A) (A) (A) (A) (A)
                 (A) (A) (A) (A) (A) (A) (A) (A) (A) (A) (A) (A)
                 (A) (A) (A) (A) (A) (A) (A) (A) (A) (A) (A) (A)
                 (A) (A) (A) (A) (A) (A) (A) (A) (A) (A) (A) (A)
                 (A) (A) (A) (A) (A) (A) (A) (A) (A) (A) (A) (A)
                 (A) (A) (A) (A)
 The electronic state is 1-A.
 Alpha  occ. eigenvalues --  -19.26416 -19.26001 -19.25134 -14.41857 -10.30501
 Alpha  occ. eigenvalues --  -10.30405 -10.29572 -10.28203 -10.28054 -10.27098
 Alpha  occ. eigenvalues --  -10.24786 -10.24722  -1.07504  -1.05749  -1.05434
 Alpha  occ. eigenvalues --   -0.96877  -0.83134  -0.79717  -0.75216  -0.71846
 Alpha  occ. eigenvalues --   -0.66778  -0.61484  -0.60814  -0.58097  -0.55750
 Alpha  occ. eigenvalues --   -0.54181  -0.51335  -0.50447  -0.49347  -0.47554
 Alpha  occ. eigenvalues --   -0.45304  -0.44745  -0.44545  -0.42394  -0.40732
 Alpha  occ. eigenvalues --   -0.40393  -0.38380  -0.37363  -0.36658  -0.35720
 Alpha  occ. eigenvalues --   -0.35000  -0.34715  -0.33812  -0.30882  -0.30201
 Alpha  occ. eigenvalues --   -0.28506  -0.23744
 Alpha virt. eigenvalues --    0.00650   0.01354   0.01833   0.02042   0.03729
 Alpha virt. eigenvalues --    0.04071   0.04643   0.05058   0.05360   0.06764
 Alpha virt. eigenvalues --    0.07806   0.08514   0.08817   0.09080   0.09461
 Alpha virt. eigenvalues --    0.09939   0.11070   0.11475   0.12266   0.12885
 Alpha virt. eigenvalues --    0.13404   0.13859   0.14232   0.14836   0.15367
 Alpha virt. eigenvalues --    0.16211   0.16328   0.17081   0.17467   0.17751
 Alpha virt. eigenvalues --    0.18962   0.19540   0.19853   0.20369   0.20707
 Alpha virt. eigenvalues --    0.21334   0.21729   0.21934   0.23153   0.23228
 Alpha virt. eigenvalues --    0.23997   0.24595   0.24727   0.25685   0.25960
 Alpha virt. eigenvalues --    0.26517   0.27321   0.27940   0.28386   0.29103
 Alpha virt. eigenvalues --    0.30104   0.30507   0.30812   0.31220   0.32116
 Alpha virt. eigenvalues --    0.32234   0.32875   0.33222   0.34451   0.34798
 Alpha virt. eigenvalues --    0.35106   0.35923   0.36438   0.36884   0.37806
 Alpha virt. eigenvalues --    0.38592   0.39425   0.40124   0.40430   0.41044
 Alpha virt. eigenvalues --    0.41687   0.42827   0.43343   0.44598   0.46478
 Alpha virt. eigenvalues --    0.46768   0.62750   0.65329   0.66289   0.67726
 Alpha virt. eigenvalues --    0.69547   0.71063   0.71625   0.72086   0.74468
 Alpha virt. eigenvalues --    0.75352   0.76331   0.79194   0.80771   0.81640
 Alpha virt. eigenvalues --    0.81964   0.84013   0.85046   0.86835   0.87966
 Alpha virt. eigenvalues --    0.90560   0.91046   0.93619   0.95665   0.96132
 Alpha virt. eigenvalues --    0.98072   0.99317   1.02125   1.03073   1.04795
 Alpha virt. eigenvalues --    1.06134   1.07236   1.08600   1.09196   1.09326
 Alpha virt. eigenvalues --    1.11028   1.12343   1.13735   1.14377   1.15868
 Alpha virt. eigenvalues --    1.18033   1.18886   1.21791   1.22230   1.24150
 Alpha virt. eigenvalues --    1.25840   1.27841   1.28883   1.31793   1.33037
 Alpha virt. eigenvalues --    1.33599   1.35242   1.36976   1.38230   1.40660
 Alpha virt. eigenvalues --    1.42677   1.44134   1.47940   1.50538   1.52071
 Alpha virt. eigenvalues --    1.54213   1.56004   1.57790   1.58972   1.61132
 Alpha virt. eigenvalues --    1.62883   1.63389   1.64181   1.66264   1.69266
 Alpha virt. eigenvalues --    1.72977   1.73648   1.75656   1.78735   1.80314
 Alpha virt. eigenvalues --    1.82255   1.83119   1.84453   1.85960   1.87203
 Alpha virt. eigenvalues --    1.88575   1.89548   1.92191   1.93227   1.96009
 Alpha virt. eigenvalues --    1.97510   1.99779   2.01137   2.03025   2.04405
 Alpha virt. eigenvalues --    2.04801   2.06082   2.08430   2.10589   2.11230
 Alpha virt. eigenvalues --    2.11672   2.13762   2.14975   2.16852   2.17823
 Alpha virt. eigenvalues --    2.21534   2.22360   2.23862   2.24454   2.27591
 Alpha virt. eigenvalues --    2.30266   2.33888   2.34981   2.36699   2.38880
 Alpha virt. eigenvalues --    2.39568   2.41338   2.43487   2.43568   2.47407
 Alpha virt. eigenvalues --    2.48369   2.48850   2.51611   2.52414   2.53872
 Alpha virt. eigenvalues --    2.55865   2.58846   2.60395   2.62115   2.63370
 Alpha virt. eigenvalues --    2.64776   2.65952   2.67839   2.68145   2.70028
 Alpha virt. eigenvalues --    2.70410   2.73097   2.75130   2.76302   2.77956
 Alpha virt. eigenvalues --    2.78922   2.81592   2.83214   2.83769   2.85170
 Alpha virt. eigenvalues --    2.86625   2.89664   2.90349   2.92929   2.95025
 Alpha virt. eigenvalues --    2.98153   2.99933   3.01079   3.02411   3.04352
 Alpha virt. eigenvalues --    3.05747   3.08136   3.10980   3.18242   3.31322
 Alpha virt. eigenvalues --    3.34628   3.35802   3.36202   3.39209   3.45672
 Alpha virt. eigenvalues --    3.48031   3.49332   3.52492   3.54525   3.55453
 Alpha virt. eigenvalues --    3.56297   3.56943   3.60726   3.62811   4.28959
 Alpha virt. eigenvalues --    4.36772   4.40422   4.42298   4.48603   4.49776
 Alpha virt. eigenvalues --    4.56542   4.71599   4.76598   4.79297   4.86759
 Alpha virt. eigenvalues --    4.93548
          Condensed to atoms (all electrons):
              1          2          3          4          5          6
     1  C    6.208642  -1.254321   0.233142  -0.245361   0.183894   0.165766
     2  C   -1.254321   9.621906  -0.576901  -0.247506   0.250171  -0.703910
     3  N    0.233142  -0.576901   7.580572   0.264703  -0.233110  -0.295856
     4  C   -0.245361  -0.247506   0.264703   5.581064   0.221418  -0.269519
     5  C    0.183894   0.250171  -0.233110   0.221418   5.417865   0.099448
     6  C    0.165766  -0.703910  -0.295856  -0.269519   0.099448   8.894145
     7  C   -0.089100   0.340731  -0.075042  -0.086662  -0.020318  -1.071422
     8  C    0.125418  -0.814498   0.005037   0.172818  -0.127607   0.435845
     9  H    0.389235  -0.072090   0.014380   0.027483  -0.020891   0.003180
    10  H    0.511518  -0.227658   0.032912   0.013253  -0.068153   0.018635
    11  H    0.108962   0.062751   0.016305   0.013082  -0.023640   0.059589
    12  H    0.044249  -0.018112  -0.048168   0.374079  -0.025493   0.015965
    13  H   -0.010935   0.025702  -0.084646   0.428262  -0.037796  -0.016031
    14  H   -0.021360  -0.042016   0.013930  -0.035853   0.394312   0.008234
    15  H   -0.067815   0.051109   0.003455  -0.025245   0.381840  -0.004578
    16  H   -0.015254   0.073628  -0.026572   0.021795   0.001818   0.100610
    17  H    0.012256  -0.032407   0.062026   0.013164  -0.001747  -0.211313
    18  H    0.046658  -0.253718   0.053373   0.012410  -0.003775   0.017518
    19  O    0.032607  -0.174113   0.029560  -0.000106  -0.002723   0.036050
    20  H   -0.006404   0.047934  -0.003407  -0.000851   0.000677   0.006817
    21  O    0.001400   0.042545   0.003337  -0.000211   0.002498  -0.151308
    22  H    0.000450  -0.006548  -0.001793   0.000327  -0.000462   0.002371
    23  C    0.051888  -0.051720   0.191572   0.013723  -0.037142  -0.893461
    24  H   -0.000537  -0.005248  -0.017908   0.014301   0.008412  -0.018031
    25  H    0.001008   0.008486   0.015583  -0.001703  -0.001808  -0.162586
    26  O    0.006721  -0.011229   0.032779  -0.001893  -0.003087  -0.179013
    27  H    0.000226   0.018252   0.046690   0.005879  -0.005069  -0.091792
              7          8          9         10         11         12
     1  C   -0.089100   0.125418   0.389235   0.511518   0.108962   0.044249
     2  C    0.340731  -0.814498  -0.072090  -0.227658   0.062751  -0.018112
     3  N   -0.075042   0.005037   0.014380   0.032912   0.016305  -0.048168
     4  C   -0.086662   0.172818   0.027483   0.013253   0.013082   0.374079
     5  C   -0.020318  -0.127607  -0.020891  -0.068153  -0.023640  -0.025493
     6  C   -1.071422   0.435845   0.003180   0.018635   0.059589   0.015965
     7  C    6.775909  -0.428420  -0.003102  -0.008712  -0.052999  -0.002611
     8  C   -0.428420   6.131584   0.003296   0.043707   0.064150  -0.001070
     9  H   -0.003102   0.003296   0.510702  -0.024238  -0.003701  -0.000099
    10  H   -0.008712   0.043707  -0.024238   0.529232   0.004184  -0.000040
    11  H   -0.052999   0.064150  -0.003701   0.004184   0.557702   0.000240
    12  H   -0.002611  -0.001070  -0.000099  -0.000040   0.000240   0.540797
    13  H    0.011863  -0.000444  -0.000139   0.001036  -0.000482  -0.041190
    14  H   -0.003060   0.014110  -0.004896   0.004162   0.000892  -0.006085
    15  H    0.000737   0.002192   0.000289  -0.005294  -0.000118   0.000743
    16  H    0.074764  -0.049618  -0.000010  -0.000249  -0.000604  -0.000885
    17  H    0.485333  -0.076501   0.000003  -0.000007   0.000815   0.000011
    18  H   -0.074108   0.492171   0.000378   0.003302   0.004350   0.000012
    19  O   -0.152111   0.331918   0.000526   0.001721   0.009543   0.000059
    20  H   -0.040237  -0.002643  -0.000011  -0.000009  -0.000007   0.000000
    21  O    0.432010  -0.220597   0.000008  -0.000247  -0.000545   0.000022
    22  H   -0.007859   0.047075   0.000000   0.000001   0.000007   0.000000
    23  C    0.182267  -0.130213   0.000343   0.000104   0.006013  -0.002845
    24  H   -0.015780  -0.002455   0.000000   0.000002   0.000012  -0.000016
    25  H    0.021774  -0.007077   0.000000   0.000000  -0.000003  -0.000005
    26  O    0.032725  -0.033479   0.000003   0.000019   0.001311   0.001522
    27  H   -0.004587  -0.007496  -0.000001  -0.000001  -0.000437  -0.000365
             13         14         15         16         17         18
     1  C   -0.010935  -0.021360  -0.067815  -0.015254   0.012256   0.046658
     2  C    0.025702  -0.042016   0.051109   0.073628  -0.032407  -0.253718
     3  N   -0.084646   0.013930   0.003455  -0.026572   0.062026   0.053373
     4  C    0.428262  -0.035853  -0.025245   0.021795   0.013164   0.012410
     5  C   -0.037796   0.394312   0.381840   0.001818  -0.001747  -0.003775
     6  C   -0.016031   0.008234  -0.004578   0.100610  -0.211313   0.017518
     7  C    0.011863  -0.003060   0.000737   0.074764   0.485333  -0.074108
     8  C   -0.000444   0.014110   0.002192  -0.049618  -0.076501   0.492171
     9  H   -0.000139  -0.004896   0.000289  -0.000010   0.000003   0.000378
    10  H    0.001036   0.004162  -0.005294  -0.000249  -0.000007   0.003302
    11  H   -0.000482   0.000892  -0.000118  -0.000604   0.000815   0.004350
    12  H   -0.041190  -0.006085   0.000743  -0.000885   0.000011   0.000012
    13  H    0.567788   0.003938  -0.004537   0.011478  -0.000026  -0.000218
    14  H    0.003938   0.518836  -0.023938  -0.000015  -0.000003  -0.000006
    15  H   -0.004537  -0.023938   0.512428  -0.000014   0.000000  -0.000023
    16  H    0.011478  -0.000015  -0.000014   0.586229   0.004107   0.000576
    17  H   -0.000026  -0.000003   0.000000   0.004107   0.541769   0.004565
    18  H   -0.000218  -0.000006  -0.000023   0.000576   0.004565   0.562980
    19  O   -0.000185   0.000030  -0.000008  -0.001412  -0.002854  -0.043653
    20  H    0.000000   0.000000   0.000000   0.000024  -0.000245  -0.004633
    21  O   -0.000170  -0.000008  -0.000007   0.003550  -0.039564   0.000005
    22  H    0.000000   0.000000   0.000000  -0.000389  -0.006667   0.000063
    23  C   -0.008445  -0.001265   0.000257   0.042442   0.049388   0.011969
    24  H    0.000114   0.000003   0.000000  -0.001458   0.000085   0.000008
    25  H    0.000004   0.000000   0.000000   0.000911   0.000440  -0.000006
    26  O   -0.000366   0.000023  -0.000002   0.009444   0.010243   0.000197
    27  H    0.000115   0.000001  -0.000001   0.000608  -0.000086  -0.000007
             19         20         21         22         23         24
     1  C    0.032607  -0.006404   0.001400   0.000450   0.051888  -0.000537
     2  C   -0.174113   0.047934   0.042545  -0.006548  -0.051720  -0.005248
     3  N    0.029560  -0.003407   0.003337  -0.001793   0.191572  -0.017908
     4  C   -0.000106  -0.000851  -0.000211   0.000327   0.013723   0.014301
     5  C   -0.002723   0.000677   0.002498  -0.000462  -0.037142   0.008412
     6  C    0.036050   0.006817  -0.151308   0.002371  -0.893461  -0.018031
     7  C   -0.152111  -0.040237   0.432010  -0.007859   0.182267  -0.015780
     8  C    0.331918  -0.002643  -0.220597   0.047075  -0.130213  -0.002455
     9  H    0.000526  -0.000011   0.000008   0.000000   0.000343   0.000000
    10  H    0.001721  -0.000009  -0.000247   0.000001   0.000104   0.000002
    11  H    0.009543  -0.000007  -0.000545   0.000007   0.006013   0.000012
    12  H    0.000059   0.000000   0.000022   0.000000  -0.002845  -0.000016
    13  H   -0.000185   0.000000  -0.000170   0.000000  -0.008445   0.000114
    14  H    0.000030   0.000000  -0.000008   0.000000  -0.001265   0.000003
    15  H   -0.000008   0.000000  -0.000007   0.000000   0.000257   0.000000
    16  H   -0.001412   0.000024   0.003550  -0.000389   0.042442  -0.001458
    17  H   -0.002854  -0.000245  -0.039564  -0.006667   0.049388   0.000085
    18  H   -0.043653  -0.004633   0.000005   0.000063   0.011969   0.000008
    19  O    8.266072   0.232882  -0.008033   0.000537  -0.006082   0.000039
    20  H    0.232882   0.375291   0.009485  -0.000404   0.000089   0.000000
    21  O   -0.008033   0.009485   8.216720   0.237267   0.003282  -0.000306
    22  H    0.000537  -0.000404   0.237267   0.369296  -0.020724  -0.000069
    23  C   -0.006082   0.000089   0.003282  -0.020724   5.671249   0.393333
    24  H    0.000039   0.000000  -0.000306  -0.000069   0.393333   0.578465
    25  H   -0.000028   0.000000   0.004173   0.001668   0.500400  -0.038833
    26  O    0.000976   0.000029  -0.001730  -0.001344   0.259858  -0.047195
    27  H   -0.000110   0.000000   0.000363   0.000029   0.041355  -0.003877
             25         26         27
     1  C    0.001008   0.006721   0.000226
     2  C    0.008486  -0.011229   0.018252
     3  N    0.015583   0.032779   0.046690
     4  C   -0.001703  -0.001893   0.005879
     5  C   -0.001808  -0.003087  -0.005069
     6  C   -0.162586  -0.179013  -0.091792
     7  C    0.021774   0.032725  -0.004587
     8  C   -0.007077  -0.033479  -0.007496
     9  H    0.000000   0.000003  -0.000001
    10  H    0.000000   0.000019  -0.000001
    11  H   -0.000003   0.001311  -0.000437
    12  H   -0.000005   0.001522  -0.000365
    13  H    0.000004  -0.000366   0.000115
    14  H    0.000000   0.000023   0.000001
    15  H    0.000000  -0.000002  -0.000001
    16  H    0.000911   0.009444   0.000608
    17  H    0.000440   0.010243  -0.000086
    18  H   -0.000006   0.000197  -0.000007
    19  O   -0.000028   0.000976  -0.000110
    20  H    0.000000   0.000029   0.000000
    21  O    0.004173  -0.001730   0.000363
    22  H    0.001668  -0.001344   0.000029
    23  C    0.500400   0.259858   0.041355
    24  H   -0.038833  -0.047195  -0.003877
    25  H    0.548984  -0.057204   0.006314
    26  O   -0.057204   8.284193   0.249540
    27  H    0.006314   0.249540   0.358208
 Mulliken atomic charges:
              1
     1  C   -0.412953
     2  C   -0.051220
     3  N   -0.235952
     4  C   -0.262852
     5  C   -0.349532
     6  C    0.204646
     7  C   -0.221981
     8  C    0.032798
     9  H    0.179353
    10  H    0.170821
    11  H    0.172629
    12  H    0.169286
    13  H    0.155310
    14  H    0.180030
    15  H    0.178528
    16  H    0.164495
    17  H    0.187213
    18  H    0.169612
    19  O   -0.551102
    20  H    0.385622
    21  O   -0.533939
    22  H    0.387168
    23  C   -0.267638
    24  H    0.156940
    25  H    0.159508
    26  O   -0.553041
    27  H    0.386249
 Sum of Mulliken atomic charges =   0.00000
 Mulliken charges with hydrogens summed into heavy atoms:
              1
     1  C   -0.062779
     2  C    0.121409
     3  N   -0.235952
     4  C    0.061745
     5  C    0.009027
     6  C    0.369142
     7  C   -0.034768
     8  C    0.202410
    19  O   -0.165480
    21  O   -0.146770
    23  C    0.048810
    26  O   -0.166791
 Sum of Mulliken charges with hydrogens summed into heavy atoms =   0.00000
 Electronic spatial extent (au):  <R**2>=           2096.7706
 Charge=              0.0000 electrons
 Dipole moment (field-independent basis, Debye):
    X=             -1.4244    Y=             -0.8344    Z=             -2.6029  Tot=              3.0823
 Quadrupole moment (field-independent basis, Debye-Ang):
   XX=            -68.8770   YY=            -77.7020   ZZ=            -76.6531
   XY=              6.3568   XZ=             -2.5054   YZ=              2.0011
 Traceless Quadrupole moment (field-independent basis, Debye-Ang):
   XX=              5.5337   YY=             -3.2913   ZZ=             -2.2424
   XY=              6.3568   XZ=             -2.5054   YZ=              2.0011
 Octapole moment (field-independent basis, Debye-Ang**2):
  XXX=             18.4877  YYY=             12.5385  ZZZ=              4.1172  XYY=             -0.6250
  XXY=             12.3087  XXZ=            -12.4329  XZZ=             -5.9957  YZZ=             -4.0723
  YYZ=            -14.5414  XYZ=             15.5294
 Hexadecapole moment (field-independent basis, Debye-Ang**3):
 XXXX=          -1263.8110 YYYY=          -1012.8169 ZZZZ=           -273.7416 XXXY=             42.8485
 XXXZ=            -45.7485 YYYX=             73.2155 YYYZ=            -11.3375 ZZZX=              1.5710
 ZZZY=             -9.1259 XXYY=           -437.2027 XXZZ=           -289.1999 YYZZ=           -243.5475
 XXYZ=             37.9356 YYXZ=             -8.3492 ZZXY=              4.0434
 N-N= 8.001936987162D+02 E-N=-2.986020612486D+03  KE= 5.886577371582D+02
 1\1\GINC-COMPUTE-3-0\SP\RmPW1PW91\6-31+G(d,p)\C8H15N1O3\MAMICHETTI.IQU
 IR\17-May-2024\0\\# mpw1pw91/6-31+G** nmr scrf=(pcm,solvent=water)\\co
 mment\\0,1\C,0,-2.463886,0.607792,-0.103553\C,0,-1.050332,0.588525,0.4
 98655\N,0,-0.501013,-0.783313,0.212939\C,0,-1.545274,-1.569814,-0.4785
 41\C,0,-2.858587,-0.877208,-0.100275\C,0,0.771212,-0.634544,-0.519543\
 C,0,1.271478,0.747686,-0.071978\C,0,-0.015328,1.569717,-0.063428\H,0,-
 3.152838,1.241752,0.462813\H,0,-2.428648,0.982166,-1.134245\H,0,-1.104
 139,0.743065,1.584795\H,0,-1.520105,-2.621671,-0.172892\H,0,-1.40045,-
 1.538566,-1.571136\H,0,-3.176672,-1.186669,0.902758\H,0,-3.667914,-1.1
 11847,-0.798438\H,0,0.610512,-0.599322,-1.611837\H,0,1.666984,0.689606
 ,0.950796\H,0,-0.258998,1.827853,-1.105008\O,0,0.037189,2.752188,0.732
 877\H,0,0.707954,3.330594,0.331814\O,0,2.23444,1.335868,-0.942469\H,0,
 3.084748,0.896439,-0.775675\C,0,1.731152,-1.786915,-0.231294\H,0,1.328
 546,-2.716971,-0.661001\H,0,2.698173,-1.592402,-0.708935\O,0,1.976058,
 -1.94563,1.16659\H,0,1.09583,-1.871681,1.579365\\Version=AM64L-G09RevC
 .01\State=1-A\HF=-594.2023457\RMSD=3.399e-09\Dipole=-0.5604068,-0.3282
 978,-1.0240621\Quadrupole=4.1141944,-2.4469982,-1.6671962,4.7261215,-1
 .8627156,1.4877969\PG=C01 [X(C8H15N1O3)]\\@


 UNDER MOST GREENE GRASSE LY MOST GREATE SNAKES.
 -- PROVERBS AND REASONS OF THE YEAR 1585
           AS REPRINTED IN PAISLEY MAGAZINE 1828.
 Job cpu time:  0 days  0 hours  8 minutes 38.6 seconds.
 File lengths (MBytes):  RWF=    116 Int=      0 D2E=      0 Chk=      7 Scr=      1
 Normal termination of Gaussian 09 at Fri May 17 12:22:51 2024.
