 Entering Gaussian System, Link 0=g09
 Input=/home/mamichetti.iquir/Linux/02_Cardona_A1A3_R__R_R_R_026_OptB.gjc
 Output=/home/mamichetti.iquir/Linux/02_Cardona_A1A3_R__R_R_R_026_OptB.log
 Initial command:
 /opt/ohpc/pub/apps/software/Gaussian/09/AMD64.SSE4a-enabled/g09/l1.exe /local/mamichetti.iquir/Gau-713637.inp -scrdir=/local/mamichetti.iquir/
 Entering Link 1 = /opt/ohpc/pub/apps/software/Gaussian/09/AMD64.SSE4a-enabled/g09/l1.exe PID=    713638.
  
 Copyright (c) 1988,1990,1992,1993,1995,1998,2003,2009,2011,
            Gaussian, Inc.  All Rights Reserved.
  
 This is part of the Gaussian(R) 09 program.  It is based on
 the Gaussian(R) 03 system (copyright 2003, Gaussian, Inc.),
 the Gaussian(R) 98 system (copyright 1998, Gaussian, Inc.),
 the Gaussian(R) 94 system (copyright 1995, Gaussian, Inc.),
 the Gaussian 92(TM) system (copyright 1992, Gaussian, Inc.),
 the Gaussian 90(TM) system (copyright 1990, Gaussian, Inc.),
 the Gaussian 88(TM) system (copyright 1988, Gaussian, Inc.),
 the Gaussian 86(TM) system (copyright 1986, Carnegie Mellon
 University), and the Gaussian 82(TM) system (copyright 1983,
 Carnegie Mellon University). Gaussian is a federally registered
 trademark of Gaussian, Inc.
  
 This software contains proprietary and confidential information,
 including trade secrets, belonging to Gaussian, Inc.
  
 This software is provided under written license and may be
 used, copied, transmitted, or stored only in accord with that
 written license.
  
 The following legend is applicable only to US Government
 contracts under FAR:
  
                    RESTRICTED RIGHTS LEGEND
  
 Use, reproduction and disclosure by the US Government is
 subject to restrictions as set forth in subparagraphs (a)
 and (c) of the Commercial Computer Software - Restricted
 Rights clause in FAR 52.227-19.
  
 Gaussian, Inc.
 340 Quinnipiac St., Bldg. 40, Wallingford CT 06492
  
  
 ---------------------------------------------------------------
 Warning -- This program may not be used in any manner that
 competes with the business of Gaussian, Inc. or will provide
 assistance to any competitor of Gaussian, Inc.  The licensee
 of this program is prohibited from giving any competitor of
 Gaussian, Inc. access to this program.  By using this program,
 the user acknowledges that Gaussian, Inc. is engaged in the
 business of creating and licensing software in the field of
 computational chemistry and represents and warrants to the
 licensee that it is not a competitor of Gaussian, Inc. and that
 it will not use this program in any manner prohibited above.
 ---------------------------------------------------------------
  

 Cite this work as:
 Gaussian 09, Revision C.01,
 M. J. Frisch, G. W. Trucks, H. B. Schlegel, G. E. Scuseria, 
 M. A. Robb, J. R. Cheeseman, G. Scalmani, V. Barone, B. Mennucci, 
 G. A. Petersson, H. Nakatsuji, M. Caricato, X. Li, H. P. Hratchian, 
 A. F. Izmaylov, J. Bloino, G. Zheng, J. L. Sonnenberg, M. Hada, 
 M. Ehara, K. Toyota, R. Fukuda, J. Hasegawa, M. Ishida, T. Nakajima, 
 Y. Honda, O. Kitao, H. Nakai, T. Vreven, J. A. Montgomery, Jr., 
 J. E. Peralta, F. Ogliaro, M. Bearpark, J. J. Heyd, E. Brothers, 
 K. N. Kudin, V. N. Staroverov, T. Keith, R. Kobayashi, J. Normand, 
 K. Raghavachari, A. Rendell, J. C. Burant, S. S. Iyengar, J. Tomasi, 
 M. Cossi, N. Rega, J. M. Millam, M. Klene, J. E. Knox, J. B. Cross, 
 V. Bakken, C. Adamo, J. Jaramillo, R. Gomperts, R. E. Stratmann, 
 O. Yazyev, A. J. Austin, R. Cammi, C. Pomelli, J. W. Ochterski, 
 R. L. Martin, K. Morokuma, V. G. Zakrzewski, G. A. Voth, 
 P. Salvador, J. J. Dannenberg, S. Dapprich, A. D. Daniels, 
 O. Farkas, J. B. Foresman, J. V. Ortiz, J. Cioslowski, 
 and D. J. Fox, Gaussian, Inc., Wallingford CT, 2010.
 
 ******************************************
 Gaussian 09:  AM64L-G09RevC.01 23-Sep-2011
                17-May-2024 
 ******************************************
 %nprocshared=4
 Will use up to    4 processors via shared memory.
 ------------------------------------------------
 # mpw1pw91/6-31+G** nmr scrf=(pcm,solvent=water)
 ------------------------------------------------
 1/38=1/1;
 2/12=2,17=6,18=5,40=1/2;
 3/5=1,6=6,7=111,11=2,16=1,25=1,30=1,70=2201,72=1,74=-7/1,2,8,3;
 4//1;
 5/5=2,38=5,53=1/2;
 8/6=1,10=90,11=11/1;
 10/13=100,45=16/2;
 6/7=2,8=2,9=2,10=2,28=1/1;
 99/9=1/99;
 -------
 comment
 -------
 Charge =  0 Multiplicity = 1
 Symbolic Z-Matrix:
 6                    -2.56611   0.25945  -0.42385 
 6                    -1.29728   0.53019   0.39743 
 7                    -0.58146  -0.79043   0.49678 
 6                    -1.42496  -1.82613  -0.13678 
 6                    -2.83647  -1.22767  -0.1475 
 6                     0.75599  -0.63184  -0.0935 
 6                     1.06831   0.84403   0.15477 
 6                    -0.26546   1.52326  -0.17118 
 1                    -3.39753   0.91339  -0.14327 
 1                    -2.36263   0.40957  -1.49175 
 1                    -1.5756    0.86981   1.4057 
 1                    -1.37532  -2.77269   0.41336 
 1                    -1.09166  -2.02713  -1.16807 
 1                    -3.31179  -1.35305   0.83313 
 1                    -3.48021  -1.69946  -0.89632 
 1                     0.7387   -0.79285  -1.18741 
 1                     1.30019   1.00236   1.21923 
 1                    -0.35909   1.59548  -1.26037 
 8                    -0.38762   2.86078   0.30615 
 1                    -0.32497   2.82783   1.27703 
 8                     2.17571   1.25736  -0.64935 
 1                     2.42499   2.15144  -0.36026 
 6                     1.80604  -1.57954   0.48689 
 1                     1.90746  -1.40285   1.56875 
 1                     1.50185  -2.62228   0.34481 
 8                     3.0653   -1.42488  -0.17707 
 1                     3.20827  -0.46299  -0.26755 
 
                          Input orientation:                          
 ---------------------------------------------------------------------
 Center     Atomic      Atomic             Coordinates (Angstroms)
 Number     Number       Type             X           Y           Z
 ---------------------------------------------------------------------
      1          6           0       -2.566107    0.259446   -0.423848
      2          6           0       -1.297278    0.530191    0.397431
      3          7           0       -0.581459   -0.790434    0.496776
      4          6           0       -1.424957   -1.826132   -0.136782
      5          6           0       -2.836465   -1.227670   -0.147499
      6          6           0        0.755986   -0.631843   -0.093497
      7          6           0        1.068309    0.844032    0.154766
      8          6           0       -0.265461    1.523255   -0.171181
      9          1           0       -3.397535    0.913387   -0.143270
     10          1           0       -2.362630    0.409572   -1.491753
     11          1           0       -1.575602    0.869810    1.405704
     12          1           0       -1.375321   -2.772692    0.413357
     13          1           0       -1.091663   -2.027126   -1.168071
     14          1           0       -3.311787   -1.353048    0.833127
     15          1           0       -3.480214   -1.699459   -0.896319
     16          1           0        0.738699   -0.792854   -1.187409
     17          1           0        1.300187    1.002361    1.219231
     18          1           0       -0.359091    1.595483   -1.260366
     19          8           0       -0.387623    2.860777    0.306150
     20          1           0       -0.324969    2.827825    1.277033
     21          8           0        2.175713    1.257355   -0.649347
     22          1           0        2.424990    2.151442   -0.360258
     23          6           0        1.806041   -1.579538    0.486892
     24          1           0        1.907457   -1.402847    1.568747
     25          1           0        1.501848   -2.622282    0.344810
     26          8           0        3.065305   -1.424881   -0.177069
     27          1           0        3.208275   -0.462994   -0.267554
 ---------------------------------------------------------------------
                    Distance matrix (angstroms):
                    1          2          3          4          5
     1  C    0.000000
     2  C    1.535490   0.000000
     3  N    2.426649   1.505429   0.000000
     4  C    2.394633   2.419492   1.478362   0.000000
     5  C    1.536547   2.399192   2.385648   1.533175   0.000000
     6  C    3.455406   2.409819   1.470487   2.486908   3.641927
     7  C    3.726327   2.398621   2.347378   3.664854   4.430640
     8  C    2.637049   1.540825   2.428822   3.544574   3.765396
     9  H    1.094365   2.202334   3.353051   3.375807   2.213355
    10  H    1.097434   2.172220   2.926915   2.777328   2.170737
    11  H    2.168157   1.099736   2.137962   3.109672   2.898558
    12  H    3.363442   3.303843   2.136942   1.095944   2.199226
    13  H    2.820685   3.005486   2.135751   1.102289   2.173714
    14  H    2.176272   2.791893   2.807910   2.173628   1.096940
    15  H    2.212720   3.377919   3.342128   2.194772   1.094408
    16  H    3.551352   2.899546   2.139930   2.617802   3.748636
    17  H    4.266129   2.764982   2.697526   4.155184   4.894168
    18  H    2.712135   2.182506   2.971464   3.755790   3.917403
    19  O    3.470679   2.503485   3.661318   4.820723   4.787277
    20  H    3.809497   2.645412   3.710308   4.986799   4.978347
    21  O    4.850931   3.699483   3.620640   4.768169   5.616861
    22  H    5.338047   4.130112   4.292770   5.540138   6.256722
    23  C    4.829802   3.753605   2.514545   3.299868   4.698843
    24  H    5.171695   3.921600   2.778286   3.767357   5.047869
    25  H    5.044150   4.216155   2.778296   3.071152   4.583478
    26  O    5.883082   4.815027   3.762377   4.508334   5.905138
    27  H    5.821498   4.661398   3.879884   4.831365   6.094097
                    6          7          8          9         10
     6  C    0.000000
     7  C    1.528852   0.000000
     8  C    2.386176   1.531838   0.000000
     9  H    4.431924   4.476315   3.191020   0.000000
    10  H    3.572874   3.830290   2.717042   1.772925   0.000000
    11  H    3.152597   2.925026   2.151750   2.391790   3.037514
    12  H    3.063104   4.372515   4.475336   4.241033   3.838102
    13  H    2.552515   3.828698   3.779101   3.874775   2.767241
    14  H    4.233857   4.946976   4.308347   2.469298   3.068028
    15  H    4.441815   5.316313   4.609376   2.720456   2.459989
    16  H    1.105833   2.142305   2.721290   4.594553   3.340164
    17  H    2.165648   1.100873   2.157737   4.892128   4.595330
    18  H    2.750629   2.145868   1.095585   3.308368   2.339678
    19  O    3.696749   2.491970   1.425389   3.613015   3.625123
    20  H    3.875064   2.671356   1.950069   3.888830   4.203116
    21  O    2.427687   1.429607   2.501735   5.606739   4.693074
    22  H    3.256288   1.953242   2.769277   5.956648   5.218783
    23  C    1.528919   2.555044   3.788338   5.804221   5.024879
    24  H    2.164114   2.784237   4.038687   6.036463   5.557442
    25  H    2.170316   3.498486   4.535979   6.061611   5.243977
    26  O    2.443123   3.040736   4.448094   6.872914   5.878443
    27  H    2.464250   2.542858   4.002663   6.748822   5.770183
                   11         12         13         14         15
    11  H    0.000000
    12  H    3.780567   0.000000
    13  H    3.905221   1.771227   0.000000
    14  H    2.878069   2.437519   3.064005   0.000000
    15  H    3.940558   2.701417   2.426189   1.771822   0.000000
    16  H    3.852879   3.309273   2.207720   4.561011   4.325031
    17  H    2.884875   4.696680   4.538496   5.193008   5.884524
    18  H    3.019011   4.786964   3.697090   4.668507   4.553085
    19  O    2.565982   5.720403   5.153697   5.156041   5.639663
    20  H    2.326900   5.763243   5.489709   5.157309   5.930879
    21  O    4.294856   5.475442   4.661828   6.254965   6.386960
    22  H    4.556966   6.268009   5.520855   6.827608   7.070236
    23  C    4.275398   3.398542   3.366887   5.134524   5.465542
    24  H    4.162121   3.740058   4.107873   5.271065   5.932245
    25  H    4.773982   2.881913   3.060934   5.002049   5.216603
    26  O    5.413760   4.678072   4.315688   6.457008   6.590640
    27  H    5.240385   5.177615   4.663358   6.671949   6.830818
                   16         17         18         19         20
    16  H    0.000000
    17  H    3.054502   0.000000
    18  H    2.629566   3.041940   0.000000
    19  O    4.104673   2.671354   2.013891   0.000000
    20  H    4.507126   2.444748   2.821033   0.973460   0.000000
    21  O    2.560835   2.079219   2.629241   3.170903   3.525724
    22  H    3.492368   2.253964   2.978320   2.976247   3.271160
    23  C    2.135737   2.731009   4.221548   4.955928   4.958868
    24  H    3.055239   2.505187   4.704371   5.004002   4.792432
    25  H    2.505374   3.734075   4.881519   5.799615   5.823226
    26  O    2.614066   3.310106   4.692826   5.524769   5.629732
    27  H    2.655889   2.828179   4.236638   4.930220   5.069423
                   21         22         23         24         25
    21  O    0.000000
    22  H    0.972164   0.000000
    23  C    3.078256   3.875690   0.000000
    24  H    3.473986   4.076993   1.100870   0.000000
    25  H    4.061284   4.913019   1.095461   1.774701   0.000000
    26  O    2.865102   3.637808   1.431960   2.094987   2.037284
    27  H    2.042437   2.730825   1.944767   2.438740   2.819469
                   26         27
    26  O    0.000000
    27  H    0.976655   0.000000
 Stoichiometry    C8H15NO3
 Framework group  C1[X(C8H15NO3)]
 Deg. of freedom    75
 Full point group                 C1      NOp   1
 Largest Abelian subgroup         C1      NOp   1
 Largest concise Abelian subgroup C1      NOp   1
                         Standard orientation:                         
 ---------------------------------------------------------------------
 Center     Atomic      Atomic             Coordinates (Angstroms)
 Number     Number       Type             X           Y           Z
 ---------------------------------------------------------------------
      1          6           0       -2.566107    0.259446   -0.423848
      2          6           0       -1.297278    0.530191    0.397431
      3          7           0       -0.581459   -0.790434    0.496776
      4          6           0       -1.424957   -1.826132   -0.136782
      5          6           0       -2.836465   -1.227670   -0.147499
      6          6           0        0.755986   -0.631843   -0.093497
      7          6           0        1.068309    0.844032    0.154766
      8          6           0       -0.265461    1.523255   -0.171181
      9          1           0       -3.397535    0.913387   -0.143270
     10          1           0       -2.362630    0.409572   -1.491753
     11          1           0       -1.575602    0.869810    1.405704
     12          1           0       -1.375321   -2.772692    0.413357
     13          1           0       -1.091663   -2.027126   -1.168071
     14          1           0       -3.311787   -1.353048    0.833127
     15          1           0       -3.480214   -1.699459   -0.896319
     16          1           0        0.738699   -0.792854   -1.187409
     17          1           0        1.300187    1.002361    1.219231
     18          1           0       -0.359091    1.595483   -1.260366
     19          8           0       -0.387623    2.860777    0.306150
     20          1           0       -0.324969    2.827825    1.277033
     21          8           0        2.175713    1.257355   -0.649347
     22          1           0        2.424990    2.151442   -0.360258
     23          6           0        1.806041   -1.579538    0.486892
     24          1           0        1.907457   -1.402847    1.568747
     25          1           0        1.501848   -2.622282    0.344810
     26          8           0        3.065305   -1.424881   -0.177069
     27          1           0        3.208275   -0.462994   -0.267554
 ---------------------------------------------------------------------
 Rotational constants (GHZ):      1.2280393      0.8134213      0.5265696
 Standard basis: 6-31+G(d,p) (6D, 7F)
 There are   303 symmetry adapted basis functions of A   symmetry.
 Integral buffers will be    131072 words long.
 Raffenetti 2 integral format.
 Two-electron integral symmetry is turned on.
   303 basis functions,   489 primitive gaussians,   303 cartesian basis functions
    47 alpha electrons       47 beta electrons
       nuclear repulsion energy       796.3202351044 Hartrees.
 NAtoms=   27 NActive=   27 NUniq=   27 SFac= 1.00D+00 NAtFMM=   60 NAOKFM=F Big=F
 ------------------------------------------------------------------------------
 Polarizable Continuum Model (PCM)
 =================================
 Model                : PCM.
 Atomic radii         : UFF (Universal Force Field).
 Polarization charges : Total charges.
 Charge compensation  : None.
 Solution method      : Matrix inversion.
 Cavity type          : Scaled VdW (van der Waals Surface) (Alpha=1.100).
 Cavity algorithm     : GePol (No added spheres)
                        Default sphere list used, NSphG=   27.
                        Lebedev-Laikov grids with approx.  5.0 points / Ang**2.
                        Smoothing algorithm: Karplus/York (Gamma=1.0000).
                        Polarization charges: spherical gaussians, with
                                              point-specific exponents (IZeta= 3).
                        Self-potential: point-specific (ISelfS= 7).
                        Self-field    : sphere-specific E.n sum rule (ISelfD= 2).
 Solvent              : Water, Eps=  78.355300 Eps(inf)=   1.777849
 ------------------------------------------------------------------------------
 One-electron integrals computed using PRISM.
 NBasis=   303 RedAO= T  NBF=   303
 NBsUse=   303 1.00D-06 NBFU=   303
 Harris functional with IExCor=  908 diagonalized for initial guess.
 ExpMin= 4.38D-02 ExpMax= 5.48D+03 ExpMxC= 8.25D+02 IAcc=2 IRadAn=         4 AccDes= 0.00D+00
 HarFok:  IExCor=  908 AccDes= 0.00D+00 IRadAn=         4 IDoV= 1
 ScaDFX=  1.000000  1.000000  1.000000  1.000000
 FoFCou: FMM=F IPFlag=           0 FMFlag=      100000 FMFlg1=           0
         NFxFlg=           0 DoJE=T BraDBF=F KetDBF=T FulRan=T
         Omega=  0.000000  0.000000  1.000000  0.000000  0.000000 ICntrl=     500 IOpCl=  0
         NMat0=    1 NMatS0=    1 NMatT0=    0 NMatD0=    1 NMtDS0=    0 NMtDT0=    0
         I1Cent=           4 NGrid=           0.
 Petite list used in FoFCou.
 Initial guess orbital symmetries:
       Occupied  (A) (A) (A) (A) (A) (A) (A) (A) (A) (A) (A) (A)
                 (A) (A) (A) (A) (A) (A) (A) (A) (A) (A) (A) (A)
                 (A) (A) (A) (A) (A) (A) (A) (A) (A) (A) (A) (A)
                 (A) (A) (A) (A) (A) (A) (A) (A) (A) (A) (A)
       Virtual   (A) (A) (A) (A) (A) (A) (A) (A) (A) (A) (A) (A)
                 (A) (A) (A) (A) (A) (A) (A) (A) (A) (A) (A) (A)
                 (A) (A) (A) (A) (A) (A) (A) (A) (A) (A) (A) (A)
                 (A) (A) (A) (A) (A) (A) (A) (A) (A) (A) (A) (A)
                 (A) (A) (A) (A) (A) (A) (A) (A) (A) (A) (A) (A)
                 (A) (A) (A) (A) (A) (A) (A) (A) (A) (A) (A) (A)
                 (A) (A) (A) (A) (A) (A) (A) (A) (A) (A) (A) (A)
                 (A) (A) (A) (A) (A) (A) (A) (A) (A) (A) (A) (A)
                 (A) (A) (A) (A) (A) (A) (A) (A) (A) (A) (A) (A)
                 (A) (A) (A) (A) (A) (A) (A) (A) (A) (A) (A) (A)
                 (A) (A) (A) (A) (A) (A) (A) (A) (A) (A) (A) (A)
                 (A) (A) (A) (A) (A) (A) (A) (A) (A) (A) (A) (A)
                 (A) (A) (A) (A) (A) (A) (A) (A) (A) (A) (A) (A)
                 (A) (A) (A) (A) (A) (A) (A) (A) (A) (A) (A) (A)
                 (A) (A) (A) (A) (A) (A) (A) (A) (A) (A) (A) (A)
                 (A) (A) (A) (A) (A) (A) (A) (A) (A) (A) (A) (A)
                 (A) (A) (A) (A) (A) (A) (A) (A) (A) (A) (A) (A)
                 (A) (A) (A) (A) (A) (A) (A) (A) (A) (A) (A) (A)
                 (A) (A) (A) (A) (A) (A) (A) (A) (A) (A) (A) (A)
                 (A) (A) (A) (A) (A) (A) (A) (A) (A) (A) (A) (A)
                 (A) (A) (A) (A) (A) (A) (A) (A) (A) (A) (A) (A)
                 (A) (A) (A) (A)
 The electronic state of the initial guess is 1-A.
 Requested convergence on RMS density matrix=1.00D-08 within 128 cycles.
 Requested convergence on MAX density matrix=1.00D-06.
 Requested convergence on             energy=1.00D-06.
 No special actions if energy rises.
 Error on total polarization charges =  0.01478
 SCF Done:  E(RmPW1PW91) =  -594.200026634     A.U. after   13 cycles
             Convg  =    0.6687D-08             -V/T =  2.0094
 Range of M.O.s used for correlation:     1   303
 NBasis=   303 NAE=    47 NBE=    47 NFC=     0 NFV=     0
 NROrb=    303 NOA=    47 NOB=    47 NVA=   256 NVB=   256

 **** Warning!!: The largest alpha MO coefficient is  0.69156948D+02

 NEqPCM:  Using equilibrium solvation (IEInf=0, Eps=  78.3553, EpsInf=   1.7778)
          Differentiating once with respect to magnetic field using GIAOs.
          Electric field/nuclear overlap derivatives assumed to be zero.
 FoFCou: FMM=F IPFlag=           0 FMFlag=    10101102 FMFlg1=           0
         NFxFlg=    40000000 DoJE=F BraDBF=F KetDBF=T FulRan=T
         Omega=  0.000000  0.000000  1.000000  0.000000  0.000000 ICntrl=    6100 IOpCl=  0
         NMat0=    1 NMatS0=    1 NMatT0=    0 NMatD0=    1 NMtDS0=    0 NMtDT0=    0
         I1Cent=           7 NGrid=        1864.
 Symmetry not used in FoFCou.
          There are     3 degrees of freedom in the 1st order CPHF.  IDoFFX=0.
      3 vectors produced by pass  0 Test12= 4.01D-13 3.33D-08 XBig12= 3.67D+01 8.81D-01.
 AX will form     3 AO Fock derivatives at one time.
      3 vectors produced by pass  1 Test12= 4.01D-13 3.33D-08 XBig12= 9.94D-02 5.71D-02.
      3 vectors produced by pass  2 Test12= 4.01D-13 3.33D-08 XBig12= 1.89D-04 2.40D-03.
      3 vectors produced by pass  3 Test12= 4.01D-13 3.33D-08 XBig12= 7.44D-07 1.56D-04.
      3 vectors produced by pass  4 Test12= 4.01D-13 3.33D-08 XBig12= 2.49D-09 9.16D-06.
      3 vectors produced by pass  5 Test12= 4.01D-13 3.33D-08 XBig12= 7.09D-12 4.99D-07.
 Inverted reduced A of dimension    18 with in-core refinement.
 Calculating GIAO nuclear magnetic shielding tensors.
 SCF GIAO Magnetic shielding tensor (ppm):
      1  C    Isotropic =   162.4261   Anisotropy =    25.0972
   XX=   166.6678   YX=    15.5911   ZX=    10.3167
   XY=     5.1534   YY=   166.0381   ZY=    -0.9895
   XZ=    15.4557   YZ=    -6.1486   ZZ=   154.5725
   Eigenvalues:   142.9799   165.1409   179.1576
      2  C    Isotropic =   125.1291   Anisotropy =    52.6032
   XX=   120.9632   YX=    -1.7757   ZX=     3.6494
   XY=    -9.9244   YY=   159.2396   ZY=    -3.1038
   XZ=     2.1193   YZ=    -0.7610   ZZ=    95.1846
   Eigenvalues:    94.8399   120.3495   160.1979
      3  N    Isotropic =   202.2821   Anisotropy =    77.3015
   XX=   252.0957   YX=    -9.1558   ZX=     6.7029
   XY=    -3.5381   YY=   228.0617   ZY=     6.8109
   XZ=     4.6129   YZ=     3.0370   ZZ=   126.6888
   Eigenvalues:   126.1674   226.8623   253.8164
      4  C    Isotropic =   139.1407   Anisotropy =    58.4034
   XX=   149.8970   YX=    17.7606   ZX=    15.4361
   XY=    25.5549   YY=   141.5566   ZY=    18.5016
   XZ=    10.1016   YZ=    22.5540   ZZ=   125.9684
   Eigenvalues:   111.6712   127.6746   178.0763
      5  C    Isotropic =   164.4777   Anisotropy =    23.1101
   XX=   178.1148   YX=     0.6993   ZX=    11.6591
   XY=     0.5006   YY=   179.6490   ZY=     1.8964
   XZ=     0.5019   YZ=    -4.2941   ZZ=   135.6692
   Eigenvalues:   134.7794   178.7693   179.8844
      6  C    Isotropic =   126.7553   Anisotropy =    52.1785
   XX=   150.0428   YX=    20.4539   ZX=   -14.1133
   XY=     2.8900   YY=   109.0196   ZY=    -4.7690
   XZ=   -23.3898   YZ=     2.9972   ZZ=   121.2035
   Eigenvalues:   104.3674   114.3576   161.5410
      7  C    Isotropic =   108.4590   Anisotropy =    25.8475
   XX=   123.1293   YX=    -1.7269   ZX=   -17.1223
   XY=     1.6843   YY=   114.9742   ZY=   -14.8103
   XZ=    -0.6846   YZ=    -3.2294   ZZ=    87.2736
   Eigenvalues:    82.7793   116.9071   125.6907
      8  C    Isotropic =   111.3879   Anisotropy =    19.9731
   XX=   118.3738   YX=    -3.4920   ZX=    -3.3293
   XY=    -1.1650   YY=   120.8980   ZY=    12.3176
   XZ=    -3.7016   YZ=     3.2232   ZZ=    94.8920
   Eigenvalues:    92.4476   117.0129   124.7034
      9  H    Isotropic =    29.4943   Anisotropy =     9.6229
   XX=    33.0809   YX=    -3.6066   ZX=    -0.2421
   XY=    -4.2256   YY=    30.3862   ZY=     0.6039
   XZ=    -0.4315   YZ=     0.5658   ZZ=    25.0159
   Eigenvalues:    24.9516    27.6218    35.9096
     10  H    Isotropic =    29.9972   Anisotropy =     7.9637
   XX=    28.1866   YX=     0.8491   ZX=     2.0787
   XY=     1.3933   YY=    27.8590   ZY=    -2.6908
   XZ=     1.5918   YZ=    -2.9670   ZZ=    33.9460
   Eigenvalues:    25.5512    29.1341    35.3063
     11  H    Isotropic =    28.4980   Anisotropy =     7.0380
   XX=    27.4591   YX=    -2.2100   ZX=    -1.6406
   XY=    -1.3193   YY=    28.8195   ZY=     3.4350
   XZ=    -0.9005   YZ=     3.3014   ZZ=    29.2155
   Eigenvalues:    25.5113    26.7928    33.1901
     12  H    Isotropic =    28.4372   Anisotropy =     9.4522
   XX=    27.0706   YX=     1.7448   ZX=     0.7493
   XY=     0.9648   YY=    33.9331   ZY=    -2.6399
   XZ=     0.9291   YZ=    -2.4957   ZZ=    24.3079
   Eigenvalues:    23.3082    27.2647    34.7387
     13  H    Isotropic =    29.0999   Anisotropy =     8.0124
   XX=    28.4073   YX=     0.2123   ZX=     1.1621
   XY=     0.1139   YY=    29.0700   ZY=     5.2759
   XZ=    -1.0063   YZ=     4.6769   ZZ=    29.8224
   Eigenvalues:    24.4544    28.4038    34.4415
     14  H    Isotropic =    29.6254   Anisotropy =    10.7458
   XX=    31.4229   YX=     1.7511   ZX=    -4.8147
   XY=     1.7256   YY=    27.7889   ZY=    -2.5941
   XZ=    -5.3399   YZ=    -2.9669   ZZ=    29.6644
   Eigenvalues:    24.8840    27.2030    36.7893
     15  H    Isotropic =    29.4834   Anisotropy =    11.5494
   XX=    32.0486   YX=     3.6856   ZX=     4.5007
   XY=     4.0672   YY=    29.0382   ZY=     2.8974
   XZ=     3.9325   YZ=     2.2542   ZZ=    27.3634
   Eigenvalues:    24.8493    26.4179    37.1830
     16  H    Isotropic =    28.8471   Anisotropy =     3.7890
   XX=    30.1990   YX=    -1.4491   ZX=    -1.4629
   XY=    -0.3627   YY=    27.4294   ZY=     0.6093
   XZ=    -1.0495   YZ=     1.2582   ZZ=    28.9128
   Eigenvalues:    26.9469    28.2213    31.3731
     17  H    Isotropic =    27.6199   Anisotropy =     2.4658
   XX=    28.7721   YX=     1.1161   ZX=    -1.2860
   XY=     0.5629   YY=    25.9420   ZY=    -0.6660
   XZ=     0.2242   YZ=     0.4503   ZZ=    28.1456
   Eigenvalues:    25.7111    27.8848    29.2637
     18  H    Isotropic =    27.8931   Anisotropy =     2.3405
   XX=    26.3416   YX=     0.6082   ZX=     0.4229
   XY=     0.7911   YY=    29.2873   ZY=     0.5322
   XZ=     0.3388   YZ=    -0.4847   ZZ=    28.0503
   Eigenvalues:    26.1145    28.1113    29.4534
     19  O    Isotropic =   291.6433   Anisotropy =    93.9912
   XX=   246.3651   YX=     3.0506   ZX=    12.7715
   XY=     1.4470   YY=   278.7481   ZY=     2.2213
   XZ=     6.3909   YZ=    30.5237   ZZ=   349.8165
   Eigenvalues:   245.4673   275.1584   354.3041
     20  H    Isotropic =    30.8588   Anisotropy =    16.1554
   XX=    22.9385   YX=    -0.9884   ZX=     0.7576
   XY=    -0.0343   YY=    29.1638   ZY=     4.3868
   XZ=     0.6205   YZ=     3.1515   ZZ=    40.4741
   Eigenvalues:    22.8331    28.1142    41.6291
     21  O    Isotropic =   295.1939   Anisotropy =    37.9911
   XX=   279.5817   YX=     8.5966   ZX=     5.0767
   XY=    25.7777   YY=   308.7248   ZY=   -11.1001
   XZ=   -17.7345   YZ=    -3.7858   ZZ=   297.2753
   Eigenvalues:   271.3355   293.7250   320.5213
     22  H    Isotropic =    28.9496   Anisotropy =    19.2851
   XX=    27.6608   YX=     7.6853   ZX=    -1.5160
   XY=     6.8629   YY=    37.6046   ZY=     4.2895
   XZ=    -0.6017   YZ=     2.8953   ZZ=    21.5835
   Eigenvalues:    19.6260    25.4165    41.8063
     23  C    Isotropic =   126.5177   Anisotropy =    57.2191
   XX=   156.4942   YX=    -2.8885   ZX=   -18.9903
   XY=    -6.4747   YY=   103.7261   ZY=    -5.5450
   XZ=   -19.3211   YZ=    -6.5753   ZZ=   119.3327
   Eigenvalues:    99.1333   115.7560   164.6637
     24  H    Isotropic =    27.8926   Anisotropy =     4.2678
   XX=    28.6418   YX=    -0.6602   ZX=    -1.4205
   XY=    -0.7428   YY=    24.7658   ZY=    -1.8954
   XZ=     0.6702   YZ=    -1.3872   ZZ=    30.2702
   Eigenvalues:    24.1785    28.7615    30.7378
     25  H    Isotropic =    27.7842   Anisotropy =     4.7125
   XX=    29.6646   YX=     0.9897   ZX=    -0.2896
   XY=    -0.6965   YY=    30.6895   ZY=    -0.8747
   XZ=    -1.3139   YZ=    -1.4899   ZZ=    22.9986
   Eigenvalues:    22.7350    29.6917    30.9259
     26  O    Isotropic =   314.2688   Anisotropy =    40.4812
   XX=   305.1935   YX=   -10.2748   ZX=     1.1143
   XY=     1.7885   YY=   338.7258   ZY=   -12.2733
   XZ=     2.7186   YZ=    -5.8070   ZZ=   298.8870
   Eigenvalues:   296.8112   304.7389   341.2563
     27  H    Isotropic =    28.3777   Anisotropy =    19.4809
   XX=    27.4375   YX=     0.9022   ZX=    -2.6878
   XY=     0.3748   YY=    40.8138   ZY=    -3.1274
   XZ=    -2.9067   YZ=    -3.6826   ZZ=    16.8817
   Eigenvalues:    15.7870    27.9810    41.3649
 End of Minotr Frequency-dependent properties file   721 does not exist.
 End of Minotr Frequency-dependent properties file   722 does not exist.

 **********************************************************************

            Population analysis using the SCF density.

 **********************************************************************

 Orbital symmetries:
       Occupied  (A) (A) (A) (A) (A) (A) (A) (A) (A) (A) (A) (A)
                 (A) (A) (A) (A) (A) (A) (A) (A) (A) (A) (A) (A)
                 (A) (A) (A) (A) (A) (A) (A) (A) (A) (A) (A) (A)
                 (A) (A) (A) (A) (A) (A) (A) (A) (A) (A) (A)
       Virtual   (A) (A) (A) (A) (A) (A) (A) (A) (A) (A) (A) (A)
                 (A) (A) (A) (A) (A) (A) (A) (A) (A) (A) (A) (A)
                 (A) (A) (A) (A) (A) (A) (A) (A) (A) (A) (A) (A)
                 (A) (A) (A) (A) (A) (A) (A) (A) (A) (A) (A) (A)
                 (A) (A) (A) (A) (A) (A) (A) (A) (A) (A) (A) (A)
                 (A) (A) (A) (A) (A) (A) (A) (A) (A) (A) (A) (A)
                 (A) (A) (A) (A) (A) (A) (A) (A) (A) (A) (A) (A)
                 (A) (A) (A) (A) (A) (A) (A) (A) (A) (A) (A) (A)
                 (A) (A) (A) (A) (A) (A) (A) (A) (A) (A) (A) (A)
                 (A) (A) (A) (A) (A) (A) (A) (A) (A) (A) (A) (A)
                 (A) (A) (A) (A) (A) (A) (A) (A) (A) (A) (A) (A)
                 (A) (A) (A) (A) (A) (A) (A) (A) (A) (A) (A) (A)
                 (A) (A) (A) (A) (A) (A) (A) (A) (A) (A) (A) (A)
                 (A) (A) (A) (A) (A) (A) (A) (A) (A) (A) (A) (A)
                 (A) (A) (A) (A) (A) (A) (A) (A) (A) (A) (A) (A)
                 (A) (A) (A) (A) (A) (A) (A) (A) (A) (A) (A) (A)
                 (A) (A) (A) (A) (A) (A) (A) (A) (A) (A) (A) (A)
                 (A) (A) (A) (A) (A) (A) (A) (A) (A) (A) (A) (A)
                 (A) (A) (A) (A) (A) (A) (A) (A) (A) (A) (A) (A)
                 (A) (A) (A) (A) (A) (A) (A) (A) (A) (A) (A) (A)
                 (A) (A) (A) (A) (A) (A) (A) (A) (A) (A) (A) (A)
                 (A) (A) (A) (A)
 The electronic state is 1-A.
 Alpha  occ. eigenvalues --  -19.27251 -19.26395 -19.24868 -14.41725 -10.31081
 Alpha  occ. eigenvalues --  -10.30641 -10.29412 -10.28427 -10.28190 -10.27037
 Alpha  occ. eigenvalues --  -10.24808 -10.24784  -1.08143  -1.06316  -1.04898
 Alpha  occ. eigenvalues --   -0.97076  -0.83396  -0.79607  -0.75136  -0.71717
 Alpha  occ. eigenvalues --   -0.67128  -0.62459  -0.60745  -0.58694  -0.56227
 Alpha  occ. eigenvalues --   -0.54703  -0.51016  -0.50302  -0.48727  -0.47540
 Alpha  occ. eigenvalues --   -0.45419  -0.45108  -0.43516  -0.43293  -0.40722
 Alpha  occ. eigenvalues --   -0.40242  -0.39380  -0.37601  -0.36779  -0.35942
 Alpha  occ. eigenvalues --   -0.35267  -0.34758  -0.33423  -0.33022  -0.29469
 Alpha  occ. eigenvalues --   -0.28266  -0.23488
 Alpha virt. eigenvalues --    0.00551   0.01450   0.01951   0.02481   0.03655
 Alpha virt. eigenvalues --    0.04309   0.04648   0.04903   0.04995   0.06542
 Alpha virt. eigenvalues --    0.07632   0.08039   0.08999   0.09358   0.09550
 Alpha virt. eigenvalues --    0.09853   0.11171   0.11883   0.12227   0.12587
 Alpha virt. eigenvalues --    0.13021   0.13862   0.14075   0.14760   0.14893
 Alpha virt. eigenvalues --    0.15986   0.16596   0.17004   0.17960   0.18572
 Alpha virt. eigenvalues --    0.18747   0.19283   0.19438   0.20301   0.21028
 Alpha virt. eigenvalues --    0.21052   0.22041   0.22490   0.23170   0.23878
 Alpha virt. eigenvalues --    0.24008   0.24643   0.25047   0.25247   0.25712
 Alpha virt. eigenvalues --    0.26083   0.26742   0.28032   0.28352   0.28873
 Alpha virt. eigenvalues --    0.29273   0.30049   0.30519   0.31339   0.31852
 Alpha virt. eigenvalues --    0.32383   0.32697   0.33252   0.33718   0.34396
 Alpha virt. eigenvalues --    0.34822   0.36240   0.36700   0.37033   0.37507
 Alpha virt. eigenvalues --    0.38190   0.38624   0.39333   0.39934   0.40751
 Alpha virt. eigenvalues --    0.40992   0.41976   0.43230   0.45223   0.45449
 Alpha virt. eigenvalues --    0.45819   0.61955   0.65482   0.66138   0.67228
 Alpha virt. eigenvalues --    0.69368   0.70892   0.71709   0.72628   0.73552
 Alpha virt. eigenvalues --    0.75479   0.76942   0.78873   0.79331   0.81440
 Alpha virt. eigenvalues --    0.81976   0.84277   0.85298   0.86739   0.87578
 Alpha virt. eigenvalues --    0.89452   0.91353   0.92121   0.95110   0.96096
 Alpha virt. eigenvalues --    0.98167   0.99085   1.01690   1.03456   1.05230
 Alpha virt. eigenvalues --    1.05739   1.06587   1.06978   1.09536   1.10299
 Alpha virt. eigenvalues --    1.11216   1.12251   1.13089   1.14024   1.15045
 Alpha virt. eigenvalues --    1.18558   1.19269   1.19984   1.23002   1.24452
 Alpha virt. eigenvalues --    1.26244   1.26752   1.29056   1.29836   1.30973
 Alpha virt. eigenvalues --    1.32998   1.35509   1.37287   1.38214   1.41382
 Alpha virt. eigenvalues --    1.41661   1.45372   1.46539   1.49372   1.50860
 Alpha virt. eigenvalues --    1.53490   1.55630   1.58584   1.59375   1.61393
 Alpha virt. eigenvalues --    1.61819   1.63091   1.65493   1.68344   1.70134
 Alpha virt. eigenvalues --    1.71162   1.74143   1.75500   1.76674   1.81172
 Alpha virt. eigenvalues --    1.81867   1.82337   1.83823   1.86466   1.86955
 Alpha virt. eigenvalues --    1.87651   1.88838   1.90881   1.91570   1.94424
 Alpha virt. eigenvalues --    1.96148   1.98350   2.00103   2.01790   2.02232
 Alpha virt. eigenvalues --    2.05379   2.05915   2.06668   2.08273   2.10160
 Alpha virt. eigenvalues --    2.11840   2.13590   2.14882   2.16225   2.17987
 Alpha virt. eigenvalues --    2.19955   2.21222   2.25210   2.26510   2.28781
 Alpha virt. eigenvalues --    2.28862   2.32494   2.34454   2.38022   2.39369
 Alpha virt. eigenvalues --    2.40142   2.41687   2.43722   2.44556   2.46086
 Alpha virt. eigenvalues --    2.46743   2.48983   2.50632   2.51668   2.53436
 Alpha virt. eigenvalues --    2.56115   2.57237   2.60610   2.61884   2.63213
 Alpha virt. eigenvalues --    2.64119   2.66233   2.67039   2.67856   2.69342
 Alpha virt. eigenvalues --    2.70733   2.72687   2.76167   2.77794   2.78251
 Alpha virt. eigenvalues --    2.79136   2.80813   2.83120   2.84952   2.85759
 Alpha virt. eigenvalues --    2.87090   2.89091   2.91198   2.92322   2.93514
 Alpha virt. eigenvalues --    2.95574   2.99190   3.00529   3.02013   3.03995
 Alpha virt. eigenvalues --    3.04985   3.09454   3.15087   3.16237   3.31249
 Alpha virt. eigenvalues --    3.32741   3.35925   3.36295   3.39287   3.42975
 Alpha virt. eigenvalues --    3.47941   3.50274   3.52455   3.54175   3.55940
 Alpha virt. eigenvalues --    3.56159   3.57521   3.60089   3.65416   4.30454
 Alpha virt. eigenvalues --    4.36652   4.38903   4.43627   4.47432   4.49592
 Alpha virt. eigenvalues --    4.57142   4.67694   4.75324   4.77914   4.83392
 Alpha virt. eigenvalues --    4.94141
          Condensed to atoms (all electrons):
              1          2          3          4          5          6
     1  C    6.037931  -1.153784   0.194113  -0.263884   0.200956   0.185184
     2  C   -1.153784   9.857273  -0.635794  -0.243756   0.217940  -0.318025
     3  N    0.194113  -0.635794   7.451013   0.229356  -0.191900  -0.014678
     4  C   -0.263884  -0.243756   0.229356   5.649562   0.126384  -0.172942
     5  C    0.200956   0.217940  -0.191900   0.126384   5.538024   0.000889
     6  C    0.185184  -0.318025  -0.014678  -0.172942   0.000889   8.515894
     7  C   -0.208941   0.777367  -0.223473  -0.110358   0.051293  -1.147155
     8  C    0.335306  -1.745654   0.169304   0.159057  -0.144356  -0.198827
     9  H    0.393083  -0.074460   0.014432   0.029815  -0.024230   0.002194
    10  H    0.494783  -0.213391   0.029944   0.013465  -0.061436   0.023347
    11  H    0.087653   0.087496   0.014551   0.011100  -0.015398   0.049567
    12  H    0.041098  -0.012470  -0.039428   0.380963  -0.034175  -0.002373
    13  H   -0.003358   0.013589  -0.097263   0.413224  -0.033345   0.021097
    14  H   -0.024427  -0.042331   0.012803  -0.031061   0.389206   0.011045
    15  H   -0.059315   0.042157   0.005901  -0.024866   0.381158  -0.005960
    16  H   -0.022370   0.073256  -0.067505   0.013646   0.006045   0.222434
    17  H    0.008586  -0.035854   0.043507   0.008555  -0.000398  -0.157387
    18  H    0.058052  -0.274178   0.048035   0.007140  -0.000661   0.027674
    19  O   -0.008677  -0.004301   0.021543  -0.003765   0.003270   0.001600
    20  H    0.021818  -0.135557   0.008828   0.000500   0.000368   0.009392
    21  O   -0.004839   0.062049   0.003870  -0.002752   0.002320  -0.108482
    22  H    0.000279   0.003930  -0.002478   0.000123  -0.000167   0.055744
    23  C    0.060022  -0.275642   0.130608  -0.029856   0.001086  -0.582807
    24  H    0.000258   0.000675   0.017509   0.007075  -0.003141  -0.086575
    25  H    0.001579   0.001112  -0.008641   0.007279   0.004071  -0.060586
    26  O    0.000106   0.006668  -0.002044   0.002532  -0.001907  -0.021347
    27  H    0.000628  -0.001251   0.001789   0.000927   0.000111  -0.035338
              7          8          9         10         11         12
     1  C   -0.208941   0.335306   0.393083   0.494783   0.087653   0.041098
     2  C    0.777367  -1.745654  -0.074460  -0.213391   0.087496  -0.012470
     3  N   -0.223473   0.169304   0.014432   0.029944   0.014551  -0.039428
     4  C   -0.110358   0.159057   0.029815   0.013465   0.011100   0.380963
     5  C    0.051293  -0.144356  -0.024230  -0.061436  -0.015398  -0.034175
     6  C   -1.147155  -0.198827   0.002194   0.023347   0.049567  -0.002373
     7  C    6.903796  -0.410715  -0.003714  -0.013811  -0.063508   0.000136
     8  C   -0.410715   6.985199   0.003002   0.040136   0.062198  -0.001753
     9  H   -0.003714   0.003002   0.510016  -0.023742  -0.003261  -0.000092
    10  H   -0.013811   0.040136  -0.023742   0.528191   0.004349  -0.000036
    11  H   -0.063508   0.062198  -0.003261   0.004349   0.576687   0.000308
    12  H    0.000136  -0.001753  -0.000092  -0.000036   0.000308   0.543607
    13  H    0.006819   0.004654  -0.000156   0.001069  -0.000498  -0.041516
    14  H   -0.003319   0.015095  -0.004762   0.004172   0.001034  -0.006058
    15  H    0.000948   0.002701   0.000265  -0.005087  -0.000093   0.000995
    16  H    0.053320  -0.055415  -0.000014  -0.000366  -0.000651  -0.000813
    17  H    0.435992  -0.038672   0.000004  -0.000009   0.000857   0.000017
    18  H   -0.138660   0.581840   0.000391   0.003697   0.004608   0.000013
    19  O   -0.094785   0.218946   0.000869   0.001520   0.004946   0.000046
    20  H   -0.077420   0.158178   0.000049   0.000031   0.004983   0.000000
    21  O    0.301692  -0.191465   0.000016  -0.000279  -0.000611   0.000027
    22  H   -0.022515  -0.020941   0.000000   0.000001   0.000002   0.000000
    23  C    0.134889   0.086688   0.000554   0.001945   0.014148   0.003651
    24  H   -0.035385  -0.001443   0.000000   0.000000  -0.000036   0.000113
    25  H   -0.004700  -0.000285   0.000000   0.000001   0.000009  -0.000455
    26  O   -0.044970  -0.008150  -0.000001  -0.000012  -0.000065   0.000042
    27  H    0.012854   0.012932   0.000000   0.000000   0.000001  -0.000001
             13         14         15         16         17         18
     1  C   -0.003358  -0.024427  -0.059315  -0.022370   0.008586   0.058052
     2  C    0.013589  -0.042331   0.042157   0.073256  -0.035854  -0.274178
     3  N   -0.097263   0.012803   0.005901  -0.067505   0.043507   0.048035
     4  C    0.413224  -0.031061  -0.024866   0.013646   0.008555   0.007140
     5  C   -0.033345   0.389206   0.381158   0.006045  -0.000398  -0.000661
     6  C    0.021097   0.011045  -0.005960   0.222434  -0.157387   0.027674
     7  C    0.006819  -0.003319   0.000948   0.053320   0.435992  -0.138660
     8  C    0.004654   0.015095   0.002701  -0.055415  -0.038672   0.581840
     9  H   -0.000156  -0.004762   0.000265  -0.000014   0.000004   0.000391
    10  H    0.001069   0.004172  -0.005087  -0.000366  -0.000009   0.003697
    11  H   -0.000498   0.001034  -0.000093  -0.000651   0.000857   0.004608
    12  H   -0.041516  -0.006058   0.000995  -0.000813   0.000017   0.000013
    13  H    0.569726   0.003953  -0.005068   0.011391  -0.000026  -0.000192
    14  H    0.003953   0.519386  -0.023947  -0.000018  -0.000003  -0.000004
    15  H   -0.005068  -0.023947   0.510777  -0.000020   0.000000  -0.000017
    16  H    0.011391  -0.000018  -0.000020   0.572651   0.004081   0.000274
    17  H   -0.000026  -0.000003   0.000000   0.004081   0.548512   0.004353
    18  H   -0.000192  -0.000004  -0.000017   0.000274   0.004353   0.532615
    19  O   -0.000160   0.000024   0.000005  -0.001180  -0.007747  -0.055990
    20  H    0.000000   0.000000   0.000000  -0.000001   0.004186   0.006798
    21  O   -0.000138  -0.000008  -0.000007   0.005746  -0.049126  -0.003547
    22  H    0.000001   0.000000   0.000000   0.000061  -0.005423  -0.000026
    23  C   -0.017891  -0.001033  -0.000088   0.007118   0.049958   0.016985
    24  H    0.000028  -0.000001   0.000000   0.004769   0.003567  -0.000004
    25  H    0.000105   0.000002   0.000000  -0.005297   0.000102   0.000006
    26  O    0.000081  -0.000003  -0.000001   0.009142  -0.000231  -0.000193
    27  H    0.000002   0.000000   0.000000  -0.001834  -0.000013   0.000010
             19         20         21         22         23         24
     1  C   -0.008677   0.021818  -0.004839   0.000279   0.060022   0.000258
     2  C   -0.004301  -0.135557   0.062049   0.003930  -0.275642   0.000675
     3  N    0.021543   0.008828   0.003870  -0.002478   0.130608   0.017509
     4  C   -0.003765   0.000500  -0.002752   0.000123  -0.029856   0.007075
     5  C    0.003270   0.000368   0.002320  -0.000167   0.001086  -0.003141
     6  C    0.001600   0.009392  -0.108482   0.055744  -0.582807  -0.086575
     7  C   -0.094785  -0.077420   0.301692  -0.022515   0.134889  -0.035385
     8  C    0.218946   0.158178  -0.191465  -0.020941   0.086688  -0.001443
     9  H    0.000869   0.000049   0.000016   0.000000   0.000554   0.000000
    10  H    0.001520   0.000031  -0.000279   0.000001   0.001945   0.000000
    11  H    0.004946   0.004983  -0.000611   0.000002   0.014148  -0.000036
    12  H    0.000046   0.000000   0.000027   0.000000   0.003651   0.000113
    13  H   -0.000160   0.000000  -0.000138   0.000001  -0.017891   0.000028
    14  H    0.000024   0.000000  -0.000008   0.000000  -0.001033  -0.000001
    15  H    0.000005   0.000000  -0.000007   0.000000  -0.000088   0.000000
    16  H   -0.001180  -0.000001   0.005746   0.000061   0.007118   0.004769
    17  H   -0.007747   0.004186  -0.049126  -0.005423   0.049958   0.003567
    18  H   -0.055990   0.006798  -0.003547  -0.000026   0.016985  -0.000004
    19  O    8.203132   0.251456   0.001339   0.004954  -0.002065  -0.000086
    20  H    0.251456   0.368704  -0.002490   0.000168   0.004847   0.000002
    21  O    0.001339  -0.002490   8.311036   0.240914   0.008369   0.002660
    22  H    0.004954   0.000168   0.240914   0.356186  -0.010941   0.000025
    23  C   -0.002065   0.004847   0.008369  -0.010941   5.488055   0.454095
    24  H   -0.000086   0.000002   0.002660   0.000025   0.454095   0.573508
    25  H    0.000034   0.000000  -0.001214   0.000008   0.448276  -0.040546
    26  O    0.000048  -0.000009  -0.010337   0.000758   0.209966  -0.051143
    27  H    0.000068  -0.000001   0.011247  -0.000375  -0.007732  -0.003712
             25         26         27
     1  C    0.001579   0.000106   0.000628
     2  C    0.001112   0.006668  -0.001251
     3  N   -0.008641  -0.002044   0.001789
     4  C    0.007279   0.002532   0.000927
     5  C    0.004071  -0.001907   0.000111
     6  C   -0.060586  -0.021347  -0.035338
     7  C   -0.004700  -0.044970   0.012854
     8  C   -0.000285  -0.008150   0.012932
     9  H    0.000000  -0.000001   0.000000
    10  H    0.000001  -0.000012   0.000000
    11  H    0.000009  -0.000065   0.000001
    12  H   -0.000455   0.000042  -0.000001
    13  H    0.000105   0.000081   0.000002
    14  H    0.000002  -0.000003   0.000000
    15  H    0.000000  -0.000001   0.000000
    16  H   -0.005297   0.009142  -0.001834
    17  H    0.000102  -0.000231  -0.000013
    18  H    0.000006  -0.000193   0.000010
    19  O    0.000034   0.000048   0.000068
    20  H    0.000000  -0.000009  -0.000001
    21  O   -0.001214  -0.010337   0.011247
    22  H    0.000008   0.000758  -0.000375
    23  C    0.448276   0.209966  -0.007732
    24  H   -0.040546  -0.051143  -0.003712
    25  H    0.547168  -0.058254   0.006047
    26  O   -0.058254   8.269291   0.252723
    27  H    0.006047   0.252723   0.359609
 Mulliken atomic charges:
              1
     1  C   -0.371840
     2  C    0.022936
     3  N   -0.113903
     4  C   -0.177465
     5  C   -0.412006
     6  C   -0.213578
     7  C   -0.075678
     8  C   -0.017559
     9  H    0.179742
    10  H    0.171518
    11  H    0.159624
    12  H    0.168153
    13  H    0.153875
    14  H    0.180257
    15  H    0.179561
    16  H    0.171548
    17  H    0.182612
    18  H    0.180981
    19  O   -0.535045
    20  H    0.375172
    21  O   -0.575990
    22  H    0.399711
    23  C   -0.193206
    24  H    0.157787
    25  H    0.164176
    26  O   -0.552692
    27  H    0.391309
 Sum of Mulliken atomic charges =   0.00000
 Mulliken charges with hydrogens summed into heavy atoms:
              1
     1  C   -0.020580
     2  C    0.182560
     3  N   -0.113903
     4  C    0.144563
     5  C   -0.052188
     6  C   -0.042030
     7  C    0.106934
     8  C    0.163423
    19  O   -0.159873
    21  O   -0.176279
    23  C    0.128757
    26  O   -0.161383
 Sum of Mulliken charges with hydrogens summed into heavy atoms =   0.00000
 Electronic spatial extent (au):  <R**2>=           2180.6865
 Charge=              0.0000 electrons
 Dipole moment (field-independent basis, Debye):
    X=             -3.0728    Y=              1.5738    Z=              1.8888  Tot=              3.9353
 Quadrupole moment (field-independent basis, Debye-Ang):
   XX=            -79.0963   YY=            -77.1127   ZZ=            -72.0026
   XY=             12.9872   XZ=              4.8988   YZ=              5.3175
 Traceless Quadrupole moment (field-independent basis, Debye-Ang):
   XX=             -3.0257   YY=             -1.0422   ZZ=              4.0680
   XY=             12.9872   XZ=              4.8988   YZ=              5.3175
 Octapole moment (field-independent basis, Debye-Ang**2):
  XXX=            -28.2122  YYY=             -7.3210  ZZZ=              3.4354  XYY=              7.0789
  XXY=             38.2731  XXZ=              9.1245  XZZ=             -0.3350  YZZ=             13.8586
  YYZ=             13.4061  XYZ=             -3.7578
 Hexadecapole moment (field-independent basis, Debye-Ang**3):
 XXXX=          -1670.5820 YYYY=          -1076.7994 ZZZZ=           -190.7424 XXXY=            137.9982
 XXXZ=              8.8128 YYYX=             74.7746 YYYZ=             29.9255 ZZZX=              2.4702
 ZZZY=             20.2803 XXYY=           -451.2484 XXZZ=           -300.1704 YYZZ=           -180.0093
 XXYZ=             -1.9279 YYXZ=              2.5769 ZZXY=             -3.5537
 N-N= 7.963202351044D+02 E-N=-2.978033337721D+03  KE= 5.886637443710D+02
 1\1\GINC-COMPUTE-3-0\SP\RmPW1PW91\6-31+G(d,p)\C8H15N1O3\MAMICHETTI.IQU
 IR\17-May-2024\0\\# mpw1pw91/6-31+G** nmr scrf=(pcm,solvent=water)\\co
 mment\\0,1\C,0,-2.566107,0.259446,-0.423848\C,0,-1.297278,0.530191,0.3
 97431\N,0,-0.581459,-0.790434,0.496776\C,0,-1.424957,-1.826132,-0.1367
 82\C,0,-2.836465,-1.22767,-0.147499\C,0,0.755986,-0.631843,-0.093497\C
 ,0,1.068309,0.844032,0.154766\C,0,-0.265461,1.523255,-0.171181\H,0,-3.
 397535,0.913387,-0.14327\H,0,-2.36263,0.409572,-1.491753\H,0,-1.575602
 ,0.86981,1.405704\H,0,-1.375321,-2.772692,0.413357\H,0,-1.091663,-2.02
 7126,-1.168071\H,0,-3.311787,-1.353048,0.833127\H,0,-3.480214,-1.69945
 9,-0.896319\H,0,0.738699,-0.792854,-1.187409\H,0,1.300187,1.002361,1.2
 19231\H,0,-0.359091,1.595483,-1.260366\O,0,-0.387623,2.860777,0.30615\
 H,0,-0.324969,2.827825,1.277033\O,0,2.175713,1.257355,-0.649347\H,0,2.
 42499,2.151442,-0.360258\C,0,1.806041,-1.579538,0.486892\H,0,1.907457,
 -1.402847,1.568747\H,0,1.501848,-2.622282,0.34481\O,0,3.065305,-1.4248
 81,-0.177069\H,0,3.208275,-0.462994,-0.267554\\Version=AM64L-G09RevC.0
 1\State=1-A\HF=-594.2000266\RMSD=6.687e-09\Dipole=-1.2089441,0.6191834
 ,0.7431255\Quadrupole=-2.2495706,-0.7748607,3.0244313,9.6556367,3.6421
 188,3.9534166\PG=C01 [X(C8H15N1O3)]\\@


 THE WORLD IS MADE UP OF THE WILLS, THE WON'TS, AND THE CANT'S:
 THE WILLS DO EVERYTHING,
 THE WON'TS DO NOTHING,
 THE CAN'TS CAN'T DO ANYTHING.

                               -- FROM WALT DISNEY'S "BLACK HOLE"
 Job cpu time:  0 days  0 hours  8 minutes 40.1 seconds.
 File lengths (MBytes):  RWF=    115 Int=      0 D2E=      0 Chk=      7 Scr=      1
 Normal termination of Gaussian 09 at Fri May 17 12:41:08 2024.
