 Entering Gaussian System, Link 0=g09
 Input=/home/mamichetti.iquir/Linux/02_Cardona_A1A3_R__R_R_R_030_OptB.gjc
 Output=/home/mamichetti.iquir/Linux/02_Cardona_A1A3_R__R_R_R_030_OptB.log
 Initial command:
 /opt/ohpc/pub/apps/software/Gaussian/09/AMD64.SSE4a-enabled/g09/l1.exe /local/mamichetti.iquir/Gau-710012.inp -scrdir=/local/mamichetti.iquir/
 Entering Link 1 = /opt/ohpc/pub/apps/software/Gaussian/09/AMD64.SSE4a-enabled/g09/l1.exe PID=    710017.
  
 Copyright (c) 1988,1990,1992,1993,1995,1998,2003,2009,2011,
            Gaussian, Inc.  All Rights Reserved.
  
 This is part of the Gaussian(R) 09 program.  It is based on
 the Gaussian(R) 03 system (copyright 2003, Gaussian, Inc.),
 the Gaussian(R) 98 system (copyright 1998, Gaussian, Inc.),
 the Gaussian(R) 94 system (copyright 1995, Gaussian, Inc.),
 the Gaussian 92(TM) system (copyright 1992, Gaussian, Inc.),
 the Gaussian 90(TM) system (copyright 1990, Gaussian, Inc.),
 the Gaussian 88(TM) system (copyright 1988, Gaussian, Inc.),
 the Gaussian 86(TM) system (copyright 1986, Carnegie Mellon
 University), and the Gaussian 82(TM) system (copyright 1983,
 Carnegie Mellon University). Gaussian is a federally registered
 trademark of Gaussian, Inc.
  
 This software contains proprietary and confidential information,
 including trade secrets, belonging to Gaussian, Inc.
  
 This software is provided under written license and may be
 used, copied, transmitted, or stored only in accord with that
 written license.
  
 The following legend is applicable only to US Government
 contracts under FAR:
  
                    RESTRICTED RIGHTS LEGEND
  
 Use, reproduction and disclosure by the US Government is
 subject to restrictions as set forth in subparagraphs (a)
 and (c) of the Commercial Computer Software - Restricted
 Rights clause in FAR 52.227-19.
  
 Gaussian, Inc.
 340 Quinnipiac St., Bldg. 40, Wallingford CT 06492
  
  
 ---------------------------------------------------------------
 Warning -- This program may not be used in any manner that
 competes with the business of Gaussian, Inc. or will provide
 assistance to any competitor of Gaussian, Inc.  The licensee
 of this program is prohibited from giving any competitor of
 Gaussian, Inc. access to this program.  By using this program,
 the user acknowledges that Gaussian, Inc. is engaged in the
 business of creating and licensing software in the field of
 computational chemistry and represents and warrants to the
 licensee that it is not a competitor of Gaussian, Inc. and that
 it will not use this program in any manner prohibited above.
 ---------------------------------------------------------------
  

 Cite this work as:
 Gaussian 09, Revision C.01,
 M. J. Frisch, G. W. Trucks, H. B. Schlegel, G. E. Scuseria, 
 M. A. Robb, J. R. Cheeseman, G. Scalmani, V. Barone, B. Mennucci, 
 G. A. Petersson, H. Nakatsuji, M. Caricato, X. Li, H. P. Hratchian, 
 A. F. Izmaylov, J. Bloino, G. Zheng, J. L. Sonnenberg, M. Hada, 
 M. Ehara, K. Toyota, R. Fukuda, J. Hasegawa, M. Ishida, T. Nakajima, 
 Y. Honda, O. Kitao, H. Nakai, T. Vreven, J. A. Montgomery, Jr., 
 J. E. Peralta, F. Ogliaro, M. Bearpark, J. J. Heyd, E. Brothers, 
 K. N. Kudin, V. N. Staroverov, T. Keith, R. Kobayashi, J. Normand, 
 K. Raghavachari, A. Rendell, J. C. Burant, S. S. Iyengar, J. Tomasi, 
 M. Cossi, N. Rega, J. M. Millam, M. Klene, J. E. Knox, J. B. Cross, 
 V. Bakken, C. Adamo, J. Jaramillo, R. Gomperts, R. E. Stratmann, 
 O. Yazyev, A. J. Austin, R. Cammi, C. Pomelli, J. W. Ochterski, 
 R. L. Martin, K. Morokuma, V. G. Zakrzewski, G. A. Voth, 
 P. Salvador, J. J. Dannenberg, S. Dapprich, A. D. Daniels, 
 O. Farkas, J. B. Foresman, J. V. Ortiz, J. Cioslowski, 
 and D. J. Fox, Gaussian, Inc., Wallingford CT, 2010.
 
 ******************************************
 Gaussian 09:  AM64L-G09RevC.01 23-Sep-2011
                17-May-2024 
 ******************************************
 %nprocshared=4
 Will use up to    4 processors via shared memory.
 ------------------------------------------------
 # mpw1pw91/6-31+G** nmr scrf=(pcm,solvent=water)
 ------------------------------------------------
 1/38=1/1;
 2/12=2,17=6,18=5,40=1/2;
 3/5=1,6=6,7=111,11=2,16=1,25=1,30=1,70=2201,72=1,74=-7/1,2,8,3;
 4//1;
 5/5=2,38=5,53=1/2;
 8/6=1,10=90,11=11/1;
 10/13=100,45=16/2;
 6/7=2,8=2,9=2,10=2,28=1/1;
 99/9=1/99;
 -------
 comment
 -------
 Charge =  0 Multiplicity = 1
 Symbolic Z-Matrix:
 6                    -2.09374   1.47897  -0.14423 
 6                    -1.20026   0.3524   -0.6917 
 7                     0.21716   0.82829  -0.55288 
 6                     0.18061   2.12683   0.16595 
 6                    -1.18313   2.19289   0.86474 
 6                     1.0023   -0.22687   0.13561 
 6                     0.16698  -1.49981  -0.02407 
 6                    -1.26291  -0.97108   0.08567 
 1                    -2.37427   2.1657   -0.95161 
 1                    -3.01707   1.08541   0.29401 
 1                    -1.4313    0.14193  -1.74543 
 1                     0.26991   2.95258  -0.55289 
 1                     1.02748   2.20476   0.85206 
 1                    -1.50043   3.2174    1.08474 
 1                    -1.15247   1.6378    1.81075 
 1                     1.08375  -0.02129   1.21571 
 1                     0.30898  -1.92682  -1.03014 
 1                    -1.47804  -0.78221   1.14414 
 8                    -2.27145  -1.87993  -0.34754 
 1                    -2.11167  -2.05823  -1.29122 
 8                     0.52543  -2.45861   0.96737 
 1                    -0.02179  -3.24586   0.80505 
 6                     2.411    -0.38149  -0.41531 
 1                     2.8688   -1.28323   0.01762 
 1                     2.36396  -0.5124   -1.50568 
 8                     3.1788    0.77954  -0.07735 
 1                     4.05665   0.66739  -0.47673 
 
                          Input orientation:                          
 ---------------------------------------------------------------------
 Center     Atomic      Atomic             Coordinates (Angstroms)
 Number     Number       Type             X           Y           Z
 ---------------------------------------------------------------------
      1          6           0       -2.093736    1.478966   -0.144227
      2          6           0       -1.200264    0.352400   -0.691704
      3          7           0        0.217159    0.828288   -0.552880
      4          6           0        0.180611    2.126827    0.165952
      5          6           0       -1.183126    2.192894    0.864742
      6          6           0        1.002303   -0.226874    0.135612
      7          6           0        0.166980   -1.499810   -0.024070
      8          6           0       -1.262906   -0.971075    0.085669
      9          1           0       -2.374273    2.165697   -0.951609
     10          1           0       -3.017067    1.085414    0.294005
     11          1           0       -1.431298    0.141933   -1.745433
     12          1           0        0.269914    2.952578   -0.552893
     13          1           0        1.027480    2.204758    0.852057
     14          1           0       -1.500434    3.217400    1.084735
     15          1           0       -1.152473    1.637803    1.810754
     16          1           0        1.083749   -0.021285    1.215710
     17          1           0        0.308982   -1.926824   -1.030137
     18          1           0       -1.478037   -0.782214    1.144145
     19          8           0       -2.271451   -1.879927   -0.347543
     20          1           0       -2.111673   -2.058230   -1.291221
     21          8           0        0.525432   -2.458612    0.967366
     22          1           0       -0.021792   -3.245859    0.805045
     23          6           0        2.411001   -0.381491   -0.415310
     24          1           0        2.868796   -1.283225    0.017622
     25          1           0        2.363961   -0.512398   -1.505677
     26          8           0        3.178797    0.779541   -0.077349
     27          1           0        4.056649    0.667391   -0.476729
 ---------------------------------------------------------------------
                    Distance matrix (angstroms):
                    1          2          3          4          5
     1  C    0.000000
     2  C    1.538562   0.000000
     3  N    2.435285   1.501609   0.000000
     4  C    2.385076   2.406446   1.484675   0.000000
     5  C    1.535227   2.410443   2.415078   1.533770   0.000000
     6  C    3.545935   2.423079   1.484533   2.493192   3.341109
     7  C    3.741441   2.397034   2.387928   3.631637   4.030984
     8  C    2.597274   1.536170   2.415791   3.418652   3.259451
     9  H    1.096433   2.175751   2.943326   2.788886   2.172257
    10  H    1.095203   2.193104   3.353140   3.365425   2.217113
    11  H    2.188685   1.099099   2.147249   3.192405   3.328820
    12  H    2.815205   2.990254   2.124945   1.098443   2.167518
    13  H    3.355793   3.282875   2.127237   1.092703   2.210674
    14  H    2.210092   3.384385   3.367457   2.204410   1.094849
    15  H    2.175582   2.813688   2.849206   2.172931   1.097271
    16  H    3.767837   2.999097   2.144916   2.555785   3.188180
    17  H    4.261138   2.754491   2.797650   4.228380   4.773786
    18  H    2.674308   2.175971   2.889169   3.488624   3.002716
    19  O    3.369730   2.499834   3.683717   4.725501   4.386566
    20  H    3.718558   2.645983   3.781612   4.989251   4.856175
    21  O    4.858004   3.692198   3.634541   4.667699   4.956431
    22  H    5.245764   4.071427   4.301131   5.414348   5.561681
    23  C    4.881336   3.695433   2.509070   3.406489   4.602580
    24  H    5.681779   4.442484   3.437316   4.344743   5.405468
    25  H    5.068544   3.756877   2.704444   3.811413   5.051665
    26  O    5.319142   4.442528   2.999968   3.295982   4.680969
    27  H    6.212604   5.270727   3.843614   4.191260   5.619782
                    6          7          8          9         10
     6  C    0.000000
     7  C    1.530892   0.000000
     8  C    2.384848   1.528456   0.000000
     9  H    4.278751   4.555682   3.485745   0.000000
    10  H    4.231137   4.113722   2.711020   1.769675   0.000000
    11  H    3.097864   2.865816   2.149436   2.369595   2.750296
    12  H    3.334569   4.484864   4.260558   2.787451   3.873988
    13  H    2.535106   3.902804   3.989879   3.850540   4.233523
    14  H    4.362058   5.124626   4.312525   2.452829   2.733275
    15  H    3.305477   3.866801   3.129594   3.066287   2.466247
    16  H    1.102503   2.136248   2.772343   4.630127   4.346379
    17  H    2.174740   1.102124   2.151583   4.894359   4.678625
    18  H    2.734525   2.141437   1.096504   3.726339   2.565031
    19  O    3.699120   2.488990   1.425078   4.091765   3.124224
    20  H    3.884143   2.666414   1.948881   4.245687   3.635269
    21  O    2.428966   1.425038   2.487631   5.785757   5.055970
    22  H    3.257481   1.942100   2.689332   6.156699   5.290818
    23  C    1.520477   2.537585   3.754488   5.447443   5.667350
    24  H    2.147928   2.710804   4.144035   6.350137   6.350608
    25  H    2.151619   2.827873   3.987096   5.470836   5.894686
    26  O    2.407353   3.777476   4.777024   5.789848   6.214515
    27  H    3.240941   4.475621   5.594509   6.620211   7.127849
                   11         12         13         14         15
    11  H    0.000000
    12  H    3.495139   0.000000
    13  H    4.128897   1.762676   0.000000
    14  H    4.180087   2.426126   2.733118   0.000000
    15  H    3.868053   3.055920   2.448006   1.772937   0.000000
    16  H    3.888505   3.554454   2.256253   4.145387   2.847339
    17  H    2.796422   4.902841   4.596614   5.848907   4.786761
    18  H    3.034121   4.459141   3.909595   4.000118   2.531174
    19  O    2.597667   5.463864   5.385781   5.350573   4.276071
    20  H    2.347325   5.596899   5.711479   5.818166   4.919652
    21  O    4.236851   5.626496   4.691734   6.027854   4.506360
    22  H    4.468644   6.352142   5.550892   6.636138   5.112734
    23  C    4.099568   3.964744   3.195158   5.522814   4.661680
    24  H    4.861095   5.002170   4.031470   6.362745   5.283780
    25  H    3.858707   4.159193   3.837711   5.962816   5.290311
    26  O    4.943888   3.661944   2.742846   5.402666   4.802233
    27  H    5.657144   4.423488   3.647607   6.310459   5.771415
                   16         17         18         19         20
    16  H    0.000000
    17  H    3.045517   0.000000
    18  H    2.673365   3.038268   0.000000
    19  O    4.141941   2.669601   2.014848   0.000000
    20  H    4.543630   2.438238   2.821475   0.973575   0.000000
    21  O    2.512759   2.078381   2.618291   3.144267   3.495117
    22  H    3.433474   2.284110   2.881872   2.873186   3.189419
    23  C    2.133441   2.680401   4.209168   4.916834   4.902372
    24  H    2.492850   2.839836   4.518299   5.187633   5.207569
    25  H    3.047307   2.539622   4.674966   4.969754   4.739925
    26  O    2.588928   4.058085   5.061347   6.070501   6.124990
    27  H    3.489521   4.591429   5.946540   6.822783   6.792687
                   21         22         23         24         25
    21  O    0.000000
    22  H    0.972399   0.000000
    23  C    3.127554   3.951247   0.000000
    24  H    2.788351   3.581545   1.100059   0.000000
    25  H    3.644706   4.301519   1.099204   1.780301   0.000000
    26  O    4.314790   5.217876   1.432384   2.088091   2.091216
    27  H    4.932220   5.795701   1.952456   2.336724   2.305608
                   26         27
    26  O    0.000000
    27  H    0.970931   0.000000
 Stoichiometry    C8H15NO3
 Framework group  C1[X(C8H15NO3)]
 Deg. of freedom    75
 Full point group                 C1      NOp   1
 Largest Abelian subgroup         C1      NOp   1
 Largest concise Abelian subgroup C1      NOp   1
                         Standard orientation:                         
 ---------------------------------------------------------------------
 Center     Atomic      Atomic             Coordinates (Angstroms)
 Number     Number       Type             X           Y           Z
 ---------------------------------------------------------------------
      1          6           0        2.093736   -1.478966   -0.144227
      2          6           0        1.200264   -0.352400   -0.691704
      3          7           0       -0.217159   -0.828288   -0.552880
      4          6           0       -0.180611   -2.126827    0.165952
      5          6           0        1.183126   -2.192894    0.864742
      6          6           0       -1.002303    0.226874    0.135612
      7          6           0       -0.166980    1.499810   -0.024070
      8          6           0        1.262906    0.971075    0.085669
      9          1           0        2.374273   -2.165697   -0.951609
     10          1           0        3.017067   -1.085414    0.294005
     11          1           0        1.431298   -0.141933   -1.745433
     12          1           0       -0.269914   -2.952578   -0.552893
     13          1           0       -1.027480   -2.204758    0.852057
     14          1           0        1.500434   -3.217400    1.084735
     15          1           0        1.152473   -1.637803    1.810754
     16          1           0       -1.083749    0.021285    1.215710
     17          1           0       -0.308982    1.926824   -1.030137
     18          1           0        1.478037    0.782214    1.144145
     19          8           0        2.271451    1.879927   -0.347543
     20          1           0        2.111673    2.058230   -1.291221
     21          8           0       -0.525432    2.458612    0.967366
     22          1           0        0.021792    3.245859    0.805045
     23          6           0       -2.411001    0.381491   -0.415310
     24          1           0       -2.868796    1.283225    0.017622
     25          1           0       -2.363961    0.512398   -1.505677
     26          8           0       -3.178797   -0.779541   -0.077349
     27          1           0       -4.056649   -0.667391   -0.476729
 ---------------------------------------------------------------------
 Rotational constants (GHZ):      1.0903203      0.9091623      0.5583837
 Standard basis: 6-31+G(d,p) (6D, 7F)
 There are   303 symmetry adapted basis functions of A   symmetry.
 Integral buffers will be    131072 words long.
 Raffenetti 2 integral format.
 Two-electron integral symmetry is turned on.
   303 basis functions,   489 primitive gaussians,   303 cartesian basis functions
    47 alpha electrons       47 beta electrons
       nuclear repulsion energy       798.6375487835 Hartrees.
 NAtoms=   27 NActive=   27 NUniq=   27 SFac= 1.00D+00 NAtFMM=   60 NAOKFM=F Big=F
 ------------------------------------------------------------------------------
 Polarizable Continuum Model (PCM)
 =================================
 Model                : PCM.
 Atomic radii         : UFF (Universal Force Field).
 Polarization charges : Total charges.
 Charge compensation  : None.
 Solution method      : Matrix inversion.
 Cavity type          : Scaled VdW (van der Waals Surface) (Alpha=1.100).
 Cavity algorithm     : GePol (No added spheres)
                        Default sphere list used, NSphG=   27.
                        Lebedev-Laikov grids with approx.  5.0 points / Ang**2.
                        Smoothing algorithm: Karplus/York (Gamma=1.0000).
                        Polarization charges: spherical gaussians, with
                                              point-specific exponents (IZeta= 3).
                        Self-potential: point-specific (ISelfS= 7).
                        Self-field    : sphere-specific E.n sum rule (ISelfD= 2).
 Solvent              : Water, Eps=  78.355300 Eps(inf)=   1.777849
 ------------------------------------------------------------------------------
 One-electron integrals computed using PRISM.
 NBasis=   303 RedAO= T  NBF=   303
 NBsUse=   303 1.00D-06 NBFU=   303
 Harris functional with IExCor=  908 diagonalized for initial guess.
 ExpMin= 4.38D-02 ExpMax= 5.48D+03 ExpMxC= 8.25D+02 IAcc=2 IRadAn=         4 AccDes= 0.00D+00
 HarFok:  IExCor=  908 AccDes= 0.00D+00 IRadAn=         4 IDoV= 1
 ScaDFX=  1.000000  1.000000  1.000000  1.000000
 FoFCou: FMM=F IPFlag=           0 FMFlag=      100000 FMFlg1=           0
         NFxFlg=           0 DoJE=T BraDBF=F KetDBF=T FulRan=T
         Omega=  0.000000  0.000000  1.000000  0.000000  0.000000 ICntrl=     500 IOpCl=  0
         NMat0=    1 NMatS0=    1 NMatT0=    0 NMatD0=    1 NMtDS0=    0 NMtDT0=    0
         I1Cent=           4 NGrid=           0.
 Petite list used in FoFCou.
 Initial guess orbital symmetries:
       Occupied  (A) (A) (A) (A) (A) (A) (A) (A) (A) (A) (A) (A)
                 (A) (A) (A) (A) (A) (A) (A) (A) (A) (A) (A) (A)
                 (A) (A) (A) (A) (A) (A) (A) (A) (A) (A) (A) (A)
                 (A) (A) (A) (A) (A) (A) (A) (A) (A) (A) (A)
       Virtual   (A) (A) (A) (A) (A) (A) (A) (A) (A) (A) (A) (A)
                 (A) (A) (A) (A) (A) (A) (A) (A) (A) (A) (A) (A)
                 (A) (A) (A) (A) (A) (A) (A) (A) (A) (A) (A) (A)
                 (A) (A) (A) (A) (A) (A) (A) (A) (A) (A) (A) (A)
                 (A) (A) (A) (A) (A) (A) (A) (A) (A) (A) (A) (A)
                 (A) (A) (A) (A) (A) (A) (A) (A) (A) (A) (A) (A)
                 (A) (A) (A) (A) (A) (A) (A) (A) (A) (A) (A) (A)
                 (A) (A) (A) (A) (A) (A) (A) (A) (A) (A) (A) (A)
                 (A) (A) (A) (A) (A) (A) (A) (A) (A) (A) (A) (A)
                 (A) (A) (A) (A) (A) (A) (A) (A) (A) (A) (A) (A)
                 (A) (A) (A) (A) (A) (A) (A) (A) (A) (A) (A) (A)
                 (A) (A) (A) (A) (A) (A) (A) (A) (A) (A) (A) (A)
                 (A) (A) (A) (A) (A) (A) (A) (A) (A) (A) (A) (A)
                 (A) (A) (A) (A) (A) (A) (A) (A) (A) (A) (A) (A)
                 (A) (A) (A) (A) (A) (A) (A) (A) (A) (A) (A) (A)
                 (A) (A) (A) (A) (A) (A) (A) (A) (A) (A) (A) (A)
                 (A) (A) (A) (A) (A) (A) (A) (A) (A) (A) (A) (A)
                 (A) (A) (A) (A) (A) (A) (A) (A) (A) (A) (A) (A)
                 (A) (A) (A) (A) (A) (A) (A) (A) (A) (A) (A) (A)
                 (A) (A) (A) (A) (A) (A) (A) (A) (A) (A) (A) (A)
                 (A) (A) (A) (A) (A) (A) (A) (A) (A) (A) (A) (A)
                 (A) (A) (A) (A)
 The electronic state of the initial guess is 1-A.
 Requested convergence on RMS density matrix=1.00D-08 within 128 cycles.
 Requested convergence on MAX density matrix=1.00D-06.
 Requested convergence on             energy=1.00D-06.
 No special actions if energy rises.
 Error on total polarization charges =  0.01437
 SCF Done:  E(RmPW1PW91) =  -594.197655717     A.U. after   13 cycles
             Convg  =    0.3734D-08             -V/T =  2.0094
 Range of M.O.s used for correlation:     1   303
 NBasis=   303 NAE=    47 NBE=    47 NFC=     0 NFV=     0
 NROrb=    303 NOA=    47 NOB=    47 NVA=   256 NVB=   256

 **** Warning!!: The largest alpha MO coefficient is  0.65728753D+02

 NEqPCM:  Using equilibrium solvation (IEInf=0, Eps=  78.3553, EpsInf=   1.7778)
          Differentiating once with respect to magnetic field using GIAOs.
          Electric field/nuclear overlap derivatives assumed to be zero.
 FoFCou: FMM=F IPFlag=           0 FMFlag=    10101102 FMFlg1=           0
         NFxFlg=    40000000 DoJE=F BraDBF=F KetDBF=T FulRan=T
         Omega=  0.000000  0.000000  1.000000  0.000000  0.000000 ICntrl=    6100 IOpCl=  0
         NMat0=    1 NMatS0=    1 NMatT0=    0 NMatD0=    1 NMtDS0=    0 NMtDT0=    0
         I1Cent=           7 NGrid=        1843.
 Symmetry not used in FoFCou.
          There are     3 degrees of freedom in the 1st order CPHF.  IDoFFX=0.
      3 vectors produced by pass  0 Test12= 4.01D-13 3.33D-08 XBig12= 2.92D+01 8.48D-01.
 AX will form     3 AO Fock derivatives at one time.
      3 vectors produced by pass  1 Test12= 4.01D-13 3.33D-08 XBig12= 7.55D-02 2.94D-02.
      3 vectors produced by pass  2 Test12= 4.01D-13 3.33D-08 XBig12= 1.52D-04 1.85D-03.
      3 vectors produced by pass  3 Test12= 4.01D-13 3.33D-08 XBig12= 6.65D-07 1.54D-04.
      3 vectors produced by pass  4 Test12= 4.01D-13 3.33D-08 XBig12= 2.39D-09 8.95D-06.
      3 vectors produced by pass  5 Test12= 4.01D-13 3.33D-08 XBig12= 7.61D-12 4.18D-07.
 Inverted reduced A of dimension    18 with in-core refinement.
 Calculating GIAO nuclear magnetic shielding tensors.
 SCF GIAO Magnetic shielding tensor (ppm):
      1  C    Isotropic =   164.6344   Anisotropy =    22.5132
   XX=   171.0420   YX=    -1.8607   ZX=     4.4961
   XY=    -7.2200   YY=   166.8412   ZY=   -12.2847
   XZ=    -6.2254   YZ=   -19.9268   ZZ=   156.0199
   Eigenvalues:   144.0197   170.2402   179.6432
      2  C    Isotropic =   126.5659   Anisotropy =    55.3484
   XX=   148.6087   YX=    17.2419   ZX=     0.0742
   XY=    26.0821   YY=   130.6495   ZY=   -12.9871
   XZ=    -5.8360   YZ=     3.8603   ZZ=   100.4395
   Eigenvalues:    99.7623   116.4706   163.4648
      3  N    Isotropic =   196.3940   Anisotropy =    77.1520
   XX=   238.0373   YX=   -13.8694   ZX=   -14.9558
   XY=   -24.3011   YY=   204.2911   ZY=   -11.1434
   XZ=   -17.5792   YZ=    -8.9802   ZZ=   146.8536
   Eigenvalues:   141.1578   200.1956   247.8287
      4  C    Isotropic =   138.2963   Anisotropy =    59.3926
   XX=   130.0738   YX=    -8.0970   ZX=    -3.5310
   XY=     2.3226   YY=   162.0446   ZY=   -27.3901
   XZ=    10.5277   YZ=   -30.8344   ZZ=   122.7706
   Eigenvalues:   107.1590   129.8386   177.8914
      5  C    Isotropic =   171.2993   Anisotropy =    18.5646
   XX=   181.9843   YX=     2.5772   ZX=     4.4637
   XY=     3.6671   YY=   170.9592   ZY=   -12.9798
   XZ=     5.1416   YZ=   -20.6461   ZZ=   160.9546
   Eigenvalues:   147.4687   182.7536   183.6757
      6  C    Isotropic =   125.9955   Anisotropy =    40.2086
   XX=   119.3207   YX=    -7.9019   ZX=    -5.1084
   XY=    -6.9569   YY=   144.5985   ZY=    16.7842
   XZ=   -22.5512   YZ=     6.5009   ZZ=   114.0672
   Eigenvalues:   102.1259   123.0593   152.8012
      7  C    Isotropic =   116.6329   Anisotropy =    37.9743
   XX=   123.1791   YX=    -9.4274   ZX=    -8.7468
   XY=    -8.7370   YY=   121.9480   ZY=    27.6267
   XZ=    -5.5523   YZ=    11.8317   ZZ=   104.7716
   Eigenvalues:    91.8070   116.1426   141.9491
      8  C    Isotropic =   112.4568   Anisotropy =    29.0808
   XX=   129.1195   YX=     7.2021   ZX=   -15.8434
   XY=     1.1844   YY=   118.8665   ZY=    -4.0485
   XZ=    -0.4033   YZ=     7.2379   ZZ=    89.3846
   Eigenvalues:    87.6058   117.9207   131.8440
      9  H    Isotropic =    29.8091   Anisotropy =    11.8409
   XX=    28.5590   YX=    -3.7631   ZX=    -3.7553
   XY=    -4.8204   YY=    30.3836   ZY=     3.3537
   XZ=    -4.7379   YZ=     3.2112   ZZ=    30.4846
   Eigenvalues:    24.5714    27.1528    37.7030
     10  H    Isotropic =    29.7014   Anisotropy =     9.5030
   XX=    35.5051   YX=     0.9112   ZX=     2.3322
   XY=     1.4733   YY=    28.0234   ZY=    -0.4677
   XZ=     1.6003   YZ=    -0.0979   ZZ=    25.5758
   Eigenvalues:    25.1107    27.9568    36.0368
     11  H    Isotropic =    28.5227   Anisotropy =     6.8733
   XX=    28.0255   YX=     0.3691   ZX=    -2.8313
   XY=     0.1730   YY=    26.2674   ZY=    -1.3940
   XZ=    -2.5633   YZ=    -1.6115   ZZ=    31.2752
   Eigenvalues:    25.6709    26.7923    33.1049
     12  H    Isotropic =    28.6184   Anisotropy =    11.2470
   XX=    25.4178   YX=     1.0462   ZX=     2.3182
   XY=     2.0260   YY=    34.8793   ZY=     3.2872
   XZ=     3.3148   YZ=     2.2221   ZZ=    25.5582
   Eigenvalues:    22.6069    27.1320    36.1164
     13  H    Isotropic =    28.6687   Anisotropy =     7.2360
   XX=    32.0156   YX=     1.1240   ZX=    -1.4987
   XY=     1.2044   YY=    28.7023   ZY=    -4.2936
   XZ=    -1.9543   YZ=    -2.7743   ZZ=    25.2881
   Eigenvalues:    22.9874    29.5259    33.4927
     14  H    Isotropic =    30.0619   Anisotropy =    12.5828
   XX=    27.6368   YX=    -2.9338   ZX=     0.9980
   XY=    -3.2727   YY=    35.5026   ZY=    -4.4978
   XZ=     1.2665   YZ=    -4.4893   ZZ=    27.0463
   Eigenvalues:    25.0824    26.6528    38.4504
     15  H    Isotropic =    29.8514   Anisotropy =     8.8909
   XX=    27.0682   YX=     0.0561   ZX=     0.6908
   XY=    -0.2040   YY=    26.8540   ZY=     1.3100
   XZ=     0.7915   YZ=     0.4297   ZZ=    35.6320
   Eigenvalues:    26.6997    27.0758    35.7786
     16  H    Isotropic =    28.7838   Anisotropy =     5.2274
   XX=    29.3955   YX=    -1.5349   ZX=    -1.6146
   XY=    -1.7938   YY=    27.6813   ZY=     2.3710
   XZ=    -1.8791   YZ=     0.8971   ZZ=    29.2747
   Eigenvalues:    26.4952    27.5875    32.2688
     17  H    Isotropic =    28.1740   Anisotropy =     1.7306
   XX=    26.3542   YX=    -1.1823   ZX=     0.0350
   XY=     0.1252   YY=    28.8792   ZY=     0.7376
   XZ=     0.2785   YZ=    -0.8913   ZZ=    29.2885
   Eigenvalues:    26.2417    28.9525    29.3277
     18  H    Isotropic =    28.1820   Anisotropy =     3.5900
   XX=    26.9609   YX=     1.7467   ZX=    -0.1118
   XY=     1.4047   YY=    29.8786   ZY=    -1.0091
   XZ=     0.7192   YZ=     0.4103   ZZ=    27.7065
   Eigenvalues:    26.1689    27.8017    30.5753
     19  O    Isotropic =   293.8913   Anisotropy =    92.2641
   XX=   267.2938   YX=     8.9288   ZX=    17.0546
   XY=    18.5563   YY=   272.2429   ZY=   -24.5999
   XZ=    -7.7095   YZ=   -41.8027   ZZ=   342.1371
   Eigenvalues:   248.0591   278.2140   355.4007
     20  H    Isotropic =    30.9323   Anisotropy =    16.5029
   XX=    26.3281   YX=     3.3823   ZX=    -0.7469
   XY=     2.5906   YY=    27.0406   ZY=    -6.2502
   XZ=    -0.1941   YZ=    -5.5176   ZZ=    39.4283
   Eigenvalues:    22.7403    28.1223    41.9342
     21  O    Isotropic =   299.0060   Anisotropy =    42.7004
   XX=   275.4675   YX=    21.2948   ZX=    17.1393
   XY=    13.0500   YY=   307.8284   ZY=     2.1097
   XZ=    -7.5148   YZ=    21.9839   ZZ=   313.7221
   Eigenvalues:   268.0505   301.4946   327.4730
     22  H    Isotropic =    29.3557   Anisotropy =    18.9804
   XX=    26.4695   YX=     5.8192   ZX=    -3.6449
   XY=     6.9214   YY=    39.3861   ZY=     1.6957
   XZ=    -1.9658   YZ=     1.5556   ZZ=    22.2115
   Eigenvalues:    19.7125    26.3454    42.0093
     23  C    Isotropic =   125.6777   Anisotropy =    47.9981
   XX=   136.6217   YX=    18.2062   ZX=    -2.3249
   XY=    24.2859   YY=   131.4237   ZY=   -14.1346
   XZ=    -4.9309   YZ=    -8.9648   ZZ=   108.9877
   Eigenvalues:   102.9193   116.4373   157.6765
     24  H    Isotropic =    27.5875   Anisotropy =     5.0368
   XX=    30.0158   YX=     0.4032   ZX=     0.2567
   XY=    -1.2877   YY=    30.5895   ZY=     1.3054
   XZ=    -1.0996   YZ=     0.5295   ZZ=    22.1572
   Eigenvalues:    22.0411    29.7761    30.9454
     25  H    Isotropic =    28.0285   Anisotropy =     5.1574
   XX=    28.0551   YX=     1.7447   ZX=     0.6388
   XY=     2.1605   YY=    27.2914   ZY=    -4.4131
   XZ=     1.8769   YZ=    -2.2891   ZZ=    28.7389
   Eigenvalues:    23.4314    29.1873    31.4667
     26  O    Isotropic =   313.2107   Anisotropy =    89.0103
   XX=   361.1839   YX=    18.2712   ZX=    23.3977
   XY=    -3.8765   YY=   278.3006   ZY=    -9.4170
   XZ=    33.5129   YZ=    -6.1277   ZZ=   300.1475
   Eigenvalues:   272.2993   294.7819   372.5509
     27  H    Isotropic =    30.2713   Anisotropy =    21.6930
   XX=    42.2185   YX=     0.9854   ZX=     7.5005
   XY=     2.2881   YY=    24.6851   ZY=    -1.6478
   XZ=     6.8432   YZ=    -2.3864   ZZ=    23.9104
   Eigenvalues:    20.1211    25.9596    44.7333
 End of Minotr Frequency-dependent properties file   721 does not exist.
 End of Minotr Frequency-dependent properties file   722 does not exist.

 **********************************************************************

            Population analysis using the SCF density.

 **********************************************************************

 Orbital symmetries:
       Occupied  (A) (A) (A) (A) (A) (A) (A) (A) (A) (A) (A) (A)
                 (A) (A) (A) (A) (A) (A) (A) (A) (A) (A) (A) (A)
                 (A) (A) (A) (A) (A) (A) (A) (A) (A) (A) (A) (A)
                 (A) (A) (A) (A) (A) (A) (A) (A) (A) (A) (A)
       Virtual   (A) (A) (A) (A) (A) (A) (A) (A) (A) (A) (A) (A)
                 (A) (A) (A) (A) (A) (A) (A) (A) (A) (A) (A) (A)
                 (A) (A) (A) (A) (A) (A) (A) (A) (A) (A) (A) (A)
                 (A) (A) (A) (A) (A) (A) (A) (A) (A) (A) (A) (A)
                 (A) (A) (A) (A) (A) (A) (A) (A) (A) (A) (A) (A)
                 (A) (A) (A) (A) (A) (A) (A) (A) (A) (A) (A) (A)
                 (A) (A) (A) (A) (A) (A) (A) (A) (A) (A) (A) (A)
                 (A) (A) (A) (A) (A) (A) (A) (A) (A) (A) (A) (A)
                 (A) (A) (A) (A) (A) (A) (A) (A) (A) (A) (A) (A)
                 (A) (A) (A) (A) (A) (A) (A) (A) (A) (A) (A) (A)
                 (A) (A) (A) (A) (A) (A) (A) (A) (A) (A) (A) (A)
                 (A) (A) (A) (A) (A) (A) (A) (A) (A) (A) (A) (A)
                 (A) (A) (A) (A) (A) (A) (A) (A) (A) (A) (A) (A)
                 (A) (A) (A) (A) (A) (A) (A) (A) (A) (A) (A) (A)
                 (A) (A) (A) (A) (A) (A) (A) (A) (A) (A) (A) (A)
                 (A) (A) (A) (A) (A) (A) (A) (A) (A) (A) (A) (A)
                 (A) (A) (A) (A) (A) (A) (A) (A) (A) (A) (A) (A)
                 (A) (A) (A) (A) (A) (A) (A) (A) (A) (A) (A) (A)
                 (A) (A) (A) (A) (A) (A) (A) (A) (A) (A) (A) (A)
                 (A) (A) (A) (A) (A) (A) (A) (A) (A) (A) (A) (A)
                 (A) (A) (A) (A) (A) (A) (A) (A) (A) (A) (A) (A)
                 (A) (A) (A) (A)
 The electronic state is 1-A.
 Alpha  occ. eigenvalues --  -19.26364 -19.26227 -19.25412 -14.41280 -10.30766
 Alpha  occ. eigenvalues --  -10.30291 -10.29348 -10.28290 -10.27880 -10.26615
 Alpha  occ. eigenvalues --  -10.24691 -10.24420  -1.07568  -1.05834  -1.05484
 Alpha  occ. eigenvalues --   -0.96509  -0.82990  -0.79254  -0.75593  -0.71669
 Alpha  occ. eigenvalues --   -0.66107  -0.62387  -0.60627  -0.58035  -0.55714
 Alpha  occ. eigenvalues --   -0.53452  -0.52372  -0.49969  -0.49462  -0.47230
 Alpha  occ. eigenvalues --   -0.45510  -0.44863  -0.43864  -0.41860  -0.40789
 Alpha  occ. eigenvalues --   -0.39810  -0.38141  -0.37240  -0.36598  -0.35697
 Alpha  occ. eigenvalues --   -0.35336  -0.34350  -0.33498  -0.32443  -0.29602
 Alpha  occ. eigenvalues --   -0.28311  -0.23142
 Alpha virt. eigenvalues --    0.00734   0.01335   0.01688   0.01967   0.03352
 Alpha virt. eigenvalues --    0.03985   0.04435   0.05034   0.05445   0.07205
 Alpha virt. eigenvalues --    0.07738   0.08151   0.08194   0.08973   0.09501
 Alpha virt. eigenvalues --    0.10374   0.11513   0.11993   0.12230   0.12575
 Alpha virt. eigenvalues --    0.13214   0.13401   0.14377   0.14638   0.15025
 Alpha virt. eigenvalues --    0.15538   0.15962   0.17207   0.17223   0.18188
 Alpha virt. eigenvalues --    0.18706   0.19660   0.19891   0.20374   0.21306
 Alpha virt. eigenvalues --    0.21696   0.21784   0.22771   0.23203   0.23466
 Alpha virt. eigenvalues --    0.23956   0.24427   0.24734   0.25808   0.26041
 Alpha virt. eigenvalues --    0.26324   0.26942   0.27522   0.28232   0.28661
 Alpha virt. eigenvalues --    0.29031   0.30238   0.30510   0.30872   0.31237
 Alpha virt. eigenvalues --    0.32193   0.32796   0.33591   0.34480   0.34776
 Alpha virt. eigenvalues --    0.35373   0.35869   0.37339   0.37993   0.38303
 Alpha virt. eigenvalues --    0.39115   0.39743   0.40441   0.41357   0.41428
 Alpha virt. eigenvalues --    0.42136   0.42829   0.43687   0.44949   0.46670
 Alpha virt. eigenvalues --    0.47221   0.64142   0.64586   0.66721   0.68065
 Alpha virt. eigenvalues --    0.69437   0.70223   0.71477   0.73124   0.74041
 Alpha virt. eigenvalues --    0.78136   0.78317   0.79328   0.80088   0.82185
 Alpha virt. eigenvalues --    0.83009   0.84918   0.85801   0.86486   0.87488
 Alpha virt. eigenvalues --    0.88685   0.91662   0.91833   0.95497   0.96943
 Alpha virt. eigenvalues --    0.98100   1.00056   1.02687   1.03232   1.05260
 Alpha virt. eigenvalues --    1.05943   1.06147   1.07341   1.09478   1.10483
 Alpha virt. eigenvalues --    1.12075   1.13376   1.14202   1.14361   1.15797
 Alpha virt. eigenvalues --    1.16270   1.18459   1.19878   1.23294   1.25484
 Alpha virt. eigenvalues --    1.26813   1.28137   1.28898   1.29699   1.31987
 Alpha virt. eigenvalues --    1.32881   1.34466   1.37565   1.38240   1.39711
 Alpha virt. eigenvalues --    1.42595   1.49410   1.49466   1.51019   1.52445
 Alpha virt. eigenvalues --    1.54313   1.55376   1.57919   1.58170   1.60641
 Alpha virt. eigenvalues --    1.60912   1.63256   1.66005   1.68249   1.70740
 Alpha virt. eigenvalues --    1.73124   1.74592   1.75479   1.79096   1.79396
 Alpha virt. eigenvalues --    1.82018   1.83137   1.83574   1.84959   1.86300
 Alpha virt. eigenvalues --    1.88191   1.91651   1.93080   1.93776   1.94500
 Alpha virt. eigenvalues --    1.95734   1.99344   2.00944   2.01361   2.03470
 Alpha virt. eigenvalues --    2.03902   2.05200   2.07295   2.08359   2.10208
 Alpha virt. eigenvalues --    2.12505   2.14228   2.16017   2.17577   2.19288
 Alpha virt. eigenvalues --    2.20653   2.23031   2.24612   2.28115   2.30208
 Alpha virt. eigenvalues --    2.31822   2.32759   2.33116   2.36228   2.38841
 Alpha virt. eigenvalues --    2.40480   2.43758   2.44517   2.45318   2.47512
 Alpha virt. eigenvalues --    2.48801   2.50684   2.50933   2.53090   2.55208
 Alpha virt. eigenvalues --    2.55813   2.57180   2.59516   2.61907   2.64537
 Alpha virt. eigenvalues --    2.66370   2.66479   2.67381   2.68168   2.68281
 Alpha virt. eigenvalues --    2.69791   2.70531   2.74369   2.76745   2.78082
 Alpha virt. eigenvalues --    2.78532   2.80643   2.81077   2.81990   2.86188
 Alpha virt. eigenvalues --    2.87851   2.88408   2.92019   2.93525   2.94977
 Alpha virt. eigenvalues --    2.95142   2.99333   3.01525   3.02101   3.03426
 Alpha virt. eigenvalues --    3.05829   3.11109   3.11424   3.18274   3.32549
 Alpha virt. eigenvalues --    3.34805   3.36555   3.37231   3.39204   3.42432
 Alpha virt. eigenvalues --    3.47185   3.52263   3.53351   3.53970   3.55679
 Alpha virt. eigenvalues --    3.56025   3.58053   3.58568   3.61510   4.32837
 Alpha virt. eigenvalues --    4.36922   4.38284   4.44430   4.47594   4.54859
 Alpha virt. eigenvalues --    4.56878   4.65737   4.76841   4.81095   4.88247
 Alpha virt. eigenvalues --    4.94095
          Condensed to atoms (all electrons):
              1          2          3          4          5          6
     1  C    5.929901  -0.845815   0.104657   0.032048   0.202375   0.034593
     2  C   -0.845815   8.845291  -0.530370  -0.169868  -0.023523  -0.260135
     3  N    0.104657  -0.530370   7.479264   0.135905  -0.114027  -0.287203
     4  C    0.032048  -0.169868   0.135905   6.024829  -0.032721  -0.290750
     5  C    0.202375  -0.023523  -0.114027  -0.032721   5.503829   0.025483
     6  C    0.034593  -0.260135  -0.287203  -0.290750   0.025483   9.156075
     7  C   -0.237839   0.728277  -0.081967  -0.292472   0.105988  -0.855222
     8  C    0.295657  -1.352394   0.123290  -0.003570  -0.011601   0.122067
     9  H    0.424046  -0.069521   0.010346  -0.004623  -0.045586   0.008166
    10  H    0.420734  -0.142604   0.019665   0.025759  -0.023743   0.001918
    11  H    0.063669   0.145823   0.004357  -0.011826   0.012960   0.016022
    12  H    0.007178  -0.033519  -0.023421   0.363163  -0.037880   0.013577
    13  H    0.012743   0.030534  -0.077729   0.403785  -0.032006   0.026651
    14  H   -0.036104   0.021977   0.012281  -0.027258   0.360031   0.001764
    15  H   -0.057531   0.002266   0.012819  -0.085441   0.425344   0.010729
    16  H    0.002825   0.060692  -0.060834   0.068302  -0.016697   0.212324
    17  H    0.014626  -0.017276   0.049630   0.012522  -0.002287  -0.194832
    18  H    0.074580  -0.244523   0.050081   0.012233  -0.012234   0.014837
    19  O   -0.034496  -0.020523   0.017928   0.004407  -0.004987  -0.020898
    20  H    0.023950  -0.115369   0.008387   0.000103  -0.000582   0.008249
    21  O   -0.007483   0.032264   0.016308  -0.000236   0.004474  -0.148638
    22  H   -0.000607   0.003515  -0.004389  -0.001020   0.000075   0.046752
    23  C    0.095064  -0.236611   0.264197   0.114764  -0.042052  -1.290630
    24  H   -0.000922   0.009255   0.003065  -0.011566   0.002140  -0.122075
    25  H    0.002097   0.007674   0.014972   0.018321  -0.002864  -0.179018
    26  O   -0.001980   0.004983  -0.004967  -0.039920   0.011805  -0.023740
    27  H    0.000173  -0.002374  -0.000880   0.001159  -0.000523   0.046252
              7          8          9         10         11         12
     1  C   -0.237839   0.295657   0.424046   0.420734   0.063669   0.007178
     2  C    0.728277  -1.352394  -0.069521  -0.142604   0.145823  -0.033519
     3  N   -0.081967   0.123290   0.010346   0.019665   0.004357  -0.023421
     4  C   -0.292472  -0.003570  -0.004623   0.025759  -0.011826   0.363163
     5  C    0.105988  -0.011601  -0.045586  -0.023743   0.012960  -0.037880
     6  C   -0.855222   0.122067   0.008166   0.001918   0.016022   0.013577
     7  C    6.593077  -0.496957  -0.001689  -0.005082  -0.043525   0.007866
     8  C   -0.496957   6.833919   0.009009   0.029210   0.057701   0.007477
     9  H   -0.001689   0.009009   0.521483  -0.023929  -0.006382   0.001573
    10  H   -0.005082   0.029210  -0.023929   0.515382   0.002749  -0.000034
    11  H   -0.043525   0.057701  -0.006382   0.002749   0.575969   0.000692
    12  H    0.007866   0.007477   0.001573  -0.000034   0.000692   0.555786
    13  H    0.004719  -0.003717  -0.000104  -0.000140  -0.000198  -0.029552
    14  H    0.002364   0.004969  -0.004823   0.000610  -0.000047  -0.002740
    15  H    0.013484   0.007520   0.004185  -0.005062  -0.000097   0.004202
    16  H   -0.002317  -0.055831   0.000002  -0.000017  -0.000542  -0.000353
    17  H    0.403516  -0.049136   0.000008  -0.000006   0.000918   0.000009
    18  H   -0.141884   0.557148   0.000139   0.000478   0.004483   0.000017
    19  O   -0.019004   0.203894  -0.000468   0.005349   0.001752   0.000056
    20  H   -0.074515   0.133614   0.000007  -0.000016   0.005028   0.000000
    21  O    0.254980  -0.114565   0.000024  -0.000027  -0.000543   0.000011
    22  H    0.023832  -0.043011   0.000000  -0.000001  -0.000003   0.000000
    23  C    0.013200  -0.027357  -0.000043   0.000060   0.013818   0.007038
    24  H    0.047280  -0.001904   0.000000   0.000000  -0.000011  -0.000002
    25  H   -0.002929  -0.014836   0.000000   0.000000  -0.000041   0.000013
    26  O    0.034457  -0.001041  -0.000015  -0.000001  -0.000073  -0.000318
    27  H   -0.006796   0.002263   0.000000   0.000000   0.000000   0.000011
             13         14         15         16         17         18
     1  C    0.012743  -0.036104  -0.057531   0.002825   0.014626   0.074580
     2  C    0.030534   0.021977   0.002266   0.060692  -0.017276  -0.244523
     3  N   -0.077729   0.012281   0.012819  -0.060834   0.049630   0.050081
     4  C    0.403785  -0.027258  -0.085441   0.068302   0.012522   0.012233
     5  C   -0.032006   0.360031   0.425344  -0.016697  -0.002287  -0.012234
     6  C    0.026651   0.001764   0.010729   0.212324  -0.194832   0.014837
     7  C    0.004719   0.002364   0.013484  -0.002317   0.403516  -0.141884
     8  C   -0.003717   0.004969   0.007520  -0.055831  -0.049136   0.557148
     9  H   -0.000104  -0.004823   0.004185   0.000002   0.000008   0.000139
    10  H   -0.000140   0.000610  -0.005062  -0.000017  -0.000006   0.000478
    11  H   -0.000198  -0.000047  -0.000097  -0.000542   0.000918   0.004483
    12  H   -0.029552  -0.002740   0.004202  -0.000353   0.000009   0.000017
    13  H    0.523008   0.000931  -0.005797   0.002991  -0.000017  -0.000050
    14  H    0.000931   0.516692  -0.023089  -0.000119   0.000000  -0.000061
    15  H   -0.005797  -0.023089   0.524660   0.000098   0.000003  -0.000034
    16  H    0.002991  -0.000119   0.000098   0.557754   0.004217   0.000526
    17  H   -0.000017   0.000000   0.000003   0.004217   0.567403   0.004467
    18  H   -0.000050  -0.000061  -0.000034   0.000526   0.004467   0.531284
    19  O   -0.000044   0.000021  -0.000126  -0.000814  -0.008592  -0.058206
    20  H    0.000000   0.000000   0.000000  -0.000002   0.004498   0.007041
    21  O   -0.000118  -0.000012  -0.000024   0.001789  -0.042064  -0.004271
    22  H    0.000000   0.000000   0.000000   0.000048  -0.005806  -0.000258
    23  C   -0.027120  -0.000559  -0.000869   0.045158   0.086767   0.019590
    24  H   -0.000018   0.000000   0.000000  -0.002735  -0.000116  -0.000017
    25  H    0.000042   0.000000   0.000001   0.004778   0.002561   0.000000
    26  O    0.001067   0.000008  -0.000216   0.005495   0.000505   0.000056
    27  H   -0.000002   0.000000   0.000000  -0.000149  -0.000010   0.000000
             19         20         21         22         23         24
     1  C   -0.034496   0.023950  -0.007483  -0.000607   0.095064  -0.000922
     2  C   -0.020523  -0.115369   0.032264   0.003515  -0.236611   0.009255
     3  N    0.017928   0.008387   0.016308  -0.004389   0.264197   0.003065
     4  C    0.004407   0.000103  -0.000236  -0.001020   0.114764  -0.011566
     5  C   -0.004987  -0.000582   0.004474   0.000075  -0.042052   0.002140
     6  C   -0.020898   0.008249  -0.148638   0.046752  -1.290630  -0.122075
     7  C   -0.019004  -0.074515   0.254980   0.023832   0.013200   0.047280
     8  C    0.203894   0.133614  -0.114565  -0.043011  -0.027357  -0.001904
     9  H   -0.000468   0.000007   0.000024   0.000000  -0.000043   0.000000
    10  H    0.005349  -0.000016  -0.000027  -0.000001   0.000060   0.000000
    11  H    0.001752   0.005028  -0.000543  -0.000003   0.013818  -0.000011
    12  H    0.000056   0.000000   0.000011   0.000000   0.007038  -0.000002
    13  H   -0.000044   0.000000  -0.000118   0.000000  -0.027120  -0.000018
    14  H    0.000021   0.000000  -0.000012   0.000000  -0.000559   0.000000
    15  H   -0.000126   0.000000  -0.000024   0.000000  -0.000869   0.000000
    16  H   -0.000814  -0.000002   0.001789   0.000048   0.045158  -0.002735
    17  H   -0.008592   0.004498  -0.042064  -0.005806   0.086767  -0.000116
    18  H   -0.058206   0.007041  -0.004271  -0.000258   0.019590  -0.000017
    19  O    8.219383   0.249423  -0.003608   0.006487  -0.002292  -0.000038
    20  H    0.249423   0.372412  -0.002110   0.000114   0.005871   0.000000
    21  O   -0.003608  -0.002110   8.277288   0.231352   0.050843   0.005823
    22  H    0.006487   0.000114   0.231352   0.371938  -0.017752  -0.000101
    23  C   -0.002292   0.005871   0.050843  -0.017752   6.183941   0.439873
    24  H   -0.000038   0.000000   0.005823  -0.000101   0.439873   0.575967
    25  H   -0.000068   0.000001   0.000458  -0.000016   0.519210  -0.045462
    26  O    0.000040   0.000003  -0.000466   0.000010   0.097272  -0.055439
    27  H    0.000001   0.000000   0.000003   0.000000  -0.030862  -0.004451
             25         26         27
     1  C    0.002097  -0.001980   0.000173
     2  C    0.007674   0.004983  -0.002374
     3  N    0.014972  -0.004967  -0.000880
     4  C    0.018321  -0.039920   0.001159
     5  C   -0.002864   0.011805  -0.000523
     6  C   -0.179018  -0.023740   0.046252
     7  C   -0.002929   0.034457  -0.006796
     8  C   -0.014836  -0.001041   0.002263
     9  H    0.000000  -0.000015   0.000000
    10  H    0.000000  -0.000001   0.000000
    11  H   -0.000041  -0.000073   0.000000
    12  H    0.000013  -0.000318   0.000011
    13  H    0.000042   0.001067  -0.000002
    14  H    0.000000   0.000008   0.000000
    15  H    0.000001  -0.000216   0.000000
    16  H    0.004778   0.005495  -0.000149
    17  H    0.002561   0.000505  -0.000010
    18  H    0.000000   0.000056   0.000000
    19  O   -0.000068   0.000040   0.000001
    20  H    0.000001   0.000003   0.000000
    21  O    0.000458  -0.000466   0.000003
    22  H   -0.000016   0.000010   0.000000
    23  C    0.519210   0.097272  -0.030862
    24  H   -0.045462  -0.055439  -0.004451
    25  H    0.566273  -0.047946  -0.004524
    26  O   -0.047946   8.378848   0.229366
    27  H   -0.004524   0.229366   0.378870
 Mulliken atomic charges:
              1
     1  C   -0.518140
     2  C    0.171875
     3  N   -0.141363
     4  C   -0.246030
     5  C   -0.251191
     6  C   -0.072319
     7  C    0.029158
     8  C   -0.211818
     9  H    0.178193
    10  H    0.178747
    11  H    0.157346
    12  H    0.159151
    13  H    0.170142
    14  H    0.173163
    15  H    0.172978
    16  H    0.173409
    17  H    0.168492
    18  H    0.184580
    19  O   -0.534578
    20  H    0.373897
    21  O   -0.551452
    22  H    0.388841
    23  C   -0.280519
    24  H    0.161454
    25  H    0.161306
    26  O   -0.587796
    27  H    0.392473
 Sum of Mulliken atomic charges =   0.00000
 Mulliken charges with hydrogens summed into heavy atoms:
              1
     1  C   -0.161200
     2  C    0.329221
     3  N   -0.141363
     4  C    0.083263
     5  C    0.094950
     6  C    0.101090
     7  C    0.197650
     8  C   -0.027238
    19  O   -0.160680
    21  O   -0.162611
    23  C    0.042240
    26  O   -0.195323
 Sum of Mulliken charges with hydrogens summed into heavy atoms =   0.00000
 Electronic spatial extent (au):  <R**2>=           2111.1097
 Charge=              0.0000 electrons
 Dipole moment (field-independent basis, Debye):
    X=              0.0606    Y=              0.9645    Z=             -2.3954  Tot=              2.5830
 Quadrupole moment (field-independent basis, Debye-Ang):
   XX=            -71.4908   YY=            -69.9998   ZZ=            -72.4397
   XY=             -5.0365   XZ=              2.4136   YZ=             -6.9224
 Traceless Quadrupole moment (field-independent basis, Debye-Ang):
   XX=             -0.1807   YY=              1.3103   ZZ=             -1.1296
   XY=             -5.0365   XZ=              2.4136   YZ=             -6.9224
 Octapole moment (field-independent basis, Debye-Ang**2):
  XXX=            -69.5734  YYY=             26.4800  ZZZ=             -6.4906  XYY=              7.5137
  XXY=             -4.5656  XXZ=            -22.8315  XZZ=              7.1370  YZZ=              8.5835
  YYZ=             -9.0973  XYZ=             -1.7894
 Hexadecapole moment (field-independent basis, Debye-Ang**3):
 XXXX=          -1126.2362 YYYY=          -1002.7336 ZZZZ=           -246.3250 XXXY=            -20.3092
 XXXZ=             62.2757 YYYX=             18.0029 YYYZ=             -5.6519 ZZZX=             -9.3887
 ZZZY=            -14.9091 XXYY=           -446.8273 XXZZ=           -243.5351 YYZZ=           -222.4323
 XXYZ=             -5.0238 YYXZ=             -6.5618 ZZXY=             22.2776
 N-N= 7.986375487835D+02 E-N=-2.983436101381D+03  KE= 5.886619158609D+02
 1\1\GINC-COMPUTE-3-0\SP\RmPW1PW91\6-31+G(d,p)\C8H15N1O3\MAMICHETTI.IQU
 IR\17-May-2024\0\\# mpw1pw91/6-31+G** nmr scrf=(pcm,solvent=water)\\co
 mment\\0,1\C,0,-2.093736,1.478966,-0.144227\C,0,-1.200264,0.3524,-0.69
 1704\N,0,0.217159,0.828288,-0.55288\C,0,0.180611,2.126827,0.165952\C,0
 ,-1.183126,2.192894,0.864742\C,0,1.002303,-0.226874,0.135612\C,0,0.166
 98,-1.49981,-0.02407\C,0,-1.262906,-0.971075,0.085669\H,0,-2.374273,2.
 165697,-0.951609\H,0,-3.017067,1.085414,0.294005\H,0,-1.431298,0.14193
 3,-1.745433\H,0,0.269914,2.952578,-0.552893\H,0,1.02748,2.204758,0.852
 057\H,0,-1.500434,3.2174,1.084735\H,0,-1.152473,1.637803,1.810754\H,0,
 1.083749,-0.021285,1.21571\H,0,0.308982,-1.926824,-1.030137\H,0,-1.478
 037,-0.782214,1.144145\O,0,-2.271451,-1.879927,-0.347543\H,0,-2.111673
 ,-2.05823,-1.291221\O,0,0.525432,-2.458612,0.967366\H,0,-0.021792,-3.2
 45859,0.805045\C,0,2.411001,-0.381491,-0.41531\H,0,2.868796,-1.283225,
 0.017622\H,0,2.363961,-0.512398,-1.505677\O,0,3.178797,0.779541,-0.077
 349\H,0,4.056649,0.667391,-0.476729\\Version=AM64L-G09RevC.01\State=1-
 A\HF=-594.1976557\RMSD=3.734e-09\Dipole=-0.0238408,-0.3794529,-0.94241
 1\Quadrupole=-0.1343498,0.9741753,-0.8398255,-3.7445357,-1.7944375,5.1
 466124\PG=C01 [X(C8H15N1O3)]\\@


 E PUR SI MUOVE    -- GALILEO GALILEI
 Job cpu time:  0 days  0 hours  8 minutes 39.2 seconds.
 File lengths (MBytes):  RWF=    114 Int=      0 D2E=      0 Chk=      7 Scr=      1
 Normal termination of Gaussian 09 at Fri May 17 12:10:11 2024.
