 Entering Gaussian System, Link 0=g09
 Input=/home/mamichetti.iquir/Linux/02_Cardona_A1A3_R__R_R_R_016_OptB.gjc
 Output=/home/mamichetti.iquir/Linux/02_Cardona_A1A3_R__R_R_R_016_OptB.log
 Initial command:
 /opt/ohpc/pub/apps/software/Gaussian/09/AMD64.SSE4a-enabled/g09/l1.exe /local/mamichetti.iquir/Gau-710495.inp -scrdir=/local/mamichetti.iquir/
 Entering Link 1 = /opt/ohpc/pub/apps/software/Gaussian/09/AMD64.SSE4a-enabled/g09/l1.exe PID=    710496.
  
 Copyright (c) 1988,1990,1992,1993,1995,1998,2003,2009,2011,
            Gaussian, Inc.  All Rights Reserved.
  
 This is part of the Gaussian(R) 09 program.  It is based on
 the Gaussian(R) 03 system (copyright 2003, Gaussian, Inc.),
 the Gaussian(R) 98 system (copyright 1998, Gaussian, Inc.),
 the Gaussian(R) 94 system (copyright 1995, Gaussian, Inc.),
 the Gaussian 92(TM) system (copyright 1992, Gaussian, Inc.),
 the Gaussian 90(TM) system (copyright 1990, Gaussian, Inc.),
 the Gaussian 88(TM) system (copyright 1988, Gaussian, Inc.),
 the Gaussian 86(TM) system (copyright 1986, Carnegie Mellon
 University), and the Gaussian 82(TM) system (copyright 1983,
 Carnegie Mellon University). Gaussian is a federally registered
 trademark of Gaussian, Inc.
  
 This software contains proprietary and confidential information,
 including trade secrets, belonging to Gaussian, Inc.
  
 This software is provided under written license and may be
 used, copied, transmitted, or stored only in accord with that
 written license.
  
 The following legend is applicable only to US Government
 contracts under FAR:
  
                    RESTRICTED RIGHTS LEGEND
  
 Use, reproduction and disclosure by the US Government is
 subject to restrictions as set forth in subparagraphs (a)
 and (c) of the Commercial Computer Software - Restricted
 Rights clause in FAR 52.227-19.
  
 Gaussian, Inc.
 340 Quinnipiac St., Bldg. 40, Wallingford CT 06492
  
  
 ---------------------------------------------------------------
 Warning -- This program may not be used in any manner that
 competes with the business of Gaussian, Inc. or will provide
 assistance to any competitor of Gaussian, Inc.  The licensee
 of this program is prohibited from giving any competitor of
 Gaussian, Inc. access to this program.  By using this program,
 the user acknowledges that Gaussian, Inc. is engaged in the
 business of creating and licensing software in the field of
 computational chemistry and represents and warrants to the
 licensee that it is not a competitor of Gaussian, Inc. and that
 it will not use this program in any manner prohibited above.
 ---------------------------------------------------------------
  

 Cite this work as:
 Gaussian 09, Revision C.01,
 M. J. Frisch, G. W. Trucks, H. B. Schlegel, G. E. Scuseria, 
 M. A. Robb, J. R. Cheeseman, G. Scalmani, V. Barone, B. Mennucci, 
 G. A. Petersson, H. Nakatsuji, M. Caricato, X. Li, H. P. Hratchian, 
 A. F. Izmaylov, J. Bloino, G. Zheng, J. L. Sonnenberg, M. Hada, 
 M. Ehara, K. Toyota, R. Fukuda, J. Hasegawa, M. Ishida, T. Nakajima, 
 Y. Honda, O. Kitao, H. Nakai, T. Vreven, J. A. Montgomery, Jr., 
 J. E. Peralta, F. Ogliaro, M. Bearpark, J. J. Heyd, E. Brothers, 
 K. N. Kudin, V. N. Staroverov, T. Keith, R. Kobayashi, J. Normand, 
 K. Raghavachari, A. Rendell, J. C. Burant, S. S. Iyengar, J. Tomasi, 
 M. Cossi, N. Rega, J. M. Millam, M. Klene, J. E. Knox, J. B. Cross, 
 V. Bakken, C. Adamo, J. Jaramillo, R. Gomperts, R. E. Stratmann, 
 O. Yazyev, A. J. Austin, R. Cammi, C. Pomelli, J. W. Ochterski, 
 R. L. Martin, K. Morokuma, V. G. Zakrzewski, G. A. Voth, 
 P. Salvador, J. J. Dannenberg, S. Dapprich, A. D. Daniels, 
 O. Farkas, J. B. Foresman, J. V. Ortiz, J. Cioslowski, 
 and D. J. Fox, Gaussian, Inc., Wallingford CT, 2010.
 
 ******************************************
 Gaussian 09:  AM64L-G09RevC.01 23-Sep-2011
                17-May-2024 
 ******************************************
 %nprocshared=4
 Will use up to    4 processors via shared memory.
 ------------------------------------------------
 # mpw1pw91/6-31+G** nmr scrf=(pcm,solvent=water)
 ------------------------------------------------
 1/38=1/1;
 2/12=2,17=6,18=5,40=1/2;
 3/5=1,6=6,7=111,11=2,16=1,25=1,30=1,70=2201,72=1,74=-7/1,2,8,3;
 4//1;
 5/5=2,38=5,53=1/2;
 8/6=1,10=90,11=11/1;
 10/13=100,45=16/2;
 6/7=2,8=2,9=2,10=2,28=1/1;
 99/9=1/99;
 -------
 comment
 -------
 Charge =  0 Multiplicity = 1
 Symbolic Z-Matrix:
 6                     1.93806  -1.64446  -0.16288 
 6                     1.13293  -0.45095  -0.7044 
 7                    -0.31843  -0.80115  -0.51897 
 6                    -0.3713   -2.08513   0.22979 
 6                     1.00232  -2.25415   0.8904 
 6                    -0.98642   0.32997   0.17408 
 6                    -0.04592   1.52009  -0.0291 
 6                     1.33363   0.86567   0.04965 
 1                     2.126    -2.36889  -0.96419 
 1                     2.90769  -1.32972   0.23674 
 1                     1.35255  -0.27167  -1.76454 
 1                    -1.20098  -2.0717    0.94137 
 1                    -0.55442  -2.91431  -0.46648 
 1                     1.23716  -3.297     1.12649 
 1                     1.04802  -1.67677   1.82207 
 1                    -1.05958   0.14106   1.25724 
 1                    -0.17468   1.9447   -1.03632 
 1                     1.55593   0.6703    1.10954 
 8                     2.38938   1.62275  -0.5397 
 1                     2.52842   2.4026    0.02386 
 8                    -0.29124   2.51936   0.95904 
 1                     0.25917   3.28742   0.7302 
 6                    -2.39328   0.58454  -0.35843 
 1                    -2.84392   1.42192   0.18448 
 1                    -2.34335   0.85491  -1.42312 
 8                    -3.26836  -0.53227  -0.16618 
 1                    -2.90741  -1.25702  -0.70444 
 
                          Input orientation:                          
 ---------------------------------------------------------------------
 Center     Atomic      Atomic             Coordinates (Angstroms)
 Number     Number       Type             X           Y           Z
 ---------------------------------------------------------------------
      1          6           0        1.938063   -1.644461   -0.162879
      2          6           0        1.132928   -0.450949   -0.704404
      3          7           0       -0.318433   -0.801153   -0.518973
      4          6           0       -0.371299   -2.085128    0.229787
      5          6           0        1.002323   -2.254149    0.890399
      6          6           0       -0.986415    0.329974    0.174077
      7          6           0       -0.045924    1.520093   -0.029095
      8          6           0        1.333626    0.865665    0.049653
      9          1           0        2.125996   -2.368890   -0.964187
     10          1           0        2.907690   -1.329719    0.236740
     11          1           0        1.352552   -0.271670   -1.764535
     12          1           0       -1.200980   -2.071701    0.941369
     13          1           0       -0.554415   -2.914305   -0.466482
     14          1           0        1.237160   -3.296996    1.126490
     15          1           0        1.048020   -1.676772    1.822066
     16          1           0       -1.059579    0.141056    1.257243
     17          1           0       -0.174682    1.944702   -1.036317
     18          1           0        1.555928    0.670303    1.109542
     19          8           0        2.389383    1.622751   -0.539701
     20          1           0        2.528417    2.402601    0.023863
     21          8           0       -0.291235    2.519357    0.959037
     22          1           0        0.259169    3.287418    0.730204
     23          6           0       -2.393284    0.584540   -0.358425
     24          1           0       -2.843918    1.421920    0.184476
     25          1           0       -2.343353    0.854906   -1.423118
     26          8           0       -3.268357   -0.532267   -0.166183
     27          1           0       -2.907414   -1.257016   -0.704441
 ---------------------------------------------------------------------
                    Distance matrix (angstroms):
                    1          2          3          4          5
     1  C    0.000000
     2  C    1.538169   0.000000
     3  N    2.435107   1.504485   0.000000
     4  C    2.383595   2.409554   1.487289   0.000000
     5  C    1.535162   2.410806   2.417007   1.533562   0.000000
     6  C    3.544644   2.423465   1.485250   2.492828   3.338546
     7  C    3.737446   2.393897   2.387975   3.629119   4.023580
     8  C    2.590607   1.530475   2.414729   3.412682   3.248054
     9  H    1.096454   2.175355   2.937899   2.782549   2.171473
    10  H    1.094959   2.192663   3.355347   3.364886   2.216363
    11  H    2.189219   1.097385   2.150341   3.199627   3.331900
    12  H    3.354920   3.283677   2.127388   1.093115   2.211432
    13  H    2.813739   2.995306   2.126935   1.098115   2.168033
    14  H    2.210115   3.385708   3.369963   2.204505   1.094722
    15  H    2.175598   2.809431   2.848573   2.171767   1.097021
    16  H    3.767051   3.000936   2.142895   2.546623   3.181670
    17  H    4.255429   2.749392   2.797861   4.228618   4.767381
    18  H    2.668935   2.174060   2.886256   3.475712   2.984447
    19  O    3.319693   2.430234   3.634282   4.686347   4.358839
    20  H    4.094155   3.258912   4.320100   5.347006   4.976461
    21  O    4.854467   3.690257   3.634699   4.662563   4.946146
    22  H    5.285803   4.098407   4.313987   5.432509   5.593470
    23  C    4.875167   3.691356   2.500185   3.400227   4.598681
    24  H    5.691282   4.484758   3.437291   4.291303   5.367064
    25  H    5.115228   3.782372   2.767727   3.907031   5.119778
    26  O    5.323889   4.434817   2.983088   3.310757   4.724400
    27  H    4.891017   4.119965   2.635343   2.826735   4.338644
                    6          7          8          9         10
     6  C    0.000000
     7  C    1.530420   0.000000
     8  C    2.384331   1.528933   0.000000
     9  H    4.273946   4.551464   3.481102   0.000000
    10  H    4.233505   4.112898   2.707839   1.770070   0.000000
    11  H    3.096927   2.859703   2.141300   2.374259   2.746457
    12  H    2.530379   3.895759   3.980892   3.845547   4.234172
    13  H    3.335009   4.484836   4.256673   2.780250   3.871899
    14  H    4.359620   5.117229   4.300771   2.454046   2.729928
    15  H    3.298761   3.852721   3.112395   3.066637   2.468213
    16  H    1.101949   2.141006   2.776826   4.624118   4.352451
    17  H    2.175158   1.100621   2.149103   4.889315   4.673706
    18  H    2.730280   2.141160   1.100431   3.723174   2.566930
    19  O    3.684666   2.490377   1.426583   4.022780   3.096544
    20  H    4.083184   2.721921   1.946885   4.889306   3.757576
    21  O    2.427516   1.426573   2.490351   5.782452   5.056701
    22  H    3.256875   1.947577   2.735415   6.192723   5.345664
    23  C    1.525661   2.548297   3.759710   5.432641   5.667357
    24  H    2.154709   2.807850   4.216571   6.355290   6.376146
    25  H    2.160525   2.768385   3.960978   5.529788   5.924624
    26  O    2.463026   3.822963   4.814462   5.754045   6.240339
    27  H    2.642077   4.044323   4.802172   5.161293   5.891226
                   11         12         13         14         15
    11  H    0.000000
    12  H    4.133105   0.000000
    13  H    3.507846   1.763540   0.000000
    14  H    4.186160   2.734985   2.427705   0.000000
    15  H    3.864034   2.447365   3.055608   1.773337   0.000000
    16  H    3.888427   2.239657   3.544242   4.136703   2.839982
    17  H    2.788378   4.593041   4.907021   5.843495   4.772885
    18  H    3.031335   3.891967   4.448237   3.980121   2.504880
    19  O    2.482754   5.360341   5.408899   5.320500   4.273646
    20  H    3.425310   5.896575   6.165532   5.947145   4.697488
    21  O    4.231987   4.680359   5.623704   6.016144   4.488421
    22  H    4.481776   5.558487   6.368308   6.668434   5.143698
    23  C    4.091641   3.188522   3.954116   5.518280   4.659468
    24  H    4.927195   3.934148   4.946556   6.309577   5.237440
    25  H    3.878847   3.932028   4.280468   6.046393   5.333106
    26  O    4.896472   2.805455   3.623502   5.441913   4.888163
    27  H    4.499113   2.506854   2.887877   4.969036   4.712207
                   16         17         18         19         20
    16  H    0.000000
    17  H    3.049032   0.000000
    18  H    2.672601   3.037073   0.000000
    19  O    4.161702   2.631484   2.078896   0.000000
    20  H    4.416959   2.939455   2.263910   0.972163   0.000000
    21  O    2.517061   2.079724   2.617950   3.199348   2.972982
    22  H    3.452023   2.260909   2.945297   2.986903   2.536002
    23  C    2.141455   2.689196   4.214090   4.897412   5.260668
    24  H    2.444444   2.981352   4.558434   5.286984   5.463471
    25  H    3.056467   2.457723   4.653261   4.875326   5.312557
    26  O    2.712601   4.057503   5.132969   6.065776   6.500166
    27  H    3.036001   4.222436   5.189076   6.031273   6.593291
                   21         22         23         24         25
    21  O    0.000000
    22  H    0.972228   0.000000
    23  C    3.146082   3.940326   0.000000
    24  H    2.884528   3.661564   1.094997   0.000000
    25  H    3.557562   4.162575   1.099619   1.776634   0.000000
    26  O    4.409284   5.276073   1.431771   2.030260   2.088005
    27  H    4.885954   5.721655   1.943035   2.823279   2.301060
                   26         27
    26  O    0.000000
    27  H    0.972246   0.000000
 Stoichiometry    C8H15NO3
 Framework group  C1[X(C8H15NO3)]
 Deg. of freedom    75
 Full point group                 C1      NOp   1
 Largest Abelian subgroup         C1      NOp   1
 Largest concise Abelian subgroup C1      NOp   1
                         Standard orientation:                         
 ---------------------------------------------------------------------
 Center     Atomic      Atomic             Coordinates (Angstroms)
 Number     Number       Type             X           Y           Z
 ---------------------------------------------------------------------
      1          6           0        1.938063   -1.644461   -0.162879
      2          6           0        1.132928   -0.450949   -0.704404
      3          7           0       -0.318433   -0.801153   -0.518973
      4          6           0       -0.371299   -2.085128    0.229787
      5          6           0        1.002323   -2.254149    0.890399
      6          6           0       -0.986415    0.329974    0.174077
      7          6           0       -0.045924    1.520093   -0.029095
      8          6           0        1.333626    0.865665    0.049653
      9          1           0        2.125996   -2.368890   -0.964187
     10          1           0        2.907690   -1.329720    0.236740
     11          1           0        1.352552   -0.271670   -1.764535
     12          1           0       -1.200980   -2.071701    0.941369
     13          1           0       -0.554416   -2.914305   -0.466482
     14          1           0        1.237159   -3.296996    1.126490
     15          1           0        1.048020   -1.676772    1.822066
     16          1           0       -1.059579    0.141056    1.257243
     17          1           0       -0.174682    1.944702   -1.036317
     18          1           0        1.555928    0.670303    1.109542
     19          8           0        2.389383    1.622751   -0.539701
     20          1           0        2.528417    2.402600    0.023863
     21          8           0       -0.291234    2.519357    0.959037
     22          1           0        0.259170    3.287418    0.730204
     23          6           0       -2.393284    0.584540   -0.358425
     24          1           0       -2.843918    1.421920    0.184476
     25          1           0       -2.343353    0.854906   -1.423118
     26          8           0       -3.268357   -0.532266   -0.166183
     27          1           0       -2.907414   -1.257016   -0.704441
 ---------------------------------------------------------------------
 Rotational constants (GHZ):      1.0864621      0.9159635      0.5619130
 Standard basis: 6-31+G(d,p) (6D, 7F)
 There are   303 symmetry adapted basis functions of A   symmetry.
 Integral buffers will be    131072 words long.
 Raffenetti 2 integral format.
 Two-electron integral symmetry is turned on.
   303 basis functions,   489 primitive gaussians,   303 cartesian basis functions
    47 alpha electrons       47 beta electrons
       nuclear repulsion energy       799.9185680719 Hartrees.
 NAtoms=   27 NActive=   27 NUniq=   27 SFac= 1.00D+00 NAtFMM=   60 NAOKFM=F Big=F
 ------------------------------------------------------------------------------
 Polarizable Continuum Model (PCM)
 =================================
 Model                : PCM.
 Atomic radii         : UFF (Universal Force Field).
 Polarization charges : Total charges.
 Charge compensation  : None.
 Solution method      : Matrix inversion.
 Cavity type          : Scaled VdW (van der Waals Surface) (Alpha=1.100).
 Cavity algorithm     : GePol (No added spheres)
                        Default sphere list used, NSphG=   27.
                        Lebedev-Laikov grids with approx.  5.0 points / Ang**2.
                        Smoothing algorithm: Karplus/York (Gamma=1.0000).
                        Polarization charges: spherical gaussians, with
                                              point-specific exponents (IZeta= 3).
                        Self-potential: point-specific (ISelfS= 7).
                        Self-field    : sphere-specific E.n sum rule (ISelfD= 2).
 Solvent              : Water, Eps=  78.355300 Eps(inf)=   1.777849
 ------------------------------------------------------------------------------
 One-electron integrals computed using PRISM.
 NBasis=   303 RedAO= T  NBF=   303
 NBsUse=   303 1.00D-06 NBFU=   303
 Harris functional with IExCor=  908 diagonalized for initial guess.
 ExpMin= 4.38D-02 ExpMax= 5.48D+03 ExpMxC= 8.25D+02 IAcc=2 IRadAn=         4 AccDes= 0.00D+00
 HarFok:  IExCor=  908 AccDes= 0.00D+00 IRadAn=         4 IDoV= 1
 ScaDFX=  1.000000  1.000000  1.000000  1.000000
 FoFCou: FMM=F IPFlag=           0 FMFlag=      100000 FMFlg1=           0
         NFxFlg=           0 DoJE=T BraDBF=F KetDBF=T FulRan=T
         Omega=  0.000000  0.000000  1.000000  0.000000  0.000000 ICntrl=     500 IOpCl=  0
         NMat0=    1 NMatS0=    1 NMatT0=    0 NMatD0=    1 NMtDS0=    0 NMtDT0=    0
         I1Cent=           4 NGrid=           0.
 Petite list used in FoFCou.
 Initial guess orbital symmetries:
       Occupied  (A) (A) (A) (A) (A) (A) (A) (A) (A) (A) (A) (A)
                 (A) (A) (A) (A) (A) (A) (A) (A) (A) (A) (A) (A)
                 (A) (A) (A) (A) (A) (A) (A) (A) (A) (A) (A) (A)
                 (A) (A) (A) (A) (A) (A) (A) (A) (A) (A) (A)
       Virtual   (A) (A) (A) (A) (A) (A) (A) (A) (A) (A) (A) (A)
                 (A) (A) (A) (A) (A) (A) (A) (A) (A) (A) (A) (A)
                 (A) (A) (A) (A) (A) (A) (A) (A) (A) (A) (A) (A)
                 (A) (A) (A) (A) (A) (A) (A) (A) (A) (A) (A) (A)
                 (A) (A) (A) (A) (A) (A) (A) (A) (A) (A) (A) (A)
                 (A) (A) (A) (A) (A) (A) (A) (A) (A) (A) (A) (A)
                 (A) (A) (A) (A) (A) (A) (A) (A) (A) (A) (A) (A)
                 (A) (A) (A) (A) (A) (A) (A) (A) (A) (A) (A) (A)
                 (A) (A) (A) (A) (A) (A) (A) (A) (A) (A) (A) (A)
                 (A) (A) (A) (A) (A) (A) (A) (A) (A) (A) (A) (A)
                 (A) (A) (A) (A) (A) (A) (A) (A) (A) (A) (A) (A)
                 (A) (A) (A) (A) (A) (A) (A) (A) (A) (A) (A) (A)
                 (A) (A) (A) (A) (A) (A) (A) (A) (A) (A) (A) (A)
                 (A) (A) (A) (A) (A) (A) (A) (A) (A) (A) (A) (A)
                 (A) (A) (A) (A) (A) (A) (A) (A) (A) (A) (A) (A)
                 (A) (A) (A) (A) (A) (A) (A) (A) (A) (A) (A) (A)
                 (A) (A) (A) (A) (A) (A) (A) (A) (A) (A) (A) (A)
                 (A) (A) (A) (A) (A) (A) (A) (A) (A) (A) (A) (A)
                 (A) (A) (A) (A) (A) (A) (A) (A) (A) (A) (A) (A)
                 (A) (A) (A) (A) (A) (A) (A) (A) (A) (A) (A) (A)
                 (A) (A) (A) (A) (A) (A) (A) (A) (A) (A) (A) (A)
                 (A) (A) (A) (A)
 The electronic state of the initial guess is 1-A.
 Requested convergence on RMS density matrix=1.00D-08 within 128 cycles.
 Requested convergence on MAX density matrix=1.00D-06.
 Requested convergence on             energy=1.00D-06.
 No special actions if energy rises.
 Error on total polarization charges =  0.01459
 SCF Done:  E(RmPW1PW91) =  -594.198240943     A.U. after   13 cycles
             Convg  =    0.4618D-08             -V/T =  2.0094
 Range of M.O.s used for correlation:     1   303
 NBasis=   303 NAE=    47 NBE=    47 NFC=     0 NFV=     0
 NROrb=    303 NOA=    47 NOB=    47 NVA=   256 NVB=   256

 **** Warning!!: The largest alpha MO coefficient is  0.59087185D+02

 NEqPCM:  Using equilibrium solvation (IEInf=0, Eps=  78.3553, EpsInf=   1.7778)
          Differentiating once with respect to magnetic field using GIAOs.
          Electric field/nuclear overlap derivatives assumed to be zero.
 FoFCou: FMM=F IPFlag=           0 FMFlag=    10101102 FMFlg1=           0
         NFxFlg=    40000000 DoJE=F BraDBF=F KetDBF=T FulRan=T
         Omega=  0.000000  0.000000  1.000000  0.000000  0.000000 ICntrl=    6100 IOpCl=  0
         NMat0=    1 NMatS0=    1 NMatT0=    0 NMatD0=    1 NMtDS0=    0 NMtDT0=    0
         I1Cent=           7 NGrid=        1845.
 Symmetry not used in FoFCou.
          There are     3 degrees of freedom in the 1st order CPHF.  IDoFFX=0.
      3 vectors produced by pass  0 Test12= 4.01D-13 3.33D-08 XBig12= 2.84D+01 7.33D-01.
 AX will form     3 AO Fock derivatives at one time.
      3 vectors produced by pass  1 Test12= 4.01D-13 3.33D-08 XBig12= 7.18D-02 5.70D-02.
      3 vectors produced by pass  2 Test12= 4.01D-13 3.33D-08 XBig12= 1.37D-04 1.99D-03.
      3 vectors produced by pass  3 Test12= 4.01D-13 3.33D-08 XBig12= 5.55D-07 1.77D-04.
      3 vectors produced by pass  4 Test12= 4.01D-13 3.33D-08 XBig12= 2.02D-09 1.02D-05.
      3 vectors produced by pass  5 Test12= 4.01D-13 3.33D-08 XBig12= 7.04D-12 5.28D-07.
 Inverted reduced A of dimension    18 with in-core refinement.
 Calculating GIAO nuclear magnetic shielding tensors.
 SCF GIAO Magnetic shielding tensor (ppm):
      1  C    Isotropic =   164.5599   Anisotropy =    22.0778
   XX=   170.3423   YX=    -2.6618   ZX=     3.1744
   XY=    -8.1765   YY=   167.1108   ZY=   -12.1106
   XZ=    -7.8123   YZ=   -18.9427   ZZ=   156.2266
   Eigenvalues:   144.2376   170.1636   179.2784
      2  C    Isotropic =   128.1572   Anisotropy =    57.1494
   XX=   157.8869   YX=    13.2318   ZX=    -1.7842
   XY=    21.0089   YY=   128.2721   ZY=   -13.2519
   XZ=    -7.1192   YZ=     3.5716   ZZ=    98.3127
   Eigenvalues:    97.4908   120.7241   166.2569
      3  N    Isotropic =   199.8437   Anisotropy =    74.5279
   XX=   235.9504   YX=   -16.1063   ZX=   -19.1119
   XY=   -24.8228   YY=   210.8504   ZY=   -13.5131
   XZ=   -26.3102   YZ=   -12.0079   ZZ=   152.7302
   Eigenvalues:   142.3176   207.6845   249.5290
      4  C    Isotropic =   138.3835   Anisotropy =    60.1793
   XX=   129.2207   YX=    -6.2474   ZX=    -5.9178
   XY=     4.4236   YY=   161.3787   ZY=   -28.0987
   XZ=     8.4843   YZ=   -32.5962   ZZ=   124.5512
   Eigenvalues:   107.4473   129.2002   178.5031
      5  C    Isotropic =   171.2719   Anisotropy =    19.0467
   XX=   182.7906   YX=     1.3417   ZX=     2.4787
   XY=     2.4861   YY=   169.6036   ZY=   -13.8059
   XZ=     2.5988   YZ=   -22.1728   ZZ=   161.4213
   Eigenvalues:   146.7833   183.0626   183.9697
      6  C    Isotropic =   124.9706   Anisotropy =    41.2303
   XX=   117.5754   YX=    -4.0795   ZX=    -2.9258
   XY=    -5.5313   YY=   145.1291   ZY=    18.8138
   XZ=   -23.4829   YZ=     8.2076   ZZ=   112.2073
   Eigenvalues:   100.0327   122.4217   152.4575
      7  C    Isotropic =   116.0598   Anisotropy =    36.0281
   XX=   121.8740   YX=    -8.4521   ZX=    -4.7791
   XY=    -7.5986   YY=   123.3241   ZY=    27.2778
   XZ=    -4.6619   YZ=    12.1087   ZZ=   102.9813
   Eigenvalues:    90.9872   117.1137   140.0785
      8  C    Isotropic =   113.1624   Anisotropy =    28.5725
   XX=   130.8887   YX=     4.8552   ZX=   -15.3861
   XY=    -0.6351   YY=   117.2862   ZY=    -6.0711
   XZ=     2.7646   YZ=     3.8991   ZZ=    91.3123
   Eigenvalues:    90.3095   116.9670   132.2108
      9  H    Isotropic =    29.7940   Anisotropy =    11.9164
   XX=    27.5258   YX=    -3.5002   ZX=    -3.2795
   XY=    -4.5259   YY=    31.3160   ZY=     3.9290
   XZ=    -4.2331   YZ=     3.7363   ZZ=    30.5402
   Eigenvalues:    24.5652    27.0785    37.7383
     10  H    Isotropic =    29.7208   Anisotropy =     9.6792
   XX=    35.8901   YX=     0.2078   ZX=     1.9865
   XY=     0.8151   YY=    27.8628   ZY=    -0.6887
   XZ=     1.3663   YZ=    -0.3378   ZZ=    25.4096
   Eigenvalues:    25.0262    27.9626    36.1736
     11  H    Isotropic =    28.2450   Anisotropy =     6.9113
   XX=    27.5124   YX=     0.1076   ZX=    -2.9959
   XY=     0.1155   YY=    25.9396   ZY=    -1.0060
   XZ=    -2.4467   YZ=    -1.1274   ZZ=    31.2831
   Eigenvalues:    25.5232    26.3593    32.8526
     12  H    Isotropic =    28.7560   Anisotropy =     7.0572
   XX=    32.0019   YX=     0.7976   ZX=    -1.8260
   XY=     0.8070   YY=    28.4153   ZY=    -4.3794
   XZ=    -2.2384   YZ=    -2.7673   ZZ=    25.8508
   Eigenvalues:    23.1652    29.6419    33.4608
     13  H    Isotropic =    28.6164   Anisotropy =    11.3395
   XX=    25.9896   YX=     1.9230   ZX=     2.5874
   XY=     2.9157   YY=    34.7383   ZY=     2.8905
   XZ=     3.4782   YZ=     1.5893   ZZ=    25.1213
   Eigenvalues:    22.4906    27.1825    36.1760
     14  H    Isotropic =    30.0357   Anisotropy =    12.6498
   XX=    27.1863   YX=    -2.3123   ZX=     0.6859
   XY=    -2.6720   YY=    35.7868   ZY=    -4.6655
   XZ=     0.9752   YZ=    -4.7719   ZZ=    27.1340
   Eigenvalues:    25.0223    26.6159    38.4689
     15  H    Isotropic =    29.8160   Anisotropy =     8.8943
   XX=    27.0258   YX=     0.1047   ZX=     1.1639
   XY=    -0.1309   YY=    26.9469   ZY=     1.4941
   XZ=     1.1626   YZ=     0.5229   ZZ=    35.4751
   Eigenvalues:    26.7030    26.9993    35.7455
     16  H    Isotropic =    28.8221   Anisotropy =     5.6142
   XX=    28.8461   YX=    -1.7860   ZX=    -1.3503
   XY=    -1.9749   YY=    28.1744   ZY=     2.8762
   XZ=    -1.8731   YZ=     1.2648   ZZ=    29.4458
   Eigenvalues:    26.3861    27.5153    32.5649
     17  H    Isotropic =    28.0040   Anisotropy =     1.6270
   XX=    26.0985   YX=    -0.9221   ZX=     0.4293
   XY=     0.3117   YY=    28.9012   ZY=     0.8636
   XZ=     0.5215   YZ=    -0.7446   ZZ=    29.0123
   Eigenvalues:    25.9897    28.9336    29.0887
     18  H    Isotropic =    27.9870   Anisotropy =     4.0569
   XX=    27.2727   YX=     2.5158   ZX=    -0.2562
   XY=     1.7306   YY=    29.2466   ZY=    -1.3960
   XZ=     0.5930   YZ=    -0.0937   ZZ=    27.4418
   Eigenvalues:    25.7392    27.5303    30.6916
     19  O    Isotropic =   300.1737   Anisotropy =    41.3091
   XX=   275.6399   YX=    13.5814   ZX=     8.9099
   XY=    31.1090   YY=   316.1814   ZY=   -10.2021
   XZ=   -11.8716   YZ=    -0.6699   ZZ=   308.6997
   Eigenvalues:   265.7240   307.0839   327.7131
     20  H    Isotropic =    29.5752   Anisotropy =    19.1193
   XX=    27.2696   YX=     7.3670   ZX=     0.0892
   XY=     5.9964   YY=    35.4557   ZY=     8.0290
   XZ=     0.8175   YZ=     7.5175   ZZ=    26.0005
   Eigenvalues:    20.0776    26.3267    42.3214
     21  O    Isotropic =   300.6484   Anisotropy =    39.5297
   XX=   277.6912   YX=    25.0823   ZX=    19.2908
   XY=    15.4977   YY=   308.0208   ZY=    -1.4834
   XZ=    -7.2824   YZ=    17.2027   ZZ=   316.2333
   Eigenvalues:   267.4523   307.4914   327.0016
     22  H    Isotropic =    29.6546   Anisotropy =    19.3165
   XX=    26.5480   YX=     6.3195   ZX=    -3.8423
   XY=     7.3336   YY=    39.5885   ZY=     0.7210
   XZ=    -2.3655   YZ=     0.4586   ZZ=    22.8273
   Eigenvalues:    20.1045    26.3270    42.5323
     23  C    Isotropic =   125.6067   Anisotropy =    47.8884
   XX=   139.0583   YX=    17.1022   ZX=     3.4952
   XY=    24.0511   YY=   132.7875   ZY=   -15.3767
   XZ=     2.5626   YZ=   -10.8718   ZZ=   104.9744
   Eigenvalues:    96.6252   122.6627   157.5323
     24  H    Isotropic =    27.7880   Anisotropy =     5.5981
   XX=    30.3448   YX=    -0.1508   ZX=     0.1613
   XY=    -1.8000   YY=    30.3036   ZY=     1.8653
   XZ=    -0.9007   YZ=     1.2815   ZZ=    22.7155
   Eigenvalues:    22.3984    29.4454    31.5200
     25  H    Isotropic =    28.0603   Anisotropy =     6.0549
   XX=    28.2520   YX=     2.3268   ZX=     1.2953
   XY=     1.8313   YY=    28.1248   ZY=    -5.1467
   XZ=     2.2113   YZ=    -3.0577   ZZ=    27.8042
   Eigenvalues:    22.5697    29.5143    32.0969
     26  O    Isotropic =   308.4701   Anisotropy =    24.9840
   XX=   302.7078   YX=   -16.0088   ZX=    -1.1557
   XY=    -0.4667   YY=   316.4952   ZY=     5.4809
   XZ=   -17.1556   YZ=     6.2364   ZZ=   306.2071
   Eigenvalues:   294.7283   305.5558   325.1260
     27  H    Isotropic =    29.9458   Anisotropy =    14.0000
   XX=    29.7510   YX=    -0.6073   ZX=    -2.4556
   XY=    -1.7914   YY=    34.5979   ZY=     7.6420
   XZ=    -1.4658   YZ=     7.4396   ZZ=    25.4884
   Eigenvalues:    21.0854    29.4729    39.2791
 End of Minotr Frequency-dependent properties file   721 does not exist.
 End of Minotr Frequency-dependent properties file   722 does not exist.

 **********************************************************************

            Population analysis using the SCF density.

 **********************************************************************

 Orbital symmetries:
       Occupied  (A) (A) (A) (A) (A) (A) (A) (A) (A) (A) (A) (A)
                 (A) (A) (A) (A) (A) (A) (A) (A) (A) (A) (A) (A)
                 (A) (A) (A) (A) (A) (A) (A) (A) (A) (A) (A) (A)
                 (A) (A) (A) (A) (A) (A) (A) (A) (A) (A) (A)
       Virtual   (A) (A) (A) (A) (A) (A) (A) (A) (A) (A) (A) (A)
                 (A) (A) (A) (A) (A) (A) (A) (A) (A) (A) (A) (A)
                 (A) (A) (A) (A) (A) (A) (A) (A) (A) (A) (A) (A)
                 (A) (A) (A) (A) (A) (A) (A) (A) (A) (A) (A) (A)
                 (A) (A) (A) (A) (A) (A) (A) (A) (A) (A) (A) (A)
                 (A) (A) (A) (A) (A) (A) (A) (A) (A) (A) (A) (A)
                 (A) (A) (A) (A) (A) (A) (A) (A) (A) (A) (A) (A)
                 (A) (A) (A) (A) (A) (A) (A) (A) (A) (A) (A) (A)
                 (A) (A) (A) (A) (A) (A) (A) (A) (A) (A) (A) (A)
                 (A) (A) (A) (A) (A) (A) (A) (A) (A) (A) (A) (A)
                 (A) (A) (A) (A) (A) (A) (A) (A) (A) (A) (A) (A)
                 (A) (A) (A) (A) (A) (A) (A) (A) (A) (A) (A) (A)
                 (A) (A) (A) (A) (A) (A) (A) (A) (A) (A) (A) (A)
                 (A) (A) (A) (A) (A) (A) (A) (A) (A) (A) (A) (A)
                 (A) (A) (A) (A) (A) (A) (A) (A) (A) (A) (A) (A)
                 (A) (A) (A) (A) (A) (A) (A) (A) (A) (A) (A) (A)
                 (A) (A) (A) (A) (A) (A) (A) (A) (A) (A) (A) (A)
                 (A) (A) (A) (A) (A) (A) (A) (A) (A) (A) (A) (A)
                 (A) (A) (A) (A) (A) (A) (A) (A) (A) (A) (A) (A)
                 (A) (A) (A) (A) (A) (A) (A) (A) (A) (A) (A) (A)
                 (A) (A) (A) (A) (A) (A) (A) (A) (A) (A) (A) (A)
                 (A) (A) (A) (A)
 The electronic state is 1-A.
 Alpha  occ. eigenvalues --  -19.26495 -19.26365 -19.25551 -14.41689 -10.30705
 Alpha  occ. eigenvalues --  -10.30360 -10.29382 -10.28234 -10.28011 -10.26983
 Alpha  occ. eigenvalues --  -10.24762 -10.24580  -1.07686  -1.05933  -1.05628
 Alpha  occ. eigenvalues --   -0.96711  -0.83038  -0.79597  -0.75588  -0.71707
 Alpha  occ. eigenvalues --   -0.66400  -0.62015  -0.60586  -0.57865  -0.56737
 Alpha  occ. eigenvalues --   -0.53773  -0.52499  -0.49700  -0.49430  -0.47953
 Alpha  occ. eigenvalues --   -0.45724  -0.45035  -0.43109  -0.41539  -0.40651
 Alpha  occ. eigenvalues --   -0.39919  -0.39198  -0.38756  -0.35921  -0.35626
 Alpha  occ. eigenvalues --   -0.34864  -0.34445  -0.34000  -0.32230  -0.30171
 Alpha  occ. eigenvalues --   -0.28265  -0.23606
 Alpha virt. eigenvalues --    0.00305   0.01054   0.01716   0.02430   0.03363
 Alpha virt. eigenvalues --    0.03971   0.04601   0.05018   0.05618   0.06809
 Alpha virt. eigenvalues --    0.07744   0.08112   0.08216   0.09122   0.09444
 Alpha virt. eigenvalues --    0.10349   0.11237   0.11614   0.12329   0.12534
 Alpha virt. eigenvalues --    0.13197   0.13753   0.14527   0.14629   0.14890
 Alpha virt. eigenvalues --    0.15160   0.15888   0.16727   0.17257   0.18166
 Alpha virt. eigenvalues --    0.18763   0.19039   0.19868   0.20064   0.20989
 Alpha virt. eigenvalues --    0.21318   0.22071   0.22618   0.22666   0.23335
 Alpha virt. eigenvalues --    0.23764   0.24741   0.24884   0.25241   0.25634
 Alpha virt. eigenvalues --    0.27034   0.27235   0.27803   0.28214   0.28621
 Alpha virt. eigenvalues --    0.29126   0.29953   0.30589   0.31077   0.31710
 Alpha virt. eigenvalues --    0.32531   0.32884   0.33476   0.33644   0.35079
 Alpha virt. eigenvalues --    0.35212   0.35571   0.35738   0.36917   0.38336
 Alpha virt. eigenvalues --    0.39409   0.39780   0.40552   0.40925   0.41344
 Alpha virt. eigenvalues --    0.41997   0.42370   0.43068   0.45199   0.46067
 Alpha virt. eigenvalues --    0.47518   0.63775   0.64114   0.66730   0.67892
 Alpha virt. eigenvalues --    0.69061   0.71545   0.71815   0.72381   0.74126
 Alpha virt. eigenvalues --    0.77324   0.78707   0.78996   0.79684   0.82325
 Alpha virt. eigenvalues --    0.82582   0.84002   0.85210   0.86594   0.87675
 Alpha virt. eigenvalues --    0.88618   0.91103   0.92712   0.94908   0.96598
 Alpha virt. eigenvalues --    0.98548   1.00305   1.02904   1.03317   1.03738
 Alpha virt. eigenvalues --    1.05060   1.06517   1.07024   1.09961   1.10315
 Alpha virt. eigenvalues --    1.11691   1.13020   1.13784   1.14023   1.15876
 Alpha virt. eigenvalues --    1.17000   1.19360   1.19839   1.23134   1.24526
 Alpha virt. eigenvalues --    1.26739   1.27620   1.28975   1.30673   1.32103
 Alpha virt. eigenvalues --    1.33577   1.34998   1.37400   1.39524   1.42294
 Alpha virt. eigenvalues --    1.43783   1.46197   1.48225   1.50167   1.51771
 Alpha virt. eigenvalues --    1.54522   1.55562   1.58222   1.59536   1.60143
 Alpha virt. eigenvalues --    1.61733   1.63286   1.68765   1.69930   1.70422
 Alpha virt. eigenvalues --    1.71163   1.73131   1.75364   1.76104   1.78961
 Alpha virt. eigenvalues --    1.81237   1.81641   1.83089   1.85379   1.86058
 Alpha virt. eigenvalues --    1.88439   1.90034   1.91951   1.92877   1.94864
 Alpha virt. eigenvalues --    1.95836   1.98920   2.00926   2.02574   2.03730
 Alpha virt. eigenvalues --    2.05024   2.05501   2.07977   2.09401   2.10122
 Alpha virt. eigenvalues --    2.11367   2.14441   2.16744   2.17562   2.18826
 Alpha virt. eigenvalues --    2.20185   2.23792   2.26835   2.28428   2.29726
 Alpha virt. eigenvalues --    2.30493   2.32574   2.34389   2.36471   2.39264
 Alpha virt. eigenvalues --    2.41470   2.42182   2.42734   2.43705   2.45297
 Alpha virt. eigenvalues --    2.47906   2.48729   2.50537   2.52396   2.53427
 Alpha virt. eigenvalues --    2.55256   2.55902   2.58430   2.61361   2.63528
 Alpha virt. eigenvalues --    2.64528   2.66187   2.67291   2.69030   2.69636
 Alpha virt. eigenvalues --    2.70647   2.72975   2.73650   2.75858   2.80021
 Alpha virt. eigenvalues --    2.80638   2.81200   2.82863   2.83740   2.86523
 Alpha virt. eigenvalues --    2.87580   2.88546   2.90914   2.93756   2.95613
 Alpha virt. eigenvalues --    2.96369   2.99394   3.01240   3.02383   3.04036
 Alpha virt. eigenvalues --    3.05959   3.07658   3.11519   3.16848   3.32369
 Alpha virt. eigenvalues --    3.33818   3.36467   3.37820   3.38991   3.42400
 Alpha virt. eigenvalues --    3.46837   3.50413   3.52971   3.54206   3.55638
 Alpha virt. eigenvalues --    3.56107   3.58058   3.60212   3.61213   4.31074
 Alpha virt. eigenvalues --    4.35315   4.37900   4.41694   4.48080   4.54687
 Alpha virt. eigenvalues --    4.57425   4.66945   4.76225   4.81659   4.88119
 Alpha virt. eigenvalues --    4.93023
          Condensed to atoms (all electrons):
              1          2          3          4          5          6
     1  C    5.881292  -0.761808   0.102432  -0.049108   0.271379  -0.053302
     2  C   -0.761808   8.888693  -0.468262  -0.288075   0.023007  -0.492837
     3  N    0.102432  -0.468262   7.480608   0.146070  -0.097040  -0.367007
     4  C   -0.049108  -0.288075   0.146070   5.835199   0.032260  -0.266156
     5  C    0.271379   0.023007  -0.097040   0.032260   5.476931   0.043840
     6  C   -0.053302  -0.492837  -0.367007  -0.266156   0.043840   9.506944
     7  C   -0.100719   0.446001   0.000634  -0.162794   0.059073  -1.090339
     8  C    0.205576  -0.975430   0.046360   0.193574  -0.168284   0.436099
     9  H    0.422952  -0.065427   0.009681  -0.001625  -0.049054   0.009755
    10  H    0.419723  -0.147469   0.019500   0.025450  -0.024526   0.003361
    11  H    0.062455   0.134315   0.009419  -0.007737   0.015722   0.019261
    12  H    0.015404   0.033726  -0.072706   0.406927  -0.036198   0.024706
    13  H    0.008476  -0.042942  -0.028698   0.375028  -0.033842   0.018757
    14  H   -0.034817   0.022358   0.011100  -0.021647   0.355300   0.001623
    15  H   -0.055989   0.001274   0.012566  -0.080028   0.423717   0.010636
    16  H    0.002118   0.058609  -0.054098   0.052040  -0.015183   0.218779
    17  H    0.016054  -0.019337   0.049006   0.010776  -0.001812  -0.168513
    18  H    0.074530  -0.222292   0.050573   0.011458  -0.014449   0.006447
    19  O    0.026613  -0.220524   0.027558   0.006020  -0.005306   0.002549
    20  H   -0.013476   0.061308  -0.003879  -0.002795   0.003512   0.007984
    21  O   -0.007387   0.017235   0.016665  -0.003664   0.006630  -0.164610
    22  H   -0.001055   0.005776  -0.004343  -0.000954   0.000199   0.047133
    23  C    0.075356  -0.112361   0.261902   0.049568  -0.020972  -1.278541
    24  H    0.000104   0.012166   0.012484  -0.003744   0.001190  -0.152211
    25  H    0.002624   0.007566   0.012877   0.009872  -0.001498  -0.160120
    26  O    0.005600   0.006982   0.021015  -0.012776   0.001968  -0.136265
    27  H   -0.001139   0.015830   0.026819  -0.003541   0.007135  -0.073213
              7          8          9         10         11         12
     1  C   -0.100719   0.205576   0.422952   0.419723   0.062455   0.015404
     2  C    0.446001  -0.975430  -0.065427  -0.147469   0.134315   0.033726
     3  N    0.000634   0.046360   0.009681   0.019500   0.009419  -0.072706
     4  C   -0.162794   0.193574  -0.001625   0.025450  -0.007737   0.406927
     5  C    0.059073  -0.168284  -0.049054  -0.024526   0.015722  -0.036198
     6  C   -1.090339   0.436099   0.009755   0.003361   0.019261   0.024706
     7  C    6.624333  -0.475843  -0.003709  -0.001987  -0.034411  -0.000336
     8  C   -0.475843   6.298336   0.006792   0.033572   0.052490  -0.006433
     9  H   -0.003709   0.006792   0.520030  -0.023390  -0.006163  -0.000104
    10  H   -0.001987   0.033572  -0.023390   0.512546   0.002520  -0.000138
    11  H   -0.034411   0.052490  -0.006163   0.002520   0.557284  -0.000191
    12  H   -0.000336  -0.006433  -0.000104  -0.000138  -0.000191   0.524714
    13  H    0.003501   0.009544   0.001576  -0.000023   0.000638  -0.031477
    14  H    0.002096   0.005092  -0.004692   0.000504  -0.000057   0.000856
    15  H    0.009726   0.007090   0.004151  -0.004931  -0.000085  -0.005960
    16  H    0.008537  -0.039941   0.000002  -0.000010  -0.000505   0.002945
    17  H    0.400712  -0.051662   0.000008  -0.000007   0.000882  -0.000015
    18  H   -0.113979   0.500710   0.000169   0.000122   0.004303  -0.000048
    19  O   -0.086166   0.331980  -0.000412   0.004720   0.008412  -0.000018
    20  H   -0.033244  -0.012618   0.000007  -0.000136  -0.000086   0.000000
    21  O    0.272419  -0.103398   0.000028  -0.000058  -0.000408  -0.000137
    22  H    0.018148  -0.040283   0.000000  -0.000001  -0.000004   0.000000
    23  C    0.153322  -0.086264   0.000350   0.000122   0.012028  -0.029174
    24  H    0.025893  -0.007153   0.000000   0.000000  -0.000007  -0.000019
    25  H    0.021312  -0.012497   0.000000   0.000000  -0.000036   0.000016
    26  O    0.038805  -0.018949  -0.000017   0.000003   0.000152   0.002044
    27  H    0.009273  -0.005326   0.000000   0.000000  -0.000028  -0.000198
             13         14         15         16         17         18
     1  C    0.008476  -0.034817  -0.055989   0.002118   0.016054   0.074530
     2  C   -0.042942   0.022358   0.001274   0.058609  -0.019337  -0.222292
     3  N   -0.028698   0.011100   0.012566  -0.054098   0.049006   0.050573
     4  C    0.375028  -0.021647  -0.080028   0.052040   0.010776   0.011458
     5  C   -0.033842   0.355300   0.423717  -0.015183  -0.001812  -0.014449
     6  C    0.018757   0.001623   0.010636   0.218779  -0.168513   0.006447
     7  C    0.003501   0.002096   0.009726   0.008537   0.400712  -0.113979
     8  C    0.009544   0.005092   0.007090  -0.039941  -0.051662   0.500710
     9  H    0.001576  -0.004692   0.004151   0.000002   0.000008   0.000169
    10  H   -0.000023   0.000504  -0.004931  -0.000010  -0.000007   0.000122
    11  H    0.000638  -0.000057  -0.000085  -0.000505   0.000882   0.004303
    12  H   -0.031477   0.000856  -0.005960   0.002945  -0.000015  -0.000048
    13  H    0.548995  -0.002874   0.004115  -0.000299   0.000009   0.000015
    14  H   -0.002874   0.514286  -0.022920  -0.000116   0.000000  -0.000054
    15  H    0.004115  -0.022920   0.521835   0.000135   0.000003  -0.000124
    16  H   -0.000299  -0.000116   0.000135   0.555119   0.004094   0.000380
    17  H    0.000009   0.000000   0.000003   0.004094   0.556533   0.004531
    18  H    0.000015  -0.000054  -0.000124   0.000380   0.004531   0.552975
    19  O    0.000067   0.000000  -0.000049  -0.000924  -0.001926  -0.041733
    20  H    0.000000   0.000000  -0.000002   0.000013  -0.000039  -0.006181
    21  O    0.000013  -0.000012  -0.000019   0.001953  -0.040890  -0.002933
    22  H    0.000000   0.000000   0.000000   0.000092  -0.006462  -0.000158
    23  C    0.002267  -0.001016   0.000223   0.027435   0.067411   0.017481
    24  H   -0.000005   0.000000  -0.000001  -0.002623   0.000258  -0.000008
    25  H    0.000016   0.000000   0.000001   0.004577   0.003399  -0.000003
    26  O    0.000116   0.000031  -0.000176   0.000000   0.000148   0.000027
    27  H   -0.000794  -0.000005   0.000001   0.000260   0.000026   0.000000
             19         20         21         22         23         24
     1  C    0.026613  -0.013476  -0.007387  -0.001055   0.075356   0.000104
     2  C   -0.220524   0.061308   0.017235   0.005776  -0.112361   0.012166
     3  N    0.027558  -0.003879   0.016665  -0.004343   0.261902   0.012484
     4  C    0.006020  -0.002795  -0.003664  -0.000954   0.049568  -0.003744
     5  C   -0.005306   0.003512   0.006630   0.000199  -0.020972   0.001190
     6  C    0.002549   0.007984  -0.164610   0.047133  -1.278541  -0.152211
     7  C   -0.086166  -0.033244   0.272419   0.018148   0.153322   0.025893
     8  C    0.331980  -0.012618  -0.103398  -0.040283  -0.086264  -0.007153
     9  H   -0.000412   0.000007   0.000028   0.000000   0.000350   0.000000
    10  H    0.004720  -0.000136  -0.000058  -0.000001   0.000122   0.000000
    11  H    0.008412  -0.000086  -0.000408  -0.000004   0.012028  -0.000007
    12  H   -0.000018   0.000000  -0.000137   0.000000  -0.029174  -0.000019
    13  H    0.000067   0.000000   0.000013   0.000000   0.002267  -0.000005
    14  H    0.000000   0.000000  -0.000012   0.000000  -0.001016   0.000000
    15  H   -0.000049  -0.000002  -0.000019   0.000000   0.000223  -0.000001
    16  H   -0.000924   0.000013   0.001953   0.000092   0.027435  -0.002623
    17  H   -0.001926  -0.000039  -0.040890  -0.006462   0.067411   0.000258
    18  H   -0.041733  -0.006181  -0.002933  -0.000158   0.017481  -0.000008
    19  O    8.259112   0.236295  -0.003027   0.001664   0.003565  -0.000003
    20  H    0.236295   0.378453   0.003363   0.001578  -0.001506   0.000000
    21  O   -0.003027   0.003363   8.268666   0.233444   0.054339   0.005039
    22  H    0.001664   0.001578   0.233444   0.376529  -0.015949  -0.000103
    23  C    0.003565  -0.001506   0.054339  -0.015949   5.985517   0.486797
    24  H   -0.000003   0.000000   0.005039  -0.000103   0.486797   0.539857
    25  H   -0.000078   0.000001   0.000415   0.000003   0.468614  -0.034080
    26  O    0.000131   0.000000  -0.000095   0.000009   0.212765  -0.059910
    27  H   -0.000003   0.000000   0.000052   0.000000   0.021650   0.006689
             25         26         27
     1  C    0.002624   0.005600  -0.001139
     2  C    0.007566   0.006982   0.015830
     3  N    0.012877   0.021015   0.026819
     4  C    0.009872  -0.012776  -0.003541
     5  C   -0.001498   0.001968   0.007135
     6  C   -0.160120  -0.136265  -0.073213
     7  C    0.021312   0.038805   0.009273
     8  C   -0.012497  -0.018949  -0.005326
     9  H    0.000000  -0.000017   0.000000
    10  H    0.000000   0.000003   0.000000
    11  H   -0.000036   0.000152  -0.000028
    12  H    0.000016   0.002044  -0.000198
    13  H    0.000016   0.000116  -0.000794
    14  H    0.000000   0.000031  -0.000005
    15  H    0.000001  -0.000176   0.000001
    16  H    0.004577   0.000000   0.000260
    17  H    0.003399   0.000148   0.000026
    18  H   -0.000003   0.000027   0.000000
    19  O   -0.000078   0.000131  -0.000003
    20  H    0.000001   0.000000   0.000000
    21  O    0.000415  -0.000095   0.000052
    22  H    0.000003   0.000009   0.000000
    23  C    0.468614   0.212765   0.021650
    24  H   -0.034080  -0.059910   0.006689
    25  H    0.567735  -0.043115  -0.006447
    26  O   -0.043115   8.270887   0.252035
    27  H   -0.006447   0.252035   0.372771
 Mulliken atomic charges:
              1
     1  C   -0.513885
     2  C    0.081917
     3  N   -0.221235
     4  C   -0.249596
     5  C   -0.253698
     6  C    0.045240
     7  C    0.009743
     8  C   -0.123132
     9  H    0.179094
    10  H    0.180534
    11  H    0.169837
    12  H    0.171815
    13  H    0.167820
    14  H    0.174966
    15  H    0.174811
    16  H    0.176615
    17  H    0.176814
    18  H    0.178242
    19  O   -0.548517
    20  H    0.381450
    21  O   -0.553624
    22  H    0.384739
    23  C   -0.354931
    24  H    0.169392
    25  H    0.158849
    26  O   -0.541414
    27  H    0.378154
 Sum of Mulliken atomic charges =   0.00000
 Mulliken charges with hydrogens summed into heavy atoms:
              1
     1  C   -0.154257
     2  C    0.251754
     3  N   -0.221235
     4  C    0.090039
     5  C    0.096079
     6  C    0.221855
     7  C    0.186556
     8  C    0.055109
    19  O   -0.167066
    21  O   -0.168885
    23  C   -0.026690
    26  O   -0.163259
 Sum of Mulliken charges with hydrogens summed into heavy atoms =   0.00000
 Electronic spatial extent (au):  <R**2>=           2102.0671
 Charge=              0.0000 electrons
 Dipole moment (field-independent basis, Debye):
    X=              3.2469    Y=              0.6026    Z=              0.4246  Tot=              3.3296
 Quadrupole moment (field-independent basis, Debye-Ang):
   XX=            -86.9351   YY=            -59.6729   ZZ=            -76.1408
   XY=              2.7139   XZ=              7.1424   YZ=              0.1522
 Traceless Quadrupole moment (field-independent basis, Debye-Ang):
   XX=            -12.6855   YY=             14.5767   ZZ=             -1.8912
   XY=              2.7139   XZ=              7.1424   YZ=              0.1522
 Octapole moment (field-independent basis, Debye-Ang**2):
  XXX=             40.1349  YYY=             39.4640  ZZZ=             -1.2397  XYY=             16.6350
  XXY=              9.6404  XXZ=              5.0947  XZZ=             -2.6892  YZZ=             -2.5711
  YYZ=             -0.3517  XYZ=              8.9788
 Hexadecapole moment (field-independent basis, Debye-Ang**3):
 XXXX=          -1558.7185 YYYY=           -936.0305 ZZZZ=           -256.3485 XXXY=              3.0606
 XXXZ=             44.2605 YYYX=            101.3632 YYYZ=             21.3830 ZZZX=              4.3367
 ZZZY=              0.0708 XXYY=           -358.8133 XXZZ=           -261.3437 YYZZ=           -242.2980
 XXYZ=             33.9586 YYXZ=             29.4646 ZZXY=              4.6122
 N-N= 7.999185680719D+02 E-N=-2.985530964140D+03  KE= 5.886662166449D+02
 1\1\GINC-COMPUTE-3-0\SP\RmPW1PW91\6-31+G(d,p)\C8H15N1O3\MAMICHETTI.IQU
 IR\17-May-2024\0\\# mpw1pw91/6-31+G** nmr scrf=(pcm,solvent=water)\\co
 mment\\0,1\C,0,1.938063,-1.644461,-0.162879\C,0,1.132928,-0.450949,-0.
 704404\N,0,-0.318433,-0.801153,-0.518973\C,0,-0.371299,-2.085128,0.229
 787\C,0,1.002323,-2.254149,0.890399\C,0,-0.986415,0.329974,0.174077\C,
 0,-0.045924,1.520093,-0.029095\C,0,1.333626,0.865665,0.049653\H,0,2.12
 5996,-2.36889,-0.964187\H,0,2.90769,-1.329719,0.23674\H,0,1.352552,-0.
 27167,-1.764535\H,0,-1.20098,-2.071701,0.941369\H,0,-0.554415,-2.91430
 5,-0.466482\H,0,1.23716,-3.296996,1.12649\H,0,1.04802,-1.676772,1.8220
 66\H,0,-1.059579,0.141056,1.257243\H,0,-0.174682,1.944702,-1.036317\H,
 0,1.555928,0.670303,1.109542\O,0,2.389383,1.622751,-0.539701\H,0,2.528
 417,2.402601,0.023863\O,0,-0.291235,2.519357,0.959037\H,0,0.259169,3.2
 87418,0.730204\C,0,-2.393284,0.58454,-0.358425\H,0,-2.843918,1.42192,0
 .184476\H,0,-2.343353,0.854906,-1.423118\O,0,-3.268357,-0.532267,-0.16
 6183\H,0,-2.907414,-1.257016,-0.704441\\Version=AM64L-G09RevC.01\State
 =1-A\HF=-594.1982409\RMSD=4.618e-09\Dipole=1.277437,0.2370704,0.167068
 5\Quadrupole=-9.4313701,10.8374159,-1.4060458,2.0176798,5.3101892,0.11
 31214\PG=C01 [X(C8H15N1O3)]\\@


 THE FIRST AND LAST THING REQUIRED OF GENIUS IS THE LOVE OF TRUTH.

                          -- GOETHE
 Job cpu time:  0 days  0 hours  8 minutes 45.3 seconds.
 File lengths (MBytes):  RWF=    114 Int=      0 D2E=      0 Chk=      7 Scr=      1
 Normal termination of Gaussian 09 at Fri May 17 12:13:09 2024.
