 Entering Gaussian System, Link 0=g09
 Input=/home/mamichetti.iquir/Linux/03_Cardona_A1A3_R__S_S_R_042_OptB.gjc
 Output=/home/mamichetti.iquir/Linux/03_Cardona_A1A3_R__S_S_R_042_OptB.log
 Initial command:
 /opt/ohpc/pub/apps/software/Gaussian/09/AMD64.SSE4a-enabled/g09/l1.exe /local/mamichetti.iquir/Gau-121896.inp -scrdir=/local/mamichetti.iquir/
 Entering Link 1 = /opt/ohpc/pub/apps/software/Gaussian/09/AMD64.SSE4a-enabled/g09/l1.exe PID=    121901.
  
 Copyright (c) 1988,1990,1992,1993,1995,1998,2003,2009,2011,
            Gaussian, Inc.  All Rights Reserved.
  
 This is part of the Gaussian(R) 09 program.  It is based on
 the Gaussian(R) 03 system (copyright 2003, Gaussian, Inc.),
 the Gaussian(R) 98 system (copyright 1998, Gaussian, Inc.),
 the Gaussian(R) 94 system (copyright 1995, Gaussian, Inc.),
 the Gaussian 92(TM) system (copyright 1992, Gaussian, Inc.),
 the Gaussian 90(TM) system (copyright 1990, Gaussian, Inc.),
 the Gaussian 88(TM) system (copyright 1988, Gaussian, Inc.),
 the Gaussian 86(TM) system (copyright 1986, Carnegie Mellon
 University), and the Gaussian 82(TM) system (copyright 1983,
 Carnegie Mellon University). Gaussian is a federally registered
 trademark of Gaussian, Inc.
  
 This software contains proprietary and confidential information,
 including trade secrets, belonging to Gaussian, Inc.
  
 This software is provided under written license and may be
 used, copied, transmitted, or stored only in accord with that
 written license.
  
 The following legend is applicable only to US Government
 contracts under FAR:
  
                    RESTRICTED RIGHTS LEGEND
  
 Use, reproduction and disclosure by the US Government is
 subject to restrictions as set forth in subparagraphs (a)
 and (c) of the Commercial Computer Software - Restricted
 Rights clause in FAR 52.227-19.
  
 Gaussian, Inc.
 340 Quinnipiac St., Bldg. 40, Wallingford CT 06492
  
  
 ---------------------------------------------------------------
 Warning -- This program may not be used in any manner that
 competes with the business of Gaussian, Inc. or will provide
 assistance to any competitor of Gaussian, Inc.  The licensee
 of this program is prohibited from giving any competitor of
 Gaussian, Inc. access to this program.  By using this program,
 the user acknowledges that Gaussian, Inc. is engaged in the
 business of creating and licensing software in the field of
 computational chemistry and represents and warrants to the
 licensee that it is not a competitor of Gaussian, Inc. and that
 it will not use this program in any manner prohibited above.
 ---------------------------------------------------------------
  

 Cite this work as:
 Gaussian 09, Revision C.01,
 M. J. Frisch, G. W. Trucks, H. B. Schlegel, G. E. Scuseria, 
 M. A. Robb, J. R. Cheeseman, G. Scalmani, V. Barone, B. Mennucci, 
 G. A. Petersson, H. Nakatsuji, M. Caricato, X. Li, H. P. Hratchian, 
 A. F. Izmaylov, J. Bloino, G. Zheng, J. L. Sonnenberg, M. Hada, 
 M. Ehara, K. Toyota, R. Fukuda, J. Hasegawa, M. Ishida, T. Nakajima, 
 Y. Honda, O. Kitao, H. Nakai, T. Vreven, J. A. Montgomery, Jr., 
 J. E. Peralta, F. Ogliaro, M. Bearpark, J. J. Heyd, E. Brothers, 
 K. N. Kudin, V. N. Staroverov, T. Keith, R. Kobayashi, J. Normand, 
 K. Raghavachari, A. Rendell, J. C. Burant, S. S. Iyengar, J. Tomasi, 
 M. Cossi, N. Rega, J. M. Millam, M. Klene, J. E. Knox, J. B. Cross, 
 V. Bakken, C. Adamo, J. Jaramillo, R. Gomperts, R. E. Stratmann, 
 O. Yazyev, A. J. Austin, R. Cammi, C. Pomelli, J. W. Ochterski, 
 R. L. Martin, K. Morokuma, V. G. Zakrzewski, G. A. Voth, 
 P. Salvador, J. J. Dannenberg, S. Dapprich, A. D. Daniels, 
 O. Farkas, J. B. Foresman, J. V. Ortiz, J. Cioslowski, 
 and D. J. Fox, Gaussian, Inc., Wallingford CT, 2010.
 
 ******************************************
 Gaussian 09:  AM64L-G09RevC.01 23-Sep-2011
                17-May-2024 
 ******************************************
 %nprocshared=4
 Will use up to    4 processors via shared memory.
 ------------------------------------------------
 # mpw1pw91/6-31+G** nmr scrf=(pcm,solvent=water)
 ------------------------------------------------
 1/38=1/1;
 2/12=2,17=6,18=5,40=1/2;
 3/5=1,6=6,7=111,11=2,16=1,25=1,30=1,70=2201,72=1,74=-7/1,2,8,3;
 4//1;
 5/5=2,38=5,53=1/2;
 8/6=1,10=90,11=11/1;
 10/13=100,45=16/2;
 6/7=2,8=2,9=2,10=2,28=1/1;
 99/9=1/99;
 -------
 comment
 -------
 Charge =  0 Multiplicity = 1
 Symbolic Z-Matrix:
 6                    -2.29552   0.59678   0.1066 
 6                    -0.95792   0.34036   0.86642 
 7                    -0.46205  -1.00795   0.44522 
 6                    -1.65963  -1.7205   -0.04153 
 6                    -2.50388  -0.66043  -0.76455 
 6                     0.59543  -0.82468  -0.60081 
 6                     0.73971   0.70204  -0.78076 
 6                     0.21021   1.28116   0.52689 
 1                    -3.11288   0.71188   0.82608 
 1                    -2.2567    1.51449  -0.4867 
 1                    -1.14417   0.33878   1.94536 
 1                    -2.20835  -2.1146    0.82372 
 1                    -1.37111  -2.57068  -0.66609 
 1                    -3.55661  -0.94587  -0.85924 
 1                    -2.10966  -0.4991   -1.77534 
 1                     0.28253  -1.27956  -1.54798 
 1                     0.06994   1.0298   -1.58919 
 1                     0.98962   1.18437   1.29294 
 8                    -0.12461   2.65551   0.34825 
 1                    -0.26963   3.03925   1.22921 
 8                     2.07821   1.08212  -1.09155 
 1                     2.07761   2.05165  -1.16524 
 6                     1.87358  -1.5424   -0.15696 
 1                     1.69121  -2.62716  -0.18882 
 1                     2.69938  -1.32214  -0.83854 
 8                     2.29161  -1.14825   1.15118 
 1                     1.47953  -1.20445   1.68839 
 
                          Input orientation:                          
 ---------------------------------------------------------------------
 Center     Atomic      Atomic             Coordinates (Angstroms)
 Number     Number       Type             X           Y           Z
 ---------------------------------------------------------------------
      1          6           0       -2.295516    0.596778    0.106596
      2          6           0       -0.957919    0.340360    0.866420
      3          7           0       -0.462048   -1.007951    0.445220
      4          6           0       -1.659630   -1.720502   -0.041527
      5          6           0       -2.503876   -0.660434   -0.764545
      6          6           0        0.595429   -0.824684   -0.600808
      7          6           0        0.739705    0.702043   -0.780762
      8          6           0        0.210210    1.281161    0.526894
      9          1           0       -3.112880    0.711876    0.826076
     10          1           0       -2.256701    1.514487   -0.486698
     11          1           0       -1.144168    0.338783    1.945361
     12          1           0       -2.208354   -2.114595    0.823721
     13          1           0       -1.371107   -2.570679   -0.666089
     14          1           0       -3.556609   -0.945865   -0.859238
     15          1           0       -2.109655   -0.499103   -1.775336
     16          1           0        0.282532   -1.279559   -1.547984
     17          1           0        0.069936    1.029798   -1.589185
     18          1           0        0.989622    1.184370    1.292935
     19          8           0       -0.124606    2.655511    0.348250
     20          1           0       -0.269631    3.039245    1.229206
     21          8           0        2.078207    1.082121   -1.091550
     22          1           0        2.077614    2.051652   -1.165239
     23          6           0        1.873581   -1.542399   -0.156956
     24          1           0        1.691213   -2.627158   -0.188820
     25          1           0        2.699383   -1.322140   -0.838537
     26          8           0        2.291613   -1.148249    1.151178
     27          1           0        1.479530   -1.204452    1.688392
 ---------------------------------------------------------------------
                    Distance matrix (angstroms):
                    1          2          3          4          5
     1  C    0.000000
     2  C    1.559567   0.000000
     3  N    2.459965   1.497077   0.000000
     4  C    2.407505   2.358796   1.476094   0.000000
     5  C    1.543659   2.460004   2.398616   1.535985   0.000000
     6  C    3.298263   2.433716   1.498672   2.490096   3.107970
     7  C    3.164025   2.392896   2.423081   3.488840   3.518156
     8  C    2.631291   1.537826   2.387181   3.581813   3.578249
     9  H    1.094981   2.187123   3.182729   2.963298   2.187280
    10  H    1.093478   2.212767   3.232947   3.319612   2.206485
    11  H    2.184770   1.094899   2.128239   2.907590   3.192308
    12  H    2.805960   2.755397   2.101787   1.097753   2.173593
    13  H    3.388858   3.315638   2.122149   1.093675   2.223037
    14  H    2.214258   3.374235   3.358835   2.206183   1.094844
    15  H    2.185673   3.001678   2.811477   2.168048   1.096876
    16  H    3.592298   3.161045   2.145002   2.497166   2.959926
    17  H    2.942540   2.749874   2.928179   3.598721   3.187699
    18  H    3.541863   2.164991   2.762651   4.151820   4.454330
    19  O    3.001604   2.514525   3.680248   4.653785   4.230216
    20  H    3.366023   2.808796   4.126918   5.118794   4.759676
    21  O    4.560764   3.688078   3.630834   4.788389   4.913137
    22  H    4.781055   4.033686   4.290062   5.427602   5.339103
    23  C    4.693283   3.550982   2.470509   3.539580   4.506568
    24  H    5.135664   4.115531   2.767738   3.474460   4.668858
    25  H    5.433649   4.364246   3.426572   4.449147   5.245687
    26  O    5.017771   3.585596   2.846174   4.166814   5.186971
    27  H    4.471854   3.000540   2.313831   3.621223   4.709605
                    6          7          8          9         10
     6  C    0.000000
     7  C    1.544051   0.000000
     8  C    2.419646   1.525027   0.000000
     9  H    4.260114   4.174259   3.384749   0.000000
    10  H    3.690445   3.118491   2.677211   1.760853   0.000000
    11  H    3.295881   3.333569   2.175883   2.295174   2.921459
    12  H    3.399169   4.381651   4.179559   2.967678   3.858727
    13  H    2.630594   3.896073   4.331333   4.004435   4.183902
    14  H    4.161837   4.602181   4.590200   2.405262   2.807468
    15  H    2.966985   3.248197   3.721744   3.039782   2.395152
    16  H    1.096339   2.173565   3.296610   4.596825   3.921827
    17  H    2.166134   1.099801   2.135568   4.008102   2.619855
    18  H    2.788897   2.143669   1.097119   4.155927   3.716811
    19  O    3.678440   2.416141   1.425782   3.596640   2.558301
    20  H    4.362021   3.243647   1.953036   3.696380   3.036060
    21  O    2.464825   1.425705   2.479595   5.546328   4.398206
    22  H    3.284625   1.938883   2.635179   5.718528   4.419870
    23  C    1.531598   2.590816   3.347678   5.559937   5.149030
    24  H    2.149276   3.512740   4.240351   5.937884   5.729571
    25  H    2.174994   2.817977   3.851955   6.378915   5.721277
    26  O    2.459917   3.092635   3.259448   5.724884   5.519054
    27  H    2.483203   3.206055   3.022999   5.050360   5.107158
                   11         12         13         14         15
    11  H    0.000000
    12  H    2.899937   0.000000
    13  H    3.916139   1.768765   0.000000
    14  H    3.916116   2.452768   2.730155   0.000000
    15  H    3.934184   3.061806   2.463191   1.769889   0.000000
    16  H    4.105845   3.539320   2.275797   3.914681   2.526531
    17  H    3.800601   4.571644   3.986495   4.193793   2.668859
    18  H    2.386155   4.618483   4.848836   5.462414   4.674814
    19  O    2.992908   5.227044   5.467697   5.119236   4.289712
    20  H    2.927488   5.521334   6.023009   5.571977   4.993282
    21  O    4.489886   5.679953   5.041997   5.993150   4.528357
    22  H    4.794750   6.299452   5.788676   6.389305   4.940829
    23  C    4.131028   4.236901   3.441595   5.507814   4.424228
    24  H    4.625032   4.061352   3.099803   5.551202   4.635973
    25  H    5.028085   5.241848   4.261159   6.267332   4.968081
    26  O    3.827085   4.614191   4.329120   6.187442   5.325132
    27  H    3.054734   3.895703   3.941610   5.649777   5.037577
                   16         17         18         19         20
    16  H    0.000000
    17  H    2.319488   0.000000
    18  H    3.826453   3.029246   0.000000
    19  O    4.387054   2.536621   2.073208   0.000000
    20  H    5.164275   3.478004   2.242842   0.971786   0.000000
    21  O    3.001718   2.069669   2.623212   3.066099   3.837784
    22  H    3.803391   2.292310   2.824628   2.739538   3.495464
    23  C    2.129667   3.452624   3.212295   4.676583   5.244642
    24  H    2.376496   4.238265   4.149165   5.611794   6.161480
    25  H    2.519186   3.606810   3.707971   5.020467   5.666770
    26  O    3.367362   4.146001   2.675142   4.577270   4.909294
    27  H    3.451460   4.209672   2.470398   4.389595   4.612958
                   21         22         23         24         25
    21  O    0.000000
    22  H    0.972328   0.000000
    23  C    2.793464   3.738378   0.000000
    24  H    3.837113   4.795202   1.100443   0.000000
    25  H    2.496066   3.446129   1.093168   1.772459   0.000000
    26  O    3.170161   3.956128   1.428748   2.084046   2.038500
    27  H    3.648960   4.370712   1.916975   2.364916   2.808427
                   26         27
    26  O    0.000000
    27  H    0.975314   0.000000
 Stoichiometry    C8H15NO3
 Framework group  C1[X(C8H15NO3)]
 Deg. of freedom    75
 Full point group                 C1      NOp   1
 Largest Abelian subgroup         C1      NOp   1
 Largest concise Abelian subgroup C1      NOp   1
                         Standard orientation:                         
 ---------------------------------------------------------------------
 Center     Atomic      Atomic             Coordinates (Angstroms)
 Number     Number       Type             X           Y           Z
 ---------------------------------------------------------------------
      1          6           0       -2.295516    0.596777    0.106596
      2          6           0       -0.957919    0.340360    0.866420
      3          7           0       -0.462048   -1.007951    0.445220
      4          6           0       -1.659630   -1.720503   -0.041527
      5          6           0       -2.503876   -0.660435   -0.764545
      6          6           0        0.595429   -0.824684   -0.600808
      7          6           0        0.739705    0.702043   -0.780762
      8          6           0        0.210210    1.281161    0.526894
      9          1           0       -3.112880    0.711875    0.826076
     10          1           0       -2.256702    1.514486   -0.486698
     11          1           0       -1.144168    0.338783    1.945361
     12          1           0       -2.208353   -2.114596    0.823721
     13          1           0       -1.371106   -2.570679   -0.666089
     14          1           0       -3.556609   -0.945866   -0.859238
     15          1           0       -2.109655   -0.499104   -1.775336
     16          1           0        0.282532   -1.279559   -1.547984
     17          1           0        0.069936    1.029798   -1.589185
     18          1           0        0.989622    1.184370    1.292935
     19          8           0       -0.124607    2.655511    0.348250
     20          1           0       -0.269632    3.039245    1.229206
     21          8           0        2.078207    1.082122   -1.091550
     22          1           0        2.077613    2.051653   -1.165239
     23          6           0        1.873581   -1.542398   -0.156956
     24          1           0        1.691214   -2.627158   -0.188820
     25          1           0        2.699383   -1.322139   -0.838537
     26          8           0        2.291613   -1.148248    1.151178
     27          1           0        1.479530   -1.204452    1.688392
 ---------------------------------------------------------------------
 Rotational constants (GHZ):      1.2090254      0.9196876      0.6571714
 Standard basis: 6-31+G(d,p) (6D, 7F)
 There are   303 symmetry adapted basis functions of A   symmetry.
 Integral buffers will be    131072 words long.
 Raffenetti 2 integral format.
 Two-electron integral symmetry is turned on.
   303 basis functions,   489 primitive gaussians,   303 cartesian basis functions
    47 alpha electrons       47 beta electrons
       nuclear repulsion energy       815.7788927656 Hartrees.
 NAtoms=   27 NActive=   27 NUniq=   27 SFac= 1.00D+00 NAtFMM=   60 NAOKFM=F Big=F
 ------------------------------------------------------------------------------
 Polarizable Continuum Model (PCM)
 =================================
 Model                : PCM.
 Atomic radii         : UFF (Universal Force Field).
 Polarization charges : Total charges.
 Charge compensation  : None.
 Solution method      : Matrix inversion.
 Cavity type          : Scaled VdW (van der Waals Surface) (Alpha=1.100).
 Cavity algorithm     : GePol (No added spheres)
                        Default sphere list used, NSphG=   27.
                        Lebedev-Laikov grids with approx.  5.0 points / Ang**2.
                        Smoothing algorithm: Karplus/York (Gamma=1.0000).
                        Polarization charges: spherical gaussians, with
                                              point-specific exponents (IZeta= 3).
                        Self-potential: point-specific (ISelfS= 7).
                        Self-field    : sphere-specific E.n sum rule (ISelfD= 2).
 Solvent              : Water, Eps=  78.355300 Eps(inf)=   1.777849
 ------------------------------------------------------------------------------
 One-electron integrals computed using PRISM.
 NBasis=   303 RedAO= T  NBF=   303
 NBsUse=   303 1.00D-06 NBFU=   303
 Harris functional with IExCor=  908 diagonalized for initial guess.
 ExpMin= 4.38D-02 ExpMax= 5.48D+03 ExpMxC= 8.25D+02 IAcc=2 IRadAn=         4 AccDes= 0.00D+00
 HarFok:  IExCor=  908 AccDes= 0.00D+00 IRadAn=         4 IDoV= 1
 ScaDFX=  1.000000  1.000000  1.000000  1.000000
 FoFCou: FMM=F IPFlag=           0 FMFlag=      100000 FMFlg1=           0
         NFxFlg=           0 DoJE=T BraDBF=F KetDBF=T FulRan=T
         Omega=  0.000000  0.000000  1.000000  0.000000  0.000000 ICntrl=     500 IOpCl=  0
         NMat0=    1 NMatS0=    1 NMatT0=    0 NMatD0=    1 NMtDS0=    0 NMtDT0=    0
         I1Cent=           4 NGrid=           0.
 Petite list used in FoFCou.
 Initial guess orbital symmetries:
       Occupied  (A) (A) (A) (A) (A) (A) (A) (A) (A) (A) (A) (A)
                 (A) (A) (A) (A) (A) (A) (A) (A) (A) (A) (A) (A)
                 (A) (A) (A) (A) (A) (A) (A) (A) (A) (A) (A) (A)
                 (A) (A) (A) (A) (A) (A) (A) (A) (A) (A) (A)
       Virtual   (A) (A) (A) (A) (A) (A) (A) (A) (A) (A) (A) (A)
                 (A) (A) (A) (A) (A) (A) (A) (A) (A) (A) (A) (A)
                 (A) (A) (A) (A) (A) (A) (A) (A) (A) (A) (A) (A)
                 (A) (A) (A) (A) (A) (A) (A) (A) (A) (A) (A) (A)
                 (A) (A) (A) (A) (A) (A) (A) (A) (A) (A) (A) (A)
                 (A) (A) (A) (A) (A) (A) (A) (A) (A) (A) (A) (A)
                 (A) (A) (A) (A) (A) (A) (A) (A) (A) (A) (A) (A)
                 (A) (A) (A) (A) (A) (A) (A) (A) (A) (A) (A) (A)
                 (A) (A) (A) (A) (A) (A) (A) (A) (A) (A) (A) (A)
                 (A) (A) (A) (A) (A) (A) (A) (A) (A) (A) (A) (A)
                 (A) (A) (A) (A) (A) (A) (A) (A) (A) (A) (A) (A)
                 (A) (A) (A) (A) (A) (A) (A) (A) (A) (A) (A) (A)
                 (A) (A) (A) (A) (A) (A) (A) (A) (A) (A) (A) (A)
                 (A) (A) (A) (A) (A) (A) (A) (A) (A) (A) (A) (A)
                 (A) (A) (A) (A) (A) (A) (A) (A) (A) (A) (A) (A)
                 (A) (A) (A) (A) (A) (A) (A) (A) (A) (A) (A) (A)
                 (A) (A) (A) (A) (A) (A) (A) (A) (A) (A) (A) (A)
                 (A) (A) (A) (A) (A) (A) (A) (A) (A) (A) (A) (A)
                 (A) (A) (A) (A) (A) (A) (A) (A) (A) (A) (A) (A)
                 (A) (A) (A) (A) (A) (A) (A) (A) (A) (A) (A) (A)
                 (A) (A) (A) (A) (A) (A) (A) (A) (A) (A) (A) (A)
                 (A) (A) (A) (A)
 The electronic state of the initial guess is 1-A.
 Requested convergence on RMS density matrix=1.00D-08 within 128 cycles.
 Requested convergence on MAX density matrix=1.00D-06.
 Requested convergence on             energy=1.00D-06.
 No special actions if energy rises.
 Error on total polarization charges =  0.01414
 SCF Done:  E(RmPW1PW91) =  -594.195994026     A.U. after   12 cycles
             Convg  =    0.9450D-08             -V/T =  2.0094
 Range of M.O.s used for correlation:     1   303
 NBasis=   303 NAE=    47 NBE=    47 NFC=     0 NFV=     0
 NROrb=    303 NOA=    47 NOB=    47 NVA=   256 NVB=   256

 **** Warning!!: The largest alpha MO coefficient is  0.60501475D+02

 NEqPCM:  Using equilibrium solvation (IEInf=0, Eps=  78.3553, EpsInf=   1.7778)
          Differentiating once with respect to magnetic field using GIAOs.
          Electric field/nuclear overlap derivatives assumed to be zero.
 FoFCou: FMM=F IPFlag=           0 FMFlag=    10101102 FMFlg1=           0
         NFxFlg=    40000000 DoJE=F BraDBF=F KetDBF=T FulRan=T
         Omega=  0.000000  0.000000  1.000000  0.000000  0.000000 ICntrl=    6100 IOpCl=  0
         NMat0=    1 NMatS0=    1 NMatT0=    0 NMatD0=    1 NMtDS0=    0 NMtDT0=    0
         I1Cent=           7 NGrid=        1803.
 Symmetry not used in FoFCou.
          There are     3 degrees of freedom in the 1st order CPHF.  IDoFFX=0.
      3 vectors produced by pass  0 Test12= 4.01D-13 3.33D-08 XBig12= 2.33D+01 9.11D-01.
 AX will form     3 AO Fock derivatives at one time.
      3 vectors produced by pass  1 Test12= 4.01D-13 3.33D-08 XBig12= 5.70D-02 4.86D-02.
      3 vectors produced by pass  2 Test12= 4.01D-13 3.33D-08 XBig12= 1.12D-04 2.25D-03.
      3 vectors produced by pass  3 Test12= 4.01D-13 3.33D-08 XBig12= 4.95D-07 1.26D-04.
      3 vectors produced by pass  4 Test12= 4.01D-13 3.33D-08 XBig12= 1.66D-09 6.18D-06.
      3 vectors produced by pass  5 Test12= 4.01D-13 3.33D-08 XBig12= 5.36D-12 4.49D-07.
 Inverted reduced A of dimension    18 with in-core refinement.
 Calculating GIAO nuclear magnetic shielding tensors.
 SCF GIAO Magnetic shielding tensor (ppm):
      1  C    Isotropic =   169.2977   Anisotropy =    25.1837
   XX=   174.3617   YX=    -8.1156   ZX=    15.3885
   XY=    -5.8912   YY=   172.6574   ZY=    12.1679
   XZ=    17.8796   YZ=    15.4311   ZZ=   160.8738
   Eigenvalues:   141.9636   179.8426   186.0868
      2  C    Isotropic =   128.5147   Anisotropy =    60.2982
   XX=   121.8315   YX=   -10.0361   ZX=     6.6062
   XY=   -13.6857   YY=   163.6054   ZY=    13.9949
   XZ=    11.1615   YZ=    14.2514   ZZ=   100.1071
   Eigenvalues:    92.6477   124.1828   168.7135
      3  N    Isotropic =   194.6149   Anisotropy =    62.2873
   XX=   193.5252   YX=    -8.8741   ZX=   -11.7293
   XY=    16.6952   YY=   228.7728   ZY=    30.1410
   XZ=   -27.4610   YZ=    16.3325   ZZ=   161.5468
   Eigenvalues:   145.9832   201.7218   236.1398
      4  C    Isotropic =   139.2252   Anisotropy =    57.1556
   XX=   156.7241   YX=    25.3576   ZX=    16.0251
   XY=    11.3775   YY=   143.8646   ZY=    14.4342
   XZ=    26.7305   YZ=    -1.5367   ZZ=   117.0868
   Eigenvalues:   107.6847   132.6619   177.3289
      5  C    Isotropic =   169.4261   Anisotropy =    20.4566
   XX=   169.3367   YX=    -0.3410   ZX=    14.4769
   XY=    -3.8787   YY=   181.7829   ZY=     2.0880
   XZ=    21.1588   YZ=     6.6494   ZZ=   157.1588
   Eigenvalues:   143.8159   181.3986   183.0639
      6  C    Isotropic =   127.5277   Anisotropy =    45.6143
   XX=   140.7520   YX=     6.1016   ZX=   -21.6058
   XY=     7.3777   YY=   117.4030   ZY=    -4.1586
   XZ=   -23.4696   YZ=    -2.6379   ZZ=   124.4282
   Eigenvalues:   108.4678   116.1781   157.9373
      7  C    Isotropic =   119.9464   Anisotropy =    47.1793
   XX=   136.0145   YX=     6.3941   ZX=   -18.4088
   XY=    20.2138   YY=   115.2018   ZY=     3.5777
   XZ=   -26.6454   YZ=     4.2849   ZZ=   108.6229
   Eigenvalues:    91.4757   116.9643   151.3993
      8  C    Isotropic =   115.2543   Anisotropy =    39.3933
   XX=   111.5764   YX=     0.1343   ZX=   -18.4553
   XY=   -13.3275   YY=   137.2390   ZY=     1.6683
   XZ=   -15.1832   YZ=    10.8385   ZZ=    96.9475
   Eigenvalues:    85.8682   118.3783   141.5165
      9  H    Isotropic =    30.0156   Anisotropy =    12.2934
   XX=    34.7599   YX=    -2.5667   ZX=    -4.1932
   XY=    -2.3930   YY=    25.9831   ZY=     3.0929
   XZ=    -4.2985   YZ=     3.2126   ZZ=    29.3039
   Eigenvalues:    24.0795    27.7561    38.2112
     10  H    Isotropic =    29.6089   Anisotropy =     7.5934
   XX=    28.9559   YX=    -0.1568   ZX=     2.2843
   XY=    -0.4356   YY=    33.7964   ZY=    -2.5830
   XZ=     1.5413   YZ=    -2.4486   ZZ=    26.0744
   Eigenvalues:    24.6114    29.5442    34.6711
     11  H    Isotropic =    28.1152   Anisotropy =     8.3762
   XX=    26.4874   YX=    -1.3942   ZX=    -1.1847
   XY=    -1.1053   YY=    24.4744   ZY=     1.5601
   XZ=    -0.2819   YZ=     1.1319   ZZ=    33.3839
   Eigenvalues:    23.7880    26.8584    33.6994
     12  H    Isotropic =    28.7722   Anisotropy =    11.9715
   XX=    29.8741   YX=     5.0111   ZX=    -2.6942
   XY=     4.3689   YY=    29.2603   ZY=    -4.7427
   XZ=    -1.1101   YZ=    -5.1300   ZZ=    27.1823
   Eigenvalues:    22.7325    26.8310    36.7532
     13  H    Isotropic =    28.6613   Anisotropy =     9.9686
   XX=    27.3720   YX=     1.1145   ZX=     1.7632
   XY=     0.5858   YY=    34.2024   ZY=     3.4867
   XZ=     0.7675   YZ=     2.8271   ZZ=    24.4095
   Eigenvalues:    23.2437    27.4332    35.3071
     14  H    Isotropic =    29.9549   Anisotropy =    12.4879
   XX=    36.4878   YX=     2.6382   ZX=     3.1445
   XY=     3.0790   YY=    27.4253   ZY=     1.5861
   XZ=     3.2167   YZ=     1.2424   ZZ=    25.9514
   Eigenvalues:    24.8658    26.7186    38.2802
     15  H    Isotropic =    30.0146   Anisotropy =     9.0359
   XX=    27.1375   YX=    -0.0256   ZX=     0.0489
   XY=    -0.2091   YY=    26.8961   ZY=    -0.0294
   XZ=     0.9046   YZ=     0.3605   ZZ=    36.0102
   Eigenvalues:    26.8358    27.1695    36.0386
     16  H    Isotropic =    28.8402   Anisotropy =     4.7881
   XX=    29.0266   YX=    -0.0099   ZX=    -0.8475
   XY=     0.0710   YY=    26.6208   ZY=     2.5867
   XZ=     0.5703   YZ=     2.4110   ZZ=    30.8732
   Eigenvalues:    25.4639    29.0245    32.0323
     17  H    Isotropic =    27.5057   Anisotropy =     4.6741
   XX=    30.0425   YX=     1.4227   ZX=     0.9438
   XY=     1.8151   YY=    24.8788   ZY=    -1.3014
   XZ=    -0.8333   YZ=    -2.8452   ZZ=    27.5959
   Eigenvalues:    23.4353    28.4601    30.6218
     18  H    Isotropic =    27.0661   Anisotropy =     5.1346
   XX=    26.0479   YX=    -0.4850   ZX=     2.9159
   XY=    -2.2029   YY=    29.9527   ZY=    -0.5257
   XZ=     2.5629   YZ=     0.8161   ZZ=    25.1978
   Eigenvalues:    22.7139    27.9953    30.4892
     19  O    Isotropic =   300.2065   Anisotropy =    64.9494
   XX=   278.7814   YX=   -27.2070   ZX=     6.1968
   XY=   -13.2831   YY=   307.0561   ZY=    23.3357
   XZ=     0.4384   YZ=    37.3906   ZZ=   314.7818
   Eigenvalues:   261.3566   295.7567   343.5061
     20  H    Isotropic =    29.9129   Anisotropy =    20.8613
   XX=    20.9256   YX=    -2.1047   ZX=    -2.3760
   XY=    -2.1903   YY=    33.0103   ZY=     9.1707
   XZ=    -1.8712   YZ=     8.6481   ZZ=    35.8029
   Eigenvalues:    20.5173    25.4011    43.8205
     21  O    Isotropic =   302.8034   Anisotropy =    40.0276
   XX=   303.3371   YX=     3.3172   ZX=    -0.4045
   XY=    19.2947   YY=   324.5895   ZY=    -4.2329
   XZ=    20.5986   YZ=    -5.9174   ZZ=   280.4837
   Eigenvalues:   275.0385   303.8833   329.4885
     22  H    Isotropic =    29.5833   Anisotropy =    18.9245
   XX=    26.8635   YX=     3.7216   ZX=    -3.0430
   XY=     2.5508   YY=    40.6468   ZY=    -3.4062
   XZ=    -4.4493   YZ=    -3.6104   ZZ=    21.2395
   Eigenvalues:    19.2122    27.3380    42.1996
     23  C    Isotropic =   133.8800   Anisotropy =    49.7554
   XX=   121.0620   YX=    -5.2184   ZX=    10.6048
   XY=     0.2656   YY=   122.8251   ZY=     9.3768
   XZ=    22.5882   YZ=    16.5649   ZZ=   157.7528
   Eigenvalues:   110.0265   124.5631   167.0502
     24  H    Isotropic =    28.1050   Anisotropy =     9.2311
   XX=    25.5498   YX=    -1.7576   ZX=     2.2922
   XY=    -1.6628   YY=    32.4742   ZY=     2.5050
   XZ=     1.9212   YZ=     4.8973   ZZ=    26.2908
   Eigenvalues:    22.3610    27.6948    34.2590
     25  H    Isotropic =    27.7715   Anisotropy =     6.4039
   XX=    28.8806   YX=    -2.2373   ZX=    -1.9490
   XY=    -1.8510   YY=    26.2767   ZY=     0.3228
   XZ=    -3.8827   YZ=     0.5092   ZZ=    28.1571
   Eigenvalues:    24.6417    26.6321    32.0407
     26  O    Isotropic =   318.5369   Anisotropy =    33.3554
   XX=   333.0793   YX=    -9.7119   ZX=   -12.6230
   XY=    -0.5769   YY=   314.5929   ZY=    21.7755
   XZ=   -10.5831   YZ=     0.0627   ZZ=   307.9384
   Eigenvalues:   298.5221   316.3147   340.7738
     27  H    Isotropic =    29.1709   Anisotropy =    14.5443
   XX=    35.9408   YX=     0.3384   ZX=    -3.9738
   XY=    -1.6752   YY=    19.7375   ZY=    -2.5583
   XZ=    -5.0686   YZ=    -1.4011   ZZ=    31.8345
   Eigenvalues:    19.2976    29.3481    38.8671
 End of Minotr Frequency-dependent properties file   721 does not exist.
 End of Minotr Frequency-dependent properties file   722 does not exist.

 **********************************************************************

            Population analysis using the SCF density.

 **********************************************************************

 Orbital symmetries:
       Occupied  (A) (A) (A) (A) (A) (A) (A) (A) (A) (A) (A) (A)
                 (A) (A) (A) (A) (A) (A) (A) (A) (A) (A) (A) (A)
                 (A) (A) (A) (A) (A) (A) (A) (A) (A) (A) (A) (A)
                 (A) (A) (A) (A) (A) (A) (A) (A) (A) (A) (A)
       Virtual   (A) (A) (A) (A) (A) (A) (A) (A) (A) (A) (A) (A)
                 (A) (A) (A) (A) (A) (A) (A) (A) (A) (A) (A) (A)
                 (A) (A) (A) (A) (A) (A) (A) (A) (A) (A) (A) (A)
                 (A) (A) (A) (A) (A) (A) (A) (A) (A) (A) (A) (A)
                 (A) (A) (A) (A) (A) (A) (A) (A) (A) (A) (A) (A)
                 (A) (A) (A) (A) (A) (A) (A) (A) (A) (A) (A) (A)
                 (A) (A) (A) (A) (A) (A) (A) (A) (A) (A) (A) (A)
                 (A) (A) (A) (A) (A) (A) (A) (A) (A) (A) (A) (A)
                 (A) (A) (A) (A) (A) (A) (A) (A) (A) (A) (A) (A)
                 (A) (A) (A) (A) (A) (A) (A) (A) (A) (A) (A) (A)
                 (A) (A) (A) (A) (A) (A) (A) (A) (A) (A) (A) (A)
                 (A) (A) (A) (A) (A) (A) (A) (A) (A) (A) (A) (A)
                 (A) (A) (A) (A) (A) (A) (A) (A) (A) (A) (A) (A)
                 (A) (A) (A) (A) (A) (A) (A) (A) (A) (A) (A) (A)
                 (A) (A) (A) (A) (A) (A) (A) (A) (A) (A) (A) (A)
                 (A) (A) (A) (A) (A) (A) (A) (A) (A) (A) (A) (A)
                 (A) (A) (A) (A) (A) (A) (A) (A) (A) (A) (A) (A)
                 (A) (A) (A) (A) (A) (A) (A) (A) (A) (A) (A) (A)
                 (A) (A) (A) (A) (A) (A) (A) (A) (A) (A) (A) (A)
                 (A) (A) (A) (A) (A) (A) (A) (A) (A) (A) (A) (A)
                 (A) (A) (A) (A) (A) (A) (A) (A) (A) (A) (A) (A)
                 (A) (A) (A) (A)
 The electronic state is 1-A.
 Alpha  occ. eigenvalues --  -19.26179 -19.25794 -19.24747 -14.42049 -10.30506
 Alpha  occ. eigenvalues --  -10.30232 -10.28933 -10.28367 -10.27793 -10.27075
 Alpha  occ. eigenvalues --  -10.24435 -10.24319  -1.07372  -1.05601  -1.04957
 Alpha  occ. eigenvalues --   -0.96862  -0.82088  -0.79232  -0.75561  -0.71490
 Alpha  occ. eigenvalues --   -0.66698  -0.61933  -0.59793  -0.58506  -0.55395
 Alpha  occ. eigenvalues --   -0.52827  -0.51163  -0.49798  -0.49429  -0.48283
 Alpha  occ. eigenvalues --   -0.45611  -0.44603  -0.44052  -0.41258  -0.41003
 Alpha  occ. eigenvalues --   -0.40019  -0.38273  -0.37152  -0.36379  -0.35489
 Alpha  occ. eigenvalues --   -0.34784  -0.34029  -0.33489  -0.30836  -0.29304
 Alpha  occ. eigenvalues --   -0.28563  -0.24258
 Alpha virt. eigenvalues --    0.00426   0.01130   0.01589   0.02428   0.03702
 Alpha virt. eigenvalues --    0.04131   0.04389   0.04761   0.05261   0.07347
 Alpha virt. eigenvalues --    0.07898   0.08157   0.08666   0.08780   0.09482
 Alpha virt. eigenvalues --    0.10082   0.10973   0.11923   0.12658   0.12938
 Alpha virt. eigenvalues --    0.13059   0.13951   0.14297   0.14827   0.15064
 Alpha virt. eigenvalues --    0.16037   0.16671   0.17006   0.17709   0.18017
 Alpha virt. eigenvalues --    0.18471   0.18940   0.19971   0.20171   0.20597
 Alpha virt. eigenvalues --    0.21046   0.22086   0.22195   0.22898   0.22957
 Alpha virt. eigenvalues --    0.24005   0.24300   0.24810   0.25445   0.25978
 Alpha virt. eigenvalues --    0.26924   0.27383   0.27730   0.28510   0.28966
 Alpha virt. eigenvalues --    0.29401   0.30483   0.30955   0.31376   0.32005
 Alpha virt. eigenvalues --    0.32694   0.33184   0.33570   0.34613   0.35113
 Alpha virt. eigenvalues --    0.35759   0.35973   0.36866   0.37771   0.38229
 Alpha virt. eigenvalues --    0.39266   0.40137   0.40621   0.41708   0.42687
 Alpha virt. eigenvalues --    0.43311   0.43770   0.46240   0.47189   0.47639
 Alpha virt. eigenvalues --    0.48791   0.63559   0.66004   0.67484   0.69294
 Alpha virt. eigenvalues --    0.71072   0.71774   0.72690   0.73885   0.74979
 Alpha virt. eigenvalues --    0.76581   0.77874   0.78762   0.79158   0.81263
 Alpha virt. eigenvalues --    0.82519   0.84010   0.84378   0.87135   0.88678
 Alpha virt. eigenvalues --    0.89343   0.91266   0.93755   0.95934   0.99153
 Alpha virt. eigenvalues --    1.00315   1.00582   1.02638   1.03828   1.03959
 Alpha virt. eigenvalues --    1.06029   1.08191   1.08978   1.10016   1.10863
 Alpha virt. eigenvalues --    1.11357   1.12142   1.13021   1.14405   1.16290
 Alpha virt. eigenvalues --    1.17041   1.19134   1.21895   1.23600   1.26126
 Alpha virt. eigenvalues --    1.26652   1.29842   1.31249   1.31756   1.32464
 Alpha virt. eigenvalues --    1.34784   1.35897   1.37212   1.39404   1.43205
 Alpha virt. eigenvalues --    1.43678   1.45491   1.47445   1.50311   1.52311
 Alpha virt. eigenvalues --    1.54200   1.54786   1.58253   1.58678   1.61076
 Alpha virt. eigenvalues --    1.62316   1.66358   1.69812   1.70319   1.72428
 Alpha virt. eigenvalues --    1.74103   1.75050   1.75673   1.79229   1.80128
 Alpha virt. eigenvalues --    1.81928   1.82972   1.83795   1.85214   1.86410
 Alpha virt. eigenvalues --    1.88201   1.88706   1.90222   1.91600   1.93680
 Alpha virt. eigenvalues --    1.97293   2.00096   2.01035   2.01201   2.03970
 Alpha virt. eigenvalues --    2.06039   2.06668   2.08556   2.11152   2.12232
 Alpha virt. eigenvalues --    2.13939   2.15069   2.16751   2.18147   2.20279
 Alpha virt. eigenvalues --    2.21304   2.25482   2.25969   2.29237   2.30630
 Alpha virt. eigenvalues --    2.32935   2.34920   2.36925   2.38860   2.39690
 Alpha virt. eigenvalues --    2.41911   2.44719   2.45816   2.47694   2.47840
 Alpha virt. eigenvalues --    2.49100   2.50953   2.51990   2.53272   2.54999
 Alpha virt. eigenvalues --    2.56364   2.57006   2.59422   2.60739   2.63123
 Alpha virt. eigenvalues --    2.64401   2.65506   2.66306   2.67328   2.68182
 Alpha virt. eigenvalues --    2.70130   2.72154   2.75326   2.76027   2.78851
 Alpha virt. eigenvalues --    2.79638   2.81045   2.82270   2.83938   2.85042
 Alpha virt. eigenvalues --    2.86983   2.88973   2.91191   2.91734   2.95103
 Alpha virt. eigenvalues --    2.96347   2.98552   3.00145   3.03748   3.05021
 Alpha virt. eigenvalues --    3.07682   3.09790   3.12866   3.18420   3.32399
 Alpha virt. eigenvalues --    3.35844   3.36581   3.38510   3.41289   3.46420
 Alpha virt. eigenvalues --    3.49129   3.49649   3.53182   3.54100   3.55261
 Alpha virt. eigenvalues --    3.55829   3.59344   3.60526   3.64389   4.32999
 Alpha virt. eigenvalues --    4.39163   4.43053   4.47903   4.53666   4.55238
 Alpha virt. eigenvalues --    4.62209   4.66244   4.75059   4.87664   4.90543
 Alpha virt. eigenvalues --    4.93272
          Condensed to atoms (all electrons):
              1          2          3          4          5          6
     1  C    5.761046  -0.250352   0.108919  -0.001111   0.054816  -0.090529
     2  C   -0.250352   7.564868  -0.315210  -0.273070   0.145278  -0.014001
     3  N    0.108919  -0.315210   7.589961   0.143310  -0.260097  -0.290493
     4  C   -0.001111  -0.273070   0.143310   5.908294   0.133499  -0.309182
     5  C    0.054816   0.145278  -0.260097   0.133499   5.468517   0.140628
     6  C   -0.090529  -0.014001  -0.290493  -0.309182   0.140628   8.437749
     7  C   -0.074447   0.108223  -0.204998  -0.055750   0.036000  -0.206717
     8  C   -0.004612  -0.652200   0.130544  -0.084139   0.019133  -0.453287
     9  H    0.403965  -0.076683   0.011089   0.003697  -0.037292   0.007646
    10  H    0.465504  -0.130834   0.022257   0.021888  -0.050781   0.001309
    11  H    0.001212   0.263274  -0.035674  -0.024189   0.005056   0.012617
    12  H    0.009464  -0.014028  -0.028497   0.395494  -0.063761  -0.003788
    13  H    0.007296   0.032087  -0.053083   0.364135  -0.017386   0.013521
    14  H   -0.011522   0.005581   0.016992  -0.043641   0.367079   0.001398
    15  H   -0.055866  -0.002497   0.012449  -0.063098   0.416565   0.010886
    16  H   -0.008152   0.032881  -0.038867   0.051235  -0.006251   0.227676
    17  H    0.020273   0.009270   0.024149   0.010476  -0.019834  -0.065502
    18  H    0.014284  -0.075672   0.034830   0.012016  -0.005514   0.005083
    19  O   -0.016084  -0.162695   0.003179   0.000612   0.006880   0.086455
    20  H   -0.009557  -0.022191  -0.000434  -0.000906   0.003160  -0.012762
    21  O    0.002226  -0.000632   0.036222  -0.005002   0.001992  -0.284534
    22  H   -0.000128   0.005550  -0.005082  -0.001066   0.000034   0.077388
    23  C    0.088198  -0.181134   0.220949   0.060406  -0.090916  -0.888345
    24  H    0.000289  -0.010562  -0.013259   0.013355  -0.002254  -0.036185
    25  H    0.001937   0.005109   0.017063   0.001932  -0.000989  -0.167564
    26  O    0.006619  -0.045877   0.044352   0.011255  -0.008129  -0.239029
    27  H    0.005590   0.011226   0.043750   0.017768  -0.004076  -0.068687
              7          8          9         10         11         12
     1  C   -0.074447  -0.004612   0.403965   0.465504   0.001212   0.009464
     2  C    0.108223  -0.652200  -0.076683  -0.130834   0.263274  -0.014028
     3  N   -0.204998   0.130544   0.011089   0.022257  -0.035674  -0.028497
     4  C   -0.055750  -0.084139   0.003697   0.021888  -0.024189   0.395494
     5  C    0.036000   0.019133  -0.037292  -0.050781   0.005056  -0.063761
     6  C   -0.206717  -0.453287   0.007646   0.001309   0.012617  -0.003788
     7  C    6.224181   0.091942  -0.012033  -0.006441   0.009052   0.001938
     8  C    0.091942   6.215758   0.035320   0.009765   0.056799   0.012083
     9  H   -0.012033   0.035320   0.522345  -0.024161  -0.007443   0.001112
    10  H   -0.006441   0.009765  -0.024161   0.504815   0.003590  -0.000032
    11  H    0.009052   0.056799  -0.007443   0.003590   0.545619   0.001591
    12  H    0.001938   0.012083   0.001112  -0.000032   0.001591   0.532930
    13  H    0.006304  -0.005238  -0.000122  -0.000129  -0.000120  -0.023767
    14  H    0.002132   0.001281  -0.005782   0.001649   0.000020  -0.002800
    15  H   -0.010883   0.015088   0.003849  -0.007147  -0.000159   0.003945
    16  H    0.021117  -0.003556   0.000001  -0.000054  -0.000242   0.000079
    17  H    0.387104  -0.044251   0.000072   0.000263  -0.000164   0.000001
    18  H   -0.088064   0.422437  -0.000092   0.000140  -0.006702   0.000007
    19  O   -0.199097   0.366123  -0.000850   0.001896  -0.004817  -0.000097
    20  H    0.031854   0.021667  -0.000035   0.000111   0.001365   0.000000
    21  O    0.364157  -0.042935   0.000024  -0.000138  -0.000263   0.000072
    22  H    0.000507  -0.059397   0.000000   0.000000  -0.000006   0.000000
    23  C   -0.410318   0.180421   0.001339  -0.000980   0.002088   0.008561
    24  H    0.029421   0.002376   0.000000   0.000000   0.000004  -0.000054
    25  H   -0.021355  -0.001376   0.000000  -0.000001  -0.000001   0.000002
    26  O    0.068916   0.033473   0.000001   0.000026   0.001137   0.000406
    27  H   -0.030560  -0.010499  -0.000001  -0.000003  -0.000417  -0.000042
             13         14         15         16         17         18
     1  C    0.007296  -0.011522  -0.055866  -0.008152   0.020273   0.014284
     2  C    0.032087   0.005581  -0.002497   0.032881   0.009270  -0.075672
     3  N   -0.053083   0.016992   0.012449  -0.038867   0.024149   0.034830
     4  C    0.364135  -0.043641  -0.063098   0.051235   0.010476   0.012016
     5  C   -0.017386   0.367079   0.416565  -0.006251  -0.019834  -0.005514
     6  C    0.013521   0.001398   0.010886   0.227676  -0.065502   0.005083
     7  C    0.006304   0.002132  -0.010883   0.021117   0.387104  -0.088064
     8  C   -0.005238   0.001281   0.015088  -0.003556  -0.044251   0.422437
     9  H   -0.000122  -0.005782   0.003849   0.000001   0.000072  -0.000092
    10  H   -0.000129   0.001649  -0.007147  -0.000054   0.000263   0.000140
    11  H   -0.000120   0.000020  -0.000159  -0.000242  -0.000164  -0.006702
    12  H   -0.023767  -0.002800   0.003945   0.000079   0.000001   0.000007
    13  H    0.523779   0.001305  -0.005347   0.000267   0.000035   0.000008
    14  H    0.001305   0.517586  -0.024073  -0.000169   0.000042   0.000003
    15  H   -0.005347  -0.024073   0.524336   0.000919  -0.000036   0.000004
    16  H    0.000267  -0.000169   0.000919   0.547069  -0.010165  -0.000127
    17  H    0.000035   0.000042  -0.000036  -0.010165   0.553916   0.004500
    18  H    0.000008   0.000003   0.000004  -0.000127   0.004500   0.542422
    19  O    0.000056   0.000071  -0.000288  -0.000239  -0.002553  -0.041135
    20  H    0.000000   0.000000   0.000001   0.000004   0.000068  -0.006916
    21  O    0.000002   0.000006   0.000246   0.003884  -0.043429  -0.002293
    22  H    0.000000   0.000000  -0.000004  -0.000213  -0.005768  -0.000785
    23  C   -0.014375  -0.000254   0.008358   0.002024   0.007462   0.006917
    24  H    0.000342   0.000000  -0.000006  -0.002734  -0.000113  -0.000038
    25  H   -0.000033   0.000000   0.000000   0.001273  -0.000017   0.000071
    26  O    0.000061   0.000010   0.000034   0.008825  -0.001246  -0.002065
    27  H   -0.000033  -0.000001   0.000000   0.000270  -0.000036  -0.001416
             19         20         21         22         23         24
     1  C   -0.016084  -0.009557   0.002226  -0.000128   0.088198   0.000289
     2  C   -0.162695  -0.022191  -0.000632   0.005550  -0.181134  -0.010562
     3  N    0.003179  -0.000434   0.036222  -0.005082   0.220949  -0.013259
     4  C    0.000612  -0.000906  -0.005002  -0.001066   0.060406   0.013355
     5  C    0.006880   0.003160   0.001992   0.000034  -0.090916  -0.002254
     6  C    0.086455  -0.012762  -0.284534   0.077388  -0.888345  -0.036185
     7  C   -0.199097   0.031854   0.364157   0.000507  -0.410318   0.029421
     8  C    0.366123   0.021667  -0.042935  -0.059397   0.180421   0.002376
     9  H   -0.000850  -0.000035   0.000024   0.000000   0.001339   0.000000
    10  H    0.001896   0.000111  -0.000138   0.000000  -0.000980   0.000000
    11  H   -0.004817   0.001365  -0.000263  -0.000006   0.002088   0.000004
    12  H   -0.000097   0.000000   0.000072   0.000000   0.008561  -0.000054
    13  H    0.000056   0.000000   0.000002   0.000000  -0.014375   0.000342
    14  H    0.000071   0.000000   0.000006   0.000000  -0.000254   0.000000
    15  H   -0.000288   0.000001   0.000246  -0.000004   0.008358  -0.000006
    16  H   -0.000239   0.000004   0.003884  -0.000213   0.002024  -0.002734
    17  H   -0.002553   0.000068  -0.043429  -0.005768   0.007462  -0.000113
    18  H   -0.041135  -0.006916  -0.002293  -0.000785   0.006917  -0.000038
    19  O    8.268308   0.238152  -0.010552   0.011512   0.003143  -0.000008
    20  H    0.238152   0.368437   0.000580  -0.000476  -0.000698   0.000000
    21  O   -0.010552   0.000580   8.283566   0.226777   0.018218  -0.001395
    22  H    0.011512  -0.000476   0.226777   0.374162  -0.005462  -0.000001
    23  C    0.003143  -0.000698   0.018218  -0.005462   6.038852   0.378716
    24  H   -0.000008   0.000000  -0.001395  -0.000001   0.378716   0.586924
    25  H    0.000010   0.000000   0.002431  -0.000037   0.546862  -0.038360
    26  O   -0.001319   0.000148  -0.003362  -0.000809   0.240507  -0.053044
    27  H    0.000258  -0.000006  -0.000497   0.000013   0.047990  -0.004514
             25         26         27
     1  C    0.001937   0.006619   0.005590
     2  C    0.005109  -0.045877   0.011226
     3  N    0.017063   0.044352   0.043750
     4  C    0.001932   0.011255   0.017768
     5  C   -0.000989  -0.008129  -0.004076
     6  C   -0.167564  -0.239029  -0.068687
     7  C   -0.021355   0.068916  -0.030560
     8  C   -0.001376   0.033473  -0.010499
     9  H    0.000000   0.000001  -0.000001
    10  H   -0.000001   0.000026  -0.000003
    11  H   -0.000001   0.001137  -0.000417
    12  H    0.000002   0.000406  -0.000042
    13  H   -0.000033   0.000061  -0.000033
    14  H    0.000000   0.000010  -0.000001
    15  H    0.000000   0.000034   0.000000
    16  H    0.001273   0.008825   0.000270
    17  H   -0.000017  -0.001246  -0.000036
    18  H    0.000071  -0.002065  -0.001416
    19  O    0.000010  -0.001319   0.000258
    20  H    0.000000   0.000148  -0.000006
    21  O    0.002431  -0.003362  -0.000497
    22  H   -0.000037  -0.000809   0.000013
    23  C    0.546862   0.240507   0.047990
    24  H   -0.038360  -0.053044  -0.004514
    25  H    0.530968  -0.053650   0.006515
    26  O   -0.053650   8.299267   0.244075
    27  H    0.006515   0.244075   0.358967
 Mulliken atomic charges:
              1
     1  C   -0.429277
     2  C    0.044288
     3  N   -0.214321
     4  C   -0.288217
     5  C   -0.231357
     6  C    0.108249
     7  C   -0.062185
     8  C   -0.252723
     9  H    0.174036
    10  H    0.187490
    11  H    0.176772
    12  H    0.169178
    13  H    0.170435
    14  H    0.173086
    15  H    0.172724
    16  H    0.173244
    17  H    0.175485
    18  H    0.188097
    19  O   -0.546922
    20  H    0.388433
    21  O   -0.545372
    22  H    0.383292
    23  C   -0.268526
    24  H    0.151097
    25  H    0.169209
    26  O   -0.550582
    27  H    0.384368
 Sum of Mulliken atomic charges =   0.00000
 Mulliken charges with hydrogens summed into heavy atoms:
              1
     1  C   -0.067751
     2  C    0.221060
     3  N   -0.214321
     4  C    0.051395
     5  C    0.114453
     6  C    0.281493
     7  C    0.113300
     8  C   -0.064626
    19  O   -0.158489
    21  O   -0.162080
    23  C    0.051780
    26  O   -0.166214
 Sum of Mulliken charges with hydrogens summed into heavy atoms =   0.00000
 Electronic spatial extent (au):  <R**2>=           1933.9916
 Charge=              0.0000 electrons
 Dipole moment (field-independent basis, Debye):
    X=             -4.8104    Y=              0.6704    Z=              0.1198  Tot=              4.8583
 Quadrupole moment (field-independent basis, Debye-Ang):
   XX=            -82.9300   YY=            -69.0855   ZZ=            -69.2583
   XY=              4.2954   XZ=             -4.1731   YZ=              7.2818
 Traceless Quadrupole moment (field-independent basis, Debye-Ang):
   XX=             -9.1720   YY=              4.6724   ZZ=              4.4996
   XY=              4.2954   XZ=             -4.1731   YZ=              7.2818
 Octapole moment (field-independent basis, Debye-Ang**2):
  XXX=            -31.8817  YYY=             15.4785  ZZZ=             10.9200  XYY=              8.3641
  XXY=              9.0764  XXZ=             -7.9902  XZZ=             -3.9283  YZZ=             14.7507
  YYZ=              6.2125  XYZ=              1.4573
 Hexadecapole moment (field-independent basis, Debye-Ang**3):
 XXXX=          -1336.4989 YYYY=           -837.1594 ZZZZ=           -329.5236 XXXY=             41.7647
 XXXZ=            -44.1346 YYYX=             26.6363 YYYZ=             44.4155 ZZZX=             -0.0422
 ZZZY=              8.9573 XXYY=           -344.2008 XXZZ=           -288.9651 YYZZ=           -170.2330
 XXYZ=             13.7541 YYXZ=            -26.0097 ZZXY=              4.7362
 N-N= 8.157788927656D+02 E-N=-3.017552288897D+03  KE= 5.886567367475D+02
 1\1\GINC-COMPUTE-3-2\SP\RmPW1PW91\6-31+G(d,p)\C8H15N1O3\MAMICHETTI.IQU
 IR\17-May-2024\0\\# mpw1pw91/6-31+G** nmr scrf=(pcm,solvent=water)\\co
 mment\\0,1\C,0,-2.295516,0.596778,0.106596\C,0,-0.957919,0.34036,0.866
 42\N,0,-0.462048,-1.007951,0.44522\C,0,-1.65963,-1.720502,-0.041527\C,
 0,-2.503876,-0.660434,-0.764545\C,0,0.595429,-0.824684,-0.600808\C,0,0
 .739705,0.702043,-0.780762\C,0,0.21021,1.281161,0.526894\H,0,-3.11288,
 0.711876,0.826076\H,0,-2.256701,1.514487,-0.486698\H,0,-1.144168,0.338
 783,1.945361\H,0,-2.208354,-2.114595,0.823721\H,0,-1.371107,-2.570679,
 -0.666089\H,0,-3.556609,-0.945865,-0.859238\H,0,-2.109655,-0.499103,-1
 .775336\H,0,0.282532,-1.279559,-1.547984\H,0,0.069936,1.029798,-1.5891
 85\H,0,0.989622,1.18437,1.292935\O,0,-0.124606,2.655511,0.34825\H,0,-0
 .269631,3.039245,1.229206\O,0,2.078207,1.082121,-1.09155\H,0,2.077614,
 2.051652,-1.165239\C,0,1.873581,-1.542399,-0.156956\H,0,1.691213,-2.62
 7158,-0.18882\H,0,2.699383,-1.32214,-0.838537\O,0,2.291613,-1.148249,1
 .151178\H,0,1.47953,-1.204452,1.688392\\Version=AM64L-G09RevC.01\State
 =1-A\HF=-594.195994\RMSD=9.450e-09\Dipole=-1.8925471,0.2637579,0.04712
 49\Quadrupole=-6.8191831,3.4738218,3.3453613,3.1935575,-3.1026113,5.41
 38766\PG=C01 [X(C8H15N1O3)]\\@


 SOME PHYSICISTS WOULD PREFER TO COME BACK TO THE IDEA OF AN OBJECTIVE
 REAL WORLD WHOSE SMALLEST PARTS EXIST OBJECTIVELY IN THE SAME SENSE AS
 STONES OR TREES EXIST INDEPENDENTLY OF WHETHER WE OBSERVE THEM.
 THIS, HOWEVER, IS IMPOSSIBLE.  -- WERNER HEISENBERG
 Job cpu time:  0 days  0 hours  8 minutes 50.7 seconds.
 File lengths (MBytes):  RWF=    111 Int=      0 D2E=      0 Chk=      7 Scr=      1
 Normal termination of Gaussian 09 at Fri May 17 12:10:22 2024.
