 Entering Gaussian System, Link 0=g09
 Input=/home/mamichetti.iquir/Linux/03_Cardona_A1A3_R__S_S_R_038_OptB.gjc
 Output=/home/mamichetti.iquir/Linux/03_Cardona_A1A3_R__S_S_R_038_OptB.log
 Initial command:
 /opt/ohpc/pub/apps/software/Gaussian/09/AMD64.SSE4a-enabled/g09/l1.exe /local/mamichetti.iquir/Gau-131335.inp -scrdir=/local/mamichetti.iquir/
 Entering Link 1 = /opt/ohpc/pub/apps/software/Gaussian/09/AMD64.SSE4a-enabled/g09/l1.exe PID=    131336.
  
 Copyright (c) 1988,1990,1992,1993,1995,1998,2003,2009,2011,
            Gaussian, Inc.  All Rights Reserved.
  
 This is part of the Gaussian(R) 09 program.  It is based on
 the Gaussian(R) 03 system (copyright 2003, Gaussian, Inc.),
 the Gaussian(R) 98 system (copyright 1998, Gaussian, Inc.),
 the Gaussian(R) 94 system (copyright 1995, Gaussian, Inc.),
 the Gaussian 92(TM) system (copyright 1992, Gaussian, Inc.),
 the Gaussian 90(TM) system (copyright 1990, Gaussian, Inc.),
 the Gaussian 88(TM) system (copyright 1988, Gaussian, Inc.),
 the Gaussian 86(TM) system (copyright 1986, Carnegie Mellon
 University), and the Gaussian 82(TM) system (copyright 1983,
 Carnegie Mellon University). Gaussian is a federally registered
 trademark of Gaussian, Inc.
  
 This software contains proprietary and confidential information,
 including trade secrets, belonging to Gaussian, Inc.
  
 This software is provided under written license and may be
 used, copied, transmitted, or stored only in accord with that
 written license.
  
 The following legend is applicable only to US Government
 contracts under FAR:
  
                    RESTRICTED RIGHTS LEGEND
  
 Use, reproduction and disclosure by the US Government is
 subject to restrictions as set forth in subparagraphs (a)
 and (c) of the Commercial Computer Software - Restricted
 Rights clause in FAR 52.227-19.
  
 Gaussian, Inc.
 340 Quinnipiac St., Bldg. 40, Wallingford CT 06492
  
  
 ---------------------------------------------------------------
 Warning -- This program may not be used in any manner that
 competes with the business of Gaussian, Inc. or will provide
 assistance to any competitor of Gaussian, Inc.  The licensee
 of this program is prohibited from giving any competitor of
 Gaussian, Inc. access to this program.  By using this program,
 the user acknowledges that Gaussian, Inc. is engaged in the
 business of creating and licensing software in the field of
 computational chemistry and represents and warrants to the
 licensee that it is not a competitor of Gaussian, Inc. and that
 it will not use this program in any manner prohibited above.
 ---------------------------------------------------------------
  

 Cite this work as:
 Gaussian 09, Revision C.01,
 M. J. Frisch, G. W. Trucks, H. B. Schlegel, G. E. Scuseria, 
 M. A. Robb, J. R. Cheeseman, G. Scalmani, V. Barone, B. Mennucci, 
 G. A. Petersson, H. Nakatsuji, M. Caricato, X. Li, H. P. Hratchian, 
 A. F. Izmaylov, J. Bloino, G. Zheng, J. L. Sonnenberg, M. Hada, 
 M. Ehara, K. Toyota, R. Fukuda, J. Hasegawa, M. Ishida, T. Nakajima, 
 Y. Honda, O. Kitao, H. Nakai, T. Vreven, J. A. Montgomery, Jr., 
 J. E. Peralta, F. Ogliaro, M. Bearpark, J. J. Heyd, E. Brothers, 
 K. N. Kudin, V. N. Staroverov, T. Keith, R. Kobayashi, J. Normand, 
 K. Raghavachari, A. Rendell, J. C. Burant, S. S. Iyengar, J. Tomasi, 
 M. Cossi, N. Rega, J. M. Millam, M. Klene, J. E. Knox, J. B. Cross, 
 V. Bakken, C. Adamo, J. Jaramillo, R. Gomperts, R. E. Stratmann, 
 O. Yazyev, A. J. Austin, R. Cammi, C. Pomelli, J. W. Ochterski, 
 R. L. Martin, K. Morokuma, V. G. Zakrzewski, G. A. Voth, 
 P. Salvador, J. J. Dannenberg, S. Dapprich, A. D. Daniels, 
 O. Farkas, J. B. Foresman, J. V. Ortiz, J. Cioslowski, 
 and D. J. Fox, Gaussian, Inc., Wallingford CT, 2010.
 
 ******************************************
 Gaussian 09:  AM64L-G09RevC.01 23-Sep-2011
                17-May-2024 
 ******************************************
 %nprocshared=4
 Will use up to    4 processors via shared memory.
 ------------------------------------------------
 # mpw1pw91/6-31+G** nmr scrf=(pcm,solvent=water)
 ------------------------------------------------
 1/38=1/1;
 2/12=2,17=6,18=5,40=1/2;
 3/5=1,6=6,7=111,11=2,16=1,25=1,30=1,70=2201,72=1,74=-7/1,2,8,3;
 4//1;
 5/5=2,38=5,53=1/2;
 8/6=1,10=90,11=11/1;
 10/13=100,45=16/2;
 6/7=2,8=2,9=2,10=2,28=1/1;
 99/9=1/99;
 -------
 comment
 -------
 Charge =  0 Multiplicity = 1
 Symbolic Z-Matrix:
 6                    -2.59124  -0.0341   -0.44956 
 6                    -1.15184  -0.4528   -0.81425 
 7                    -0.30258   0.77573  -0.64079 
 6                    -1.16969   1.8572   -0.119 
 6                    -2.3989    1.16796   0.48735 
 6                     0.84121   0.42983   0.23483 
 6                     0.97089  -1.10137   0.12309 
 6                    -0.4979   -1.54977   0.05665 
 1                    -3.17117  -0.84818  -0.00122 
 1                    -3.12164   0.27744  -1.35647 
 1                    -1.10659  -0.79022  -1.85756 
 1                    -1.4767    2.51704  -0.9417 
 1                    -0.61766   2.47266   0.59838 
 1                    -3.27472   1.82364   0.53241 
 1                    -2.17655   0.82312   1.50281 
 1                     0.61916   0.65714   1.28986 
 1                     1.47207  -1.53035   0.9933 
 1                    -0.59431  -2.54295  -0.39908 
 8                    -0.96779  -1.58062   1.41002 
 1                    -1.90728  -1.82615   1.38979 
 8                     1.7282   -1.54789  -1.00573 
 1                     1.36306  -1.13715  -1.80737 
 6                     2.10399   1.20177  -0.14878 
 1                     2.37554   0.99444  -1.19122 
 1                     1.91632   2.27685  -0.0604 
 8                     3.20006   0.91328   0.72754 
 1                     3.49573   0.01208   0.51726 
 
                          Input orientation:                          
 ---------------------------------------------------------------------
 Center     Atomic      Atomic             Coordinates (Angstroms)
 Number     Number       Type             X           Y           Z
 ---------------------------------------------------------------------
      1          6           0       -2.591239   -0.034103   -0.449557
      2          6           0       -1.151839   -0.452796   -0.814252
      3          7           0       -0.302576    0.775730   -0.640790
      4          6           0       -1.169688    1.857204   -0.118999
      5          6           0       -2.398900    1.167958    0.487354
      6          6           0        0.841210    0.429834    0.234834
      7          6           0        0.970886   -1.101370    0.123094
      8          6           0       -0.497903   -1.549766    0.056653
      9          1           0       -3.171166   -0.848179   -0.001222
     10          1           0       -3.121638    0.277440   -1.356470
     11          1           0       -1.106593   -0.790223   -1.857556
     12          1           0       -1.476697    2.517041   -0.941702
     13          1           0       -0.617663    2.472660    0.598379
     14          1           0       -3.274724    1.823642    0.532408
     15          1           0       -2.176547    0.823117    1.502807
     16          1           0        0.619164    0.657138    1.289858
     17          1           0        1.472068   -1.530352    0.993303
     18          1           0       -0.594314   -2.542946   -0.399081
     19          8           0       -0.967792   -1.580620    1.410020
     20          1           0       -1.907284   -1.826147    1.389794
     21          8           0        1.728196   -1.547891   -1.005733
     22          1           0        1.363063   -1.137151   -1.807366
     23          6           0        2.103991    1.201766   -0.148779
     24          1           0        2.375535    0.994441   -1.191220
     25          1           0        1.916319    2.276851   -0.060404
     26          8           0        3.200056    0.913275    0.727544
     27          1           0        3.495728    0.012078    0.517264
 ---------------------------------------------------------------------
                    Distance matrix (angstroms):
                    1          2          3          4          5
     1  C    0.000000
     2  C    1.542783   0.000000
     3  N    2.435237   1.503533   0.000000
     4  C    2.388958   2.412425   1.481126   0.000000
     5  C    1.536147   2.424084   2.412701   1.534173   0.000000
     6  C    3.530628   2.419062   1.481421   2.491243   3.332703
     7  C    3.762409   2.409404   2.393476   3.659758   4.078970
     8  C    2.633541   1.545785   2.435675   3.477009   3.344446
     9  H    1.095463   2.212471   3.357817   3.367326   2.213574
    10  H    1.095844   2.169644   2.950865   2.799482   2.171419
    11  H    2.181365   1.097446   2.139900   3.167875   3.317097
    12  H    2.827145   2.990269   2.121620   1.098399   2.170872
    13  H    3.358129   3.292288   2.124710   1.094600   2.210742
    14  H    2.209666   3.391505   3.362763   2.203777   1.094997
    15  H    2.172216   2.836678   2.847634   2.171026   1.095217
    16  H    3.716190   2.965752   2.142678   2.573913   3.164437
    17  H    4.564107   3.363520   3.337310   4.437525   4.745656
    18  H    3.206953   2.202709   3.340231   4.446439   4.220558
    19  O    2.912958   2.500649   3.193856   3.767930   3.233274
    20  H    2.657523   2.704553   3.669894   4.048157   3.165557
    21  O    4.610684   3.087151   3.107480   4.558366   5.161208
    22  H    4.323987   2.789148   2.791839   4.269845   4.973091
    23  C    4.864465   3.712258   2.493019   3.338781   4.547729
    24  H    5.126091   3.831314   2.742824   3.802976   5.063887
    25  H    5.080357   4.175267   2.741114   3.114960   4.488964
    26  O    5.985164   4.814798   3.762936   4.549978   5.609890
    27  H    6.163444   4.856843   4.043682   5.057215   6.006962
                    6          7          8          9         10
     6  C    0.000000
     7  C    1.540742   0.000000
     8  C    2.396620   1.537145   0.000000
     9  H    4.217606   4.151645   2.764400   0.000000
    10  H    4.273130   4.564973   3.495652   1.762432   0.000000
    11  H    3.108146   2.887162   2.147465   2.777012   2.334823
    12  H    3.333671   4.496371   4.300427   3.883353   2.809569
    13  H    2.536457   3.939933   4.060507   4.231769   3.861388
    14  H    4.355705   5.171889   4.395106   2.726557   2.445820
    15  H    3.296860   3.938730   3.246503   2.458577   3.060462
    16  H    1.101838   2.139485   2.763885   4.277788   4.597915
    17  H    2.194444   1.092004   2.181393   4.797297   5.467328
    18  H    3.361547   2.191041   1.096994   3.109774   3.906218
    19  O    2.948809   2.375780   1.432951   2.717155   3.967985
    20  H    3.738663   3.227025   1.959593   2.118666   3.666292
    21  O    2.497428   1.430786   2.466614   5.049989   5.193817
    22  H    2.626472   1.970218   2.666086   4.889263   4.724079
    23  C    1.528939   2.581139   3.792490   5.661389   5.442435
    24  H    2.169462   2.844799   4.035694   5.964666   5.546198
    25  H    2.157428   3.512818   4.526054   5.970914   5.573010
    26  O    2.457770   3.064858   4.493503   6.650285   6.686645
    27  H    2.701990   2.787465   4.312842   6.742132   6.882647
                   11         12         13         14         15
    11  H    0.000000
    12  H    3.451632   0.000000
    13  H    4.113037   1.764018   0.000000
    14  H    4.152711   2.426253   2.735973   0.000000
    15  H    3.878106   3.055289   2.443174   1.774463   0.000000
    16  H    3.870311   3.582141   2.303042   4.134831   2.808718
    17  H    3.914675   5.368505   4.532885   5.830415   4.371590
    18  H    2.337010   5.164930   5.113881   5.207625   4.177442
    19  O    3.364676   4.751885   4.148546   4.204895   2.692146
    20  H    3.501361   4.948188   4.557324   3.990735   2.665309
    21  O    3.055436   5.176786   4.923521   6.225939   5.211667
    22  H    2.494410   4.708156   4.768817   5.979122   5.227689
    23  C    4.146781   3.896152   3.095290   5.457226   4.603707
    24  H    3.969162   4.149730   3.787747   5.965224   5.292314
    25  H    4.666336   3.513821   2.625529   5.244402   4.616116
    26  O    5.303949   5.218282   4.125935   6.541378   5.432957
    27  H    5.240688   5.755730   4.793853   7.008639   5.814102
                   16         17         18         19         20
    16  H    0.000000
    17  H    2.366538   0.000000
    18  H    3.816488   2.689612   0.000000
    19  O    2.745984   2.475701   2.082883   0.000000
    20  H    3.543957   3.415365   2.331902   0.971256   0.000000
    21  O    3.370733   2.015454   2.598502   3.620122   4.362647
    22  H    3.655907   2.830236   2.791210   3.997640   4.625118
    23  C    2.137991   3.027895   4.622377   4.428022   5.256024
    24  H    3.058490   3.458753   4.686213   4.957340   5.741070
    25  H    2.475740   3.975230   5.445037   5.035904   5.792893
    26  O    2.653829   3.004644   5.254711   4.904716   5.833346
    27  H    3.047560   2.588610   4.908796   4.822521   5.773467
                   21         22         23         24         25
    21  O    0.000000
    22  H    0.971928   0.000000
    23  C    2.904515   2.961489   0.000000
    24  H    2.630001   2.438938   1.096997   0.000000
    25  H    3.944324   3.874710   1.094915   1.770367   0.000000
    26  O    3.350815   3.742267   1.432664   2.089995   2.031793
    27  H    2.806634   3.357513   1.948308   2.266889   2.820892
                   26         27
    26  O    0.000000
    27  H    0.971491   0.000000
 Stoichiometry    C8H15NO3
 Framework group  C1[X(C8H15NO3)]
 Deg. of freedom    75
 Full point group                 C1      NOp   1
 Largest Abelian subgroup         C1      NOp   1
 Largest concise Abelian subgroup C1      NOp   1
                         Standard orientation:                         
 ---------------------------------------------------------------------
 Center     Atomic      Atomic             Coordinates (Angstroms)
 Number     Number       Type             X           Y           Z
 ---------------------------------------------------------------------
      1          6           0        2.591239    0.034103   -0.449557
      2          6           0        1.151839    0.452796   -0.814252
      3          7           0        0.302576   -0.775730   -0.640790
      4          6           0        1.169688   -1.857204   -0.118999
      5          6           0        2.398900   -1.167958    0.487354
      6          6           0       -0.841210   -0.429834    0.234834
      7          6           0       -0.970886    1.101370    0.123094
      8          6           0        0.497903    1.549766    0.056653
      9          1           0        3.171166    0.848179   -0.001222
     10          1           0        3.121638   -0.277440   -1.356470
     11          1           0        1.106593    0.790223   -1.857556
     12          1           0        1.476697   -2.517041   -0.941702
     13          1           0        0.617663   -2.472660    0.598379
     14          1           0        3.274724   -1.823642    0.532408
     15          1           0        2.176547   -0.823117    1.502807
     16          1           0       -0.619164   -0.657138    1.289858
     17          1           0       -1.472068    1.530352    0.993303
     18          1           0        0.594314    2.542946   -0.399081
     19          8           0        0.967792    1.580620    1.410020
     20          1           0        1.907284    1.826147    1.389794
     21          8           0       -1.728196    1.547891   -1.005733
     22          1           0       -1.363063    1.137151   -1.807366
     23          6           0       -2.103991   -1.201766   -0.148779
     24          1           0       -2.375535   -0.994441   -1.191220
     25          1           0       -1.916319   -2.276851   -0.060404
     26          8           0       -3.200056   -0.913275    0.727544
     27          1           0       -3.495728   -0.012078    0.517264
 ---------------------------------------------------------------------
 Rotational constants (GHZ):      1.4155840      0.7766995      0.6190495
 Standard basis: 6-31+G(d,p) (6D, 7F)
 There are   303 symmetry adapted basis functions of A   symmetry.
 Integral buffers will be    131072 words long.
 Raffenetti 2 integral format.
 Two-electron integral symmetry is turned on.
   303 basis functions,   489 primitive gaussians,   303 cartesian basis functions
    47 alpha electrons       47 beta electrons
       nuclear repulsion energy       810.4127312905 Hartrees.
 NAtoms=   27 NActive=   27 NUniq=   27 SFac= 1.00D+00 NAtFMM=   60 NAOKFM=F Big=F
 ------------------------------------------------------------------------------
 Polarizable Continuum Model (PCM)
 =================================
 Model                : PCM.
 Atomic radii         : UFF (Universal Force Field).
 Polarization charges : Total charges.
 Charge compensation  : None.
 Solution method      : Matrix inversion.
 Cavity type          : Scaled VdW (van der Waals Surface) (Alpha=1.100).
 Cavity algorithm     : GePol (No added spheres)
                        Default sphere list used, NSphG=   27.
                        Lebedev-Laikov grids with approx.  5.0 points / Ang**2.
                        Smoothing algorithm: Karplus/York (Gamma=1.0000).
                        Polarization charges: spherical gaussians, with
                                              point-specific exponents (IZeta= 3).
                        Self-potential: point-specific (ISelfS= 7).
                        Self-field    : sphere-specific E.n sum rule (ISelfD= 2).
 Solvent              : Water, Eps=  78.355300 Eps(inf)=   1.777849
 ------------------------------------------------------------------------------
 One-electron integrals computed using PRISM.
 NBasis=   303 RedAO= T  NBF=   303
 NBsUse=   303 1.00D-06 NBFU=   303
 Harris functional with IExCor=  908 diagonalized for initial guess.
 ExpMin= 4.38D-02 ExpMax= 5.48D+03 ExpMxC= 8.25D+02 IAcc=2 IRadAn=         4 AccDes= 0.00D+00
 HarFok:  IExCor=  908 AccDes= 0.00D+00 IRadAn=         4 IDoV= 1
 ScaDFX=  1.000000  1.000000  1.000000  1.000000
 FoFCou: FMM=F IPFlag=           0 FMFlag=      100000 FMFlg1=           0
         NFxFlg=           0 DoJE=T BraDBF=F KetDBF=T FulRan=T
         Omega=  0.000000  0.000000  1.000000  0.000000  0.000000 ICntrl=     500 IOpCl=  0
         NMat0=    1 NMatS0=    1 NMatT0=    0 NMatD0=    1 NMtDS0=    0 NMtDT0=    0
         I1Cent=           4 NGrid=           0.
 Petite list used in FoFCou.
 Initial guess orbital symmetries:
       Occupied  (A) (A) (A) (A) (A) (A) (A) (A) (A) (A) (A) (A)
                 (A) (A) (A) (A) (A) (A) (A) (A) (A) (A) (A) (A)
                 (A) (A) (A) (A) (A) (A) (A) (A) (A) (A) (A) (A)
                 (A) (A) (A) (A) (A) (A) (A) (A) (A) (A) (A)
       Virtual   (A) (A) (A) (A) (A) (A) (A) (A) (A) (A) (A) (A)
                 (A) (A) (A) (A) (A) (A) (A) (A) (A) (A) (A) (A)
                 (A) (A) (A) (A) (A) (A) (A) (A) (A) (A) (A) (A)
                 (A) (A) (A) (A) (A) (A) (A) (A) (A) (A) (A) (A)
                 (A) (A) (A) (A) (A) (A) (A) (A) (A) (A) (A) (A)
                 (A) (A) (A) (A) (A) (A) (A) (A) (A) (A) (A) (A)
                 (A) (A) (A) (A) (A) (A) (A) (A) (A) (A) (A) (A)
                 (A) (A) (A) (A) (A) (A) (A) (A) (A) (A) (A) (A)
                 (A) (A) (A) (A) (A) (A) (A) (A) (A) (A) (A) (A)
                 (A) (A) (A) (A) (A) (A) (A) (A) (A) (A) (A) (A)
                 (A) (A) (A) (A) (A) (A) (A) (A) (A) (A) (A) (A)
                 (A) (A) (A) (A) (A) (A) (A) (A) (A) (A) (A) (A)
                 (A) (A) (A) (A) (A) (A) (A) (A) (A) (A) (A) (A)
                 (A) (A) (A) (A) (A) (A) (A) (A) (A) (A) (A) (A)
                 (A) (A) (A) (A) (A) (A) (A) (A) (A) (A) (A) (A)
                 (A) (A) (A) (A) (A) (A) (A) (A) (A) (A) (A) (A)
                 (A) (A) (A) (A) (A) (A) (A) (A) (A) (A) (A) (A)
                 (A) (A) (A) (A) (A) (A) (A) (A) (A) (A) (A) (A)
                 (A) (A) (A) (A) (A) (A) (A) (A) (A) (A) (A) (A)
                 (A) (A) (A) (A) (A) (A) (A) (A) (A) (A) (A) (A)
                 (A) (A) (A) (A) (A) (A) (A) (A) (A) (A) (A) (A)
                 (A) (A) (A) (A)
 The electronic state of the initial guess is 1-A.
 Requested convergence on RMS density matrix=1.00D-08 within 128 cycles.
 Requested convergence on MAX density matrix=1.00D-06.
 Requested convergence on             energy=1.00D-06.
 No special actions if energy rises.
 Error on total polarization charges =  0.01447
 SCF Done:  E(RmPW1PW91) =  -594.195000477     A.U. after   13 cycles
             Convg  =    0.3809D-08             -V/T =  2.0094
 Range of M.O.s used for correlation:     1   303
 NBasis=   303 NAE=    47 NBE=    47 NFC=     0 NFV=     0
 NROrb=    303 NOA=    47 NOB=    47 NVA=   256 NVB=   256

 **** Warning!!: The largest alpha MO coefficient is  0.83928006D+02

 NEqPCM:  Using equilibrium solvation (IEInf=0, Eps=  78.3553, EpsInf=   1.7778)
          Differentiating once with respect to magnetic field using GIAOs.
          Electric field/nuclear overlap derivatives assumed to be zero.
 FoFCou: FMM=F IPFlag=           0 FMFlag=    10101102 FMFlg1=           0
         NFxFlg=    40000000 DoJE=F BraDBF=F KetDBF=T FulRan=T
         Omega=  0.000000  0.000000  1.000000  0.000000  0.000000 ICntrl=    6100 IOpCl=  0
         NMat0=    1 NMatS0=    1 NMatT0=    0 NMatD0=    1 NMtDS0=    0 NMtDT0=    0
         I1Cent=           7 NGrid=        1788.
 Symmetry not used in FoFCou.
          There are     3 degrees of freedom in the 1st order CPHF.  IDoFFX=0.
      3 vectors produced by pass  0 Test12= 4.01D-13 3.33D-08 XBig12= 3.41D+01 1.16D+00.
 AX will form     3 AO Fock derivatives at one time.
      3 vectors produced by pass  1 Test12= 4.01D-13 3.33D-08 XBig12= 8.42D-02 4.17D-02.
      3 vectors produced by pass  2 Test12= 4.01D-13 3.33D-08 XBig12= 1.60D-04 1.92D-03.
      3 vectors produced by pass  3 Test12= 4.01D-13 3.33D-08 XBig12= 8.13D-07 2.07D-04.
      3 vectors produced by pass  4 Test12= 4.01D-13 3.33D-08 XBig12= 2.48D-09 8.85D-06.
      3 vectors produced by pass  5 Test12= 4.01D-13 3.33D-08 XBig12= 9.59D-12 5.76D-07.
 Inverted reduced A of dimension    18 with in-core refinement.
 Calculating GIAO nuclear magnetic shielding tensors.
 SCF GIAO Magnetic shielding tensor (ppm):
      1  C    Isotropic =   167.7131   Anisotropy =    25.3199
   XX=   176.2178   YX=     2.4616   ZX=     6.8883
   XY=     1.7635   YY=   172.1570   ZY=   -17.6228
   XZ=     0.7400   YZ=   -20.8734   ZZ=   154.7646
   Eigenvalues:   141.7897   176.7566   184.5931
      2  C    Isotropic =   127.6018   Anisotropy =    59.6620
   XX=   136.1232   YX=    17.4444   ZX=     2.7787
   XY=    20.7083   YY=   155.7265   ZY=    -3.2965
   XZ=    -5.0043   YZ=     6.0299   ZZ=    90.9559
   Eigenvalues:    90.8692   124.5599   167.3765
      3  N    Isotropic =   197.2931   Anisotropy =    78.8250
   XX=   234.8323   YX=    16.3188   ZX=   -23.7119
   XY=     1.7202   YY=   227.4388   ZY=   -18.4515
   XZ=   -33.4089   YZ=   -14.1351   ZZ=   129.6082
   Eigenvalues:   120.6098   221.4264   249.8431
      4  C    Isotropic =   141.0782   Anisotropy =    56.5968
   XX=   147.6799   YX=   -24.2270   ZX=     9.6118
   XY=   -14.5257   YY=   153.3701   ZY=   -19.2577
   XZ=    22.8597   YZ=   -11.2958   ZZ=   122.1847
   Eigenvalues:   113.2400   131.1852   178.8095
      5  C    Isotropic =   168.7369   Anisotropy =    23.2714
   XX=   173.9211   YX=    -0.4731   ZX=     9.5955
   XY=     2.1682   YY=   178.4575   ZY=    -7.6693
   XZ=    15.1087   YZ=   -13.2866   ZZ=   153.8321
   Eigenvalues:   145.0323   176.9272   184.2512
      6  C    Isotropic =   124.2656   Anisotropy =    56.2224
   XX=   146.5962   YX=   -20.0303   ZX=   -22.3014
   XY=     0.3232   YY=   119.0888   ZY=     6.9595
   XZ=   -27.9122   YZ=     3.8517   ZZ=   107.1118
   Eigenvalues:    94.9009   116.1487   161.7472
      7  C    Isotropic =   115.4683   Anisotropy =    38.1896
   XX=   124.2435   YX=    -2.3306   ZX=    15.1127
   XY=     3.6202   YY=   108.5341   ZY=    -0.8879
   XZ=    26.4645   YZ=   -14.1760   ZZ=   113.6272
   Eigenvalues:    94.5286   110.9482   140.9280
      8  C    Isotropic =   115.0808   Anisotropy =    26.9952
   XX=   119.3498   YX=     2.7536   ZX=    17.8043
   XY=    -7.0820   YY=   105.8632   ZY=    -4.4205
   XZ=     8.9470   YZ=     9.9352   ZZ=   120.0295
   Eigenvalues:   102.6011   109.5638   133.0776
      9  H    Isotropic =    29.9540   Anisotropy =     9.6866
   XX=    32.9415   YX=     3.7611   ZX=     0.8066
   XY=     4.3857   YY=    31.1979   ZY=     1.7460
   XZ=     0.3255   YZ=     1.2065   ZZ=    25.7227
   Eigenvalues:    25.3095    28.1408    36.4117
     10  H    Isotropic =    29.7235   Anisotropy =    12.4274
   XX=    32.1600   YX=    -1.3267   ZX=    -5.6931
   XY=    -1.7055   YY=    25.1008   ZY=    -0.3802
   XZ=    -6.1479   YZ=    -0.3928   ZZ=    31.9097
   Eigenvalues:    24.1449    27.0171    38.0085
     11  H    Isotropic =    27.8896   Anisotropy =     8.2264
   XX=    26.4833   YX=     0.6978   ZX=    -0.7659
   XY=     0.0871   YY=    25.5951   ZY=    -3.9080
   XZ=    -1.2803   YZ=    -3.0902   ZZ=    31.5905
   Eigenvalues:    23.9831    26.3119    33.3739
     12  H    Isotropic =    28.7499   Anisotropy =    11.8982
   XX=    27.0695   YX=    -4.1223   ZX=    -0.5466
   XY=    -3.1851   YY=    32.7429   ZY=     5.2123
   XZ=     0.6668   YZ=     5.0563   ZZ=    26.4374
   Eigenvalues:    22.6431    26.9247    36.6821
     13  H    Isotropic =    28.8074   Anisotropy =     8.6202
   XX=    28.8478   YX=     0.8250   ZX=     0.5986
   XY=     1.2912   YY=    32.7275   ZY=    -4.1765
   XZ=    -1.0705   YZ=    -3.6889   ZZ=    24.8470
   Eigenvalues:    23.2140    28.6541    34.5542
     14  H    Isotropic =    30.1033   Anisotropy =    12.8696
   XX=    33.8609   YX=    -5.1769   ZX=     2.0407
   XY=    -5.7895   YY=    30.7689   ZY=    -2.0153
   XZ=     2.3174   YZ=    -2.0134   ZZ=    25.6799
   Eigenvalues:    24.9607    26.6661    38.6830
     15  H    Isotropic =    29.8332   Anisotropy =     7.7857
   XX=    26.9451   YX=    -0.4552   ZX=     0.6635
   XY=    -0.4731   YY=    27.6905   ZY=     0.4678
   XZ=     1.6033   YZ=    -0.1953   ZZ=    34.8640
   Eigenvalues:    26.5798    27.8962    35.0237
     16  H    Isotropic =    28.5149   Anisotropy =     4.6066
   XX=    29.3393   YX=     0.5725   ZX=    -1.2593
   XY=     0.4645   YY=    26.6530   ZY=    -0.5167
   XZ=    -2.0895   YZ=    -2.5997   ZZ=    29.5523
   Eigenvalues:    25.9604    27.9983    31.5859
     17  H    Isotropic =    27.3813   Anisotropy =     4.5439
   XX=    27.5855   YX=    -1.8787   ZX=    -0.1262
   XY=    -1.8589   YY=    26.5401   ZY=     1.6419
   XZ=    -0.8002   YZ=     2.6857   ZZ=    28.0182
   Eigenvalues:    24.4230    27.3103    30.4106
     18  H    Isotropic =    27.6036   Anisotropy =     6.8733
   XX=    24.2525   YX=    -0.3224   ZX=     1.6480
   XY=     0.1751   YY=    31.4701   ZY=    -1.2969
   XZ=     2.0830   YZ=    -2.3188   ZZ=    27.0881
   Eigenvalues:    23.2561    27.3689    32.1858
     19  O    Isotropic =   298.1320   Anisotropy =    52.4072
   XX=   332.2147   YX=    12.8738   ZX=     6.1505
   XY=     0.6466   YY=   270.6648   ZY=   -12.7800
   XZ=   -10.1906   YZ=     8.3563   ZZ=   291.5164
   Eigenvalues:   269.7500   291.5757   333.0701
     20  H    Isotropic =    29.9368   Anisotropy =    18.0968
   XX=    39.7382   YX=     5.2982   ZX=     2.0756
   XY=     4.6421   YY=    24.0351   ZY=     4.8478
   XZ=     2.9300   YZ=     3.4508   ZZ=    26.0370
   Eigenvalues:    20.4301    27.3790    42.0013
     21  O    Isotropic =   303.9932   Anisotropy =    27.8701
   XX=   300.1205   YX=    -5.7728   ZX=   -21.2391
   XY=    -0.9326   YY=   295.1367   ZY=    12.5769
   XZ=     2.8970   YZ=    -0.2557   ZZ=   316.7222
   Eigenvalues:   293.2480   296.1582   322.5733
     22  H    Isotropic =    30.2157   Anisotropy =    14.2969
   XX=    26.3548   YX=    -4.0683   ZX=    -1.3344
   XY=    -3.9793   YY=    25.3095   ZY=     2.7416
   XZ=    -0.3895   YZ=     2.8637   ZZ=    38.9829
   Eigenvalues:    21.6323    29.2680    39.7470
     23  C    Isotropic =   131.3734   Anisotropy =    73.2981
   XX=   160.0685   YX=    -7.8475   ZX=   -32.9163
   XY=     0.1249   YY=   106.9757   ZY=    12.2522
   XZ=   -29.0636   YZ=    16.0062   ZZ=   127.0759
   Eigenvalues:    96.8110   117.0703   180.2388
     24  H    Isotropic =    27.7397   Anisotropy =     2.9650
   XX=    28.5505   YX=     1.4147   ZX=    -1.0998
   XY=     0.9811   YY=    25.3997   ZY=     1.4445
   XZ=     1.0409   YZ=     0.9642   ZZ=    29.2689
   Eigenvalues:    24.7040    28.7987    29.7164
     25  H    Isotropic =    28.0303   Anisotropy =     4.5346
   XX=    30.0015   YX=    -0.6198   ZX=    -1.3227
   XY=     1.1378   YY=    30.7483   ZY=     0.6396
   XZ=    -2.4391   YZ=     2.3353   ZZ=    23.3410
   Eigenvalues:    22.5697    30.4677    31.0533
     26  O    Isotropic =   311.3429   Anisotropy =    35.3204
   XX=   311.0466   YX=    -5.0990   ZX=    -4.4983
   XY=   -19.4809   YY=   328.5495   ZY=     8.2764
   XZ=    -0.7198   YZ=   -10.0294   ZZ=   294.4325
   Eigenvalues:   293.7528   305.3860   334.8898
     27  H    Isotropic =    30.1918   Anisotropy =    15.5835
   XX=    30.9404   YX=    -6.0916   ZX=    -2.7864
   XY=    -5.8870   YY=    36.7565   ZY=    -3.8297
   XZ=    -3.0866   YZ=    -2.4548   ZZ=    22.8784
   Eigenvalues:    20.3079    29.6866    40.5808
 End of Minotr Frequency-dependent properties file   721 does not exist.
 End of Minotr Frequency-dependent properties file   722 does not exist.

 **********************************************************************

            Population analysis using the SCF density.

 **********************************************************************

 Orbital symmetries:
       Occupied  (A) (A) (A) (A) (A) (A) (A) (A) (A) (A) (A) (A)
                 (A) (A) (A) (A) (A) (A) (A) (A) (A) (A) (A) (A)
                 (A) (A) (A) (A) (A) (A) (A) (A) (A) (A) (A) (A)
                 (A) (A) (A) (A) (A) (A) (A) (A) (A) (A) (A)
       Virtual   (A) (A) (A) (A) (A) (A) (A) (A) (A) (A) (A) (A)
                 (A) (A) (A) (A) (A) (A) (A) (A) (A) (A) (A) (A)
                 (A) (A) (A) (A) (A) (A) (A) (A) (A) (A) (A) (A)
                 (A) (A) (A) (A) (A) (A) (A) (A) (A) (A) (A) (A)
                 (A) (A) (A) (A) (A) (A) (A) (A) (A) (A) (A) (A)
                 (A) (A) (A) (A) (A) (A) (A) (A) (A) (A) (A) (A)
                 (A) (A) (A) (A) (A) (A) (A) (A) (A) (A) (A) (A)
                 (A) (A) (A) (A) (A) (A) (A) (A) (A) (A) (A) (A)
                 (A) (A) (A) (A) (A) (A) (A) (A) (A) (A) (A) (A)
                 (A) (A) (A) (A) (A) (A) (A) (A) (A) (A) (A) (A)
                 (A) (A) (A) (A) (A) (A) (A) (A) (A) (A) (A) (A)
                 (A) (A) (A) (A) (A) (A) (A) (A) (A) (A) (A) (A)
                 (A) (A) (A) (A) (A) (A) (A) (A) (A) (A) (A) (A)
                 (A) (A) (A) (A) (A) (A) (A) (A) (A) (A) (A) (A)
                 (A) (A) (A) (A) (A) (A) (A) (A) (A) (A) (A) (A)
                 (A) (A) (A) (A) (A) (A) (A) (A) (A) (A) (A) (A)
                 (A) (A) (A) (A) (A) (A) (A) (A) (A) (A) (A) (A)
                 (A) (A) (A) (A) (A) (A) (A) (A) (A) (A) (A) (A)
                 (A) (A) (A) (A) (A) (A) (A) (A) (A) (A) (A) (A)
                 (A) (A) (A) (A) (A) (A) (A) (A) (A) (A) (A) (A)
                 (A) (A) (A) (A) (A) (A) (A) (A) (A) (A) (A) (A)
                 (A) (A) (A) (A)
 The electronic state is 1-A.
 Alpha  occ. eigenvalues --  -19.26420 -19.25994 -19.25658 -14.41388 -10.30788
 Alpha  occ. eigenvalues --  -10.30538 -10.29428 -10.28058 -10.27904 -10.26916
 Alpha  occ. eigenvalues --  -10.25160 -10.24378  -1.07459  -1.06026  -1.05508
 Alpha  occ. eigenvalues --   -0.96241  -0.82640  -0.79247  -0.75200  -0.72442
 Alpha  occ. eigenvalues --   -0.66997  -0.62404  -0.59817  -0.58293  -0.55277
 Alpha  occ. eigenvalues --   -0.53489  -0.52370  -0.50590  -0.48933  -0.47451
 Alpha  occ. eigenvalues --   -0.45826  -0.44548  -0.43620  -0.42726  -0.40427
 Alpha  occ. eigenvalues --   -0.39289  -0.38930  -0.37472  -0.36632  -0.35945
 Alpha  occ. eigenvalues --   -0.35284  -0.34746  -0.33630  -0.30609  -0.29773
 Alpha  occ. eigenvalues --   -0.29624  -0.23275
 Alpha virt. eigenvalues --    0.00506   0.00758   0.01866   0.02389   0.03903
 Alpha virt. eigenvalues --    0.03984   0.04488   0.05044   0.05513   0.06453
 Alpha virt. eigenvalues --    0.07450   0.08120   0.08437   0.09050   0.09496
 Alpha virt. eigenvalues --    0.10412   0.11070   0.11688   0.12119   0.12786
 Alpha virt. eigenvalues --    0.12940   0.13176   0.14457   0.14891   0.15193
 Alpha virt. eigenvalues --    0.15906   0.16232   0.17426   0.17825   0.18807
 Alpha virt. eigenvalues --    0.19356   0.19511   0.19796   0.20758   0.21071
 Alpha virt. eigenvalues --    0.21216   0.21555   0.22267   0.22533   0.23322
 Alpha virt. eigenvalues --    0.23777   0.24369   0.24594   0.25091   0.25475
 Alpha virt. eigenvalues --    0.25825   0.26164   0.27040   0.27440   0.28387
 Alpha virt. eigenvalues --    0.29017   0.29628   0.30680   0.31586   0.31689
 Alpha virt. eigenvalues --    0.33006   0.33507   0.33870   0.34450   0.34864
 Alpha virt. eigenvalues --    0.35506   0.36061   0.36540   0.37403   0.38543
 Alpha virt. eigenvalues --    0.39223   0.39374   0.40264   0.40761   0.41255
 Alpha virt. eigenvalues --    0.42414   0.43394   0.44453   0.45160   0.45603
 Alpha virt. eigenvalues --    0.48181   0.64729   0.66554   0.67729   0.68703
 Alpha virt. eigenvalues --    0.69110   0.71774   0.71929   0.73181   0.74423
 Alpha virt. eigenvalues --    0.76141   0.76992   0.78424   0.79203   0.81260
 Alpha virt. eigenvalues --    0.83968   0.84341   0.86118   0.86984   0.88838
 Alpha virt. eigenvalues --    0.89676   0.90843   0.93281   0.94334   0.97331
 Alpha virt. eigenvalues --    0.98793   1.00422   1.02498   1.03378   1.04050
 Alpha virt. eigenvalues --    1.05051   1.06513   1.07237   1.09277   1.09967
 Alpha virt. eigenvalues --    1.10776   1.11234   1.13221   1.13994   1.14969
 Alpha virt. eigenvalues --    1.16113   1.17642   1.20459   1.23142   1.24418
 Alpha virt. eigenvalues --    1.26595   1.28502   1.29647   1.30896   1.33235
 Alpha virt. eigenvalues --    1.35137   1.37560   1.38906   1.39530   1.41284
 Alpha virt. eigenvalues --    1.42095   1.43562   1.46290   1.49205   1.51048
 Alpha virt. eigenvalues --    1.53525   1.54018   1.56348   1.60049   1.61387
 Alpha virt. eigenvalues --    1.62624   1.64918   1.65451   1.70960   1.71985
 Alpha virt. eigenvalues --    1.72784   1.74974   1.76792   1.77755   1.79243
 Alpha virt. eigenvalues --    1.81229   1.81984   1.83281   1.85611   1.87583
 Alpha virt. eigenvalues --    1.89016   1.89301   1.89886   1.93157   1.94665
 Alpha virt. eigenvalues --    1.97457   2.00140   2.00402   2.03203   2.03914
 Alpha virt. eigenvalues --    2.05773   2.06800   2.07702   2.07968   2.12232
 Alpha virt. eigenvalues --    2.13250   2.15890   2.16561   2.18262   2.19117
 Alpha virt. eigenvalues --    2.20615   2.21787   2.26023   2.27464   2.28240
 Alpha virt. eigenvalues --    2.30177   2.33681   2.37660   2.38727   2.39595
 Alpha virt. eigenvalues --    2.40491   2.41615   2.44304   2.45466   2.47526
 Alpha virt. eigenvalues --    2.48618   2.49174   2.51501   2.53536   2.55474
 Alpha virt. eigenvalues --    2.56546   2.57078   2.59472   2.60813   2.62279
 Alpha virt. eigenvalues --    2.64724   2.65481   2.67546   2.68920   2.69601
 Alpha virt. eigenvalues --    2.72322   2.73044   2.73923   2.75894   2.77857
 Alpha virt. eigenvalues --    2.79570   2.80398   2.83328   2.83985   2.84514
 Alpha virt. eigenvalues --    2.86523   2.88889   2.91173   2.92324   2.95501
 Alpha virt. eigenvalues --    2.97093   2.98981   3.01476   3.02993   3.03656
 Alpha virt. eigenvalues --    3.04706   3.09646   3.10607   3.17676   3.32731
 Alpha virt. eigenvalues --    3.35411   3.36969   3.38664   3.43108   3.44372
 Alpha virt. eigenvalues --    3.45527   3.49200   3.53931   3.54483   3.55849
 Alpha virt. eigenvalues --    3.57682   3.58407   3.60018   3.61096   4.29728
 Alpha virt. eigenvalues --    4.35115   4.38383   4.42912   4.52306   4.56867
 Alpha virt. eigenvalues --    4.61228   4.68825   4.79647   4.81432   4.88252
 Alpha virt. eigenvalues --    4.99975
          Condensed to atoms (all electrons):
              1          2          3          4          5          6
     1  C    6.203383  -0.578466   0.032829  -0.051717   0.177722  -0.012825
     2  C   -0.578466   7.550630  -0.063318  -0.136821  -0.073946  -0.559023
     3  N    0.032829  -0.063318   7.414749   0.150058  -0.134627  -0.071676
     4  C   -0.051717  -0.136821   0.150058   5.792446   0.159064  -0.230162
     5  C    0.177722  -0.073946  -0.134627   0.159064   5.369100   0.092643
     6  C   -0.012825  -0.559023  -0.071676  -0.230162   0.092643   8.913310
     7  C   -0.160655   0.484694  -0.097702  -0.200276   0.006245  -1.274189
     8  C   -0.041971  -0.639716  -0.149565   0.053192   0.067793   0.506133
     9  H    0.360778  -0.096040   0.016045   0.026206  -0.010406  -0.004776
    10  H    0.447346  -0.103136   0.009639   0.004367  -0.052431   0.014376
    11  H    0.013114   0.228388  -0.016800  -0.015067   0.018527  -0.011334
    12  H    0.018170  -0.033560  -0.027778   0.380519  -0.045688   0.011893
    13  H    0.025025   0.024856  -0.070087   0.372254  -0.025430   0.030493
    14  H   -0.045195   0.033686   0.014747  -0.046725   0.371765   0.002762
    15  H   -0.039032  -0.010425   0.009584  -0.068595   0.428017   0.017883
    16  H    0.001429   0.027426  -0.058899   0.063168  -0.009470   0.308401
    17  H    0.011526   0.009026   0.021166   0.002541  -0.000217  -0.018139
    18  H   -0.007359  -0.008187   0.015153  -0.003730  -0.001079  -0.010620
    19  O    0.042595  -0.144636   0.049130  -0.032089   0.011789  -0.041986
    20  H   -0.001880  -0.063952  -0.001922  -0.002560   0.005332  -0.002682
    21  O    0.019311   0.001349   0.042702   0.008360  -0.002376  -0.145264
    22  H    0.013990   0.024327   0.022108   0.007020  -0.002162  -0.049768
    23  C    0.088753   0.063874   0.036264  -0.017923  -0.068254  -1.047646
    24  H    0.000927  -0.005838   0.020299   0.016770  -0.002102  -0.060155
    25  H    0.000486   0.001610  -0.012808  -0.003477  -0.001324  -0.092692
    26  O    0.001256   0.015436   0.000108   0.013465  -0.003232  -0.014734
    27  H   -0.000068  -0.000439  -0.002016  -0.001068   0.000079  -0.058294
              7          8          9         10         11         12
     1  C   -0.160655  -0.041971   0.360778   0.447346   0.013114   0.018170
     2  C    0.484694  -0.639716  -0.096040  -0.103136   0.228388  -0.033560
     3  N   -0.097702  -0.149565   0.016045   0.009639  -0.016800  -0.027778
     4  C   -0.200276   0.053192   0.026206   0.004367  -0.015067   0.380519
     5  C    0.006245   0.067793  -0.010406  -0.052431   0.018527  -0.045688
     6  C   -1.274189   0.506133  -0.004776   0.014376  -0.011334   0.011893
     7  C    7.333291  -0.670895  -0.015174  -0.010412   0.005868  -0.000619
     8  C   -0.670895   6.530149   0.055023   0.023211   0.036889   0.001917
     9  H   -0.015174   0.055023   0.534802  -0.023107   0.002568  -0.000032
    10  H   -0.010412   0.023211  -0.023107   0.510380  -0.006734   0.001448
    11  H    0.005868   0.036889   0.002568  -0.006734   0.565783   0.000792
    12  H   -0.000619   0.001917  -0.000032   0.001448   0.000792   0.552935
    13  H    0.018579  -0.020201  -0.000145  -0.000107  -0.000182  -0.031124
    14  H    0.004887   0.001153   0.000658  -0.004786  -0.000047  -0.003176
    15  H   -0.002502  -0.004080  -0.005280   0.004015  -0.000100   0.004016
    16  H   -0.049544  -0.007813  -0.000015  -0.000005  -0.000533  -0.000318
    17  H    0.318226   0.009174  -0.000006   0.000003  -0.000137   0.000003
    18  H    0.058429   0.268602   0.000243  -0.000018  -0.001812   0.000006
    19  O    0.017483   0.121167  -0.007404   0.000392   0.009082   0.000301
    20  H   -0.010675   0.093705   0.006106  -0.000059   0.000219  -0.000001
    21  O    0.359451  -0.131258   0.000054  -0.000015   0.000153   0.000087
    22  H    0.016566  -0.036492  -0.000002   0.000007  -0.000773   0.000006
    23  C    0.228568  -0.215954  -0.001087   0.000574   0.003222   0.006369
    24  H   -0.047448   0.001912   0.000000   0.000000  -0.000035   0.000045
    25  H    0.030445  -0.005011   0.000000  -0.000001   0.000010  -0.000214
    26  O   -0.056784   0.004569  -0.000002  -0.000001  -0.000030  -0.000003
    27  H    0.029484   0.009479   0.000000   0.000000   0.000001   0.000000
             13         14         15         16         17         18
     1  C    0.025025  -0.045195  -0.039032   0.001429   0.011526  -0.007359
     2  C    0.024856   0.033686  -0.010425   0.027426   0.009026  -0.008187
     3  N   -0.070087   0.014747   0.009584  -0.058899   0.021166   0.015153
     4  C    0.372254  -0.046725  -0.068595   0.063168   0.002541  -0.003730
     5  C   -0.025430   0.371765   0.428017  -0.009470  -0.000217  -0.001079
     6  C    0.030493   0.002762   0.017883   0.308401  -0.018139  -0.010620
     7  C    0.018579   0.004887  -0.002502  -0.049544   0.318226   0.058429
     8  C   -0.020201   0.001153  -0.004080  -0.007813   0.009174   0.268602
     9  H   -0.000145   0.000658  -0.005280  -0.000015  -0.000006   0.000243
    10  H   -0.000107  -0.004786   0.004015  -0.000005   0.000003  -0.000018
    11  H   -0.000182  -0.000047  -0.000100  -0.000533  -0.000137  -0.001812
    12  H   -0.031124  -0.003176   0.004016  -0.000318   0.000003   0.000006
    13  H    0.533110   0.001020  -0.005820   0.002104  -0.000019   0.000005
    14  H    0.001020   0.521903  -0.023686  -0.000139  -0.000001   0.000005
    15  H   -0.005820  -0.023686   0.511399   0.000169   0.000022   0.000029
    16  H    0.002104  -0.000139   0.000169   0.555896  -0.003368  -0.000159
    17  H   -0.000019  -0.000001   0.000022  -0.003368   0.520423  -0.002448
    18  H    0.000005   0.000005   0.000029  -0.000159  -0.002448   0.558848
    19  O    0.000721   0.000299   0.001558  -0.000743  -0.003136  -0.035604
    20  H   -0.000010   0.000023  -0.000398  -0.000017   0.000060  -0.005052
    21  O   -0.000058   0.000002   0.000003   0.007967  -0.049881  -0.004297
    22  H   -0.000003   0.000000   0.000001  -0.000004   0.005954  -0.000943
    23  C   -0.019690  -0.000770   0.002069  -0.018093  -0.009405   0.006697
    24  H   -0.000021   0.000000   0.000001   0.004356   0.000179  -0.000005
    25  H    0.001112   0.000001  -0.000006  -0.006509  -0.000103   0.000003
    26  O   -0.000105  -0.000003  -0.000001   0.004316   0.000189  -0.000051
    27  H   -0.000001   0.000000   0.000000  -0.000567  -0.000684   0.000003
             19         20         21         22         23         24
     1  C    0.042595  -0.001880   0.019311   0.013990   0.088753   0.000927
     2  C   -0.144636  -0.063952   0.001349   0.024327   0.063874  -0.005838
     3  N    0.049130  -0.001922   0.042702   0.022108   0.036264   0.020299
     4  C   -0.032089  -0.002560   0.008360   0.007020  -0.017923   0.016770
     5  C    0.011789   0.005332  -0.002376  -0.002162  -0.068254  -0.002102
     6  C   -0.041986  -0.002682  -0.145264  -0.049768  -1.047646  -0.060155
     7  C    0.017483  -0.010675   0.359451   0.016566   0.228568  -0.047448
     8  C    0.121167   0.093705  -0.131258  -0.036492  -0.215954   0.001912
     9  H   -0.007404   0.006106   0.000054  -0.000002  -0.001087   0.000000
    10  H    0.000392  -0.000059  -0.000015   0.000007   0.000574   0.000000
    11  H    0.009082   0.000219   0.000153  -0.000773   0.003222  -0.000035
    12  H    0.000301  -0.000001   0.000087   0.000006   0.006369   0.000045
    13  H    0.000721  -0.000010  -0.000058  -0.000003  -0.019690  -0.000021
    14  H    0.000299   0.000023   0.000002   0.000000  -0.000770   0.000000
    15  H    0.001558  -0.000398   0.000003   0.000001   0.002069   0.000001
    16  H   -0.000743  -0.000017   0.007967  -0.000004  -0.018093   0.004356
    17  H   -0.003136   0.000060  -0.049881   0.005954  -0.009405   0.000179
    18  H   -0.035604  -0.005052  -0.004297  -0.000943   0.006697  -0.000005
    19  O    8.292392   0.232985   0.005622  -0.000331   0.031768   0.000049
    20  H    0.232985   0.379460  -0.000201   0.000000  -0.006096   0.000000
    21  O    0.005622  -0.000201   8.173298   0.265107  -0.027560   0.006503
    22  H   -0.000331   0.000000   0.265107   0.352832  -0.001256   0.000190
    23  C    0.031768  -0.006096  -0.027560  -0.001256   5.984183   0.427787
    24  H    0.000049   0.000000   0.006503   0.000190   0.427787   0.558585
    25  H   -0.000026   0.000000  -0.001238   0.000010   0.470091  -0.035000
    26  O   -0.000182  -0.000007  -0.012143   0.000074   0.175385  -0.041734
    27  H   -0.000074   0.000000   0.003011  -0.000059   0.012436  -0.008166
             25         26         27
     1  C    0.000486   0.001256  -0.000068
     2  C    0.001610   0.015436  -0.000439
     3  N   -0.012808   0.000108  -0.002016
     4  C   -0.003477   0.013465  -0.001068
     5  C   -0.001324  -0.003232   0.000079
     6  C   -0.092692  -0.014734  -0.058294
     7  C    0.030445  -0.056784   0.029484
     8  C   -0.005011   0.004569   0.009479
     9  H    0.000000  -0.000002   0.000000
    10  H   -0.000001  -0.000001   0.000000
    11  H    0.000010  -0.000030   0.000001
    12  H   -0.000214  -0.000003   0.000000
    13  H    0.001112  -0.000105  -0.000001
    14  H    0.000001  -0.000003   0.000000
    15  H   -0.000006  -0.000001   0.000000
    16  H   -0.006509   0.004316  -0.000567
    17  H   -0.000103   0.000189  -0.000684
    18  H    0.000003  -0.000051   0.000003
    19  O   -0.000026  -0.000182  -0.000074
    20  H    0.000000  -0.000007   0.000000
    21  O   -0.001238  -0.012143   0.003011
    22  H    0.000010   0.000074  -0.000059
    23  C    0.470091   0.175385   0.012436
    24  H   -0.035000  -0.041734  -0.008166
    25  H    0.540256  -0.056421   0.006214
    26  O   -0.056421   8.244033   0.263953
    27  H    0.006214   0.263953   0.365320
 Mulliken atomic charges:
              1
     1  C   -0.519471
     2  C    0.052200
     3  N   -0.147383
     4  C   -0.239220
     5  C   -0.275335
     6  C   -0.191930
     7  C   -0.315340
     8  C    0.138888
     9  H    0.160993
    10  H    0.185052
    11  H    0.168971
    12  H    0.164003
    13  H    0.163723
    14  H    0.171616
    15  H    0.181159
    16  H    0.180964
    17  H    0.189052
    18  H    0.173344
    19  O   -0.551122
    20  H    0.377624
    21  O   -0.518691
    22  H    0.383602
    23  C   -0.104305
    24  H    0.162901
    25  H    0.164596
    26  O   -0.537350
    27  H    0.381457
 Sum of Mulliken atomic charges =   0.00000
 Mulliken charges with hydrogens summed into heavy atoms:
              1
     1  C   -0.173426
     2  C    0.221171
     3  N   -0.147383
     4  C    0.088507
     5  C    0.077440
     6  C   -0.010966
     7  C   -0.126288
     8  C    0.312231
    19  O   -0.173498
    21  O   -0.135089
    23  C    0.223192
    26  O   -0.155893
 Sum of Mulliken charges with hydrogens summed into heavy atoms =   0.00000
 Electronic spatial extent (au):  <R**2>=           2018.2175
 Charge=              0.0000 electrons
 Dipole moment (field-independent basis, Debye):
    X=              4.8945    Y=              0.6968    Z=             -1.8709  Tot=              5.2860
 Quadrupole moment (field-independent basis, Debye-Ang):
   XX=            -74.0700   YY=            -74.1726   ZZ=            -75.5877
   XY=             -0.4326   XZ=              3.1317   YZ=             -0.1393
 Traceless Quadrupole moment (field-independent basis, Debye-Ang):
   XX=              0.5401   YY=              0.4375   ZZ=             -0.9776
   XY=             -0.4326   XZ=              3.1317   YZ=             -0.1393
 Octapole moment (field-independent basis, Debye-Ang**2):
  XXX=             34.5371  YYY=             -1.4024  ZZZ=            -12.3902  XYY=             18.3522
  XXY=             25.8206  XXZ=             -4.8134  XZZ=              0.4945  YZZ=              5.1251
  YYZ=              2.7549  XYZ=             -7.9712
 Hexadecapole moment (field-independent basis, Debye-Ang**3):
 XXXX=          -1543.2646 YYYY=           -759.6963 ZZZZ=           -320.4988 XXXY=            -56.1882
 XXXZ=             45.7761 YYYX=             32.6331 YYYZ=              6.1041 ZZZX=             20.4665
 ZZZY=            -16.0829 XXYY=           -389.8771 XXZZ=           -306.9427 YYZZ=           -192.7291
 XXYZ=             51.6459 YYXZ=              1.9858 ZZXY=             -3.6355
 N-N= 8.104127312905D+02 E-N=-3.006495259559D+03  KE= 5.886490362716D+02
 1\1\GINC-COMPUTE-3-2\SP\RmPW1PW91\6-31+G(d,p)\C8H15N1O3\MAMICHETTI.IQU
 IR\17-May-2024\0\\# mpw1pw91/6-31+G** nmr scrf=(pcm,solvent=water)\\co
 mment\\0,1\C,0,-2.591239,-0.034103,-0.449557\C,0,-1.151839,-0.452796,-
 0.814252\N,0,-0.302576,0.77573,-0.64079\C,0,-1.169688,1.857204,-0.1189
 99\C,0,-2.3989,1.167958,0.487354\C,0,0.84121,0.429834,0.234834\C,0,0.9
 70886,-1.10137,0.123094\C,0,-0.497903,-1.549766,0.056653\H,0,-3.171166
 ,-0.848179,-0.001222\H,0,-3.121638,0.27744,-1.35647\H,0,-1.106593,-0.7
 90223,-1.857556\H,0,-1.476697,2.517041,-0.941702\H,0,-0.617663,2.47266
 ,0.598379\H,0,-3.274724,1.823642,0.532408\H,0,-2.176547,0.823117,1.502
 807\H,0,0.619164,0.657138,1.289858\H,0,1.472068,-1.530352,0.993303\H,0
 ,-0.594314,-2.542946,-0.399081\O,0,-0.967792,-1.58062,1.41002\H,0,-1.9
 07284,-1.826147,1.389794\O,0,1.728196,-1.547891,-1.005733\H,0,1.363063
 ,-1.137151,-1.807366\C,0,2.103991,1.201766,-0.148779\H,0,2.375535,0.99
 4441,-1.19122\H,0,1.916319,2.276851,-0.060404\O,0,3.200056,0.913275,0.
 727544\H,0,3.495728,0.012078,0.517264\\Version=AM64L-G09RevC.01\State=
 1-A\HF=-594.1950005\RMSD=3.809e-09\Dipole=-1.9256474,-0.2741427,-0.736
 0766\Quadrupole=0.4015504,0.3253005,-0.7268509,-0.3216069,-2.3283661,0
 .1035798\PG=C01 [X(C8H15N1O3)]\\@


 The chemist is a guest at the physicist's table and
 frequently dines well.
                   -- Richard Bersohn
 Job cpu time:  0 days  0 hours  9 minutes  6.5 seconds.
 File lengths (MBytes):  RWF=    110 Int=      0 D2E=      0 Chk=      7 Scr=      1
 Normal termination of Gaussian 09 at Fri May 17 12:53:41 2024.
