 Entering Gaussian System, Link 0=g09
 Input=/home/mamichetti.iquir/Linux/03_Cardona_A1A3_R__S_S_R_050_OptB.gjc
 Output=/home/mamichetti.iquir/Linux/03_Cardona_A1A3_R__S_S_R_050_OptB.log
 Initial command:
 /opt/ohpc/pub/apps/software/Gaussian/09/AMD64.SSE4a-enabled/g09/l1.exe /local/mamichetti.iquir/Gau-126771.inp -scrdir=/local/mamichetti.iquir/
 Entering Link 1 = /opt/ohpc/pub/apps/software/Gaussian/09/AMD64.SSE4a-enabled/g09/l1.exe PID=    126772.
  
 Copyright (c) 1988,1990,1992,1993,1995,1998,2003,2009,2011,
            Gaussian, Inc.  All Rights Reserved.
  
 This is part of the Gaussian(R) 09 program.  It is based on
 the Gaussian(R) 03 system (copyright 2003, Gaussian, Inc.),
 the Gaussian(R) 98 system (copyright 1998, Gaussian, Inc.),
 the Gaussian(R) 94 system (copyright 1995, Gaussian, Inc.),
 the Gaussian 92(TM) system (copyright 1992, Gaussian, Inc.),
 the Gaussian 90(TM) system (copyright 1990, Gaussian, Inc.),
 the Gaussian 88(TM) system (copyright 1988, Gaussian, Inc.),
 the Gaussian 86(TM) system (copyright 1986, Carnegie Mellon
 University), and the Gaussian 82(TM) system (copyright 1983,
 Carnegie Mellon University). Gaussian is a federally registered
 trademark of Gaussian, Inc.
  
 This software contains proprietary and confidential information,
 including trade secrets, belonging to Gaussian, Inc.
  
 This software is provided under written license and may be
 used, copied, transmitted, or stored only in accord with that
 written license.
  
 The following legend is applicable only to US Government
 contracts under FAR:
  
                    RESTRICTED RIGHTS LEGEND
  
 Use, reproduction and disclosure by the US Government is
 subject to restrictions as set forth in subparagraphs (a)
 and (c) of the Commercial Computer Software - Restricted
 Rights clause in FAR 52.227-19.
  
 Gaussian, Inc.
 340 Quinnipiac St., Bldg. 40, Wallingford CT 06492
  
  
 ---------------------------------------------------------------
 Warning -- This program may not be used in any manner that
 competes with the business of Gaussian, Inc. or will provide
 assistance to any competitor of Gaussian, Inc.  The licensee
 of this program is prohibited from giving any competitor of
 Gaussian, Inc. access to this program.  By using this program,
 the user acknowledges that Gaussian, Inc. is engaged in the
 business of creating and licensing software in the field of
 computational chemistry and represents and warrants to the
 licensee that it is not a competitor of Gaussian, Inc. and that
 it will not use this program in any manner prohibited above.
 ---------------------------------------------------------------
  

 Cite this work as:
 Gaussian 09, Revision C.01,
 M. J. Frisch, G. W. Trucks, H. B. Schlegel, G. E. Scuseria, 
 M. A. Robb, J. R. Cheeseman, G. Scalmani, V. Barone, B. Mennucci, 
 G. A. Petersson, H. Nakatsuji, M. Caricato, X. Li, H. P. Hratchian, 
 A. F. Izmaylov, J. Bloino, G. Zheng, J. L. Sonnenberg, M. Hada, 
 M. Ehara, K. Toyota, R. Fukuda, J. Hasegawa, M. Ishida, T. Nakajima, 
 Y. Honda, O. Kitao, H. Nakai, T. Vreven, J. A. Montgomery, Jr., 
 J. E. Peralta, F. Ogliaro, M. Bearpark, J. J. Heyd, E. Brothers, 
 K. N. Kudin, V. N. Staroverov, T. Keith, R. Kobayashi, J. Normand, 
 K. Raghavachari, A. Rendell, J. C. Burant, S. S. Iyengar, J. Tomasi, 
 M. Cossi, N. Rega, J. M. Millam, M. Klene, J. E. Knox, J. B. Cross, 
 V. Bakken, C. Adamo, J. Jaramillo, R. Gomperts, R. E. Stratmann, 
 O. Yazyev, A. J. Austin, R. Cammi, C. Pomelli, J. W. Ochterski, 
 R. L. Martin, K. Morokuma, V. G. Zakrzewski, G. A. Voth, 
 P. Salvador, J. J. Dannenberg, S. Dapprich, A. D. Daniels, 
 O. Farkas, J. B. Foresman, J. V. Ortiz, J. Cioslowski, 
 and D. J. Fox, Gaussian, Inc., Wallingford CT, 2010.
 
 ******************************************
 Gaussian 09:  AM64L-G09RevC.01 23-Sep-2011
                17-May-2024 
 ******************************************
 %nprocshared=4
 Will use up to    4 processors via shared memory.
 ------------------------------------------------
 # mpw1pw91/6-31+G** nmr scrf=(pcm,solvent=water)
 ------------------------------------------------
 1/38=1/1;
 2/12=2,17=6,18=5,40=1/2;
 3/5=1,6=6,7=111,11=2,16=1,25=1,30=1,70=2201,72=1,74=-7/1,2,8,3;
 4//1;
 5/5=2,38=5,53=1/2;
 8/6=1,10=90,11=11/1;
 10/13=100,45=16/2;
 6/7=2,8=2,9=2,10=2,28=1/1;
 99/9=1/99;
 -------
 comment
 -------
 Charge =  0 Multiplicity = 1
 Symbolic Z-Matrix:
 6                     2.59795   0.02532  -0.4411 
 6                     1.1602    0.43811  -0.82006 
 7                     0.30763  -0.78588  -0.63597 
 6                     1.17195  -1.86418  -0.10328 
 6                     2.40353  -1.175     0.49835 
 6                    -0.83089  -0.42464   0.23751 
 6                    -0.9587    1.10598   0.1146 
 6                     0.50905   1.54893   0.02548 
 1                     3.13779  -0.28765  -1.34219 
 1                     3.15791   0.84568   0.01559 
 1                     1.11783   0.76042  -1.86665 
 1                     1.47762  -2.53182  -0.92029 
 1                     0.61752  -2.47289   0.6181 
 1                     3.27761  -1.83334   0.54256 
 1                     2.18596  -0.83031   1.51494 
 1                    -0.60923  -0.64337   1.29472 
 1                    -1.4548    1.54196   0.98978 
 1                     0.59928   2.53124  -0.4546 
 8                     1.09449   1.58197   1.33121 
 1                     0.63737   2.27924   1.83112 
 8                    -1.61627   1.5317   -1.0841 
 1                    -2.55294   1.28759  -0.9968 
 6                    -2.08836  -1.19289  -0.14745 
 1                    -2.34771  -0.98365  -1.19355 
 1                    -1.90299  -2.27272  -0.05916 
 8                    -3.14624  -0.78551   0.73038 
 1                    -3.9389   -1.28429   0.47399 
 
                          Input orientation:                          
 ---------------------------------------------------------------------
 Center     Atomic      Atomic             Coordinates (Angstroms)
 Number     Number       Type             X           Y           Z
 ---------------------------------------------------------------------
      1          6           0        2.597953    0.025318   -0.441097
      2          6           0        1.160200    0.438108   -0.820060
      3          7           0        0.307634   -0.785880   -0.635973
      4          6           0        1.171951   -1.864179   -0.103279
      5          6           0        2.403528   -1.175000    0.498349
      6          6           0       -0.830894   -0.424641    0.237511
      7          6           0       -0.958700    1.105985    0.114597
      8          6           0        0.509052    1.548931    0.025482
      9          1           0        3.137789   -0.287647   -1.342194
     10          1           0        3.157907    0.845683    0.015585
     11          1           0        1.117833    0.760423   -1.866647
     12          1           0        1.477621   -2.531816   -0.920292
     13          1           0        0.617517   -2.472886    0.618102
     14          1           0        3.277608   -1.833338    0.542559
     15          1           0        2.185962   -0.830313    1.514940
     16          1           0       -0.609230   -0.643371    1.294724
     17          1           0       -1.454803    1.541957    0.989776
     18          1           0        0.599279    2.531243   -0.454602
     19          8           0        1.094494    1.581974    1.331208
     20          1           0        0.637369    2.279243    1.831119
     21          8           0       -1.616268    1.531696   -1.084096
     22          1           0       -2.552943    1.287591   -0.996801
     23          6           0       -2.088358   -1.192890   -0.147452
     24          1           0       -2.347709   -0.983646   -1.193548
     25          1           0       -1.902992   -2.272718   -0.059162
     26          8           0       -3.146241   -0.785513    0.730381
     27          1           0       -3.938901   -1.284285    0.473989
 ---------------------------------------------------------------------
                    Distance matrix (angstroms):
                    1          2          3          4          5
     1  C    0.000000
     2  C    1.543095   0.000000
     3  N    2.437536   1.502965   0.000000
     4  C    2.391193   2.411315   1.481059   0.000000
     5  C    1.536595   2.426146   2.414720   1.534179   0.000000
     6  C    3.524197   2.413969   1.479768   2.489939   3.330550
     7  C    3.758513   2.410266   2.397105   3.661833   4.081021
     8  C    2.627280   1.540410   2.435043   3.479272   3.351484
     9  H    1.096059   2.170300   2.959183   2.808003   2.171205
    10  H    1.093209   2.203464   3.348221   3.361771   2.210273
    11  H    2.182505   1.095913   2.135892   3.162425   3.315431
    12  H    2.832615   2.988520   2.120849   1.098491   2.170437
    13  H    3.359323   3.291914   2.124787   1.094674   2.211037
    14  H    2.210003   3.391108   3.362566   2.202691   1.095162
    15  H    2.174378   2.848386   2.855962   2.171573   1.095263
    16  H    3.707593   2.961890   2.142088   2.572429   3.161258
    17  H    4.557677   3.366338   3.341866   4.438059   4.744478
    18  H    3.205392   2.197591   3.334855   4.446472   4.230800
    19  O    2.797254   2.437355   3.177370   3.733594   3.163563
    20  H    3.753270   3.269844   3.948449   4.603870   4.102120
    21  O    4.521314   2.995734   3.045221   4.502014   5.097950
    22  H    5.332342   3.813173   3.551391   4.960531   5.732925
    23  C    4.850955   3.696713   2.478929   3.328993   4.538107
    24  H    5.103309   3.803459   2.720450   3.788407   5.047116
    25  H    5.068072   4.160612   2.725851   3.102277   4.479053
    26  O    5.918241   4.737779   3.714320   4.528277   5.568256
    27  H    6.729257   5.535524   4.417407   5.175937   6.343417
                    6          7          8          9         10
     6  C    0.000000
     7  C    1.540863   0.000000
     8  C    2.394869   1.535721   0.000000
     9  H    4.273720   4.565706   3.486232   0.000000
    10  H    4.192077   4.126017   2.740637   1.768730   0.000000
    11  H    3.103127   2.890801   2.138343   2.335321   2.777043
    12  H    3.333157   4.498917   4.299431   2.823199   3.886737
    13  H    2.537332   3.942879   4.066691   3.869083   4.222500
    14  H    4.353995   5.173884   4.401365   2.441517   2.732981
    15  H    3.301184   3.949571   3.269758   3.060012   2.449838
    16  H    1.102124   2.138943   2.769064   4.595653   4.247917
    17  H    2.196058   1.096416   2.187839   5.466026   4.765600
    18  H    3.355840   2.186926   1.097068   3.895894   3.099801
    19  O    2.988276   2.433580   1.431347   3.849366   2.555516
    20  H    3.465021   2.621148   1.951959   4.786537   3.421165
    21  O    2.488114   1.431953   2.397592   5.096831   4.946985
    22  H    2.724099   1.951870   3.238700   5.914821   5.816701
    23  C    1.523029   2.574805   3.780744   5.436864   5.630778
    24  H    2.158968   2.829690   4.007626   5.531473   5.926234
    25  H    2.157034   3.512480   4.519969   5.567419   5.944974
    26  O    2.394573   2.956736   4.394050   6.635697   6.550879
    27  H    3.233360   3.837206   5.292689   7.373693   7.423718
                   11         12         13         14         15
    11  H    0.000000
    12  H    3.444397   0.000000
    13  H    4.108355   1.763493   0.000000
    14  H    4.146866   2.422346   2.736935   0.000000
    15  H    3.886704   3.054049   2.441799   1.772928   0.000000
    16  H    3.866219   3.581545   2.304311   4.133919   2.810078
    17  H    3.922806   5.370577   4.533389   5.829951   4.377057
    18  H    2.323483   5.159740   5.117845   5.217024   4.206747
    19  O    3.301782   4.705242   4.144625   4.129444   2.654089
    20  H    4.026305   5.605584   4.904542   5.054164   3.488187
    21  O    2.946618   5.109903   4.891212   6.157880   5.176005
    22  H    3.809086   5.553303   5.176960   6.790077   5.766418
    23  C    4.129252   3.886671   3.089696   5.447924   4.600524
    24  H    3.937616   4.135777   3.780539   5.948129   5.283331
    25  H    4.646755   3.498174   2.617579   5.233903   4.612795
    26  O    5.226548   5.210988   4.126222   6.511455   5.389799
    27  H    5.935484   5.730538   4.711102   7.237690   6.229255
                   16         17         18         19         20
    16  H    0.000000
    17  H    2.362974   0.000000
    18  H    3.820839   2.698920   0.000000
    19  O    2.802885   2.572371   2.082178   0.000000
    20  H    3.222329   2.372474   2.299886   0.972141   0.000000
    21  O    3.376955   2.080173   2.510778   3.631040   3.759812
    22  H    3.571795   2.284098   3.431786   4.337059   4.377053
    23  C    2.137677   3.028872   4.602923   4.474020   4.837359
    24  H    3.054438   3.455844   4.645990   4.980518   5.357774
    25  H    2.482257   3.981569   5.431001   5.077076   5.544993
    26  O    2.602905   2.888835   5.141398   4.893855   4.991999
    27  H    3.488708   3.797950   6.001301   5.855368   5.956742
                   21         22         23         24         25
    21  O    0.000000
    22  H    0.971889   0.000000
    23  C    2.919510   2.662709   0.000000
    24  H    2.621818   2.288962   1.097890   0.000000
    25  H    3.950477   3.738637   1.099174   1.773784   0.000000
    26  O    3.317017   2.762774   1.433758   2.092466   2.093042
    27  H    3.968879   3.270879   1.954239   2.324426   2.325118
                   26         27
    26  O    0.000000
    27  H    0.970989   0.000000
 Stoichiometry    C8H15NO3
 Framework group  C1[X(C8H15NO3)]
 Deg. of freedom    75
 Full point group                 C1      NOp   1
 Largest Abelian subgroup         C1      NOp   1
 Largest concise Abelian subgroup C1      NOp   1
                         Standard orientation:                         
 ---------------------------------------------------------------------
 Center     Atomic      Atomic             Coordinates (Angstroms)
 Number     Number       Type             X           Y           Z
 ---------------------------------------------------------------------
      1          6           0        2.597953    0.025318   -0.441097
      2          6           0        1.160200    0.438108   -0.820060
      3          7           0        0.307634   -0.785880   -0.635973
      4          6           0        1.171951   -1.864179   -0.103279
      5          6           0        2.403528   -1.175000    0.498349
      6          6           0       -0.830894   -0.424641    0.237511
      7          6           0       -0.958700    1.105985    0.114597
      8          6           0        0.509052    1.548931    0.025482
      9          1           0        3.137789   -0.287647   -1.342194
     10          1           0        3.157907    0.845683    0.015585
     11          1           0        1.117833    0.760423   -1.866647
     12          1           0        1.477621   -2.531816   -0.920292
     13          1           0        0.617517   -2.472886    0.618102
     14          1           0        3.277608   -1.833338    0.542559
     15          1           0        2.185962   -0.830313    1.514940
     16          1           0       -0.609230   -0.643371    1.294724
     17          1           0       -1.454803    1.541957    0.989776
     18          1           0        0.599279    2.531243   -0.454602
     19          8           0        1.094494    1.581974    1.331208
     20          1           0        0.637369    2.279243    1.831119
     21          8           0       -1.616268    1.531696   -1.084096
     22          1           0       -2.552943    1.287591   -0.996801
     23          6           0       -2.088358   -1.192890   -0.147452
     24          1           0       -2.347709   -0.983646   -1.193548
     25          1           0       -1.902992   -2.272718   -0.059162
     26          8           0       -3.146241   -0.785513    0.730381
     27          1           0       -3.938901   -1.284285    0.473989
 ---------------------------------------------------------------------
 Rotational constants (GHZ):      1.4218138      0.7817707      0.6210242
 Standard basis: 6-31+G(d,p) (6D, 7F)
 There are   303 symmetry adapted basis functions of A   symmetry.
 Integral buffers will be    131072 words long.
 Raffenetti 2 integral format.
 Two-electron integral symmetry is turned on.
   303 basis functions,   489 primitive gaussians,   303 cartesian basis functions
    47 alpha electrons       47 beta electrons
       nuclear repulsion energy       810.6969757842 Hartrees.
 NAtoms=   27 NActive=   27 NUniq=   27 SFac= 1.00D+00 NAtFMM=   60 NAOKFM=F Big=F
 ------------------------------------------------------------------------------
 Polarizable Continuum Model (PCM)
 =================================
 Model                : PCM.
 Atomic radii         : UFF (Universal Force Field).
 Polarization charges : Total charges.
 Charge compensation  : None.
 Solution method      : Matrix inversion.
 Cavity type          : Scaled VdW (van der Waals Surface) (Alpha=1.100).
 Cavity algorithm     : GePol (No added spheres)
                        Default sphere list used, NSphG=   27.
                        Lebedev-Laikov grids with approx.  5.0 points / Ang**2.
                        Smoothing algorithm: Karplus/York (Gamma=1.0000).
                        Polarization charges: spherical gaussians, with
                                              point-specific exponents (IZeta= 3).
                        Self-potential: point-specific (ISelfS= 7).
                        Self-field    : sphere-specific E.n sum rule (ISelfD= 2).
 Solvent              : Water, Eps=  78.355300 Eps(inf)=   1.777849
 ------------------------------------------------------------------------------
 One-electron integrals computed using PRISM.
 NBasis=   303 RedAO= T  NBF=   303
 NBsUse=   303 1.00D-06 NBFU=   303
 Harris functional with IExCor=  908 diagonalized for initial guess.
 ExpMin= 4.38D-02 ExpMax= 5.48D+03 ExpMxC= 8.25D+02 IAcc=2 IRadAn=         4 AccDes= 0.00D+00
 HarFok:  IExCor=  908 AccDes= 0.00D+00 IRadAn=         4 IDoV= 1
 ScaDFX=  1.000000  1.000000  1.000000  1.000000
 FoFCou: FMM=F IPFlag=           0 FMFlag=      100000 FMFlg1=           0
         NFxFlg=           0 DoJE=T BraDBF=F KetDBF=T FulRan=T
         Omega=  0.000000  0.000000  1.000000  0.000000  0.000000 ICntrl=     500 IOpCl=  0
         NMat0=    1 NMatS0=    1 NMatT0=    0 NMatD0=    1 NMtDS0=    0 NMtDT0=    0
         I1Cent=           4 NGrid=           0.
 Petite list used in FoFCou.
 Initial guess orbital symmetries:
       Occupied  (A) (A) (A) (A) (A) (A) (A) (A) (A) (A) (A) (A)
                 (A) (A) (A) (A) (A) (A) (A) (A) (A) (A) (A) (A)
                 (A) (A) (A) (A) (A) (A) (A) (A) (A) (A) (A) (A)
                 (A) (A) (A) (A) (A) (A) (A) (A) (A) (A) (A)
       Virtual   (A) (A) (A) (A) (A) (A) (A) (A) (A) (A) (A) (A)
                 (A) (A) (A) (A) (A) (A) (A) (A) (A) (A) (A) (A)
                 (A) (A) (A) (A) (A) (A) (A) (A) (A) (A) (A) (A)
                 (A) (A) (A) (A) (A) (A) (A) (A) (A) (A) (A) (A)
                 (A) (A) (A) (A) (A) (A) (A) (A) (A) (A) (A) (A)
                 (A) (A) (A) (A) (A) (A) (A) (A) (A) (A) (A) (A)
                 (A) (A) (A) (A) (A) (A) (A) (A) (A) (A) (A) (A)
                 (A) (A) (A) (A) (A) (A) (A) (A) (A) (A) (A) (A)
                 (A) (A) (A) (A) (A) (A) (A) (A) (A) (A) (A) (A)
                 (A) (A) (A) (A) (A) (A) (A) (A) (A) (A) (A) (A)
                 (A) (A) (A) (A) (A) (A) (A) (A) (A) (A) (A) (A)
                 (A) (A) (A) (A) (A) (A) (A) (A) (A) (A) (A) (A)
                 (A) (A) (A) (A) (A) (A) (A) (A) (A) (A) (A) (A)
                 (A) (A) (A) (A) (A) (A) (A) (A) (A) (A) (A) (A)
                 (A) (A) (A) (A) (A) (A) (A) (A) (A) (A) (A) (A)
                 (A) (A) (A) (A) (A) (A) (A) (A) (A) (A) (A) (A)
                 (A) (A) (A) (A) (A) (A) (A) (A) (A) (A) (A) (A)
                 (A) (A) (A) (A) (A) (A) (A) (A) (A) (A) (A) (A)
                 (A) (A) (A) (A) (A) (A) (A) (A) (A) (A) (A) (A)
                 (A) (A) (A) (A) (A) (A) (A) (A) (A) (A) (A) (A)
                 (A) (A) (A) (A) (A) (A) (A) (A) (A) (A) (A) (A)
                 (A) (A) (A) (A)
 The electronic state of the initial guess is 1-A.
 Requested convergence on RMS density matrix=1.00D-08 within 128 cycles.
 Requested convergence on MAX density matrix=1.00D-06.
 Requested convergence on             energy=1.00D-06.
 No special actions if energy rises.
 Error on total polarization charges =  0.01419
 SCF Done:  E(RmPW1PW91) =  -594.195189375     A.U. after   13 cycles
             Convg  =    0.3534D-08             -V/T =  2.0094
 Range of M.O.s used for correlation:     1   303
 NBasis=   303 NAE=    47 NBE=    47 NFC=     0 NFV=     0
 NROrb=    303 NOA=    47 NOB=    47 NVA=   256 NVB=   256

 **** Warning!!: The largest alpha MO coefficient is  0.73048865D+02

 NEqPCM:  Using equilibrium solvation (IEInf=0, Eps=  78.3553, EpsInf=   1.7778)
          Differentiating once with respect to magnetic field using GIAOs.
          Electric field/nuclear overlap derivatives assumed to be zero.
 FoFCou: FMM=F IPFlag=           0 FMFlag=    10101102 FMFlg1=           0
         NFxFlg=    40000000 DoJE=F BraDBF=F KetDBF=T FulRan=T
         Omega=  0.000000  0.000000  1.000000  0.000000  0.000000 ICntrl=    6100 IOpCl=  0
         NMat0=    1 NMatS0=    1 NMatT0=    0 NMatD0=    1 NMtDS0=    0 NMtDT0=    0
         I1Cent=           7 NGrid=        1815.
 Symmetry not used in FoFCou.
          There are     3 degrees of freedom in the 1st order CPHF.  IDoFFX=0.
      3 vectors produced by pass  0 Test12= 4.01D-13 3.33D-08 XBig12= 3.37D+01 1.02D+00.
 AX will form     3 AO Fock derivatives at one time.
      3 vectors produced by pass  1 Test12= 4.01D-13 3.33D-08 XBig12= 8.39D-02 3.58D-02.
      3 vectors produced by pass  2 Test12= 4.01D-13 3.33D-08 XBig12= 1.79D-04 2.95D-03.
      3 vectors produced by pass  3 Test12= 4.01D-13 3.33D-08 XBig12= 8.33D-07 1.91D-04.
      3 vectors produced by pass  4 Test12= 4.01D-13 3.33D-08 XBig12= 3.08D-09 1.11D-05.
      3 vectors produced by pass  5 Test12= 4.01D-13 3.33D-08 XBig12= 9.39D-12 5.30D-07.
      1 vectors produced by pass  6 Test12= 4.01D-13 3.33D-08 XBig12= 3.18D-14 3.37D-08.
 Inverted reduced A of dimension    19 with in-core refinement.
 Calculating GIAO nuclear magnetic shielding tensors.
 SCF GIAO Magnetic shielding tensor (ppm):
      1  C    Isotropic =   167.9701   Anisotropy =    23.7729
   XX=   177.0345   YX=     1.4001   ZX=     6.8736
   XY=     0.6718   YY=   171.0293   ZY=   -16.6350
   XZ=     0.8329   YZ=   -20.6350   ZZ=   155.8464
   Eigenvalues:   142.8978   177.1937   183.8187
      2  C    Isotropic =   127.5230   Anisotropy =    58.5124
   XX=   138.3664   YX=    18.1119   ZX=     3.2651
   XY=    18.5574   YY=   154.5884   ZY=    -3.6139
   XZ=    -4.2272   YZ=     5.7621   ZZ=    89.6142
   Eigenvalues:    89.5824   126.4553   166.5313
      3  N    Isotropic =   195.1628   Anisotropy =    76.3852
   XX=   233.1752   YX=    12.0244   ZX=   -22.8541
   XY=     1.8824   YY=   224.4208   ZY=   -19.8950
   XZ=   -31.3540   YZ=   -17.1962   ZZ=   127.8924
   Eigenvalues:   118.7584   220.6438   246.0863
      4  C    Isotropic =   140.7991   Anisotropy =    56.7045
   XX=   147.3071   YX=   -24.0948   ZX=    10.2321
   XY=   -14.7280   YY=   152.9196   ZY=   -19.0936
   XZ=    22.9661   YZ=   -11.2945   ZZ=   122.1707
   Eigenvalues:   112.9797   130.8156   178.6021
      5  C    Isotropic =   168.2873   Anisotropy =    24.0938
   XX=   172.8615   YX=     0.0916   ZX=     9.6660
   XY=     1.8105   YY=   178.5904   ZY=    -8.2373
   XZ=    15.2060   YZ=   -13.7504   ZZ=   153.4098
   Eigenvalues:   144.2208   176.2911   184.3498
      6  C    Isotropic =   125.0734   Anisotropy =    56.0607
   XX=   144.3541   YX=   -20.4781   ZX=   -22.5427
   XY=    -4.9033   YY=   122.1641   ZY=     7.1752
   XZ=   -29.0709   YZ=     2.7300   ZZ=   108.7020
   Eigenvalues:    95.0688   117.7042   162.4472
      7  C    Isotropic =   113.7110   Anisotropy =    35.1423
   XX=   121.4700   YX=    -4.7832   ZX=    15.5373
   XY=     3.2197   YY=   107.3946   ZY=     5.7037
   XZ=    23.6971   YZ=    -9.8235   ZZ=   112.2683
   Eigenvalues:    96.6006   107.3931   137.1392
      8  C    Isotropic =   116.5826   Anisotropy =    27.7584
   XX=   122.7310   YX=     7.2954   ZX=    13.9600
   XY=    -1.2836   YY=   103.6620   ZY=    -2.6877
   XZ=     8.8786   YZ=     9.1733   ZZ=   123.3548
   Eigenvalues:   103.0389   111.6207   135.0882
      9  H    Isotropic =    29.8850   Anisotropy =    12.4158
   XX=    32.4054   YX=    -1.3597   ZX=    -5.7277
   XY=    -1.8751   YY=    25.3410   ZY=    -0.3445
   XZ=    -6.1520   YZ=    -0.5080   ZZ=    31.9087
   Eigenvalues:    24.2487    27.2442    38.1622
     10  H    Isotropic =    29.4597   Anisotropy =     9.4569
   XX=    32.3822   YX=     3.6105   ZX=     0.7145
   XY=     4.0494   YY=    30.8550   ZY=     2.0713
   XZ=     0.4972   YZ=     1.4615   ZZ=    25.1418
   Eigenvalues:    24.6012    28.0136    35.7643
     11  H    Isotropic =    27.7260   Anisotropy =     8.3252
   XX=    26.0695   YX=     0.5989   ZX=    -0.7997
   XY=     0.1024   YY=    25.5698   ZY=    -3.8070
   XZ=    -1.5837   YZ=    -2.9599   ZZ=    31.5387
   Eigenvalues:    24.0271    25.8748    33.2761
     12  H    Isotropic =    28.7401   Anisotropy =    11.9050
   XX=    27.0760   YX=    -4.0688   ZX=    -0.4582
   XY=    -3.2523   YY=    32.8071   ZY=     5.1911
   XZ=     0.7038   YZ=     5.0172   ZZ=    26.3373
   Eigenvalues:    22.5888    26.9547    36.6768
     13  H    Isotropic =    28.8124   Anisotropy =     8.4929
   XX=    28.8979   YX=     0.8779   ZX=     0.6438
   XY=     1.1604   YY=    32.6731   ZY=    -4.1538
   XZ=    -1.0668   YZ=    -3.6438   ZZ=    24.8661
   Eigenvalues:    23.2457    28.7171    34.4743
     14  H    Isotropic =    30.1378   Anisotropy =    12.7668
   XX=    33.8678   YX=    -5.1092   ZX=     1.9745
   XY=    -5.7714   YY=    30.8041   ZY=    -2.0330
   XZ=     2.2794   YZ=    -2.0239   ZZ=    25.7414
   Eigenvalues:    25.0175    26.7470    38.6490
     15  H    Isotropic =    29.7592   Anisotropy =     7.6998
   XX=    27.0595   YX=    -0.3720   ZX=     0.7891
   XY=    -0.3894   YY=    27.5114   ZY=     0.6311
   XZ=     1.5898   YZ=    -0.1288   ZZ=    34.7067
   Eigenvalues:    26.6731    27.7121    34.8924
     16  H    Isotropic =    28.5367   Anisotropy =     4.6056
   XX=    29.4608   YX=     0.5623   ZX=    -1.3641
   XY=     0.5156   YY=    26.4543   ZY=    -0.5131
   XZ=    -1.8227   YZ=    -2.5122   ZZ=    29.6949
   Eigenvalues:    25.8556    28.1473    31.6071
     17  H    Isotropic =    27.4020   Anisotropy =     4.7566
   XX=    27.0244   YX=    -1.7464   ZX=    -0.0263
   XY=    -2.4771   YY=    26.7569   ZY=     1.5826
   XZ=    -0.3069   YZ=     2.9005   ZZ=    28.4248
   Eigenvalues:    24.1515    27.4815    30.5731
     18  H    Isotropic =    27.4983   Anisotropy =     6.4409
   XX=    24.5723   YX=     0.3356   ZX=     2.0055
   XY=     0.3547   YY=    30.9442   ZY=    -1.4405
   XZ=     1.4947   YZ=    -2.5479   ZZ=    26.9783
   Eigenvalues:    23.4321    27.2705    31.7922
     19  O    Isotropic =   293.9946   Anisotropy =    86.9955
   XX=   289.0720   YX=   -21.8978   ZX=   -36.9263
   XY=   -20.1387   YY=   284.5758   ZY=    33.5795
   XZ=   -12.4685   YZ=    40.4977   ZZ=   308.3361
   Eigenvalues:   257.2395   272.7528   351.9916
     20  H    Isotropic =    30.4453   Anisotropy =    20.3462
   XX=    26.2539   YX=    -5.4921   ZX=    -0.9684
   XY=    -5.3251   YY=    32.2045   ZY=     9.2211
   XZ=    -2.0040   YZ=    11.0213   ZZ=    32.8776
   Eigenvalues:    20.6300    26.6965    44.0094
     21  O    Isotropic =   304.1173   Anisotropy =    62.2383
   XX=   339.8000   YX=     8.3487   ZX=     4.3994
   XY=    29.8258   YY=   281.7993   ZY=     4.5335
   XZ=     1.6934   YZ=    -9.2538   ZZ=   290.7525
   Eigenvalues:   275.4369   291.3055   345.6095
     22  H    Isotropic =    29.8359   Anisotropy =    19.0667
   XX=    41.9813   YX=     2.2336   ZX=     2.5605
   XY=     2.3586   YY=    24.4406   ZY=    -4.4049
   XZ=     2.9254   YZ=    -3.1466   ZZ=    23.0857
   Eigenvalues:    19.3614    27.5992    42.5470
     23  C    Isotropic =   132.1144   Anisotropy =    72.9869
   XX=   158.4924   YX=   -12.6114   ZX=   -33.5921
   XY=    -3.7102   YY=   109.3101   ZY=     7.4609
   XZ=   -30.2710   YZ=    11.2347   ZZ=   128.5406
   Eigenvalues:   104.2910   111.2799   180.7723
     24  H    Isotropic =    27.8060   Anisotropy =     2.6897
   XX=    28.3731   YX=     1.5047   ZX=    -1.2346
   XY=     0.2014   YY=    25.7257   ZY=     1.3320
   XZ=     1.0601   YZ=     0.6846   ZZ=    29.3191
   Eigenvalues:    25.2331    28.5857    29.5991
     25  H    Isotropic =    27.7315   Anisotropy =     4.9817
   XX=    29.5763   YX=    -1.2292   ZX=    -1.3635
   XY=     0.6879   YY=    30.4641   ZY=     0.5431
   XZ=    -2.8233   YZ=     1.9496   ZZ=    23.1542
   Eigenvalues:    22.3767    29.7652    31.0527
     26  O    Isotropic =   316.9989   Anisotropy =    92.7395
   XX=   361.1238   YX=    27.7566   ZX=    -2.4301
   XY=    43.6646   YY=   300.2998   ZY=     7.3706
   XZ=    17.5151   YZ=     9.4339   ZZ=   289.5731
   Eigenvalues:   281.0975   291.0739   378.8252
     27  H    Isotropic =    30.3508   Anisotropy =    21.7026
   XX=    40.9683   YX=     9.0594   ZX=     1.3445
   XY=     7.3754   YY=    26.3993   ZY=     3.5421
   XZ=    -0.4056   YZ=     3.0906   ZZ=    23.6849
   Eigenvalues:    20.2645    25.9688    44.8192
 End of Minotr Frequency-dependent properties file   721 does not exist.
 End of Minotr Frequency-dependent properties file   722 does not exist.

 **********************************************************************

            Population analysis using the SCF density.

 **********************************************************************

 Orbital symmetries:
       Occupied  (A) (A) (A) (A) (A) (A) (A) (A) (A) (A) (A) (A)
                 (A) (A) (A) (A) (A) (A) (A) (A) (A) (A) (A) (A)
                 (A) (A) (A) (A) (A) (A) (A) (A) (A) (A) (A) (A)
                 (A) (A) (A) (A) (A) (A) (A) (A) (A) (A) (A)
       Virtual   (A) (A) (A) (A) (A) (A) (A) (A) (A) (A) (A) (A)
                 (A) (A) (A) (A) (A) (A) (A) (A) (A) (A) (A) (A)
                 (A) (A) (A) (A) (A) (A) (A) (A) (A) (A) (A) (A)
                 (A) (A) (A) (A) (A) (A) (A) (A) (A) (A) (A) (A)
                 (A) (A) (A) (A) (A) (A) (A) (A) (A) (A) (A) (A)
                 (A) (A) (A) (A) (A) (A) (A) (A) (A) (A) (A) (A)
                 (A) (A) (A) (A) (A) (A) (A) (A) (A) (A) (A) (A)
                 (A) (A) (A) (A) (A) (A) (A) (A) (A) (A) (A) (A)
                 (A) (A) (A) (A) (A) (A) (A) (A) (A) (A) (A) (A)
                 (A) (A) (A) (A) (A) (A) (A) (A) (A) (A) (A) (A)
                 (A) (A) (A) (A) (A) (A) (A) (A) (A) (A) (A) (A)
                 (A) (A) (A) (A) (A) (A) (A) (A) (A) (A) (A) (A)
                 (A) (A) (A) (A) (A) (A) (A) (A) (A) (A) (A) (A)
                 (A) (A) (A) (A) (A) (A) (A) (A) (A) (A) (A) (A)
                 (A) (A) (A) (A) (A) (A) (A) (A) (A) (A) (A) (A)
                 (A) (A) (A) (A) (A) (A) (A) (A) (A) (A) (A) (A)
                 (A) (A) (A) (A) (A) (A) (A) (A) (A) (A) (A) (A)
                 (A) (A) (A) (A) (A) (A) (A) (A) (A) (A) (A) (A)
                 (A) (A) (A) (A) (A) (A) (A) (A) (A) (A) (A) (A)
                 (A) (A) (A) (A) (A) (A) (A) (A) (A) (A) (A) (A)
                 (A) (A) (A) (A) (A) (A) (A) (A) (A) (A) (A) (A)
                 (A) (A) (A) (A)
 The electronic state is 1-A.
 Alpha  occ. eigenvalues --  -19.25841 -19.25823 -19.25742 -14.40924 -10.30393
 Alpha  occ. eigenvalues --  -10.30316 -10.29523 -10.27809 -10.27563 -10.26594
 Alpha  occ. eigenvalues --  -10.24313 -10.23939  -1.07105  -1.05943  -1.05401
 Alpha  occ. eigenvalues --   -0.95888  -0.82254  -0.79109  -0.75008  -0.71835
 Alpha  occ. eigenvalues --   -0.66375  -0.61328  -0.59588  -0.57640  -0.55246
 Alpha  occ. eigenvalues --   -0.53159  -0.51977  -0.50778  -0.49004  -0.48030
 Alpha  occ. eigenvalues --   -0.46999  -0.43413  -0.42140  -0.41995  -0.40621
 Alpha  occ. eigenvalues --   -0.39472  -0.38150  -0.37486  -0.36284  -0.35154
 Alpha  occ. eigenvalues --   -0.34864  -0.34352  -0.32567  -0.30581  -0.30116
 Alpha  occ. eigenvalues --   -0.28919  -0.22995
 Alpha virt. eigenvalues --    0.00441   0.00867   0.01984   0.02409   0.03663
 Alpha virt. eigenvalues --    0.03919   0.04708   0.04974   0.05588   0.06310
 Alpha virt. eigenvalues --    0.07569   0.08101   0.08662   0.08899   0.09900
 Alpha virt. eigenvalues --    0.10623   0.11594   0.11858   0.12280   0.13008
 Alpha virt. eigenvalues --    0.13207   0.13517   0.15028   0.15475   0.15765
 Alpha virt. eigenvalues --    0.15909   0.16456   0.16883   0.18119   0.18799
 Alpha virt. eigenvalues --    0.19242   0.19668   0.19977   0.20838   0.20996
 Alpha virt. eigenvalues --    0.21352   0.21851   0.22215   0.22623   0.23855
 Alpha virt. eigenvalues --    0.23975   0.24287   0.25241   0.25478   0.25824
 Alpha virt. eigenvalues --    0.26119   0.26815   0.27135   0.27740   0.28800
 Alpha virt. eigenvalues --    0.29677   0.29939   0.30304   0.31027   0.32195
 Alpha virt. eigenvalues --    0.32849   0.33272   0.34098   0.34694   0.34806
 Alpha virt. eigenvalues --    0.35461   0.36658   0.37591   0.38068   0.38875
 Alpha virt. eigenvalues --    0.39794   0.40656   0.41058   0.41792   0.42158
 Alpha virt. eigenvalues --    0.42735   0.43421   0.44496   0.45049   0.47006
 Alpha virt. eigenvalues --    0.48535   0.65346   0.67137   0.67595   0.68781
 Alpha virt. eigenvalues --    0.70037   0.70982   0.71522   0.73635   0.74660
 Alpha virt. eigenvalues --    0.75905   0.78193   0.79608   0.81072   0.81732
 Alpha virt. eigenvalues --    0.83780   0.84035   0.85852   0.86897   0.88737
 Alpha virt. eigenvalues --    0.89615   0.91089   0.92985   0.94484   0.97552
 Alpha virt. eigenvalues --    0.98833   1.00746   1.01656   1.03274   1.03693
 Alpha virt. eigenvalues --    1.04871   1.06297   1.08008   1.09986   1.10527
 Alpha virt. eigenvalues --    1.11689   1.12317   1.13467   1.14729   1.16371
 Alpha virt. eigenvalues --    1.16503   1.17579   1.19876   1.22135   1.25741
 Alpha virt. eigenvalues --    1.26777   1.28572   1.29343   1.31493   1.32751
 Alpha virt. eigenvalues --    1.34238   1.36132   1.38056   1.40629   1.42249
 Alpha virt. eigenvalues --    1.42813   1.47485   1.48225   1.50824   1.52769
 Alpha virt. eigenvalues --    1.53363   1.57154   1.58424   1.60142   1.61432
 Alpha virt. eigenvalues --    1.63647   1.64135   1.65491   1.69249   1.71081
 Alpha virt. eigenvalues --    1.73681   1.74359   1.76242   1.78340   1.80736
 Alpha virt. eigenvalues --    1.82020   1.82531   1.83499   1.84661   1.88392
 Alpha virt. eigenvalues --    1.89162   1.90543   1.92621   1.93495   1.96210
 Alpha virt. eigenvalues --    1.98719   2.00182   2.02683   2.03101   2.04115
 Alpha virt. eigenvalues --    2.05549   2.06779   2.07757   2.09063   2.11626
 Alpha virt. eigenvalues --    2.13407   2.16327   2.16804   2.18105   2.18947
 Alpha virt. eigenvalues --    2.21066   2.22164   2.22710   2.26689   2.30051
 Alpha virt. eigenvalues --    2.31726   2.33828   2.36127   2.36470   2.39692
 Alpha virt. eigenvalues --    2.41677   2.44018   2.44611   2.47016   2.48168
 Alpha virt. eigenvalues --    2.49693   2.51712   2.53819   2.54669   2.55850
 Alpha virt. eigenvalues --    2.57202   2.59142   2.60930   2.62265   2.63836
 Alpha virt. eigenvalues --    2.65280   2.67301   2.67462   2.68107   2.69929
 Alpha virt. eigenvalues --    2.70625   2.71840   2.74518   2.75731   2.76714
 Alpha virt. eigenvalues --    2.79438   2.80447   2.82288   2.83389   2.85151
 Alpha virt. eigenvalues --    2.86411   2.89287   2.89886   2.93389   2.95152
 Alpha virt. eigenvalues --    2.97703   2.99089   2.99910   3.00930   3.02340
 Alpha virt. eigenvalues --    3.07944   3.10348   3.13309   3.14746   3.33253
 Alpha virt. eigenvalues --    3.36019   3.37219   3.39215   3.43751   3.45658
 Alpha virt. eigenvalues --    3.47037   3.50289   3.54062   3.55141   3.55615
 Alpha virt. eigenvalues --    3.56573   3.57329   3.58153   3.60273   4.33030
 Alpha virt. eigenvalues --    4.34812   4.39428   4.45470   4.52572   4.57803
 Alpha virt. eigenvalues --    4.63558   4.71640   4.78576   4.82553   4.89346
 Alpha virt. eigenvalues --    4.99783
          Condensed to atoms (all electrons):
              1          2          3          4          5          6
     1  C    5.966944  -0.438261   0.026318  -0.048130   0.170282   0.088051
     2  C   -0.438261   8.119409  -0.175987  -0.090593  -0.129054  -0.827719
     3  N    0.026318  -0.175987   7.426525   0.113744  -0.128186  -0.217300
     4  C   -0.048130  -0.090593   0.113744   5.766085   0.094335  -0.302988
     5  C    0.170282  -0.129054  -0.128186   0.094335   5.515707   0.198084
     6  C    0.088051  -0.827719  -0.217300  -0.302988   0.198084  10.452064
     7  C   -0.101640   0.485313  -0.006031  -0.042182  -0.163668  -2.362887
     8  C   -0.023661  -0.869713  -0.099746  -0.017017   0.167799   0.939140
     9  H    0.443261  -0.106238   0.009851   0.005502  -0.051356   0.017469
    10  H    0.414947  -0.122040   0.015811   0.024193  -0.029070  -0.000398
    11  H   -0.012834   0.250712  -0.016339  -0.017531   0.023968  -0.002537
    12  H    0.009273  -0.034380  -0.029741   0.383584  -0.042821   0.011158
    13  H    0.022279   0.028126  -0.069496   0.370759  -0.023733   0.036393
    14  H   -0.039684   0.031896   0.014218  -0.041460   0.361453   0.001609
    15  H   -0.052836  -0.012128   0.009822  -0.069403   0.437364   0.023933
    16  H   -0.000834   0.050279  -0.067572   0.056652  -0.008207   0.266963
    17  H    0.010268  -0.047524   0.021562   0.001491   0.001974   0.027190
    18  H    0.008982  -0.034564   0.016737   0.002696  -0.010688   0.000765
    19  O    0.001313  -0.235185   0.049058  -0.015970   0.001063  -0.084658
    20  H    0.006264   0.036490  -0.002954   0.002757  -0.002796  -0.009237
    21  O    0.031225  -0.007746   0.039894   0.006653   0.002122  -0.193152
    22  H   -0.005430   0.001528  -0.005788  -0.003159   0.001126  -0.053231
    23  C    0.043309   0.004370   0.159111   0.004775  -0.104665  -1.620625
    24  H    0.000662  -0.003718   0.014215   0.013338  -0.002328  -0.126558
    25  H    0.000510   0.004186  -0.009882  -0.005198   0.000981  -0.033349
    26  O    0.000547   0.023082   0.004028   0.011940  -0.002238   0.125859
    27  H    0.000088  -0.001725  -0.000781  -0.000910   0.000136   0.035561
              7          8          9         10         11         12
     1  C   -0.101640  -0.023661   0.443261   0.414947  -0.012834   0.009273
     2  C    0.485313  -0.869713  -0.106238  -0.122040   0.250712  -0.034380
     3  N   -0.006031  -0.099746   0.009851   0.015811  -0.016339  -0.029741
     4  C   -0.042182  -0.017017   0.005502   0.024193  -0.017531   0.383584
     5  C   -0.163668   0.167799  -0.051356  -0.029070   0.023968  -0.042821
     6  C   -2.362887   0.939140   0.017469  -0.000398  -0.002537   0.011158
     7  C    8.236631  -1.168957  -0.017567  -0.002617   0.012316  -0.001007
     8  C   -1.168957   6.867375   0.027295   0.035888   0.027819   0.005745
     9  H   -0.017567   0.027295   0.530154  -0.025365  -0.007349   0.001459
    10  H   -0.002617   0.035888  -0.025365   0.509684   0.002656  -0.000031
    11  H    0.012316   0.027819  -0.007349   0.002656   0.562269   0.000812
    12  H   -0.001007   0.005745   0.001459  -0.000031   0.000812   0.559227
    13  H    0.012145  -0.018272  -0.000112  -0.000139  -0.000187  -0.031856
    14  H    0.006711   0.000407  -0.005102   0.000838  -0.000050  -0.003336
    15  H   -0.010910   0.007508   0.004171  -0.005244  -0.000093   0.004087
    16  H   -0.037133  -0.013968  -0.000007  -0.000018  -0.000508  -0.000358
    17  H    0.242222   0.085113   0.000004  -0.000007  -0.000090   0.000004
    18  H    0.075604   0.247297  -0.000019   0.000260  -0.003099   0.000006
    19  O    0.094880   0.158739  -0.000420   0.000826   0.010309   0.000238
    20  H   -0.067616   0.057581   0.000000  -0.000227  -0.000264   0.000000
    21  O    0.206965  -0.081628   0.000080  -0.000008   0.000008   0.000136
    22  H    0.067624   0.011911   0.000000   0.000000   0.000013   0.000000
    23  C    0.741324  -0.398170   0.000542   0.000410   0.003762   0.007291
    24  H   -0.034312   0.003161   0.000000   0.000000  -0.000014   0.000041
    25  H    0.009745  -0.006360  -0.000001   0.000000   0.000007  -0.000202
    26  O   -0.066532   0.006107  -0.000001  -0.000002  -0.000054   0.000002
    27  H   -0.002643  -0.000637   0.000000   0.000000   0.000000   0.000000
             13         14         15         16         17         18
     1  C    0.022279  -0.039684  -0.052836  -0.000834   0.010268   0.008982
     2  C    0.028126   0.031896  -0.012128   0.050279  -0.047524  -0.034564
     3  N   -0.069496   0.014218   0.009822  -0.067572   0.021562   0.016737
     4  C    0.370759  -0.041460  -0.069403   0.056652   0.001491   0.002696
     5  C   -0.023733   0.361453   0.437364  -0.008207   0.001974  -0.010688
     6  C    0.036393   0.001609   0.023933   0.266963   0.027190   0.000765
     7  C    0.012145   0.006711  -0.010910  -0.037133   0.242222   0.075604
     8  C   -0.018272   0.000407   0.007508  -0.013968   0.085113   0.247297
     9  H   -0.000112  -0.005102   0.004171  -0.000007   0.000004  -0.000019
    10  H   -0.000139   0.000838  -0.005244  -0.000018  -0.000007   0.000260
    11  H   -0.000187  -0.000050  -0.000093  -0.000508  -0.000090  -0.003099
    12  H   -0.031856  -0.003336   0.004087  -0.000358   0.000004   0.000006
    13  H    0.537482   0.001100  -0.005914   0.002026  -0.000019   0.000005
    14  H    0.001100   0.529468  -0.024737  -0.000141  -0.000001   0.000005
    15  H   -0.005914  -0.024737   0.512393   0.000031   0.000023   0.000025
    16  H    0.002026  -0.000141   0.000031   0.566979  -0.002268  -0.000168
    17  H   -0.000019  -0.000001   0.000023  -0.002268   0.558031  -0.002902
    18  H    0.000005   0.000005   0.000025  -0.000168  -0.002902   0.560219
    19  O    0.000588   0.000443  -0.001968   0.002655  -0.017663  -0.035215
    20  H   -0.000001  -0.000002   0.000094   0.000473   0.004786  -0.006663
    21  O   -0.000075  -0.000007   0.000024   0.009629  -0.035942  -0.001563
    22  H    0.000001   0.000000   0.000000   0.000042  -0.006532   0.000016
    23  C   -0.022866  -0.000236   0.002566  -0.005311  -0.009831   0.014198
    24  H    0.000004   0.000000   0.000001   0.004666   0.000217  -0.000013
    25  H    0.001199   0.000001  -0.000006  -0.007195  -0.000073   0.000003
    26  O   -0.000095  -0.000003   0.000002   0.010216   0.001021   0.000017
    27  H    0.000004   0.000000   0.000000  -0.000259  -0.000024   0.000000
             19         20         21         22         23         24
     1  C    0.001313   0.006264   0.031225  -0.005430   0.043309   0.000662
     2  C   -0.235185   0.036490  -0.007746   0.001528   0.004370  -0.003718
     3  N    0.049058  -0.002954   0.039894  -0.005788   0.159111   0.014215
     4  C   -0.015970   0.002757   0.006653  -0.003159   0.004775   0.013338
     5  C    0.001063  -0.002796   0.002122   0.001126  -0.104665  -0.002328
     6  C   -0.084658  -0.009237  -0.193152  -0.053231  -1.620625  -0.126558
     7  C    0.094880  -0.067616   0.206965   0.067624   0.741324  -0.034312
     8  C    0.158739   0.057581  -0.081628   0.011911  -0.398170   0.003161
     9  H   -0.000420   0.000000   0.000080   0.000000   0.000542   0.000000
    10  H    0.000826  -0.000227  -0.000008   0.000000   0.000410   0.000000
    11  H    0.010309  -0.000264   0.000008   0.000013   0.003762  -0.000014
    12  H    0.000238   0.000000   0.000136   0.000000   0.007291   0.000041
    13  H    0.000588  -0.000001  -0.000075   0.000001  -0.022866   0.000004
    14  H    0.000443  -0.000002  -0.000007   0.000000  -0.000236   0.000000
    15  H   -0.001968   0.000094   0.000024   0.000000   0.002566   0.000001
    16  H    0.002655   0.000473   0.009629   0.000042  -0.005311   0.004666
    17  H   -0.017663   0.004786  -0.035942  -0.006532  -0.009831   0.000217
    18  H   -0.035215  -0.006663  -0.001563   0.000016   0.014198  -0.000013
    19  O    8.346025   0.225750   0.008883  -0.000249   0.053947   0.000018
    20  H    0.225750   0.372225   0.000450  -0.000029  -0.005134   0.000001
    21  O    0.008883   0.000450   8.308959   0.234090   0.035769   0.008109
    22  H   -0.000249  -0.000029   0.234090   0.368888  -0.001108  -0.000847
    23  C    0.053947  -0.005134   0.035769  -0.001108   6.292036   0.493164
    24  H    0.000018   0.000001   0.008109  -0.000847   0.493164   0.562576
    25  H    0.000087   0.000000  -0.000764   0.000072   0.418463  -0.045170
    26  O    0.001195  -0.000002  -0.003816   0.004442  -0.043829  -0.050188
    27  H   -0.000015   0.000000  -0.000022  -0.000269  -0.016079  -0.004596
             25         26         27
     1  C    0.000510   0.000547   0.000088
     2  C    0.004186   0.023082  -0.001725
     3  N   -0.009882   0.004028  -0.000781
     4  C   -0.005198   0.011940  -0.000910
     5  C    0.000981  -0.002238   0.000136
     6  C   -0.033349   0.125859   0.035561
     7  C    0.009745  -0.066532  -0.002643
     8  C   -0.006360   0.006107  -0.000637
     9  H   -0.000001  -0.000001   0.000000
    10  H    0.000000  -0.000002   0.000000
    11  H    0.000007  -0.000054   0.000000
    12  H   -0.000202   0.000002   0.000000
    13  H    0.001199  -0.000095   0.000004
    14  H    0.000001  -0.000003   0.000000
    15  H   -0.000006   0.000002   0.000000
    16  H   -0.007195   0.010216  -0.000259
    17  H   -0.000073   0.001021  -0.000024
    18  H    0.000003   0.000017   0.000000
    19  O    0.000087   0.001195  -0.000015
    20  H    0.000000  -0.000002   0.000000
    21  O   -0.000764  -0.003816  -0.000022
    22  H    0.000072   0.004442  -0.000269
    23  C    0.418463  -0.043829  -0.016079
    24  H   -0.045170  -0.050188  -0.004596
    25  H    0.564625  -0.048790  -0.004677
    26  O   -0.048790   8.381980   0.225843
    27  H   -0.004677   0.225843   0.374853
 Mulliken atomic charges:
              1
     1  C   -0.521212
     2  C    0.101184
     3  N   -0.091090
     4  C   -0.203961
     5  C   -0.277583
     6  C   -0.389601
     7  C   -0.105777
     8  C    0.049243
     9  H    0.173748
    10  H    0.179652
    11  H    0.166299
    12  H    0.160669
    13  H    0.160656
    14  H    0.166611
    15  H    0.181196
    16  H    0.173335
    17  H    0.168971
    18  H    0.168061
    19  O   -0.564674
    20  H    0.388055
    21  O   -0.568273
    22  H    0.386890
    23  C   -0.047181
    24  H    0.167573
    25  H    0.161787
    26  O   -0.580731
    27  H    0.396154
 Sum of Mulliken atomic charges =   0.00000
 Mulliken charges with hydrogens summed into heavy atoms:
              1
     1  C   -0.167812
     2  C    0.267483
     3  N   -0.091090
     4  C    0.117365
     5  C    0.070224
     6  C   -0.216266
     7  C    0.063193
     8  C    0.217304
    19  O   -0.176618
    21  O   -0.181383
    23  C    0.282179
    26  O   -0.184577
 Sum of Mulliken charges with hydrogens summed into heavy atoms =   0.00000
 Electronic spatial extent (au):  <R**2>=           2012.0237
 Charge=              0.0000 electrons
 Dipole moment (field-independent basis, Debye):
    X=             -1.6378    Y=             -0.7715    Z=              0.8511  Tot=              2.0005
 Quadrupole moment (field-independent basis, Debye-Ang):
   XX=            -63.2489   YY=            -66.7028   ZZ=            -77.6943
   XY=              3.3743   XZ=              0.1489   YZ=              3.8079
 Traceless Quadrupole moment (field-independent basis, Debye-Ang):
   XX=              5.9665   YY=              2.5125   ZZ=             -8.4790
   XY=              3.3743   XZ=              0.1489   YZ=              3.8079
 Octapole moment (field-independent basis, Debye-Ang**2):
  XXX=            -67.8193  YYY=              9.0608  ZZZ=             10.4743  XYY=            -10.4534
  XXY=            -21.8860  XXZ=            -19.6631  XZZ=              0.6375  YZZ=              8.9914
  YYZ=             17.3843  XYZ=             -6.1566
 Hexadecapole moment (field-independent basis, Debye-Ang**3):
 XXXX=          -1243.3427 YYYY=           -724.4153 ZZZZ=           -322.6194 XXXY=             72.0979
 XXXZ=             36.6863 YYYX=             36.3003 YYYZ=             38.4223 ZZZX=              3.0887
 ZZZY=             23.7232 XXYY=           -336.8358 XXZZ=           -319.7045 YYZZ=           -170.9620
 XXYZ=             -2.2074 YYXZ=             -9.8789 ZZXY=              0.5621
 N-N= 8.106969757842D+02 E-N=-3.008030965008D+03  KE= 5.886529895487D+02
 1\1\GINC-COMPUTE-3-2\SP\RmPW1PW91\6-31+G(d,p)\C8H15N1O3\MAMICHETTI.IQU
 IR\17-May-2024\0\\# mpw1pw91/6-31+G** nmr scrf=(pcm,solvent=water)\\co
 mment\\0,1\C,0,2.597953,0.025318,-0.441097\C,0,1.1602,0.438108,-0.8200
 6\N,0,0.307634,-0.78588,-0.635973\C,0,1.171951,-1.864179,-0.103279\C,0
 ,2.403528,-1.175,0.498349\C,0,-0.830894,-0.424641,0.237511\C,0,-0.9587
 ,1.105985,0.114597\C,0,0.509052,1.548931,0.025482\H,0,3.137789,-0.2876
 47,-1.342194\H,0,3.157907,0.845683,0.015585\H,0,1.117833,0.760423,-1.8
 66647\H,0,1.477621,-2.531816,-0.920292\H,0,0.617517,-2.472886,0.618102
 \H,0,3.277608,-1.833338,0.542559\H,0,2.185962,-0.830313,1.51494\H,0,-0
 .60923,-0.643371,1.294724\H,0,-1.454803,1.541957,0.989776\H,0,0.599279
 ,2.531243,-0.454602\O,0,1.094494,1.581974,1.331208\H,0,0.637369,2.2792
 43,1.831119\O,0,-1.616268,1.531696,-1.084096\H,0,-2.552943,1.287591,-0
 .996801\C,0,-2.088358,-1.19289,-0.147452\H,0,-2.347709,-0.983646,-1.19
 3548\H,0,-1.902992,-2.272718,-0.059162\O,0,-3.146241,-0.785513,0.73038
 1\H,0,-3.938901,-1.284285,0.473989\\Version=AM64L-G09RevC.01\State=1-A
 \HF=-594.1951894\RMSD=3.534e-09\Dipole=-0.644378,-0.3035247,0.3348403\
 Quadrupole=4.4359106,1.8679905,-6.3039011,2.5086906,0.110694,2.8311173
 \PG=C01 [X(C8H15N1O3)]\\@


 THE GREAT THING ABOUT BEING IMPERFECT IS THE JOY IT BRINGS OTHERS.
   -- SIGN OUTSIDE LAKE AGASSIZ JR. HIGH SCHOOL, FARGO, N.D.
 Job cpu time:  0 days  0 hours  8 minutes 43.1 seconds.
 File lengths (MBytes):  RWF=    112 Int=      0 D2E=      0 Chk=      7 Scr=      1
 Normal termination of Gaussian 09 at Fri May 17 12:31:47 2024.
