 Entering Gaussian System, Link 0=g09
 Input=/home/mamichetti.iquir/Linux/03_Cardona_A1A3_R__S_S_R_048_OptB.gjc
 Output=/home/mamichetti.iquir/Linux/03_Cardona_A1A3_R__S_S_R_048_OptB.log
 Initial command:
 /opt/ohpc/pub/apps/software/Gaussian/09/AMD64.SSE4a-enabled/g09/l1.exe /local/mamichetti.iquir/Gau-125376.inp -scrdir=/local/mamichetti.iquir/
 Entering Link 1 = /opt/ohpc/pub/apps/software/Gaussian/09/AMD64.SSE4a-enabled/g09/l1.exe PID=    125377.
  
 Copyright (c) 1988,1990,1992,1993,1995,1998,2003,2009,2011,
            Gaussian, Inc.  All Rights Reserved.
  
 This is part of the Gaussian(R) 09 program.  It is based on
 the Gaussian(R) 03 system (copyright 2003, Gaussian, Inc.),
 the Gaussian(R) 98 system (copyright 1998, Gaussian, Inc.),
 the Gaussian(R) 94 system (copyright 1995, Gaussian, Inc.),
 the Gaussian 92(TM) system (copyright 1992, Gaussian, Inc.),
 the Gaussian 90(TM) system (copyright 1990, Gaussian, Inc.),
 the Gaussian 88(TM) system (copyright 1988, Gaussian, Inc.),
 the Gaussian 86(TM) system (copyright 1986, Carnegie Mellon
 University), and the Gaussian 82(TM) system (copyright 1983,
 Carnegie Mellon University). Gaussian is a federally registered
 trademark of Gaussian, Inc.
  
 This software contains proprietary and confidential information,
 including trade secrets, belonging to Gaussian, Inc.
  
 This software is provided under written license and may be
 used, copied, transmitted, or stored only in accord with that
 written license.
  
 The following legend is applicable only to US Government
 contracts under FAR:
  
                    RESTRICTED RIGHTS LEGEND
  
 Use, reproduction and disclosure by the US Government is
 subject to restrictions as set forth in subparagraphs (a)
 and (c) of the Commercial Computer Software - Restricted
 Rights clause in FAR 52.227-19.
  
 Gaussian, Inc.
 340 Quinnipiac St., Bldg. 40, Wallingford CT 06492
  
  
 ---------------------------------------------------------------
 Warning -- This program may not be used in any manner that
 competes with the business of Gaussian, Inc. or will provide
 assistance to any competitor of Gaussian, Inc.  The licensee
 of this program is prohibited from giving any competitor of
 Gaussian, Inc. access to this program.  By using this program,
 the user acknowledges that Gaussian, Inc. is engaged in the
 business of creating and licensing software in the field of
 computational chemistry and represents and warrants to the
 licensee that it is not a competitor of Gaussian, Inc. and that
 it will not use this program in any manner prohibited above.
 ---------------------------------------------------------------
  

 Cite this work as:
 Gaussian 09, Revision C.01,
 M. J. Frisch, G. W. Trucks, H. B. Schlegel, G. E. Scuseria, 
 M. A. Robb, J. R. Cheeseman, G. Scalmani, V. Barone, B. Mennucci, 
 G. A. Petersson, H. Nakatsuji, M. Caricato, X. Li, H. P. Hratchian, 
 A. F. Izmaylov, J. Bloino, G. Zheng, J. L. Sonnenberg, M. Hada, 
 M. Ehara, K. Toyota, R. Fukuda, J. Hasegawa, M. Ishida, T. Nakajima, 
 Y. Honda, O. Kitao, H. Nakai, T. Vreven, J. A. Montgomery, Jr., 
 J. E. Peralta, F. Ogliaro, M. Bearpark, J. J. Heyd, E. Brothers, 
 K. N. Kudin, V. N. Staroverov, T. Keith, R. Kobayashi, J. Normand, 
 K. Raghavachari, A. Rendell, J. C. Burant, S. S. Iyengar, J. Tomasi, 
 M. Cossi, N. Rega, J. M. Millam, M. Klene, J. E. Knox, J. B. Cross, 
 V. Bakken, C. Adamo, J. Jaramillo, R. Gomperts, R. E. Stratmann, 
 O. Yazyev, A. J. Austin, R. Cammi, C. Pomelli, J. W. Ochterski, 
 R. L. Martin, K. Morokuma, V. G. Zakrzewski, G. A. Voth, 
 P. Salvador, J. J. Dannenberg, S. Dapprich, A. D. Daniels, 
 O. Farkas, J. B. Foresman, J. V. Ortiz, J. Cioslowski, 
 and D. J. Fox, Gaussian, Inc., Wallingford CT, 2010.
 
 ******************************************
 Gaussian 09:  AM64L-G09RevC.01 23-Sep-2011
                17-May-2024 
 ******************************************
 %nprocshared=4
 Will use up to    4 processors via shared memory.
 ------------------------------------------------
 # mpw1pw91/6-31+G** nmr scrf=(pcm,solvent=water)
 ------------------------------------------------
 1/38=1/1;
 2/12=2,17=6,18=5,40=1/2;
 3/5=1,6=6,7=111,11=2,16=1,25=1,30=1,70=2201,72=1,74=-7/1,2,8,3;
 4//1;
 5/5=2,38=5,53=1/2;
 8/6=1,10=90,11=11/1;
 10/13=100,45=16/2;
 6/7=2,8=2,9=2,10=2,28=1/1;
 99/9=1/99;
 -------
 comment
 -------
 Charge =  0 Multiplicity = 1
 Symbolic Z-Matrix:
 6                    -2.46573   0.2961   -0.43696 
 6                    -1.09906  -0.3564   -0.71257 
 7                    -0.06409   0.67526  -0.36504 
 6                    -0.75155   1.78178   0.32382 
 6                    -2.13935   1.79629  -0.31611 
 6                     1.02034   0.01759   0.39449 
 6                     0.81306  -1.49615   0.16409 
 6                    -0.71361  -1.61525   0.09366 
 1                    -3.19463   0.07678  -1.22231 
 1                    -2.88089  -0.06065   0.51183 
 1                    -1.00675  -0.613    -1.7755 
 1                    -0.21375   2.72775   0.19427 
 1                    -0.83288   1.59635   1.40947 
 1                    -2.09041   2.25984  -1.30862 
 1                    -2.87209   2.34858   0.28055 
 1                     0.89337   0.20214   1.47393 
 1                     1.2277   -2.09027   0.9864 
 1                    -1.01969  -2.54112  -0.40802 
 8                    -1.18058  -1.5982    1.44565 
 1                    -2.14192  -1.73356   1.42265 
 8                     1.32447  -1.96208  -1.09108 
 1                     2.29351  -1.96962  -1.0295 
 6                     2.41013   0.51793   0.01019 
 1                     3.16947  -0.04145   0.56859 
 1                     2.58697   0.36084  -1.0615 
 8                     2.61169   1.89578   0.34911 
 1                     2.04054   2.41529  -0.24005 
 
                          Input orientation:                          
 ---------------------------------------------------------------------
 Center     Atomic      Atomic             Coordinates (Angstroms)
 Number     Number       Type             X           Y           Z
 ---------------------------------------------------------------------
      1          6           0       -2.465726    0.296101   -0.436956
      2          6           0       -1.099059   -0.356398   -0.712565
      3          7           0       -0.064093    0.675258   -0.365044
      4          6           0       -0.751550    1.781779    0.323815
      5          6           0       -2.139348    1.796287   -0.316112
      6          6           0        1.020340    0.017593    0.394492
      7          6           0        0.813063   -1.496154    0.164086
      8          6           0       -0.713607   -1.615249    0.093664
      9          1           0       -3.194626    0.076778   -1.222312
     10          1           0       -2.880889   -0.060654    0.511825
     11          1           0       -1.006750   -0.612999   -1.775499
     12          1           0       -0.213745    2.727749    0.194274
     13          1           0       -0.832878    1.596350    1.409466
     14          1           0       -2.090412    2.259843   -1.308622
     15          1           0       -2.872094    2.348582    0.280552
     16          1           0        0.893365    0.202136    1.473930
     17          1           0        1.227695   -2.090266    0.986395
     18          1           0       -1.019689   -2.541123   -0.408016
     19          8           0       -1.180582   -1.598197    1.445651
     20          1           0       -2.141922   -1.733563    1.422647
     21          8           0        1.324469   -1.962079   -1.091083
     22          1           0        2.293507   -1.969619   -1.029502
     23          6           0        2.410132    0.517925    0.010187
     24          1           0        3.169466   -0.041451    0.568594
     25          1           0        2.586968    0.360837   -1.061500
     26          8           0        2.611694    1.895777    0.349114
     27          1           0        2.040536    2.415285   -0.240050
 ---------------------------------------------------------------------
                    Distance matrix (angstroms):
                    1          2          3          4          5
     1  C    0.000000
     2  C    1.539316   0.000000
     3  N    2.432442   1.502078   0.000000
     4  C    2.392574   2.401384   1.473605   0.000000
     5  C    1.540027   2.423516   2.359191   1.528300   0.000000
     6  C    3.594653   2.420185   1.478314   2.501388   3.694907
     7  C    3.784691   2.392440   2.400919   3.635708   4.448313
     8  C    2.646646   1.543789   2.424604   3.405027   3.720112
     9  H    1.093701   2.199746   3.300504   3.356510   2.211678
    10  H    1.095363   2.182089   3.040527   2.822055   2.164161
    11  H    2.178709   1.097358   2.130162   3.194872   3.035992
    12  H    3.373838   3.334382   2.132593   1.095844   2.199105
    13  H    2.786775   2.896048   2.142038   1.104371   2.173582
    14  H    2.181042   2.860556   2.739930   2.164705   1.096519
    15  H    2.211929   3.383320   3.331918   2.195414   1.094511
    16  H    3.865722   3.010394   2.126592   2.554170   3.865607
    17  H    4.621908   3.362521   3.338147   4.398767   5.304602
    18  H    3.184604   2.207277   3.355610   4.392603   4.480537
    19  O    2.963810   2.491306   3.113481   3.587035   3.942786
    20  H    2.771734   2.746503   3.649059   3.936775   3.934861
    21  O    4.460139   2.931719   3.067700   4.508688   5.169519
    22  H    5.304234   3.769938   3.604880   5.017651   5.860135
    23  C    4.901340   3.687985   2.507457   3.419345   4.736924
    24  H    5.734149   4.467758   3.441113   4.331103   5.687134
    25  H    5.091558   3.771336   2.758992   3.883797   4.995416
    26  O    5.381177   4.468685   3.026471   3.365271   4.798419
    27  H    4.983584   4.214564   2.733639   2.918050   4.226154
                    6          7          8          9         10
     6  C    0.000000
     7  C    1.545147   0.000000
     8  C    2.400675   1.532927   0.000000
     9  H    4.514809   4.523028   3.278750   0.000000
    10  H    3.903777   3.978299   2.699766   1.767640   0.000000
    11  H    3.035721   2.802440   2.141076   2.359790   3.008211
    12  H    2.984627   4.347022   4.372827   4.233204   3.871652
    13  H    2.637624   3.718020   3.472741   3.848793   2.783122
    14  H    4.195838   4.970568   4.344921   2.447961   3.053455
    15  H    4.538451   5.326907   4.517294   2.742940   2.420327
    16  H    1.102436   2.146236   2.791125   4.898684   3.903806
    17  H    2.199185   1.095938   2.188895   5.397350   4.607060
    18  H    3.369386   2.185919   1.096637   3.499548   3.234641
    19  O    2.925708   2.372223   1.430463   3.738976   2.475301
    20  H    3.758131   3.220602   1.954553   3.373622   2.043109
    21  O    2.493698   1.433203   2.382786   4.959474   4.885670
    22  H    2.756397   1.959729   3.229522   5.860420   5.726623
    23  C    1.526284   2.575040   3.783536   5.755604   5.346148
    24  H    2.156975   2.798647   4.216711   6.612336   6.050652
    25  H    2.166115   2.845561   4.016605   5.790801   5.705302
    26  O    2.462121   3.843762   4.842539   6.284225   5.832887
    27  H    2.681859   4.119390   4.893043   5.817248   5.560217
                   11         12         13         14         15
    11  H    0.000000
    12  H    3.958467   0.000000
    13  H    3.880136   1.772027   0.000000
    14  H    3.105724   2.449390   3.067510   0.000000
    15  H    4.059288   2.686639   2.449225   1.773239   0.000000
    16  H    3.851450   3.040055   2.219888   4.569429   4.495560
    17  H    3.847482   5.091019   4.244536   5.932991   6.083573
    18  H    2.363861   5.364076   4.522922   5.000681   5.273969
    19  O    3.372928   4.605923   3.213618   4.826830   4.449240
    20  H    3.573852   5.012990   3.578001   4.838365   4.301330
    21  O    2.779033   5.100268   4.854823   5.434460   6.170439
    22  H    3.645357   5.463443   5.332821   6.097951   6.859048
    23  C    4.017804   3.435395   3.692979   5.002842   5.596991
    24  H    4.823092   4.388018   4.405476   6.040382   6.503512
    25  H    3.791169   3.875982   4.396307   5.054224   5.962683
    26  O    4.888873   2.949451   3.616501   4.999043   5.502878
    27  H    4.562243   2.316906   3.412926   4.269747   4.940588
                   16         17         18         19         20
    16  H    0.000000
    17  H    2.367398   0.000000
    18  H    3.837573   2.682981   0.000000
    19  O    2.746499   2.500569   2.085924   0.000000
    20  H    3.600351   3.416412   2.294098   0.971096   0.000000
    21  O    3.383633   2.083678   2.509372   3.583673   4.287998
    22  H    3.597789   2.283495   3.419083   4.281779   5.073637
    23  C    2.131396   3.025525   4.614796   4.408147   5.271189
    24  H    2.461626   2.853537   4.975052   4.702723   5.639458
    25  H    3.053176   3.471225   4.675082   4.931334   5.737586
    26  O    2.662008   4.267332   5.783275   5.271774   6.076302
    27  H    3.025187   4.739712   5.827450   5.415277   6.121312
                   21         22         23         24         25
    21  O    0.000000
    22  H    0.971022   0.000000
    23  C    2.922649   2.698598   0.000000
    24  H    3.138049   2.653120   1.096042   0.000000
    25  H    2.643997   2.349078   1.097479   1.777174   0.000000
    26  O    4.314414   4.116201   1.433170   2.027840   2.084822
    27  H    4.516450   4.462579   1.949152   2.822045   2.279062
                   26         27
    26  O    0.000000
    27  H    0.971197   0.000000
 Stoichiometry    C8H15NO3
 Framework group  C1[X(C8H15NO3)]
 Deg. of freedom    75
 Full point group                 C1      NOp   1
 Largest Abelian subgroup         C1      NOp   1
 Largest concise Abelian subgroup C1      NOp   1
                         Standard orientation:                         
 ---------------------------------------------------------------------
 Center     Atomic      Atomic             Coordinates (Angstroms)
 Number     Number       Type             X           Y           Z
 ---------------------------------------------------------------------
      1          6           0       -2.465726    0.296100   -0.436956
      2          6           0       -1.099059   -0.356398   -0.712565
      3          7           0       -0.064093    0.675258   -0.365044
      4          6           0       -0.751551    1.781779    0.323815
      5          6           0       -2.139349    1.796286   -0.316112
      6          6           0        1.020340    0.017593    0.394492
      7          6           0        0.813063   -1.496154    0.164086
      8          6           0       -0.713607   -1.615249    0.093664
      9          1           0       -3.194626    0.076777   -1.222312
     10          1           0       -2.880889   -0.060655    0.511825
     11          1           0       -1.006750   -0.612999   -1.775499
     12          1           0       -0.213746    2.727749    0.194274
     13          1           0       -0.832878    1.596350    1.409466
     14          1           0       -2.090413    2.259842   -1.308622
     15          1           0       -2.872095    2.348581    0.280552
     16          1           0        0.893365    0.202136    1.473930
     17          1           0        1.227696   -2.090266    0.986395
     18          1           0       -1.019688   -2.541123   -0.408016
     19          8           0       -1.180582   -1.598197    1.445651
     20          1           0       -2.141921   -1.733564    1.422647
     21          8           0        1.324470   -1.962079   -1.091083
     22          1           0        2.293508   -1.969618   -1.029502
     23          6           0        2.410132    0.517926    0.010187
     24          1           0        3.169466   -0.041450    0.568594
     25          1           0        2.586968    0.360838   -1.061500
     26          8           0        2.611693    1.895778    0.349114
     27          1           0        2.040535    2.415286   -0.240050
 ---------------------------------------------------------------------
 Rotational constants (GHZ):      1.1543833      0.9041164      0.6130153
 Standard basis: 6-31+G(d,p) (6D, 7F)
 There are   303 symmetry adapted basis functions of A   symmetry.
 Integral buffers will be    131072 words long.
 Raffenetti 2 integral format.
 Two-electron integral symmetry is turned on.
   303 basis functions,   489 primitive gaussians,   303 cartesian basis functions
    47 alpha electrons       47 beta electrons
       nuclear repulsion energy       808.5312641430 Hartrees.
 NAtoms=   27 NActive=   27 NUniq=   27 SFac= 1.00D+00 NAtFMM=   60 NAOKFM=F Big=F
 ------------------------------------------------------------------------------
 Polarizable Continuum Model (PCM)
 =================================
 Model                : PCM.
 Atomic radii         : UFF (Universal Force Field).
 Polarization charges : Total charges.
 Charge compensation  : None.
 Solution method      : Matrix inversion.
 Cavity type          : Scaled VdW (van der Waals Surface) (Alpha=1.100).
 Cavity algorithm     : GePol (No added spheres)
                        Default sphere list used, NSphG=   27.
                        Lebedev-Laikov grids with approx.  5.0 points / Ang**2.
                        Smoothing algorithm: Karplus/York (Gamma=1.0000).
                        Polarization charges: spherical gaussians, with
                                              point-specific exponents (IZeta= 3).
                        Self-potential: point-specific (ISelfS= 7).
                        Self-field    : sphere-specific E.n sum rule (ISelfD= 2).
 Solvent              : Water, Eps=  78.355300 Eps(inf)=   1.777849
 ------------------------------------------------------------------------------
 One-electron integrals computed using PRISM.
 NBasis=   303 RedAO= T  NBF=   303
 NBsUse=   303 1.00D-06 NBFU=   303
 Harris functional with IExCor=  908 diagonalized for initial guess.
 ExpMin= 4.38D-02 ExpMax= 5.48D+03 ExpMxC= 8.25D+02 IAcc=2 IRadAn=         4 AccDes= 0.00D+00
 HarFok:  IExCor=  908 AccDes= 0.00D+00 IRadAn=         4 IDoV= 1
 ScaDFX=  1.000000  1.000000  1.000000  1.000000
 FoFCou: FMM=F IPFlag=           0 FMFlag=      100000 FMFlg1=           0
         NFxFlg=           0 DoJE=T BraDBF=F KetDBF=T FulRan=T
         Omega=  0.000000  0.000000  1.000000  0.000000  0.000000 ICntrl=     500 IOpCl=  0
         NMat0=    1 NMatS0=    1 NMatT0=    0 NMatD0=    1 NMtDS0=    0 NMtDT0=    0
         I1Cent=           4 NGrid=           0.
 Petite list used in FoFCou.
 Initial guess orbital symmetries:
       Occupied  (A) (A) (A) (A) (A) (A) (A) (A) (A) (A) (A) (A)
                 (A) (A) (A) (A) (A) (A) (A) (A) (A) (A) (A) (A)
                 (A) (A) (A) (A) (A) (A) (A) (A) (A) (A) (A) (A)
                 (A) (A) (A) (A) (A) (A) (A) (A) (A) (A) (A)
       Virtual   (A) (A) (A) (A) (A) (A) (A) (A) (A) (A) (A) (A)
                 (A) (A) (A) (A) (A) (A) (A) (A) (A) (A) (A) (A)
                 (A) (A) (A) (A) (A) (A) (A) (A) (A) (A) (A) (A)
                 (A) (A) (A) (A) (A) (A) (A) (A) (A) (A) (A) (A)
                 (A) (A) (A) (A) (A) (A) (A) (A) (A) (A) (A) (A)
                 (A) (A) (A) (A) (A) (A) (A) (A) (A) (A) (A) (A)
                 (A) (A) (A) (A) (A) (A) (A) (A) (A) (A) (A) (A)
                 (A) (A) (A) (A) (A) (A) (A) (A) (A) (A) (A) (A)
                 (A) (A) (A) (A) (A) (A) (A) (A) (A) (A) (A) (A)
                 (A) (A) (A) (A) (A) (A) (A) (A) (A) (A) (A) (A)
                 (A) (A) (A) (A) (A) (A) (A) (A) (A) (A) (A) (A)
                 (A) (A) (A) (A) (A) (A) (A) (A) (A) (A) (A) (A)
                 (A) (A) (A) (A) (A) (A) (A) (A) (A) (A) (A) (A)
                 (A) (A) (A) (A) (A) (A) (A) (A) (A) (A) (A) (A)
                 (A) (A) (A) (A) (A) (A) (A) (A) (A) (A) (A) (A)
                 (A) (A) (A) (A) (A) (A) (A) (A) (A) (A) (A) (A)
                 (A) (A) (A) (A) (A) (A) (A) (A) (A) (A) (A) (A)
                 (A) (A) (A) (A) (A) (A) (A) (A) (A) (A) (A) (A)
                 (A) (A) (A) (A) (A) (A) (A) (A) (A) (A) (A) (A)
                 (A) (A) (A) (A) (A) (A) (A) (A) (A) (A) (A) (A)
                 (A) (A) (A) (A) (A) (A) (A) (A) (A) (A) (A) (A)
                 (A) (A) (A) (A)
 The electronic state of the initial guess is 1-A.
 Requested convergence on RMS density matrix=1.00D-08 within 128 cycles.
 Requested convergence on MAX density matrix=1.00D-06.
 Requested convergence on             energy=1.00D-06.
 No special actions if energy rises.
 Error on total polarization charges =  0.01431
 SCF Done:  E(RmPW1PW91) =  -594.194669041     A.U. after   13 cycles
             Convg  =    0.5655D-08             -V/T =  2.0094
 Range of M.O.s used for correlation:     1   303
 NBasis=   303 NAE=    47 NBE=    47 NFC=     0 NFV=     0
 NROrb=    303 NOA=    47 NOB=    47 NVA=   256 NVB=   256

 **** Warning!!: The largest alpha MO coefficient is  0.75217838D+02

 NEqPCM:  Using equilibrium solvation (IEInf=0, Eps=  78.3553, EpsInf=   1.7778)
          Differentiating once with respect to magnetic field using GIAOs.
          Electric field/nuclear overlap derivatives assumed to be zero.
 FoFCou: FMM=F IPFlag=           0 FMFlag=    10101102 FMFlg1=           0
         NFxFlg=    40000000 DoJE=F BraDBF=F KetDBF=T FulRan=T
         Omega=  0.000000  0.000000  1.000000  0.000000  0.000000 ICntrl=    6100 IOpCl=  0
         NMat0=    1 NMatS0=    1 NMatT0=    0 NMatD0=    1 NMtDS0=    0 NMtDT0=    0
         I1Cent=           7 NGrid=        1827.
 Symmetry not used in FoFCou.
          There are     3 degrees of freedom in the 1st order CPHF.  IDoFFX=0.
      3 vectors produced by pass  0 Test12= 4.01D-13 3.33D-08 XBig12= 4.20D+01 1.14D+00.
 AX will form     3 AO Fock derivatives at one time.
      3 vectors produced by pass  1 Test12= 4.01D-13 3.33D-08 XBig12= 9.67D-02 3.80D-02.
      3 vectors produced by pass  2 Test12= 4.01D-13 3.33D-08 XBig12= 1.97D-04 3.22D-03.
      3 vectors produced by pass  3 Test12= 4.01D-13 3.33D-08 XBig12= 8.21D-07 1.96D-04.
      3 vectors produced by pass  4 Test12= 4.01D-13 3.33D-08 XBig12= 2.53D-09 9.74D-06.
      3 vectors produced by pass  5 Test12= 4.01D-13 3.33D-08 XBig12= 7.79D-12 5.44D-07.
      1 vectors produced by pass  6 Test12= 4.01D-13 3.33D-08 XBig12= 3.05D-14 3.51D-08.
 Inverted reduced A of dimension    19 with in-core refinement.
 Calculating GIAO nuclear magnetic shielding tensors.
 SCF GIAO Magnetic shielding tensor (ppm):
      1  C    Isotropic =   171.7609   Anisotropy =    19.8464
   XX=   179.5661   YX=    -3.6222   ZX=     3.1562
   XY=     5.2300   YY=   183.2041   ZY=    10.2937
   XZ=     1.3140   YZ=     3.5572   ZZ=   152.5124
   Eigenvalues:   150.8801   179.4107   184.9918
      2  C    Isotropic =   124.9558   Anisotropy =    58.5646
   XX=   142.2897   YX=    17.3292   ZX=     9.6077
   XY=    20.0249   YY=   147.1057   ZY=     1.3954
   XZ=    11.4615   YZ=    -3.9609   ZZ=    85.4718
   Eigenvalues:    83.2257   127.6428   163.9988
      3  N    Isotropic =   187.3996   Anisotropy =    93.5075
   XX=   234.4191   YX=    -9.8429   ZX=    35.5550
   XY=   -15.4760   YY=   197.6951   ZY=     7.1740
   XZ=    45.8216   YZ=    16.1858   ZZ=   130.0846
   Eigenvalues:   113.3517   199.1092   249.7380
      4  C    Isotropic =   136.0777   Anisotropy =    55.5980
   XX=   138.4684   YX=   -21.4787   ZX=    -6.3333
   XY=   -29.9404   YY=   145.2240   ZY=    13.6229
   XZ=    -1.0112   YZ=    22.2599   ZZ=   124.5409
   Eigenvalues:   108.7577   126.3325   173.1431
      5  C    Isotropic =   163.1017   Anisotropy =    27.4536
   XX=   177.5662   YX=    -2.0468   ZX=     8.8112
   XY=    -1.9707   YY=   175.2461   ZY=    12.0420
   XZ=    17.3821   YZ=     3.7830   ZZ=   136.4928
   Eigenvalues:   131.1623   176.7387   181.4041
      6  C    Isotropic =   123.8129   Anisotropy =    34.7438
   XX=   132.4694   YX=    -9.5181   ZX=     9.1613
   XY=   -17.3176   YY=   125.9184   ZY=   -10.9174
   XZ=    10.7061   YZ=    -1.3318   ZZ=   113.0509
   Eigenvalues:   108.8487   115.6145   146.9754
      7  C    Isotropic =   111.2614   Anisotropy =    25.6982
   XX=   117.9331   YX=    -4.5545   ZX=   -12.0840
   XY=     3.9806   YY=   111.3295   ZY=    -0.2395
   XZ=   -17.1822   YZ=    14.6710   ZZ=   104.5216
   Eigenvalues:    93.1500   112.2407   128.3935
      8  C    Isotropic =   117.6996   Anisotropy =    32.5244
   XX=   116.6611   YX=    -0.7128   ZX=   -17.1265
   XY=    -7.5127   YY=   109.4979   ZY=     6.6344
   XZ=   -16.2007   YZ=    -7.5812   ZZ=   126.9397
   Eigenvalues:   102.4917   111.2245   139.3825
      9  H    Isotropic =    29.8902   Anisotropy =    11.7634
   XX=    33.1264   YX=     1.0459   ZX=     5.8034
   XY=     2.2196   YY=    27.3070   ZY=     2.2622
   XZ=     5.5759   YZ=     1.3059   ZZ=    29.2372
   Eigenvalues:    25.0305    26.9077    37.7325
     10  H    Isotropic =    30.0526   Anisotropy =     7.4867
   XX=    31.5370   YX=     0.2149   ZX=    -3.3440
   XY=     0.0849   YY=    29.5929   ZY=    -3.7682
   XZ=    -3.6478   YZ=    -3.3567   ZZ=    29.0281
   Eigenvalues:    24.7316    30.3826    35.0438
     11  H    Isotropic =    27.5486   Anisotropy =     7.4697
   XX=    26.3780   YX=     0.0778   ZX=     1.4563
   XY=    -0.2888   YY=    25.4062   ZY=     3.6593
   XZ=     1.5710   YZ=     2.4641   ZZ=    30.8616
   Eigenvalues:    23.8155    26.3019    32.5284
     12  H    Isotropic =    28.4637   Anisotropy =     8.6095
   XX=    28.6562   YX=     0.8493   ZX=     0.1290
   XY=     1.8710   YY=    33.7085   ZY=     0.9330
   XZ=    -0.0649   YZ=     1.7374   ZZ=    23.0265
   Eigenvalues:    22.8589    28.3289    34.2034
     13  H    Isotropic =    29.0259   Anisotropy =     7.6169
   XX=    27.2089   YX=    -1.1158   ZX=    -1.3779
   XY=    -1.2142   YY=    27.9387   ZY=     3.6914
   XZ=    -0.1424   YZ=     3.1153   ZZ=    31.9301
   Eigenvalues:    25.6885    27.2854    34.1039
     14  H    Isotropic =    29.3205   Anisotropy =    10.5514
   XX=    26.7936   YX=    -0.7158   ZX=     2.2979
   XY=    -1.0952   YY=    31.0218   ZY=    -5.2506
   XZ=     2.3855   YZ=    -5.1813   ZZ=    30.1460
   Eigenvalues:    24.6288    26.9779    36.3547
     15  H    Isotropic =    29.4427   Anisotropy =    11.6443
   XX=    31.4706   YX=    -4.4856   ZX=    -2.3921
   XY=    -5.1941   YY=    31.1339   ZY=     2.7007
   XZ=    -2.3223   YZ=     2.4623   ZZ=    25.7237
   Eigenvalues:    24.6394    26.4833    37.2056
     16  H    Isotropic =    28.6487   Anisotropy =     5.2195
   XX=    28.9358   YX=     0.4253   ZX=     2.0829
   XY=     1.7401   YY=    26.6027   ZY=    -1.5008
   XZ=     2.5560   YZ=     0.7862   ZZ=    30.4075
   Eigenvalues:    25.7777    28.0400    32.1283
     17  H    Isotropic =    27.0210   Anisotropy =     5.1750
   XX=    25.4470   YX=    -2.1881   ZX=    -0.4562
   XY=    -2.8333   YY=    27.7228   ZY=    -1.7075
   XZ=    -0.1729   YZ=    -2.5161   ZZ=    27.8931
   Eigenvalues:    23.3464    27.2455    30.4709
     18  H    Isotropic =    27.6762   Anisotropy =     6.9925
   XX=    24.6853   YX=     1.2592   ZX=    -1.2089
   XY=     1.8800   YY=    31.0726   ZY=     1.7798
   XZ=    -1.5415   YZ=     3.0491   ZZ=    27.2708
   Eigenvalues:    23.2939    27.3969    32.3379
     19  O    Isotropic =   293.8375   Anisotropy =    45.2848
   XX=   319.6308   YX=     4.4779   ZX=    15.5296
   XY=    -0.5274   YY=   277.1110   ZY=     6.6855
   XZ=    10.3896   YZ=    -4.3844   ZZ=   284.7708
   Eigenvalues:   276.9417   280.5435   324.0274
     20  H    Isotropic =    29.9781   Anisotropy =    19.0025
   XX=    40.9334   YX=     3.6733   ZX=    -3.8644
   XY=     3.0286   YY=    22.8116   ZY=    -4.4372
   XZ=    -3.4885   YZ=    -2.5116   ZZ=    26.1893
   Eigenvalues:    20.5914    26.6964    42.6465
     21  O    Isotropic =   300.5363   Anisotropy =    57.5997
   XX=   338.3655   YX=    -3.7063   ZX=    -5.6307
   XY=    15.2291   YY=   278.1137   ZY=     0.3213
   XZ=     2.1782   YZ=    11.8630   ZZ=   285.1297
   Eigenvalues:   274.0581   288.6146   338.9360
     22  H    Isotropic =    30.4040   Anisotropy =    18.7297
   XX=    42.0790   YX=    -2.2875   ZX=    -1.9947
   XY=    -2.1705   YY=    24.5860   ZY=     4.1698
   XZ=    -3.2381   YZ=     3.4247   ZZ=    24.5469
   Eigenvalues:    20.7650    27.5564    42.8904
     23  C    Isotropic =   128.6541   Anisotropy =    47.2837
   XX=   124.8492   YX=     2.9480   ZX=    -4.7929
   XY=    13.9583   YY=   155.3422   ZY=    15.0688
   XZ=    -2.8434   YZ=    11.4008   ZZ=   105.7709
   Eigenvalues:   101.0130   124.7727   160.1766
     24  H    Isotropic =    27.8505   Anisotropy =     6.3771
   XX=    31.1466   YX=    -0.2539   ZX=     2.1986
   XY=    -1.7645   YY=    29.5139   ZY=    -0.6790
   XZ=     2.1792   YZ=     0.2497   ZZ=    22.8911
   Eigenvalues:    22.3465    29.1032    32.1020
     25  H    Isotropic =    27.7861   Anisotropy =     6.0810
   XX=    26.8261   YX=     2.4653   ZX=    -3.3748
   XY=     1.3064   YY=    29.7687   ZY=     4.4870
   XZ=    -3.3064   YZ=     1.9671   ZZ=    26.7636
   Eigenvalues:    21.7902    29.7281    31.8401
     26  O    Isotropic =   312.3930   Anisotropy =    47.3522
   XX=   315.5133   YX=   -25.6755   ZX=    11.2627
   XY=    -6.6420   YY=   314.1453   ZY=   -11.3566
   XZ=    24.4993   YZ=   -13.9414   ZZ=   307.5206
   Eigenvalues:   293.1891   300.0288   343.9612
     27  H    Isotropic =    30.3019   Anisotropy =    15.3657
   XX=    30.0436   YX=    -2.4325   ZX=     6.7903
   XY=    -3.1880   YY=    34.2872   ZY=    -5.9607
   XZ=     5.6925   YZ=    -5.7329   ZZ=    26.5749
   Eigenvalues:    21.0259    29.3341    40.5457
 End of Minotr Frequency-dependent properties file   721 does not exist.
 End of Minotr Frequency-dependent properties file   722 does not exist.

 **********************************************************************

            Population analysis using the SCF density.

 **********************************************************************

 Orbital symmetries:
       Occupied  (A) (A) (A) (A) (A) (A) (A) (A) (A) (A) (A) (A)
                 (A) (A) (A) (A) (A) (A) (A) (A) (A) (A) (A) (A)
                 (A) (A) (A) (A) (A) (A) (A) (A) (A) (A) (A) (A)
                 (A) (A) (A) (A) (A) (A) (A) (A) (A) (A) (A)
       Virtual   (A) (A) (A) (A) (A) (A) (A) (A) (A) (A) (A) (A)
                 (A) (A) (A) (A) (A) (A) (A) (A) (A) (A) (A) (A)
                 (A) (A) (A) (A) (A) (A) (A) (A) (A) (A) (A) (A)
                 (A) (A) (A) (A) (A) (A) (A) (A) (A) (A) (A) (A)
                 (A) (A) (A) (A) (A) (A) (A) (A) (A) (A) (A) (A)
                 (A) (A) (A) (A) (A) (A) (A) (A) (A) (A) (A) (A)
                 (A) (A) (A) (A) (A) (A) (A) (A) (A) (A) (A) (A)
                 (A) (A) (A) (A) (A) (A) (A) (A) (A) (A) (A) (A)
                 (A) (A) (A) (A) (A) (A) (A) (A) (A) (A) (A) (A)
                 (A) (A) (A) (A) (A) (A) (A) (A) (A) (A) (A) (A)
                 (A) (A) (A) (A) (A) (A) (A) (A) (A) (A) (A) (A)
                 (A) (A) (A) (A) (A) (A) (A) (A) (A) (A) (A) (A)
                 (A) (A) (A) (A) (A) (A) (A) (A) (A) (A) (A) (A)
                 (A) (A) (A) (A) (A) (A) (A) (A) (A) (A) (A) (A)
                 (A) (A) (A) (A) (A) (A) (A) (A) (A) (A) (A) (A)
                 (A) (A) (A) (A) (A) (A) (A) (A) (A) (A) (A) (A)
                 (A) (A) (A) (A) (A) (A) (A) (A) (A) (A) (A) (A)
                 (A) (A) (A) (A) (A) (A) (A) (A) (A) (A) (A) (A)
                 (A) (A) (A) (A) (A) (A) (A) (A) (A) (A) (A) (A)
                 (A) (A) (A) (A) (A) (A) (A) (A) (A) (A) (A) (A)
                 (A) (A) (A) (A) (A) (A) (A) (A) (A) (A) (A) (A)
                 (A) (A) (A) (A)
 The electronic state is 1-A.
 Alpha  occ. eigenvalues --  -19.26148 -19.26032 -19.25622 -14.41069 -10.30898
 Alpha  occ. eigenvalues --  -10.30499 -10.29577 -10.27790 -10.27642 -10.26868
 Alpha  occ. eigenvalues --  -10.24829 -10.24662  -1.07344  -1.05929  -1.05623
 Alpha  occ. eigenvalues --   -0.96090  -0.82923  -0.79140  -0.75324  -0.72448
 Alpha  occ. eigenvalues --   -0.66397  -0.60697  -0.60336  -0.57986  -0.56782
 Alpha  occ. eigenvalues --   -0.53521  -0.52520  -0.50062  -0.49310  -0.46506
 Alpha  occ. eigenvalues --   -0.45760  -0.44805  -0.43983  -0.42841  -0.40129
 Alpha  occ. eigenvalues --   -0.39516  -0.39036  -0.37444  -0.35895  -0.35696
 Alpha  occ. eigenvalues --   -0.34954  -0.34318  -0.33617  -0.30852  -0.30636
 Alpha  occ. eigenvalues --   -0.29092  -0.22909
 Alpha virt. eigenvalues --    0.00710   0.01046   0.01724   0.02455   0.03125
 Alpha virt. eigenvalues --    0.04257   0.04926   0.05254   0.05473   0.06862
 Alpha virt. eigenvalues --    0.07513   0.07818   0.08712   0.08849   0.10218
 Alpha virt. eigenvalues --    0.10381   0.11294   0.12040   0.12107   0.12425
 Alpha virt. eigenvalues --    0.13053   0.14042   0.14341   0.14505   0.15075
 Alpha virt. eigenvalues --    0.15808   0.16876   0.17547   0.18449   0.18906
 Alpha virt. eigenvalues --    0.19279   0.19844   0.20289   0.20572   0.21109
 Alpha virt. eigenvalues --    0.21437   0.21865   0.22189   0.23005   0.23541
 Alpha virt. eigenvalues --    0.24077   0.24370   0.24751   0.25421   0.26057
 Alpha virt. eigenvalues --    0.26189   0.27150   0.27194   0.27661   0.28685
 Alpha virt. eigenvalues --    0.29647   0.30308   0.30617   0.31770   0.31907
 Alpha virt. eigenvalues --    0.32278   0.32629   0.33605   0.33748   0.34456
 Alpha virt. eigenvalues --    0.35255   0.36161   0.36299   0.37555   0.38082
 Alpha virt. eigenvalues --    0.38696   0.39305   0.40255   0.40890   0.41582
 Alpha virt. eigenvalues --    0.42732   0.42892   0.44024   0.44898   0.45990
 Alpha virt. eigenvalues --    0.51042   0.63431   0.65793   0.67462   0.68301
 Alpha virt. eigenvalues --    0.69314   0.69842   0.72058   0.72494   0.74027
 Alpha virt. eigenvalues --    0.74960   0.76163   0.77886   0.80240   0.81400
 Alpha virt. eigenvalues --    0.82211   0.84566   0.87236   0.87964   0.89160
 Alpha virt. eigenvalues --    0.89907   0.92050   0.93318   0.94409   0.94981
 Alpha virt. eigenvalues --    0.97832   0.99432   1.01679   1.02289   1.04997
 Alpha virt. eigenvalues --    1.05811   1.06970   1.07868   1.08920   1.09438
 Alpha virt. eigenvalues --    1.10977   1.12255   1.13660   1.14050   1.16169
 Alpha virt. eigenvalues --    1.16957   1.18926   1.20036   1.22672   1.23897
 Alpha virt. eigenvalues --    1.26516   1.28043   1.31102   1.32080   1.34401
 Alpha virt. eigenvalues --    1.35127   1.37930   1.38730   1.40898   1.41717
 Alpha virt. eigenvalues --    1.42582   1.45932   1.47645   1.49061   1.51430
 Alpha virt. eigenvalues --    1.52596   1.53083   1.57441   1.60421   1.61142
 Alpha virt. eigenvalues --    1.63162   1.63365   1.64165   1.68477   1.70911
 Alpha virt. eigenvalues --    1.73141   1.74613   1.75844   1.77297   1.78457
 Alpha virt. eigenvalues --    1.80548   1.82078   1.83016   1.85850   1.87814
 Alpha virt. eigenvalues --    1.88212   1.89057   1.91630   1.94541   1.96791
 Alpha virt. eigenvalues --    1.98591   1.99002   2.02171   2.03100   2.04632
 Alpha virt. eigenvalues --    2.06131   2.07708   2.08721   2.09480   2.10839
 Alpha virt. eigenvalues --    2.11221   2.14857   2.16066   2.17373   2.18883
 Alpha virt. eigenvalues --    2.22443   2.25016   2.26142   2.27673   2.29649
 Alpha virt. eigenvalues --    2.30636   2.32098   2.32752   2.34508   2.38855
 Alpha virt. eigenvalues --    2.41316   2.43161   2.43278   2.45300   2.47506
 Alpha virt. eigenvalues --    2.48753   2.50353   2.51600   2.54182   2.55281
 Alpha virt. eigenvalues --    2.57149   2.57606   2.58676   2.60569   2.63353
 Alpha virt. eigenvalues --    2.65672   2.66013   2.68296   2.69625   2.70126
 Alpha virt. eigenvalues --    2.70711   2.73359   2.73942   2.77512   2.79135
 Alpha virt. eigenvalues --    2.80973   2.81111   2.81720   2.83417   2.84645
 Alpha virt. eigenvalues --    2.85741   2.87774   2.90146   2.91519   2.96163
 Alpha virt. eigenvalues --    2.97526   3.00357   3.00650   3.01990   3.03305
 Alpha virt. eigenvalues --    3.04960   3.09003   3.13541   3.16442   3.32389
 Alpha virt. eigenvalues --    3.34524   3.36108   3.37184   3.42962   3.44608
 Alpha virt. eigenvalues --    3.47848   3.50747   3.51927   3.54440   3.56126
 Alpha virt. eigenvalues --    3.56377   3.58521   3.58973   3.60354   4.31279
 Alpha virt. eigenvalues --    4.33163   4.37064   4.42318   4.49644   4.58241
 Alpha virt. eigenvalues --    4.58807   4.72099   4.77005   4.81739   4.91949
 Alpha virt. eigenvalues --    4.99429
          Condensed to atoms (all electrons):
              1          2          3          4          5          6
     1  C    6.154214  -1.158962   0.114501  -0.213736   0.219936   0.352314
     2  C   -1.158962  10.578803  -0.439290  -0.647829   0.517817  -1.398894
     3  N    0.114501  -0.439290   7.521425   0.273228  -0.196661  -0.064913
     4  C   -0.213736  -0.647829   0.273228   5.837548  -0.158447  -0.102955
     5  C    0.219936   0.517817  -0.196661  -0.158447   5.867088  -0.106765
     6  C    0.352314  -1.398894  -0.064913  -0.102955  -0.106765   9.625343
     7  C   -0.399672   1.361378  -0.304884   0.010353  -0.043375  -1.934008
     8  C    0.487565  -2.855704   0.217863   0.385342  -0.273836   0.996964
     9  H    0.417086  -0.109291   0.014666   0.031736  -0.041032   0.005796
    10  H    0.464971  -0.205260   0.030255   0.031020  -0.070644  -0.001302
    11  H    0.061961   0.118248  -0.002145   0.030368  -0.038959   0.033182
    12  H    0.033858   0.008012  -0.050481   0.380023  -0.027900  -0.004323
    13  H   -0.010977   0.020072  -0.097470   0.419670  -0.019904  -0.007660
    14  H   -0.026775  -0.052268   0.015880  -0.032327   0.406656   0.005304
    15  H   -0.079343   0.058382   0.005150  -0.012645   0.374019  -0.005980
    16  H   -0.012390   0.034203  -0.079987   0.015091   0.009571   0.281749
    17  H    0.012210  -0.035697   0.021545   0.003006   0.001430   0.066409
    18  H   -0.004600  -0.038606   0.017239   0.004291  -0.005580  -0.009818
    19  O    0.006871  -0.048851   0.010609   0.038613  -0.049009  -0.023974
    20  H    0.008213  -0.085621   0.000783   0.002586  -0.006265  -0.003366
    21  O    0.043699  -0.055669   0.032821   0.009241   0.001613  -0.074431
    22  H   -0.004010   0.002298  -0.004788  -0.001271  -0.000715  -0.084055
    23  C   -0.025976   0.331676   0.097123  -0.094440   0.020047  -1.210582
    24  H   -0.000856   0.018215   0.009410  -0.005005   0.001050  -0.179846
    25  H    0.001856   0.005853   0.009157   0.010469   0.002590  -0.097105
    26  O   -0.005226   0.055381   0.030062  -0.019753   0.016371  -0.174954
    27  H   -0.002416   0.014225   0.024127  -0.002167   0.007382  -0.100742
              7          8          9         10         11         12
     1  C   -0.399672   0.487565   0.417086   0.464971   0.061961   0.033858
     2  C    1.361378  -2.855704  -0.109291  -0.205260   0.118248   0.008012
     3  N   -0.304884   0.217863   0.014666   0.030255  -0.002145  -0.050481
     4  C    0.010353   0.385342   0.031736   0.031020   0.030368   0.380023
     5  C   -0.043375  -0.273836  -0.041032  -0.070644  -0.038959  -0.027900
     6  C   -1.934008   0.996964   0.005796  -0.001302   0.033182  -0.004323
     7  C    8.221190  -1.483547  -0.012645  -0.014506  -0.047441  -0.004465
     8  C   -1.483547   8.235028   0.038346   0.071859   0.103314  -0.006973
     9  H   -0.012645   0.038346   0.512626  -0.025691  -0.004851  -0.000112
    10  H   -0.014506   0.071859  -0.025691   0.555720   0.004332  -0.000041
    11  H   -0.047441   0.103314  -0.004851   0.004332   0.560789   0.000110
    12  H   -0.004465  -0.006973  -0.000112  -0.000041   0.000110   0.559818
    13  H    0.013640  -0.006144  -0.000141   0.001357  -0.000526  -0.044161
    14  H   -0.004086   0.017882  -0.005383   0.004252   0.000622  -0.005803
    15  H    0.004650  -0.005285   0.000758  -0.006002  -0.000119   0.000466
    16  H    0.051826  -0.023645  -0.000003  -0.000020  -0.000561  -0.001426
    17  H    0.177380   0.107576   0.000003  -0.000015  -0.000032   0.000004
    18  H    0.047372   0.301490   0.000180   0.000328  -0.000713   0.000006
    19  O    0.014412   0.083816  -0.000691   0.006667   0.006903   0.000211
    20  H    0.000107   0.094021   0.000024   0.006553   0.000256  -0.000002
    21  O    0.114426  -0.025246   0.000039   0.000063   0.002764   0.000039
    22  H    0.098614  -0.009118   0.000000   0.000000   0.000016   0.000000
    23  C    0.206684  -0.385116   0.000039  -0.002712   0.004078   0.007412
    24  H    0.068021  -0.021078   0.000000   0.000000  -0.000013  -0.000052
    25  H   -0.030184  -0.014202   0.000000   0.000000  -0.000030   0.000027
    26  O    0.069356  -0.050764  -0.000002  -0.000001  -0.000113   0.000554
    27  H    0.009059  -0.004702   0.000000   0.000000  -0.000013   0.000240
             13         14         15         16         17         18
     1  C   -0.010977  -0.026775  -0.079343  -0.012390   0.012210  -0.004600
     2  C    0.020072  -0.052268   0.058382   0.034203  -0.035697  -0.038606
     3  N   -0.097470   0.015880   0.005150  -0.079987   0.021545   0.017239
     4  C    0.419670  -0.032327  -0.012645   0.015091   0.003006   0.004291
     5  C   -0.019904   0.406656   0.374019   0.009571   0.001430  -0.005580
     6  C   -0.007660   0.005304  -0.005980   0.281749   0.066409  -0.009818
     7  C    0.013640  -0.004086   0.004650   0.051826   0.177380   0.047372
     8  C   -0.006144   0.017882  -0.005285  -0.023645   0.107576   0.301490
     9  H   -0.000141  -0.005383   0.000758  -0.000003   0.000003   0.000180
    10  H    0.001357   0.004252  -0.006002  -0.000020  -0.000015   0.000328
    11  H   -0.000526   0.000622  -0.000119  -0.000561  -0.000032  -0.000713
    12  H   -0.044161  -0.005803   0.000466  -0.001426   0.000004   0.000006
    13  H    0.583174   0.003988  -0.003810   0.012660  -0.000066  -0.000040
    14  H    0.003988   0.518936  -0.024662  -0.000010   0.000000  -0.000001
    15  H   -0.003810  -0.024662   0.517114  -0.000003   0.000000   0.000002
    16  H    0.012660  -0.000010  -0.000003   0.572362  -0.003374  -0.000220
    17  H   -0.000066   0.000000   0.000000  -0.003374   0.549194  -0.002778
    18  H   -0.000040  -0.000001   0.000002  -0.000220  -0.002778   0.552692
    19  O    0.000749   0.000042   0.000338   0.003056  -0.004980  -0.036972
    20  H    0.000067   0.000005   0.000003  -0.000054   0.000205  -0.006205
    21  O   -0.000091  -0.000003  -0.000004   0.009042  -0.031776  -0.003158
    22  H    0.000001   0.000000   0.000000   0.000069  -0.007207   0.000149
    23  C   -0.015026  -0.001370   0.000780  -0.038337  -0.031322   0.013200
    24  H    0.000043   0.000000   0.000000  -0.002506   0.000593  -0.000001
    25  H   -0.000005  -0.000001   0.000000   0.004630   0.000066  -0.000004
    26  O   -0.000589  -0.000043   0.000010   0.001788  -0.000896   0.000028
    27  H    0.000170  -0.000003   0.000000   0.000146   0.000005   0.000000
             19         20         21         22         23         24
     1  C    0.006871   0.008213   0.043699  -0.004010  -0.025976  -0.000856
     2  C   -0.048851  -0.085621  -0.055669   0.002298   0.331676   0.018215
     3  N    0.010609   0.000783   0.032821  -0.004788   0.097123   0.009410
     4  C    0.038613   0.002586   0.009241  -0.001271  -0.094440  -0.005005
     5  C   -0.049009  -0.006265   0.001613  -0.000715   0.020047   0.001050
     6  C   -0.023974  -0.003366  -0.074431  -0.084055  -1.210582  -0.179846
     7  C    0.014412   0.000107   0.114426   0.098614   0.206684   0.068021
     8  C    0.083816   0.094021  -0.025246  -0.009118  -0.385116  -0.021078
     9  H   -0.000691   0.000024   0.000039   0.000000   0.000039   0.000000
    10  H    0.006667   0.006553   0.000063   0.000000  -0.002712   0.000000
    11  H    0.006903   0.000256   0.002764   0.000016   0.004078  -0.000013
    12  H    0.000211  -0.000002   0.000039   0.000000   0.007412  -0.000052
    13  H    0.000749   0.000067  -0.000091   0.000001  -0.015026   0.000043
    14  H    0.000042   0.000005  -0.000003   0.000000  -0.001370   0.000000
    15  H    0.000338   0.000003  -0.000004   0.000000   0.000780   0.000000
    16  H    0.003056  -0.000054   0.009042   0.000069  -0.038337  -0.002506
    17  H   -0.004980   0.000205  -0.031776  -0.007207  -0.031322   0.000593
    18  H   -0.036972  -0.006205  -0.003158   0.000149   0.013200  -0.000001
    19  O    8.283136   0.239967   0.009747  -0.000276   0.036773  -0.000089
    20  H    0.239967   0.372543  -0.000358   0.000008  -0.006566   0.000000
    21  O    0.009747  -0.000358   8.284068   0.236796   0.004253  -0.004159
    22  H   -0.000276   0.000008   0.236796   0.371342   0.015770   0.000102
    23  C    0.036773  -0.006566   0.004253   0.015770   6.170228   0.486754
    24  H   -0.000089   0.000000  -0.004159   0.000102   0.486754   0.546563
    25  H    0.000107   0.000000   0.010876  -0.001028   0.454132  -0.035198
    26  O    0.000475  -0.000012  -0.001936   0.000378   0.207019  -0.056941
    27  H   -0.000023   0.000000   0.000055   0.000000   0.047794   0.006502
             25         26         27
     1  C    0.001856  -0.005226  -0.002416
     2  C    0.005853   0.055381   0.014225
     3  N    0.009157   0.030062   0.024127
     4  C    0.010469  -0.019753  -0.002167
     5  C    0.002590   0.016371   0.007382
     6  C   -0.097105  -0.174954  -0.100742
     7  C   -0.030184   0.069356   0.009059
     8  C   -0.014202  -0.050764  -0.004702
     9  H    0.000000  -0.000002   0.000000
    10  H    0.000000  -0.000001   0.000000
    11  H   -0.000030  -0.000113  -0.000013
    12  H    0.000027   0.000554   0.000240
    13  H   -0.000005  -0.000589   0.000170
    14  H   -0.000001  -0.000043  -0.000003
    15  H    0.000000   0.000010   0.000000
    16  H    0.004630   0.001788   0.000146
    17  H    0.000066  -0.000896   0.000005
    18  H   -0.000004   0.000028   0.000000
    19  O    0.000107   0.000475  -0.000023
    20  H    0.000000  -0.000012   0.000000
    21  O    0.010876  -0.001936   0.000055
    22  H   -0.001028   0.000378   0.000000
    23  C    0.454132   0.207019   0.047794
    24  H   -0.035198  -0.056941   0.006502
    25  H    0.557045  -0.041011  -0.007093
    26  O   -0.041011   8.259405   0.258911
    27  H   -0.007093   0.258911   0.372414
 Mulliken atomic charges:
              1
     1  C   -0.434315
     2  C    0.007381
     3  N   -0.205225
     4  C   -0.192009
     5  C   -0.406477
     6  C    0.218613
     7  C   -0.189656
     8  C    0.024295
     9  H    0.178546
    10  H    0.148817
    11  H    0.168571
    12  H    0.154960
    13  H    0.151021
    14  H    0.179169
    15  H    0.176179
    16  H    0.166340
    17  H    0.178518
    18  H    0.171722
    19  O   -0.577628
    20  H    0.383105
    21  O   -0.562711
    22  H    0.386925
    23  C   -0.292317
    24  H    0.168491
    25  H    0.169053
    26  O   -0.547497
    27  H    0.376129
 Sum of Mulliken atomic charges =   0.00000
 Mulliken charges with hydrogens summed into heavy atoms:
              1
     1  C   -0.106952
     2  C    0.175953
     3  N   -0.205225
     4  C    0.113973
     5  C   -0.051129
     6  C    0.384953
     7  C   -0.011138
     8  C    0.196017
    19  O   -0.194523
    21  O   -0.175786
    23  C    0.045226
    26  O   -0.171368
 Sum of Mulliken charges with hydrogens summed into heavy atoms =   0.00000
 Electronic spatial extent (au):  <R**2>=           2015.6891
 Charge=              0.0000 electrons
 Dipole moment (field-independent basis, Debye):
    X=             -2.5670    Y=             -0.9961    Z=             -0.5312  Tot=              2.8043
 Quadrupole moment (field-independent basis, Debye-Ang):
   XX=            -65.4093   YY=            -73.5387   ZZ=            -78.9787
   XY=             -6.0859   XZ=             -2.6725   YZ=             -3.2271
 Traceless Quadrupole moment (field-independent basis, Debye-Ang):
   XX=              7.2330   YY=             -0.8965   ZZ=             -6.3365
   XY=             -6.0859   XZ=             -2.6725   YZ=             -3.2271
 Octapole moment (field-independent basis, Debye-Ang**2):
  XXX=            -16.3514  YYY=              4.9889  ZZZ=             -1.8181  XYY=            -10.2467
  XXY=            -43.5183  XXZ=             -5.7650  XZZ=             -0.9410  YZZ=              3.8008
  YYZ=             -3.2535  XYZ=             -7.5868
 Hexadecapole moment (field-independent basis, Debye-Ang**3):
 XXXX=          -1297.2262 YYYY=           -958.6329 ZZZZ=           -319.6277 XXXY=            -76.3724
 XXXZ=            -64.0333 YYYX=              8.3795 YYYZ=            -26.3622 ZZZX=             -6.6394
 ZZZY=              0.7941 XXYY=           -376.3978 XXZZ=           -251.2310 YYZZ=           -233.3177
 XXYZ=            -23.6739 YYXZ=            -23.3298 ZZXY=              1.2066
 N-N= 8.085312641430D+02 E-N=-3.003127627212D+03  KE= 5.886590841205D+02
 1\1\GINC-COMPUTE-3-2\SP\RmPW1PW91\6-31+G(d,p)\C8H15N1O3\MAMICHETTI.IQU
 IR\17-May-2024\0\\# mpw1pw91/6-31+G** nmr scrf=(pcm,solvent=water)\\co
 mment\\0,1\C,0,-2.465726,0.296101,-0.436956\C,0,-1.099059,-0.356398,-0
 .712565\N,0,-0.064093,0.675258,-0.365044\C,0,-0.75155,1.781779,0.32381
 5\C,0,-2.139348,1.796287,-0.316112\C,0,1.02034,0.017593,0.394492\C,0,0
 .813063,-1.496154,0.164086\C,0,-0.713607,-1.615249,0.093664\H,0,-3.194
 626,0.076778,-1.222312\H,0,-2.880889,-0.060654,0.511825\H,0,-1.00675,-
 0.612999,-1.775499\H,0,-0.213745,2.727749,0.194274\H,0,-0.832878,1.596
 35,1.409466\H,0,-2.090412,2.259843,-1.308622\H,0,-2.872094,2.348582,0.
 280552\H,0,0.893365,0.202136,1.47393\H,0,1.227695,-2.090266,0.986395\H
 ,0,-1.019689,-2.541123,-0.408016\O,0,-1.180582,-1.598197,1.445651\H,0,
 -2.141922,-1.733563,1.422647\O,0,1.324469,-1.962079,-1.091083\H,0,2.29
 3507,-1.969619,-1.029502\C,0,2.410132,0.517925,0.010187\H,0,3.169466,-
 0.041451,0.568594\H,0,2.586968,0.360837,-1.0615\O,0,2.611694,1.895777,
 0.349114\H,0,2.040536,2.415285,-0.24005\\Version=AM64L-G09RevC.01\Stat
 e=1-A\HF=-594.194669\RMSD=5.655e-09\Dipole=-1.0099488,-0.3918931,-0.20
 89767\Quadrupole=5.3775382,-0.6665042,-4.711034,-4.5247294,-1.9869391,
 -2.3992425\PG=C01 [X(C8H15N1O3)]\\@


 THE ATTENTION SPAN OF A COMPUTER IS AS LONG
 AS ITS EXTENSION CORD.
 Job cpu time:  0 days  0 hours  9 minutes 11.1 seconds.
 File lengths (MBytes):  RWF=    113 Int=      0 D2E=      0 Chk=      7 Scr=      1
 Normal termination of Gaussian 09 at Fri May 17 12:26:30 2024.
