 Entering Gaussian System, Link 0=g09
 Input=/home/mamichetti.iquir/Linux/03_Cardona_A1A3_R__S_S_R_030_OptB.gjc
 Output=/home/mamichetti.iquir/Linux/03_Cardona_A1A3_R__S_S_R_030_OptB.log
 Initial command:
 /opt/ohpc/pub/apps/software/Gaussian/09/AMD64.SSE4a-enabled/g09/l1.exe /local/mamichetti.iquir/Gau-126498.inp -scrdir=/local/mamichetti.iquir/
 Entering Link 1 = /opt/ohpc/pub/apps/software/Gaussian/09/AMD64.SSE4a-enabled/g09/l1.exe PID=    126499.
  
 Copyright (c) 1988,1990,1992,1993,1995,1998,2003,2009,2011,
            Gaussian, Inc.  All Rights Reserved.
  
 This is part of the Gaussian(R) 09 program.  It is based on
 the Gaussian(R) 03 system (copyright 2003, Gaussian, Inc.),
 the Gaussian(R) 98 system (copyright 1998, Gaussian, Inc.),
 the Gaussian(R) 94 system (copyright 1995, Gaussian, Inc.),
 the Gaussian 92(TM) system (copyright 1992, Gaussian, Inc.),
 the Gaussian 90(TM) system (copyright 1990, Gaussian, Inc.),
 the Gaussian 88(TM) system (copyright 1988, Gaussian, Inc.),
 the Gaussian 86(TM) system (copyright 1986, Carnegie Mellon
 University), and the Gaussian 82(TM) system (copyright 1983,
 Carnegie Mellon University). Gaussian is a federally registered
 trademark of Gaussian, Inc.
  
 This software contains proprietary and confidential information,
 including trade secrets, belonging to Gaussian, Inc.
  
 This software is provided under written license and may be
 used, copied, transmitted, or stored only in accord with that
 written license.
  
 The following legend is applicable only to US Government
 contracts under FAR:
  
                    RESTRICTED RIGHTS LEGEND
  
 Use, reproduction and disclosure by the US Government is
 subject to restrictions as set forth in subparagraphs (a)
 and (c) of the Commercial Computer Software - Restricted
 Rights clause in FAR 52.227-19.
  
 Gaussian, Inc.
 340 Quinnipiac St., Bldg. 40, Wallingford CT 06492
  
  
 ---------------------------------------------------------------
 Warning -- This program may not be used in any manner that
 competes with the business of Gaussian, Inc. or will provide
 assistance to any competitor of Gaussian, Inc.  The licensee
 of this program is prohibited from giving any competitor of
 Gaussian, Inc. access to this program.  By using this program,
 the user acknowledges that Gaussian, Inc. is engaged in the
 business of creating and licensing software in the field of
 computational chemistry and represents and warrants to the
 licensee that it is not a competitor of Gaussian, Inc. and that
 it will not use this program in any manner prohibited above.
 ---------------------------------------------------------------
  

 Cite this work as:
 Gaussian 09, Revision C.01,
 M. J. Frisch, G. W. Trucks, H. B. Schlegel, G. E. Scuseria, 
 M. A. Robb, J. R. Cheeseman, G. Scalmani, V. Barone, B. Mennucci, 
 G. A. Petersson, H. Nakatsuji, M. Caricato, X. Li, H. P. Hratchian, 
 A. F. Izmaylov, J. Bloino, G. Zheng, J. L. Sonnenberg, M. Hada, 
 M. Ehara, K. Toyota, R. Fukuda, J. Hasegawa, M. Ishida, T. Nakajima, 
 Y. Honda, O. Kitao, H. Nakai, T. Vreven, J. A. Montgomery, Jr., 
 J. E. Peralta, F. Ogliaro, M. Bearpark, J. J. Heyd, E. Brothers, 
 K. N. Kudin, V. N. Staroverov, T. Keith, R. Kobayashi, J. Normand, 
 K. Raghavachari, A. Rendell, J. C. Burant, S. S. Iyengar, J. Tomasi, 
 M. Cossi, N. Rega, J. M. Millam, M. Klene, J. E. Knox, J. B. Cross, 
 V. Bakken, C. Adamo, J. Jaramillo, R. Gomperts, R. E. Stratmann, 
 O. Yazyev, A. J. Austin, R. Cammi, C. Pomelli, J. W. Ochterski, 
 R. L. Martin, K. Morokuma, V. G. Zakrzewski, G. A. Voth, 
 P. Salvador, J. J. Dannenberg, S. Dapprich, A. D. Daniels, 
 O. Farkas, J. B. Foresman, J. V. Ortiz, J. Cioslowski, 
 and D. J. Fox, Gaussian, Inc., Wallingford CT, 2010.
 
 ******************************************
 Gaussian 09:  AM64L-G09RevC.01 23-Sep-2011
                17-May-2024 
 ******************************************
 %nprocshared=4
 Will use up to    4 processors via shared memory.
 ------------------------------------------------
 # mpw1pw91/6-31+G** nmr scrf=(pcm,solvent=water)
 ------------------------------------------------
 1/38=1/1;
 2/12=2,17=6,18=5,40=1/2;
 3/5=1,6=6,7=111,11=2,16=1,25=1,30=1,70=2201,72=1,74=-7/1,2,8,3;
 4//1;
 5/5=2,38=5,53=1/2;
 8/6=1,10=90,11=11/1;
 10/13=100,45=16/2;
 6/7=2,8=2,9=2,10=2,28=1/1;
 99/9=1/99;
 -------
 comment
 -------
 Charge =  0 Multiplicity = 1
 Symbolic Z-Matrix:
 6                     2.18006  -0.9311    0.03111 
 6                     1.07143  -0.2825   -0.85645 
 7                    -0.22333  -0.94259  -0.49694 
 6                     0.16086  -2.23848   0.09893 
 6                     1.43912  -1.96674   0.90427 
 6                    -0.97144  -0.04603   0.43941 
 6                    -0.07455   1.19848   0.63959 
 6                     0.80355   1.20519  -0.61495 
 1                     2.9223   -1.42083  -0.6075 
 1                     2.70927  -0.18653   0.63135 
 1                     1.29389  -0.46587  -1.91226 
 1                     0.37166  -2.9475   -0.71224 
 1                    -0.66628  -2.64501   0.68658 
 1                     2.02798  -2.87179   1.08518 
 1                     1.1806   -1.53669   1.87962 
 1                    -1.13402  -0.55792   1.39476 
 1                     0.56671   1.04891   1.51393 
 1                     0.20673   1.60428  -1.45047 
 8                     2.00892   1.95128  -0.48899 
 1                     1.7474    2.86444  -0.28032 
 8                    -0.75086   2.43132   0.88689 
 1                    -1.21358   2.68836   0.07058 
 6                    -2.351     0.269    -0.14911 
 1                    -2.95856   0.8232    0.57219 
 1                    -2.25476   0.88536  -1.05651 
 8                    -3.05388  -0.93979  -0.44051 
 1                    -2.41778  -1.47362  -0.95221 
 
                          Input orientation:                          
 ---------------------------------------------------------------------
 Center     Atomic      Atomic             Coordinates (Angstroms)
 Number     Number       Type             X           Y           Z
 ---------------------------------------------------------------------
      1          6           0        2.180058   -0.931103    0.031109
      2          6           0        1.071434   -0.282498   -0.856454
      3          7           0       -0.223325   -0.942593   -0.496940
      4          6           0        0.160861   -2.238475    0.098934
      5          6           0        1.439121   -1.966741    0.904274
      6          6           0       -0.971435   -0.046033    0.439410
      7          6           0       -0.074545    1.198482    0.639585
      8          6           0        0.803547    1.205188   -0.614945
      9          1           0        2.922301   -1.420830   -0.607501
     10          1           0        2.709273   -0.186525    0.631349
     11          1           0        1.293891   -0.465870   -1.912261
     12          1           0        0.371660   -2.947500   -0.712238
     13          1           0       -0.666284   -2.645007    0.686580
     14          1           0        2.027979   -2.871789    1.085182
     15          1           0        1.180595   -1.536691    1.879615
     16          1           0       -1.134016   -0.557915    1.394755
     17          1           0        0.566712    1.048908    1.513927
     18          1           0        0.206733    1.604280   -1.450474
     19          8           0        2.008916    1.951275   -0.488989
     20          1           0        1.747395    2.864437   -0.280318
     21          8           0       -0.750860    2.431320    0.886889
     22          1           0       -1.213584    2.688364    0.070582
     23          6           0       -2.350995    0.268995   -0.149110
     24          1           0       -2.958559    0.823198    0.572187
     25          1           0       -2.254760    0.885358   -1.056514
     26          8           0       -3.053876   -0.939788   -0.440512
     27          1           0       -2.417783   -1.473621   -0.952213
 ---------------------------------------------------------------------
                    Distance matrix (angstroms):
                    1          2          3          4          5
     1  C    0.000000
     2  C    1.561251   0.000000
     3  N    2.460735   1.497123   0.000000
     4  C    2.406445   2.359609   1.477151   0.000000
     5  C    1.544005   2.464149   2.403332   1.535044   0.000000
     6  C    3.298783   2.430739   1.496743   2.490948   3.117050
     7  C    3.160476   2.396811   2.428585   3.487175   3.518506
     8  C    2.622195   1.530784   2.383559   3.575120   3.573949
     9  H    1.094797   2.187118   3.183692   2.965324   2.187077
    10  H    1.093048   2.214788   3.231842   3.314871   2.203847
    11  H    2.185960   1.094459   2.128930   2.910462   3.194773
    12  H    2.808687   2.759115   2.102383   1.097794   2.171284
    13  H    3.386558   3.313920   2.120176   1.093053   2.222648
    14  H    2.213698   3.374812   3.360547   2.204518   1.094803
    15  H    2.186924   3.011808   2.823466   2.168682   1.096845
    16  H    3.603038   3.163512   2.134443   2.485989   2.974289
    17  H    2.953316   2.765157   2.938336   3.601917   3.197955
    18  H    3.537975   2.158819   2.753314   4.143614   4.451495
    19  O    2.933921   2.450234   3.654782   4.616813   4.197225
    20  H    3.832794   3.269871   4.292335   5.357297   4.983831
    21  O    4.541864   3.704701   3.684639   4.822768   4.913172
    22  H    4.961744   3.860923   3.806119   5.115041   5.422351
    23  C    4.690752   3.538008   2.473037   3.557858   4.524722
    24  H    5.456713   4.416381   3.426741   4.396429   5.218585
    25  H    4.914272   3.530932   2.789490   4.114440   5.062007
    26  O    5.255147   4.198002   2.831115   3.508864   4.801052
    27  H    4.733011   3.688167   2.303239   2.887787   4.308761
                    6          7          8          9         10
     6  C    0.000000
     7  C    1.547029   0.000000
     8  C    2.414079   1.531318   0.000000
     9  H    4.259961   4.170984   3.374188   0.000000
    10  H    3.688386   3.109334   2.668690   1.761715   0.000000
    11  H    3.292161   3.339851   2.171613   2.294791   2.924259
    12  H    3.398339   4.383571   4.176220   2.974468   3.859099
    13  H    2.628474   3.889058   4.321848   4.006395   4.176310
    14  H    4.171139   4.602855   4.583820   2.402139   2.807271
    15  H    2.987890   3.254877   3.725976   3.038537   2.391228
    16  H    1.095965   2.185793   3.301754   4.605145   3.935936
    17  H    2.172413   1.094558   2.147699   4.018565   2.625987
    18  H    2.771872   2.147588   1.101622   4.151651   3.715330
    19  O    3.705895   2.486199   1.423174   3.495627   2.513135
    20  H    4.047330   2.634595   1.938023   4.455442   3.326367
    21  O    2.527087   1.427743   2.484972   5.528505   4.346370
    22  H    2.769765   1.959827   2.595877   5.869482   4.895738
    23  C    1.532574   2.582288   3.323341   5.556373   5.140324
    24  H    2.172983   2.909109   3.963413   6.404049   5.757374
    25  H    2.179954   2.779953   3.106528   5.685251   5.351583
    26  O    2.430971   3.822986   4.417133   5.997831   5.910176
    27  H    2.463036   3.894190   4.203181   5.351459   5.518241
                   11         12         13         14         15
    11  H    0.000000
    12  H    2.906725   0.000000
    13  H    3.917257   1.767914   0.000000
    14  H    3.913055   2.445372   2.733014   0.000000
    15  H    3.941804   3.059814   2.462247   1.769653   0.000000
    16  H    4.103603   3.523719   2.253051   3.930402   2.559398
    17  H    3.816033   4.578770   3.981180   4.206066   2.682518
    18  H    2.383418   4.614206   4.835866   5.457260   4.680128
    19  O    2.894746   5.169956   5.446510   5.073492   4.296779
    20  H    3.736288   5.988139   6.092184   5.903186   4.935231
    21  O    4.517738   5.722671   5.080981   5.990345   4.523399
    22  H    4.490912   5.906672   5.396651   6.515554   5.182257
    23  C    4.115085   4.251565   3.468146   5.528419   4.455149
    24  H    5.090924   5.192135   4.158853   6.227492   4.940753
    25  H    3.892434   4.659121   4.245599   6.086450   5.127264
    26  O    4.614512   3.979829   3.143041   5.646735   4.865185
    27  H    3.964061   3.164001   2.669370   5.086320   4.579471
                   16         17         18         19         20
    16  H    0.000000
    17  H    2.342767   0.000000
    18  H    3.816808   3.037383   0.000000
    19  O    4.441007   2.627906   2.071889   0.000000
    20  H    4.777122   2.812379   2.308874   0.972523   0.000000
    21  O    3.056184   2.010034   2.657865   3.120873   2.791279
    22  H    3.506864   2.817892   2.346519   3.352749   2.986893
    23  C    2.132683   3.447749   3.165202   4.685553   4.852869
    24  H    2.431676   3.655866   3.836707   5.203312   5.199945
    25  H    3.057421   3.820291   2.594417   4.431388   4.531719
    26  O    2.683262   4.569836   4.257215   5.830305   6.127805
    27  H    2.827514   4.620845   4.075515   5.616062   6.051355
                   21         22         23         24         25
    21  O    0.000000
    22  H    0.972904   0.000000
    23  C    2.882599   2.682408   0.000000
    24  H    2.749369   2.602958   1.093867   0.000000
    25  H    2.903193   2.367535   1.101157   1.775349   0.000000
    26  O    4.293046   4.100168   1.428325   2.035378   2.085474
    27  H    4.627039   4.451778   1.919934   2.809201   2.366905
                   26         27
    26  O    0.000000
    27  H    0.975413   0.000000
 Stoichiometry    C8H15NO3
 Framework group  C1[X(C8H15NO3)]
 Deg. of freedom    75
 Full point group                 C1      NOp   1
 Largest Abelian subgroup         C1      NOp   1
 Largest concise Abelian subgroup C1      NOp   1
                         Standard orientation:                         
 ---------------------------------------------------------------------
 Center     Atomic      Atomic             Coordinates (Angstroms)
 Number     Number       Type             X           Y           Z
 ---------------------------------------------------------------------
      1          6           0        2.180059   -0.931102    0.031109
      2          6           0        1.071434   -0.282497   -0.856454
      3          7           0       -0.223324   -0.942593   -0.496940
      4          6           0        0.160862   -2.238475    0.098934
      5          6           0        1.439122   -1.966740    0.904274
      6          6           0       -0.971435   -0.046033    0.439410
      7          6           0       -0.074546    1.198482    0.639585
      8          6           0        0.803546    1.205188   -0.614945
      9          1           0        2.922302   -1.420828   -0.607501
     10          1           0        2.709273   -0.186524    0.631349
     11          1           0        1.293891   -0.465869   -1.912261
     12          1           0        0.371662   -2.947500   -0.712238
     13          1           0       -0.666283   -2.645007    0.686580
     14          1           0        2.027981   -2.871788    1.085182
     15          1           0        1.180596   -1.536690    1.879615
     16          1           0       -1.134016   -0.557915    1.394755
     17          1           0        0.566712    1.048908    1.513927
     18          1           0        0.206732    1.604280   -1.450474
     19          8           0        2.008915    1.951276   -0.488989
     20          1           0        1.747394    2.864438   -0.280318
     21          8           0       -0.750861    2.431320    0.886889
     22          1           0       -1.213585    2.688363    0.070582
     23          6           0       -2.350995    0.268994   -0.149110
     24          1           0       -2.958559    0.823197    0.572187
     25          1           0       -2.254760    0.885357   -1.056514
     26          8           0       -3.053875   -0.939789   -0.440512
     27          1           0       -2.417782   -1.473622   -0.952213
 ---------------------------------------------------------------------
 Rotational constants (GHZ):      1.1015567      0.9557238      0.6000393
 Standard basis: 6-31+G(d,p) (6D, 7F)
 There are   303 symmetry adapted basis functions of A   symmetry.
 Integral buffers will be    131072 words long.
 Raffenetti 2 integral format.
 Two-electron integral symmetry is turned on.
   303 basis functions,   489 primitive gaussians,   303 cartesian basis functions
    47 alpha electrons       47 beta electrons
       nuclear repulsion energy       808.2596280759 Hartrees.
 NAtoms=   27 NActive=   27 NUniq=   27 SFac= 1.00D+00 NAtFMM=   60 NAOKFM=F Big=F
 ------------------------------------------------------------------------------
 Polarizable Continuum Model (PCM)
 =================================
 Model                : PCM.
 Atomic radii         : UFF (Universal Force Field).
 Polarization charges : Total charges.
 Charge compensation  : None.
 Solution method      : Matrix inversion.
 Cavity type          : Scaled VdW (van der Waals Surface) (Alpha=1.100).
 Cavity algorithm     : GePol (No added spheres)
                        Default sphere list used, NSphG=   27.
                        Lebedev-Laikov grids with approx.  5.0 points / Ang**2.
                        Smoothing algorithm: Karplus/York (Gamma=1.0000).
                        Polarization charges: spherical gaussians, with
                                              point-specific exponents (IZeta= 3).
                        Self-potential: point-specific (ISelfS= 7).
                        Self-field    : sphere-specific E.n sum rule (ISelfD= 2).
 Solvent              : Water, Eps=  78.355300 Eps(inf)=   1.777849
 ------------------------------------------------------------------------------
 One-electron integrals computed using PRISM.
 NBasis=   303 RedAO= T  NBF=   303
 NBsUse=   303 1.00D-06 NBFU=   303
 Harris functional with IExCor=  908 diagonalized for initial guess.
 ExpMin= 4.38D-02 ExpMax= 5.48D+03 ExpMxC= 8.25D+02 IAcc=2 IRadAn=         4 AccDes= 0.00D+00
 HarFok:  IExCor=  908 AccDes= 0.00D+00 IRadAn=         4 IDoV= 1
 ScaDFX=  1.000000  1.000000  1.000000  1.000000
 FoFCou: FMM=F IPFlag=           0 FMFlag=      100000 FMFlg1=           0
         NFxFlg=           0 DoJE=T BraDBF=F KetDBF=T FulRan=T
         Omega=  0.000000  0.000000  1.000000  0.000000  0.000000 ICntrl=     500 IOpCl=  0
         NMat0=    1 NMatS0=    1 NMatT0=    0 NMatD0=    1 NMtDS0=    0 NMtDT0=    0
         I1Cent=           4 NGrid=           0.
 Petite list used in FoFCou.
 Initial guess orbital symmetries:
       Occupied  (A) (A) (A) (A) (A) (A) (A) (A) (A) (A) (A) (A)
                 (A) (A) (A) (A) (A) (A) (A) (A) (A) (A) (A) (A)
                 (A) (A) (A) (A) (A) (A) (A) (A) (A) (A) (A) (A)
                 (A) (A) (A) (A) (A) (A) (A) (A) (A) (A) (A)
       Virtual   (A) (A) (A) (A) (A) (A) (A) (A) (A) (A) (A) (A)
                 (A) (A) (A) (A) (A) (A) (A) (A) (A) (A) (A) (A)
                 (A) (A) (A) (A) (A) (A) (A) (A) (A) (A) (A) (A)
                 (A) (A) (A) (A) (A) (A) (A) (A) (A) (A) (A) (A)
                 (A) (A) (A) (A) (A) (A) (A) (A) (A) (A) (A) (A)
                 (A) (A) (A) (A) (A) (A) (A) (A) (A) (A) (A) (A)
                 (A) (A) (A) (A) (A) (A) (A) (A) (A) (A) (A) (A)
                 (A) (A) (A) (A) (A) (A) (A) (A) (A) (A) (A) (A)
                 (A) (A) (A) (A) (A) (A) (A) (A) (A) (A) (A) (A)
                 (A) (A) (A) (A) (A) (A) (A) (A) (A) (A) (A) (A)
                 (A) (A) (A) (A) (A) (A) (A) (A) (A) (A) (A) (A)
                 (A) (A) (A) (A) (A) (A) (A) (A) (A) (A) (A) (A)
                 (A) (A) (A) (A) (A) (A) (A) (A) (A) (A) (A) (A)
                 (A) (A) (A) (A) (A) (A) (A) (A) (A) (A) (A) (A)
                 (A) (A) (A) (A) (A) (A) (A) (A) (A) (A) (A) (A)
                 (A) (A) (A) (A) (A) (A) (A) (A) (A) (A) (A) (A)
                 (A) (A) (A) (A) (A) (A) (A) (A) (A) (A) (A) (A)
                 (A) (A) (A) (A) (A) (A) (A) (A) (A) (A) (A) (A)
                 (A) (A) (A) (A) (A) (A) (A) (A) (A) (A) (A) (A)
                 (A) (A) (A) (A) (A) (A) (A) (A) (A) (A) (A) (A)
                 (A) (A) (A) (A) (A) (A) (A) (A) (A) (A) (A) (A)
                 (A) (A) (A) (A)
 The electronic state of the initial guess is 1-A.
 Requested convergence on RMS density matrix=1.00D-08 within 128 cycles.
 Requested convergence on MAX density matrix=1.00D-06.
 Requested convergence on             energy=1.00D-06.
 No special actions if energy rises.
 Error on total polarization charges =  0.01414
 SCF Done:  E(RmPW1PW91) =  -594.195019626     A.U. after   13 cycles
             Convg  =    0.3210D-08             -V/T =  2.0094
 Range of M.O.s used for correlation:     1   303
 NBasis=   303 NAE=    47 NBE=    47 NFC=     0 NFV=     0
 NROrb=    303 NOA=    47 NOB=    47 NVA=   256 NVB=   256

 **** Warning!!: The largest alpha MO coefficient is  0.66658355D+02

 NEqPCM:  Using equilibrium solvation (IEInf=0, Eps=  78.3553, EpsInf=   1.7778)
          Differentiating once with respect to magnetic field using GIAOs.
          Electric field/nuclear overlap derivatives assumed to be zero.
 FoFCou: FMM=F IPFlag=           0 FMFlag=    10101102 FMFlg1=           0
         NFxFlg=    40000000 DoJE=F BraDBF=F KetDBF=T FulRan=T
         Omega=  0.000000  0.000000  1.000000  0.000000  0.000000 ICntrl=    6100 IOpCl=  0
         NMat0=    1 NMatS0=    1 NMatT0=    0 NMatD0=    1 NMtDS0=    0 NMtDT0=    0
         I1Cent=           7 NGrid=        1819.
 Symmetry not used in FoFCou.
          There are     3 degrees of freedom in the 1st order CPHF.  IDoFFX=0.
      3 vectors produced by pass  0 Test12= 4.01D-13 3.33D-08 XBig12= 2.47D+01 8.66D-01.
 AX will form     3 AO Fock derivatives at one time.
      3 vectors produced by pass  1 Test12= 4.01D-13 3.33D-08 XBig12= 5.99D-02 3.63D-02.
      3 vectors produced by pass  2 Test12= 4.01D-13 3.33D-08 XBig12= 1.36D-04 2.37D-03.
      3 vectors produced by pass  3 Test12= 4.01D-13 3.33D-08 XBig12= 7.24D-07 1.68D-04.
      3 vectors produced by pass  4 Test12= 4.01D-13 3.33D-08 XBig12= 2.30D-09 8.00D-06.
      3 vectors produced by pass  5 Test12= 4.01D-13 3.33D-08 XBig12= 7.19D-12 4.62D-07.
 Inverted reduced A of dimension    18 with in-core refinement.
 Calculating GIAO nuclear magnetic shielding tensors.
 SCF GIAO Magnetic shielding tensor (ppm):
      1  C    Isotropic =   169.4552   Anisotropy =    25.6616
   XX=   180.1817   YX=     2.7075   ZX=     4.9545
   XY=     0.1435   YY=   164.5304   ZY=   -19.5947
   XZ=     4.5741   YZ=   -23.5324   ZZ=   163.6535
   Eigenvalues:   142.0150   179.7878   186.5629
      2  C    Isotropic =   129.9789   Anisotropy =    60.0810
   XX=   153.5147   YX=    22.4785   ZX=    -3.2108
   XY=    23.7251   YY=   132.5805   ZY=   -14.4155
   XZ=     1.5631   YZ=   -20.1689   ZZ=   103.8414
   Eigenvalues:    94.0746   125.8292   170.0328
      3  N    Isotropic =   192.7190   Anisotropy =    55.6922
   XX=   206.1152   YX=    11.4101   ZX=   -20.9844
   XY=     0.4455   YY=   199.0455   ZY=   -21.0210
   XZ=   -36.8073   YZ=   -14.9544   ZZ=   172.9963
   Eigenvalues:   152.6136   195.6962   229.8472
      4  C    Isotropic =   137.8273   Anisotropy =    59.4598
   XX=   131.1287   YX=   -14.3446   ZX=     5.2898
   XY=     0.0915   YY=   164.8256   ZY=   -24.7008
   XZ=    20.9578   YZ=   -22.2180   ZZ=   117.5275
   Eigenvalues:   104.3029   131.7118   177.4671
      5  C    Isotropic =   169.3529   Anisotropy =    21.2636
   XX=   174.9969   YX=     6.9505   ZX=    10.6373
   XY=     9.2852   YY=   172.9776   ZY=   -11.4352
   XZ=    12.8173   YZ=   -19.9825   ZZ=   160.0842
   Eigenvalues:   143.1618   181.3683   183.5286
      6  C    Isotropic =   127.6397   Anisotropy =    41.5014
   XX=   128.5236   YX=    -3.3497   ZX=   -10.5007
   XY=   -17.0241   YY=   136.7254   ZY=    21.9205
   XZ=   -16.8075   YZ=    10.1747   ZZ=   117.6702
   Eigenvalues:   105.7454   121.8664   155.3073
      7  C    Isotropic =   117.0863   Anisotropy =    43.4772
   XX=   119.6623   YX=    -3.1238   ZX=   -16.4892
   XY=   -17.1104   YY=   135.0289   ZY=     7.6793
   XZ=   -19.4530   YZ=    11.2393   ZZ=    96.5678
   Eigenvalues:    86.4851   118.7027   146.0711
      8  C    Isotropic =   115.1424   Anisotropy =    36.1423
   XX=   125.8408   YX=     5.9198   ZX=   -12.0552
   XY=    22.3073   YY=   117.1456   ZY=     9.2392
   XZ=   -19.6255   YZ=     1.2914   ZZ=   102.4407
   Eigenvalues:    89.5926   116.5972   139.2372
      9  H    Isotropic =    29.9917   Anisotropy =    12.2741
   XX=    34.1552   YX=    -4.1661   ZX=    -4.5564
   XY=    -4.3879   YY=    27.4271   ZY=     0.2924
   XZ=    -4.7667   YZ=     0.1999   ZZ=    28.3929
   Eigenvalues:    24.1398    27.6609    38.1745
     10  H    Isotropic =    29.5121   Anisotropy =     7.7509
   XX=    30.6794   YX=     2.5088   ZX=     3.8252
   XY=     2.7129   YY=    31.4847   ZY=     0.2532
   XZ=     3.2005   YZ=     0.7409   ZZ=    26.3721
   Eigenvalues:    24.2951    29.5618    34.6793
     11  H    Isotropic =    27.9759   Anisotropy =     9.0740
   XX=    26.4541   YX=    -0.5315   ZX=    -2.3210
   XY=    -0.7684   YY=    23.9791   ZY=     0.1348
   XZ=    -1.6799   YZ=    -0.1805   ZZ=    33.4944
   Eigenvalues:    23.7888    26.1136    34.0252
     12  H    Isotropic =    28.7048   Anisotropy =    11.6194
   XX=    25.0753   YX=    -1.6384   ZX=     1.0625
   XY=    -0.9171   YY=    34.4521   ZY=     4.9525
   XZ=     2.6059   YZ=     3.8865   ZZ=    26.5871
   Eigenvalues:    22.6248    27.0386    36.4510
     13  H    Isotropic =    28.7573   Anisotropy =     8.8669
   XX=    30.1525   YX=     2.4142   ZX=    -0.2230
   XY=     3.1754   YY=    31.4482   ZY=    -4.0523
   XZ=    -0.8217   YZ=    -2.9991   ZZ=    24.6713
   Eigenvalues:    23.1094    28.4940    34.6686
     14  H    Isotropic =    29.9453   Anisotropy =    12.5554
   XX=    29.4543   YX=    -4.2838   ZX=     1.8392
   XY=    -4.8220   YY=    33.8551   ZY=    -4.0220
   XZ=     2.1333   YZ=    -3.7478   ZZ=    26.5265
   Eigenvalues:    24.8503    26.6700    38.3156
     15  H    Isotropic =    30.0149   Anisotropy =     9.0898
   XX=    27.2579   YX=     0.0302   ZX=    -0.4499
   XY=    -0.0063   YY=    26.7225   ZY=     0.4285
   XZ=    -0.1509   YZ=    -0.3625   ZZ=    36.0644
   Eigenvalues:    26.7221    27.2480    36.0748
     16  H    Isotropic =    28.7949   Anisotropy =     5.3405
   XX=    28.9893   YX=    -1.5200   ZX=    -2.4739
   XY=    -1.2174   YY=    26.5938   ZY=     0.0951
   XZ=    -2.0143   YZ=    -0.8265   ZZ=    30.8015
   Eigenvalues:    25.6037    28.4257    32.3552
     17  H    Isotropic =    27.6414   Anisotropy =     4.2576
   XX=    26.2996   YX=    -1.9443   ZX=     1.7027
   XY=    -2.1130   YY=    29.3727   ZY=     0.2327
   XZ=     1.0404   YZ=     2.2655   ZZ=    27.2519
   Eigenvalues:    24.2249    28.2195    30.4798
     18  H    Isotropic =    27.3833   Anisotropy =     3.1770
   XX=    28.2197   YX=     1.2457   ZX=     2.2109
   XY=     2.3068   YY=    27.0335   ZY=    -1.5803
   XZ=     1.1635   YZ=    -3.0003   ZZ=    26.8968
   Eigenvalues:    23.4239    29.2247    29.5013
     19  O    Isotropic =   301.5892   Anisotropy =    30.4337
   XX=   298.3304   YX=     4.9106   ZX=     1.6119
   XY=     6.2942   YY=   319.6994   ZY=     6.7062
   XZ=    24.8141   YZ=    -3.3069   ZZ=   286.7377
   Eigenvalues:   278.0392   304.8500   321.8783
     20  H    Isotropic =    29.3427   Anisotropy =    18.8522
   XX=    26.4328   YX=     0.2495   ZX=    -0.8610
   XY=    -0.0919   YY=    41.5352   ZY=     3.0239
   XZ=    -2.4771   YZ=     2.6961   ZZ=    20.0600
   Eigenvalues:    19.2970    26.8202    41.9108
     21  O    Isotropic =   304.9329   Anisotropy =    75.8411
   XX=   295.4590   YX=   -35.0030   ZX=    17.3792
   XY=   -22.4940   YY=   286.3838   ZY=    -6.6030
   XZ=    29.8080   YZ=   -24.9911   ZZ=   332.9558
   Eigenvalues:   261.6263   297.6788   355.4936
     22  H    Isotropic =    30.9106   Anisotropy =    15.6983
   XX=    28.7910   YX=    -4.9734   ZX=     7.0632
   XY=    -5.1253   YY=    31.5468   ZY=    -3.5764
   XZ=     7.1052   YZ=    -3.2247   ZZ=    32.3941
   Eigenvalues:    22.7368    28.6189    41.3761
     23  C    Isotropic =   131.8080   Anisotropy =    43.9839
   XX=   130.9879   YX=     9.7082   ZX=     6.3598
   XY=    23.8000   YY=   149.2057   ZY=     2.5888
   XZ=    11.1409   YZ=     8.9704   ZZ=   115.2303
   Eigenvalues:   111.2393   123.0540   161.1306
     24  H    Isotropic =    28.0299   Anisotropy =     5.8526
   XX=    30.3679   YX=    -0.1424   ZX=    -0.9185
   XY=    -1.3015   YY=    28.9656   ZY=     3.1450
   XZ=    -2.0689   YZ=     3.2562   ZZ=    24.7561
   Eigenvalues:    22.8996    29.2584    31.9316
     25  H    Isotropic =    28.3313   Anisotropy =     6.2482
   XX=    28.3818   YX=     2.4738   ZX=     2.7992
   XY=     1.6302   YY=    30.9368   ZY=    -3.9153
   XZ=     2.8136   YZ=    -2.1296   ZZ=    25.6753
   Eigenvalues:    22.3587    30.1384    32.4968
     26  O    Isotropic =   320.6101   Anisotropy =    33.2425
   XX=   328.5535   YX=   -15.4594   ZX=   -11.2038
   XY=    -3.1054   YY=   323.0547   ZY=     8.0073
   XZ=   -23.8117   YZ=    -6.3632   ZZ=   310.2222
   Eigenvalues:   298.8758   320.1828   342.7718
     27  H    Isotropic =    29.1987   Anisotropy =    15.3584
   XX=    33.9527   YX=    -2.7869   ZX=    -3.8651
   XY=    -4.4367   YY=    28.7566   ZY=     7.5568
   XZ=    -3.1453   YZ=     8.0471   ZZ=    24.8867
   Eigenvalues:    18.7623    29.3961    39.4376
 End of Minotr Frequency-dependent properties file   721 does not exist.
 End of Minotr Frequency-dependent properties file   722 does not exist.

 **********************************************************************

            Population analysis using the SCF density.

 **********************************************************************

 Orbital symmetries:
       Occupied  (A) (A) (A) (A) (A) (A) (A) (A) (A) (A) (A) (A)
                 (A) (A) (A) (A) (A) (A) (A) (A) (A) (A) (A) (A)
                 (A) (A) (A) (A) (A) (A) (A) (A) (A) (A) (A) (A)
                 (A) (A) (A) (A) (A) (A) (A) (A) (A) (A) (A)
       Virtual   (A) (A) (A) (A) (A) (A) (A) (A) (A) (A) (A) (A)
                 (A) (A) (A) (A) (A) (A) (A) (A) (A) (A) (A) (A)
                 (A) (A) (A) (A) (A) (A) (A) (A) (A) (A) (A) (A)
                 (A) (A) (A) (A) (A) (A) (A) (A) (A) (A) (A) (A)
                 (A) (A) (A) (A) (A) (A) (A) (A) (A) (A) (A) (A)
                 (A) (A) (A) (A) (A) (A) (A) (A) (A) (A) (A) (A)
                 (A) (A) (A) (A) (A) (A) (A) (A) (A) (A) (A) (A)
                 (A) (A) (A) (A) (A) (A) (A) (A) (A) (A) (A) (A)
                 (A) (A) (A) (A) (A) (A) (A) (A) (A) (A) (A) (A)
                 (A) (A) (A) (A) (A) (A) (A) (A) (A) (A) (A) (A)
                 (A) (A) (A) (A) (A) (A) (A) (A) (A) (A) (A) (A)
                 (A) (A) (A) (A) (A) (A) (A) (A) (A) (A) (A) (A)
                 (A) (A) (A) (A) (A) (A) (A) (A) (A) (A) (A) (A)
                 (A) (A) (A) (A) (A) (A) (A) (A) (A) (A) (A) (A)
                 (A) (A) (A) (A) (A) (A) (A) (A) (A) (A) (A) (A)
                 (A) (A) (A) (A) (A) (A) (A) (A) (A) (A) (A) (A)
                 (A) (A) (A) (A) (A) (A) (A) (A) (A) (A) (A) (A)
                 (A) (A) (A) (A) (A) (A) (A) (A) (A) (A) (A) (A)
                 (A) (A) (A) (A) (A) (A) (A) (A) (A) (A) (A) (A)
                 (A) (A) (A) (A) (A) (A) (A) (A) (A) (A) (A) (A)
                 (A) (A) (A) (A) (A) (A) (A) (A) (A) (A) (A) (A)
                 (A) (A) (A) (A)
 The electronic state is 1-A.
 Alpha  occ. eigenvalues --  -19.26686 -19.26214 -19.25284 -14.42221 -10.30901
 Alpha  occ. eigenvalues --  -10.30863 -10.29540 -10.28401 -10.28254 -10.27119
 Alpha  occ. eigenvalues --  -10.24497 -10.24463  -1.07822  -1.05961  -1.05581
 Alpha  occ. eigenvalues --   -0.97086  -0.82313  -0.79487  -0.75656  -0.71705
 Alpha  occ. eigenvalues --   -0.67438  -0.62899  -0.60304  -0.57762  -0.55849
 Alpha  occ. eigenvalues --   -0.54109  -0.52014  -0.50278  -0.48378  -0.47449
 Alpha  occ. eigenvalues --   -0.45857  -0.45265  -0.44671  -0.43104  -0.40521
 Alpha  occ. eigenvalues --   -0.39347  -0.38142  -0.38065  -0.37037  -0.35733
 Alpha  occ. eigenvalues --   -0.35133  -0.34662  -0.33197  -0.32135  -0.29837
 Alpha  occ. eigenvalues --   -0.28500  -0.24365
 Alpha virt. eigenvalues --    0.00657   0.00969   0.01534   0.02133   0.03744
 Alpha virt. eigenvalues --    0.04079   0.04591   0.04726   0.05362   0.06999
 Alpha virt. eigenvalues --    0.07465   0.08207   0.08783   0.09202   0.09736
 Alpha virt. eigenvalues --    0.10013   0.11184   0.11655   0.12338   0.12528
 Alpha virt. eigenvalues --    0.13142   0.13768   0.14053   0.14706   0.14902
 Alpha virt. eigenvalues --    0.15587   0.16691   0.16868   0.17203   0.17488
 Alpha virt. eigenvalues --    0.18039   0.19124   0.19646   0.20711   0.20727
 Alpha virt. eigenvalues --    0.21564   0.21751   0.22335   0.22847   0.22948
 Alpha virt. eigenvalues --    0.23524   0.23942   0.24234   0.25009   0.25657
 Alpha virt. eigenvalues --    0.26325   0.26946   0.27621   0.28375   0.28742
 Alpha virt. eigenvalues --    0.29389   0.30127   0.30796   0.31303   0.32294
 Alpha virt. eigenvalues --    0.32509   0.33282   0.33425   0.34845   0.35391
 Alpha virt. eigenvalues --    0.35932   0.36600   0.37220   0.37666   0.37975
 Alpha virt. eigenvalues --    0.38273   0.39722   0.40411   0.40680   0.41438
 Alpha virt. eigenvalues --    0.42678   0.43708   0.44596   0.45682   0.47062
 Alpha virt. eigenvalues --    0.47991   0.63601   0.64433   0.66595   0.67982
 Alpha virt. eigenvalues --    0.69540   0.70268   0.71572   0.73078   0.73723
 Alpha virt. eigenvalues --    0.76188   0.78126   0.78250   0.79090   0.80668
 Alpha virt. eigenvalues --    0.81425   0.84461   0.85591   0.86931   0.87861
 Alpha virt. eigenvalues --    0.90610   0.91246   0.92700   0.94890   0.97187
 Alpha virt. eigenvalues --    0.99806   1.00193   1.01808   1.03530   1.04690
 Alpha virt. eigenvalues --    1.06429   1.06571   1.08312   1.09567   1.10146
 Alpha virt. eigenvalues --    1.10350   1.12505   1.13354   1.14860   1.15962
 Alpha virt. eigenvalues --    1.17399   1.19262   1.19954   1.24337   1.26393
 Alpha virt. eigenvalues --    1.26975   1.27553   1.29645   1.32230   1.32849
 Alpha virt. eigenvalues --    1.35465   1.36818   1.39047   1.40056   1.40839
 Alpha virt. eigenvalues --    1.42301   1.43364   1.46607   1.48408   1.50647
 Alpha virt. eigenvalues --    1.52397   1.53756   1.58441   1.59534   1.61011
 Alpha virt. eigenvalues --    1.62593   1.65345   1.65378   1.68530   1.69458
 Alpha virt. eigenvalues --    1.72925   1.75408   1.77559   1.78774   1.79018
 Alpha virt. eigenvalues --    1.80918   1.81983   1.82600   1.83575   1.86934
 Alpha virt. eigenvalues --    1.88101   1.89917   1.90521   1.92080   1.92616
 Alpha virt. eigenvalues --    1.93666   1.98522   1.99325   2.01874   2.02383
 Alpha virt. eigenvalues --    2.04199   2.06088   2.07592   2.08822   2.10755
 Alpha virt. eigenvalues --    2.13065   2.16429   2.17092   2.18996   2.20244
 Alpha virt. eigenvalues --    2.21551   2.25766   2.26079   2.28081   2.28721
 Alpha virt. eigenvalues --    2.32600   2.33625   2.35661   2.38192   2.39061
 Alpha virt. eigenvalues --    2.39410   2.42817   2.44680   2.45393   2.46368
 Alpha virt. eigenvalues --    2.48081   2.50628   2.52744   2.53321   2.54725
 Alpha virt. eigenvalues --    2.55614   2.55954   2.59028   2.60576   2.61876
 Alpha virt. eigenvalues --    2.63034   2.64868   2.66949   2.67090   2.68854
 Alpha virt. eigenvalues --    2.69679   2.72568   2.73700   2.75739   2.78390
 Alpha virt. eigenvalues --    2.79705   2.81156   2.82021   2.84104   2.85163
 Alpha virt. eigenvalues --    2.86263   2.89295   2.90374   2.91621   2.92860
 Alpha virt. eigenvalues --    2.96439   2.99075   2.99818   3.03083   3.06081
 Alpha virt. eigenvalues --    3.06824   3.09327   3.14149   3.17114   3.32144
 Alpha virt. eigenvalues --    3.34756   3.36459   3.37958   3.40614   3.44681
 Alpha virt. eigenvalues --    3.46879   3.50407   3.52164   3.54117   3.55516
 Alpha virt. eigenvalues --    3.56045   3.60283   3.61047   3.63717   4.30628
 Alpha virt. eigenvalues --    4.36674   4.40130   4.43691   4.50619   4.55207
 Alpha virt. eigenvalues --    4.59729   4.66333   4.71874   4.85963   4.89760
 Alpha virt. eigenvalues --    4.92565
          Condensed to atoms (all electrons):
              1          2          3          4          5          6
     1  C    5.735449  -0.391929   0.126654  -0.001919   0.041068   0.038540
     2  C   -0.391929   7.791974  -0.346357  -0.371356   0.303229  -0.192727
     3  N    0.126654  -0.346357   7.466849   0.151666  -0.271548  -0.046595
     4  C   -0.001919  -0.371356   0.151666   5.702831   0.105804   0.003905
     5  C    0.041068   0.303229  -0.271548   0.105804   5.528310  -0.021724
     6  C    0.038540  -0.192727  -0.046595   0.003905  -0.021724   8.056903
     7  C   -0.056077  -0.027411  -0.110287  -0.083195   0.075487  -0.884578
     8  C   -0.039339  -0.382919   0.058167  -0.019618  -0.025843   0.082526
     9  H    0.412709  -0.086091   0.011780   0.010815  -0.043137   0.010464
    10  H    0.472337  -0.136548   0.022239   0.026285  -0.055864   0.002129
    11  H   -0.006127   0.278427  -0.037695  -0.014445   0.002093  -0.000720
    12  H    0.015379  -0.030613  -0.036664   0.408357  -0.067677   0.007150
    13  H    0.010475   0.026688  -0.049257   0.383147  -0.024991  -0.000694
    14  H   -0.011792   0.001515   0.016973  -0.034186   0.363895  -0.001008
    15  H   -0.048355  -0.012722   0.007934  -0.058160   0.409834   0.021704
    16  H   -0.008138   0.026223  -0.070125   0.034021  -0.005833   0.329414
    17  H    0.018949   0.000480   0.021229   0.005068  -0.013866  -0.086860
    18  H    0.005402  -0.076068   0.021143   0.003107  -0.001746  -0.000330
    19  O    0.003450  -0.211561   0.009111   0.000147   0.011250   0.024095
    20  H   -0.008568   0.059973  -0.002427  -0.000318  -0.001038   0.012568
    21  O    0.001998  -0.018070   0.019789  -0.003694  -0.000717  -0.078023
    22  H    0.002189   0.000531   0.000921   0.000195  -0.001069  -0.084015
    23  C    0.077467  -0.193053   0.154693  -0.009641  -0.058423  -0.693960
    24  H    0.000369   0.005267   0.011298  -0.003994   0.001087  -0.125445
    25  H   -0.001556   0.001857  -0.002108   0.001338   0.000376  -0.088639
    26  O   -0.000340  -0.009548  -0.002590  -0.019731   0.000746  -0.063177
    27  H   -0.006232   0.032231   0.046063  -0.015655   0.010275  -0.073518
              7          8          9         10         11         12
     1  C   -0.056077  -0.039339   0.412709   0.472337  -0.006127   0.015379
     2  C   -0.027411  -0.382919  -0.086091  -0.136548   0.278427  -0.030613
     3  N   -0.110287   0.058167   0.011780   0.022239  -0.037695  -0.036664
     4  C   -0.083195  -0.019618   0.010815   0.026285  -0.014445   0.408357
     5  C    0.075487  -0.025843  -0.043137  -0.055864   0.002093  -0.067677
     6  C   -0.884578   0.082526   0.010464   0.002129  -0.000720   0.007150
     7  C    6.933685  -0.141127  -0.012147  -0.002304   0.018270   0.000919
     8  C   -0.141127   5.887277   0.030860   0.004527   0.041714   0.012285
     9  H   -0.012147   0.030860   0.520078  -0.023496  -0.007424   0.001160
    10  H   -0.002304   0.004527  -0.023496   0.502568   0.003500  -0.000025
    11  H    0.018270   0.041714  -0.007424   0.003500   0.541089   0.001683
    12  H    0.000919   0.012285   0.001160  -0.000025   0.001683   0.532604
    13  H    0.000616  -0.002825  -0.000117  -0.000131  -0.000133  -0.024102
    14  H    0.002252   0.002532  -0.005753   0.001693   0.000019  -0.002972
    15  H   -0.012352   0.016500   0.003853  -0.007060  -0.000156   0.004010
    16  H    0.016536  -0.002547   0.000003  -0.000042  -0.000249   0.000004
    17  H    0.487057  -0.093813   0.000057   0.000496  -0.000100   0.000005
    18  H   -0.014969   0.381182  -0.000075   0.000094  -0.007099   0.000007
    19  O   -0.102877   0.343736  -0.000133   0.001665   0.001279  -0.000071
    20  H   -0.077351   0.020638   0.000006  -0.000199  -0.000249   0.000000
    21  O    0.184212  -0.014486   0.000030  -0.000183  -0.000037   0.000062
    22  H    0.087232  -0.033860   0.000000  -0.000003  -0.000023   0.000000
    23  C   -0.253737   0.074125   0.001025  -0.001061   0.006950   0.006644
    24  H   -0.026609  -0.001507   0.000000   0.000000   0.000000   0.000000
    25  H    0.085838  -0.002453   0.000000   0.000000  -0.000071   0.000011
    26  O    0.042482   0.013397   0.000006   0.000009   0.000368   0.000585
    27  H   -0.003354  -0.009416  -0.000001  -0.000001  -0.000156  -0.000338
             13         14         15         16         17         18
     1  C    0.010475  -0.011792  -0.048355  -0.008138   0.018949   0.005402
     2  C    0.026688   0.001515  -0.012722   0.026223   0.000480  -0.076068
     3  N   -0.049257   0.016973   0.007934  -0.070125   0.021229   0.021143
     4  C    0.383147  -0.034186  -0.058160   0.034021   0.005068   0.003107
     5  C   -0.024991   0.363895   0.409834  -0.005833  -0.013866  -0.001746
     6  C   -0.000694  -0.001008   0.021704   0.329414  -0.086860  -0.000330
     7  C    0.000616   0.002252  -0.012352   0.016536   0.487057  -0.014969
     8  C   -0.002825   0.002532   0.016500  -0.002547  -0.093813   0.381182
     9  H   -0.000117  -0.005753   0.003853   0.000003   0.000057  -0.000075
    10  H   -0.000131   0.001693  -0.007060  -0.000042   0.000496   0.000094
    11  H   -0.000133   0.000019  -0.000156  -0.000249  -0.000100  -0.007099
    12  H   -0.024102  -0.002972   0.004010   0.000004   0.000005   0.000007
    13  H    0.520234   0.001200  -0.005329   0.000849   0.000035   0.000006
    14  H    0.001200   0.515310  -0.023787  -0.000156   0.000041   0.000003
    15  H   -0.005329  -0.023787   0.523607   0.000698  -0.000070   0.000001
    16  H    0.000849  -0.000156   0.000698   0.534729  -0.008604  -0.000214
    17  H    0.000035   0.000041  -0.000070  -0.008604   0.519659   0.004445
    18  H    0.000006   0.000003   0.000001  -0.000214   0.004445   0.568333
    19  O    0.000032   0.000066  -0.000255  -0.000402  -0.003288  -0.042745
    20  H    0.000000   0.000000  -0.000002  -0.000002  -0.000641  -0.005095
    21  O   -0.000006   0.000003   0.000158   0.001732  -0.060424  -0.015894
    22  H    0.000000   0.000000  -0.000001  -0.000151   0.006682   0.005592
    23  C   -0.011492  -0.000302   0.006560  -0.029763   0.013613   0.004491
    24  H   -0.000026   0.000000  -0.000002  -0.004338  -0.000103   0.000082
    25  H   -0.000016   0.000000   0.000001   0.004430  -0.000244  -0.001167
    26  O    0.001740   0.000024  -0.000123  -0.000454  -0.000564  -0.000348
    27  H   -0.000134  -0.000005   0.000002   0.000447  -0.000008   0.000040
             19         20         21         22         23         24
     1  C    0.003450  -0.008568   0.001998   0.002189   0.077467   0.000369
     2  C   -0.211561   0.059973  -0.018070   0.000531  -0.193053   0.005267
     3  N    0.009111  -0.002427   0.019789   0.000921   0.154693   0.011298
     4  C    0.000147  -0.000318  -0.003694   0.000195  -0.009641  -0.003994
     5  C    0.011250  -0.001038  -0.000717  -0.001069  -0.058423   0.001087
     6  C    0.024095   0.012568  -0.078023  -0.084015  -0.693960  -0.125445
     7  C   -0.102877  -0.077351   0.184212   0.087232  -0.253737  -0.026609
     8  C    0.343736   0.020638  -0.014486  -0.033860   0.074125  -0.001507
     9  H   -0.000133   0.000006   0.000030   0.000000   0.001025   0.000000
    10  H    0.001665  -0.000199  -0.000183  -0.000003  -0.001061   0.000000
    11  H    0.001279  -0.000249  -0.000037  -0.000023   0.006950   0.000000
    12  H   -0.000071   0.000000   0.000062   0.000000   0.006644   0.000000
    13  H    0.000032   0.000000  -0.000006   0.000000  -0.011492  -0.000026
    14  H    0.000066   0.000000   0.000003   0.000000  -0.000302   0.000000
    15  H   -0.000255  -0.000002   0.000158  -0.000001   0.006560  -0.000002
    16  H   -0.000402  -0.000002   0.001732  -0.000151  -0.029763  -0.004338
    17  H   -0.003288  -0.000641  -0.060424   0.006682   0.013613  -0.000103
    18  H   -0.042745  -0.005095  -0.015894   0.005592   0.004491   0.000082
    19  O    8.257588   0.231318  -0.005511  -0.002887   0.010754   0.000094
    20  H    0.231318   0.375104   0.012195  -0.000223  -0.000640  -0.000001
    21  O   -0.005511   0.012195   8.226899   0.232961   0.031058   0.004833
    22  H   -0.002887  -0.000223   0.232961   0.382356   0.033989  -0.001099
    23  C    0.010754  -0.000640   0.031058   0.033989   5.922335   0.519145
    24  H    0.000094  -0.000001   0.004833  -0.001099   0.519145   0.534070
    25  H   -0.000495   0.000008  -0.010576   0.000722   0.361721  -0.039497
    26  O    0.000028  -0.000004  -0.001439   0.000048   0.150722  -0.058205
    27  H    0.000020   0.000000   0.000211  -0.000002   0.034278   0.006509
             25         26         27
     1  C   -0.001556  -0.000340  -0.006232
     2  C    0.001857  -0.009548   0.032231
     3  N   -0.002108  -0.002590   0.046063
     4  C    0.001338  -0.019731  -0.015655
     5  C    0.000376   0.000746   0.010275
     6  C   -0.088639  -0.063177  -0.073518
     7  C    0.085838   0.042482  -0.003354
     8  C   -0.002453   0.013397  -0.009416
     9  H    0.000000   0.000006  -0.000001
    10  H    0.000000   0.000009  -0.000001
    11  H   -0.000071   0.000368  -0.000156
    12  H    0.000011   0.000585  -0.000338
    13  H   -0.000016   0.001740  -0.000134
    14  H    0.000000   0.000024  -0.000005
    15  H    0.000001  -0.000123   0.000002
    16  H    0.004430  -0.000454   0.000447
    17  H   -0.000244  -0.000564  -0.000008
    18  H   -0.001167  -0.000348   0.000040
    19  O   -0.000495   0.000028   0.000020
    20  H    0.000008  -0.000004   0.000000
    21  O   -0.010576  -0.001439   0.000211
    22  H    0.000722   0.000048  -0.000002
    23  C    0.361721   0.150722   0.034278
    24  H   -0.039497  -0.058205   0.006509
    25  H    0.587097  -0.045994  -0.003818
    26  O   -0.045994   8.289108   0.235289
    27  H   -0.003818   0.235289   0.366506
 Mulliken atomic charges:
              1
     1  C   -0.382063
     2  C   -0.041420
     3  N   -0.170855
     4  C   -0.200774
     5  C   -0.259980
     6  C   -0.147387
     7  C   -0.126212
     8  C   -0.199713
     9  H    0.175528
    10  H    0.189373
    11  H    0.179293
    12  H    0.171599
    13  H    0.174231
    14  H    0.174436
    15  H    0.173511
    16  H    0.181929
    17  H    0.190768
    18  H    0.171821
    19  O   -0.524407
    20  H    0.384949
    21  O   -0.507080
    22  H    0.369914
    23  C   -0.157497
    24  H    0.178074
    25  H    0.153234
    26  O   -0.532037
    27  H    0.380765
 Sum of Mulliken atomic charges =   0.00000
 Mulliken charges with hydrogens summed into heavy atoms:
              1
     1  C   -0.017162
     2  C    0.137873
     3  N   -0.170855
     4  C    0.145056
     5  C    0.087968
     6  C    0.034541
     7  C    0.064557
     8  C   -0.027892
    19  O   -0.139458
    21  O   -0.137166
    23  C    0.173810
    26  O   -0.151272
 Sum of Mulliken charges with hydrogens summed into heavy atoms =   0.00000
 Electronic spatial extent (au):  <R**2>=           2017.3546
 Charge=              0.0000 electrons
 Dipole moment (field-independent basis, Debye):
    X=              1.6822    Y=              0.1436    Z=             -0.6714  Tot=              1.8169
 Quadrupole moment (field-independent basis, Debye-Ang):
   XX=            -88.9754   YY=            -66.8378   ZZ=            -73.7698
   XY=             -7.7664   XZ=              1.6863   YZ=             -4.9315
 Traceless Quadrupole moment (field-independent basis, Debye-Ang):
   XX=            -12.4477   YY=              9.6899   ZZ=              2.7578
   XY=             -7.7664   XZ=              1.6863   YZ=             -4.9315
 Octapole moment (field-independent basis, Debye-Ang**2):
  XXX=             27.8754  YYY=             17.9658  ZZZ=             -2.2787  XYY=              2.9048
  XXY=             13.9136  XXZ=              6.6406  XZZ=             -0.6750  YZZ=             -3.2657
  YYZ=            -17.6279  XYZ=              8.5339
 Hexadecapole moment (field-independent basis, Debye-Ang**3):
 XXXX=          -1460.8398 YYYY=           -957.9691 ZZZZ=           -283.4091 XXXY=            -85.7008
 XXXZ=            -15.3334 YYYX=             33.8025 YYYZ=            -36.6528 ZZZX=              1.7558
 ZZZY=              0.2055 XXYY=           -371.9932 XXZZ=           -256.8459 YYZZ=           -240.0920
 XXYZ=             10.8188 YYXZ=             21.8161 ZZXY=              8.0660
 N-N= 8.082596280759D+02 E-N=-3.001854645028D+03  KE= 5.886569016807D+02
 1\1\GINC-COMPUTE-3-2\SP\RmPW1PW91\6-31+G(d,p)\C8H15N1O3\MAMICHETTI.IQU
 IR\17-May-2024\0\\# mpw1pw91/6-31+G** nmr scrf=(pcm,solvent=water)\\co
 mment\\0,1\C,0,2.180058,-0.931103,0.031109\C,0,1.071434,-0.282498,-0.8
 56454\N,0,-0.223325,-0.942593,-0.49694\C,0,0.160861,-2.238475,0.098934
 \C,0,1.439121,-1.966741,0.904274\C,0,-0.971435,-0.046033,0.43941\C,0,-
 0.074545,1.198482,0.639585\C,0,0.803547,1.205188,-0.614945\H,0,2.92230
 1,-1.42083,-0.607501\H,0,2.709273,-0.186525,0.631349\H,0,1.293891,-0.4
 6587,-1.912261\H,0,0.37166,-2.9475,-0.712238\H,0,-0.666284,-2.645007,0
 .68658\H,0,2.027979,-2.871789,1.085182\H,0,1.180595,-1.536691,1.879615
 \H,0,-1.134016,-0.557915,1.394755\H,0,0.566712,1.048908,1.513927\H,0,0
 .206733,1.60428,-1.450474\O,0,2.008916,1.951275,-0.488989\H,0,1.747395
 ,2.864437,-0.280318\O,0,-0.75086,2.43132,0.886889\H,0,-1.213584,2.6883
 64,0.070582\C,0,-2.350995,0.268995,-0.14911\H,0,-2.958559,0.823198,0.5
 72187\H,0,-2.25476,0.885358,-1.056514\O,0,-3.053876,-0.939788,-0.44051
 2\H,0,-2.417783,-1.473621,-0.952213\\Version=AM64L-G09RevC.01\State=1-
 A\HF=-594.1950196\RMSD=3.210e-09\Dipole=0.6618317,0.0564934,-0.2641627
 \Quadrupole=-9.2545859,7.2042031,2.0503828,-5.7741159,1.2537319,-3.666
 4582\PG=C01 [X(C8H15N1O3)]\\@


 THE ... SCIENTISTS WERE WRONG ... THE MOST PERSISTENT PRINCIPLES 
 OF THE UNIVERSE WERE ACCIDENT AND ERROR.

                          -- FRANK HERBERT IN DUNE
 Job cpu time:  0 days  0 hours  9 minutes  1.2 seconds.
 File lengths (MBytes):  RWF=    112 Int=      0 D2E=      0 Chk=      7 Scr=      1
 Normal termination of Gaussian 09 at Fri May 17 12:31:04 2024.
