 Entering Gaussian System, Link 0=g09
 Input=/home/mamichetti.iquir/Linux/03_Cardona_A1A3_R__S_S_R_034_OptB.gjc
 Output=/home/mamichetti.iquir/Linux/03_Cardona_A1A3_R__S_S_R_034_OptB.log
 Initial command:
 /opt/ohpc/pub/apps/software/Gaussian/09/AMD64.SSE4a-enabled/g09/l1.exe /local/mamichetti.iquir/Gau-128457.inp -scrdir=/local/mamichetti.iquir/
 Entering Link 1 = /opt/ohpc/pub/apps/software/Gaussian/09/AMD64.SSE4a-enabled/g09/l1.exe PID=    128458.
  
 Copyright (c) 1988,1990,1992,1993,1995,1998,2003,2009,2011,
            Gaussian, Inc.  All Rights Reserved.
  
 This is part of the Gaussian(R) 09 program.  It is based on
 the Gaussian(R) 03 system (copyright 2003, Gaussian, Inc.),
 the Gaussian(R) 98 system (copyright 1998, Gaussian, Inc.),
 the Gaussian(R) 94 system (copyright 1995, Gaussian, Inc.),
 the Gaussian 92(TM) system (copyright 1992, Gaussian, Inc.),
 the Gaussian 90(TM) system (copyright 1990, Gaussian, Inc.),
 the Gaussian 88(TM) system (copyright 1988, Gaussian, Inc.),
 the Gaussian 86(TM) system (copyright 1986, Carnegie Mellon
 University), and the Gaussian 82(TM) system (copyright 1983,
 Carnegie Mellon University). Gaussian is a federally registered
 trademark of Gaussian, Inc.
  
 This software contains proprietary and confidential information,
 including trade secrets, belonging to Gaussian, Inc.
  
 This software is provided under written license and may be
 used, copied, transmitted, or stored only in accord with that
 written license.
  
 The following legend is applicable only to US Government
 contracts under FAR:
  
                    RESTRICTED RIGHTS LEGEND
  
 Use, reproduction and disclosure by the US Government is
 subject to restrictions as set forth in subparagraphs (a)
 and (c) of the Commercial Computer Software - Restricted
 Rights clause in FAR 52.227-19.
  
 Gaussian, Inc.
 340 Quinnipiac St., Bldg. 40, Wallingford CT 06492
  
  
 ---------------------------------------------------------------
 Warning -- This program may not be used in any manner that
 competes with the business of Gaussian, Inc. or will provide
 assistance to any competitor of Gaussian, Inc.  The licensee
 of this program is prohibited from giving any competitor of
 Gaussian, Inc. access to this program.  By using this program,
 the user acknowledges that Gaussian, Inc. is engaged in the
 business of creating and licensing software in the field of
 computational chemistry and represents and warrants to the
 licensee that it is not a competitor of Gaussian, Inc. and that
 it will not use this program in any manner prohibited above.
 ---------------------------------------------------------------
  

 Cite this work as:
 Gaussian 09, Revision C.01,
 M. J. Frisch, G. W. Trucks, H. B. Schlegel, G. E. Scuseria, 
 M. A. Robb, J. R. Cheeseman, G. Scalmani, V. Barone, B. Mennucci, 
 G. A. Petersson, H. Nakatsuji, M. Caricato, X. Li, H. P. Hratchian, 
 A. F. Izmaylov, J. Bloino, G. Zheng, J. L. Sonnenberg, M. Hada, 
 M. Ehara, K. Toyota, R. Fukuda, J. Hasegawa, M. Ishida, T. Nakajima, 
 Y. Honda, O. Kitao, H. Nakai, T. Vreven, J. A. Montgomery, Jr., 
 J. E. Peralta, F. Ogliaro, M. Bearpark, J. J. Heyd, E. Brothers, 
 K. N. Kudin, V. N. Staroverov, T. Keith, R. Kobayashi, J. Normand, 
 K. Raghavachari, A. Rendell, J. C. Burant, S. S. Iyengar, J. Tomasi, 
 M. Cossi, N. Rega, J. M. Millam, M. Klene, J. E. Knox, J. B. Cross, 
 V. Bakken, C. Adamo, J. Jaramillo, R. Gomperts, R. E. Stratmann, 
 O. Yazyev, A. J. Austin, R. Cammi, C. Pomelli, J. W. Ochterski, 
 R. L. Martin, K. Morokuma, V. G. Zakrzewski, G. A. Voth, 
 P. Salvador, J. J. Dannenberg, S. Dapprich, A. D. Daniels, 
 O. Farkas, J. B. Foresman, J. V. Ortiz, J. Cioslowski, 
 and D. J. Fox, Gaussian, Inc., Wallingford CT, 2010.
 
 ******************************************
 Gaussian 09:  AM64L-G09RevC.01 23-Sep-2011
                17-May-2024 
 ******************************************
 %nprocshared=4
 Will use up to    4 processors via shared memory.
 ------------------------------------------------
 # mpw1pw91/6-31+G** nmr scrf=(pcm,solvent=water)
 ------------------------------------------------
 1/38=1/1;
 2/12=2,17=6,18=5,40=1/2;
 3/5=1,6=6,7=111,11=2,16=1,25=1,30=1,70=2201,72=1,74=-7/1,2,8,3;
 4//1;
 5/5=2,38=5,53=1/2;
 8/6=1,10=90,11=11/1;
 10/13=100,45=16/2;
 6/7=2,8=2,9=2,10=2,28=1/1;
 99/9=1/99;
 -------
 comment
 -------
 Charge =  0 Multiplicity = 1
 Symbolic Z-Matrix:
 6                     2.25711  -0.75967  -0.07963 
 6                     1.03542  -0.21628  -0.88456 
 7                    -0.165    -0.99083  -0.43061 
 6                     0.36936  -2.20883   0.21245 
 6                     1.66114  -1.77493   0.91598 
 6                    -0.98237  -0.12376   0.47581 
 6                    -0.18029   1.17395   0.65541 
 6                     0.64044   1.25266  -0.6344 
 1                     2.95211  -1.25594  -0.76473 
 1                     2.82124   0.03204   0.42387 
 1                     1.2007   -0.38283  -1.95346 
 1                     0.59917  -2.94505  -0.56892 
 1                    -0.38125  -2.65021   0.87337 
 1                     2.33623  -2.61123   1.12469 
 1                     1.4225   -1.29013   1.87053 
 1                    -1.13169  -0.63366   1.43312 
 1                     0.51599   1.06446   1.50148 
 1                    -0.01469   1.58934  -1.44483 
 8                     1.69893   2.20292  -0.60421 
 1                     2.24597   2.0174    0.17802 
 8                    -1.03136   2.29623   0.87713 
 1                    -0.46038   3.08339   0.85796 
 6                    -2.36406   0.09105  -0.16102 
 1                    -3.0521    0.55604   0.55026 
 1                    -2.28666   0.74833  -1.03939 
 8                    -2.92372  -1.17052  -0.52857 
 1                    -2.18351  -1.62049  -0.98271 
 
                          Input orientation:                          
 ---------------------------------------------------------------------
 Center     Atomic      Atomic             Coordinates (Angstroms)
 Number     Number       Type             X           Y           Z
 ---------------------------------------------------------------------
      1          6           0        2.257113   -0.759665   -0.079627
      2          6           0        1.035423   -0.216275   -0.884555
      3          7           0       -0.165002   -0.990831   -0.430612
      4          6           0        0.369364   -2.208828    0.212449
      5          6           0        1.661136   -1.774926    0.915982
      6          6           0       -0.982367   -0.123755    0.475808
      7          6           0       -0.180289    1.173953    0.655406
      8          6           0        0.640439    1.252664   -0.634395
      9          1           0        2.952111   -1.255935   -0.764727
     10          1           0        2.821237    0.032041    0.423867
     11          1           0        1.200702   -0.382831   -1.953461
     12          1           0        0.599173   -2.945049   -0.568921
     13          1           0       -0.381250   -2.650209    0.873374
     14          1           0        2.336233   -2.611226    1.124688
     15          1           0        1.422501   -1.290132    1.870530
     16          1           0       -1.131692   -0.633660    1.433123
     17          1           0        0.515985    1.064461    1.501477
     18          1           0       -0.014694    1.589340   -1.444829
     19          8           0        1.698931    2.202924   -0.604211
     20          1           0        2.245971    2.017397    0.178018
     21          8           0       -1.031357    2.296225    0.877129
     22          1           0       -0.460384    3.083393    0.857964
     23          6           0       -2.364058    0.091050   -0.161024
     24          1           0       -3.052101    0.556040    0.550263
     25          1           0       -2.286660    0.748329   -1.039389
     26          8           0       -2.923722   -1.170519   -0.528574
     27          1           0       -2.183506   -1.620485   -0.982714
 ---------------------------------------------------------------------
                    Distance matrix (angstroms):
                    1          2          3          4          5
     1  C    0.000000
     2  C    1.560676   0.000000
     3  N    2.458306   1.499007   0.000000
     4  C    2.397703   2.370089   1.477360   0.000000
     5  C    1.541811   2.462284   2.400604   1.533592   0.000000
     6  C    3.347704   2.435287   1.497165   2.498813   3.147734
     7  C    3.196886   2.404614   2.421974   3.455653   3.486350
     8  C    2.640241   1.541549   2.392391   3.573871   3.551309
     9  H    1.094837   2.183791   3.146157   2.921209   2.181914
    10  H    1.094779   2.227725   3.270172   3.328344   2.202985
    11  H    2.183864   1.094357   2.133982   2.952381   3.222364
    12  H    2.786409   2.781393   2.102870   1.097895   2.168384
    13  H    3.382799   3.319836   2.121480   1.093188   2.222448
    14  H    2.210184   3.385994   3.361668   2.205148   1.094857
    15  H    2.186569   2.982196   2.811583   2.168486   1.096875
    16  H    3.713259   3.200348   2.129687   2.494868   3.061015
    17  H    2.976382   2.757399   2.901885   3.521010   3.117097
    18  H    3.541569   2.162614   2.776421   4.161749   4.438482
    19  O    3.060015   2.524155   3.701953   4.679555   4.258604
    20  H    2.789010   2.753866   3.902904   4.624264   3.907472
    21  O    4.589976   3.699698   3.642183   4.764380   4.881117
    22  H    4.799267   4.020152   4.283337   5.395625   5.301648
    23  C    4.699528   3.489186   2.465561   3.591729   4.565522
    24  H    5.505960   4.400344   3.419103   4.411920   5.270840
    25  H    4.882731   3.462755   2.810110   4.167294   5.076946
    26  O    5.216455   4.088048   2.766301   3.531518   4.844891
    27  H    4.612556   3.513253   2.185324   2.879532   4.290707
                    6          7          8          9         10
     6  C    0.000000
     7  C    1.536109   0.000000
     8  C    2.400121   1.530809   0.000000
     9  H    4.277952   4.211064   3.413778   0.000000
    10  H    3.807148   3.219741   2.713986   1.757489   0.000000
    11  H    3.276318   3.337199   2.174551   2.289723   2.906878
    12  H    3.398886   4.367232   4.198426   2.903061   3.845291
    13  H    2.627236   3.835637   4.306929   3.967199   4.201481
    14  H    4.197816   4.569539   4.571623   2.405412   2.777272
    15  H    3.014809   3.180751   3.654050   3.047205   2.407787
    16  H    1.094876   2.185744   3.312597   4.679233   4.133691
    17  H    2.170003   1.101191   2.147757   4.056430   2.746147
    18  H    2.749533   2.147313   1.095150   4.166541   3.736269
    19  O    3.710692   2.485334   1.422783   3.682381   2.651273
    20  H    3.885277   2.612668   1.955138   3.478808   2.081589
    21  O    2.453520   1.425823   2.483672   5.584044   4.491598
    22  H    3.271744   1.940475   2.605862   5.753957   4.502025
    23  C    1.536479   2.570619   3.255830   5.517289   5.218512
    24  H    2.179785   2.939418   3.939994   6.408043   5.898021
    25  H    2.181177   2.736838   2.997713   5.615802   5.361418
    26  O    2.423501   3.797997   4.311178   5.881197   5.946247
    27  H    2.410440   3.808569   4.043634   5.153152   5.454976
                   11         12         13         14         15
    11  H    0.000000
    12  H    2.973844   0.000000
    13  H    3.954058   1.768721   0.000000
    14  H    3.966129   2.448903   2.729357   0.000000
    15  H    3.936407   3.060644   2.469341   1.771010   0.000000
    16  H    4.119700   3.513772   2.223275   4.004048   2.673234
    17  H    3.807898   4.513274   3.872766   4.118974   2.549918
    18  H    2.371783   4.658834   4.845844   5.456558   4.620443
    19  O    2.958857   5.264251   5.483002   5.154734   4.289778
    20  H    3.375927   5.281641   5.401144   4.725302   3.805581
    21  O    4.491288   5.676323   4.988974   5.956931   4.457603
    22  H    4.762145   6.284964   5.734169   6.349874   4.868087
    23  C    4.018073   4.262044   3.537797   5.572081   4.513635
    24  H    5.023589   5.180926   4.185436   6.276598   5.017322
    25  H    3.778458   4.710670   4.340427   6.110727   5.136227
    26  O    4.434144   3.944791   3.258697   5.698775   4.965850
    27  H    3.731890   3.109501   2.784514   5.084363   4.610143
                   16         17         18         19         20
    16  H    0.000000
    17  H    2.367092   0.000000
    18  H    3.804211   3.039381   0.000000
    19  O    4.495483   2.670090   2.004903   0.000000
    20  H    4.473477   2.377495   2.815577   0.972397   0.000000
    21  O    2.983860   2.073962   2.631497   3.107659   3.362645
    22  H    3.820726   2.333129   2.780951   2.752421   2.987144
    23  C    2.141316   3.464980   3.067986   4.600468   5.007807
    24  H    2.425448   3.727538   3.778087   5.159200   5.508511
    25  H    3.058948   3.796150   2.456321   4.264993   4.861827
    26  O    2.710691   4.576880   4.113246   5.723177   6.114557
    27  H    2.813611   4.546140   3.901317   5.462146   5.848226
                   21         22         23         24         25
    21  O    0.000000
    22  H    0.972631   0.000000
    23  C    2.777886   3.690044   0.000000
    24  H    2.686725   3.633069   1.093411   0.000000
    25  H    2.764925   3.519624   1.099787   1.774787   0.000000
    26  O    4.192298   5.107474   1.428241   2.039945   2.085367
    27  H    4.486321   5.337014   1.907125   2.800310   2.371736
                   26         27
    26  O    0.000000
    27  H    0.978076   0.000000
 Stoichiometry    C8H15NO3
 Framework group  C1[X(C8H15NO3)]
 Deg. of freedom    75
 Full point group                 C1      NOp   1
 Largest Abelian subgroup         C1      NOp   1
 Largest concise Abelian subgroup C1      NOp   1
                         Standard orientation:                         
 ---------------------------------------------------------------------
 Center     Atomic      Atomic             Coordinates (Angstroms)
 Number     Number       Type             X           Y           Z
 ---------------------------------------------------------------------
      1          6           0        2.257113   -0.759665   -0.079627
      2          6           0        1.035423   -0.216275   -0.884555
      3          7           0       -0.165002   -0.990831   -0.430612
      4          6           0        0.369364   -2.208828    0.212449
      5          6           0        1.661136   -1.774926    0.915982
      6          6           0       -0.982367   -0.123755    0.475808
      7          6           0       -0.180289    1.173953    0.655406
      8          6           0        0.640439    1.252664   -0.634395
      9          1           0        2.952111   -1.255935   -0.764727
     10          1           0        2.821237    0.032041    0.423867
     11          1           0        1.200702   -0.382831   -1.953461
     12          1           0        0.599173   -2.945049   -0.568921
     13          1           0       -0.381250   -2.650209    0.873374
     14          1           0        2.336233   -2.611226    1.124688
     15          1           0        1.422501   -1.290132    1.870530
     16          1           0       -1.131692   -0.633660    1.433123
     17          1           0        0.515985    1.064461    1.501477
     18          1           0       -0.014694    1.589340   -1.444829
     19          8           0        1.698931    2.202924   -0.604211
     20          1           0        2.245971    2.017397    0.178018
     21          8           0       -1.031357    2.296225    0.877129
     22          1           0       -0.460384    3.083393    0.857964
     23          6           0       -2.364058    0.091050   -0.161024
     24          1           0       -3.052101    0.556040    0.550263
     25          1           0       -2.286660    0.748329   -1.039389
     26          8           0       -2.923722   -1.170519   -0.528574
     27          1           0       -2.183506   -1.620485   -0.982714
 ---------------------------------------------------------------------
 Rotational constants (GHZ):      1.0947239      0.9626832      0.6089245
 Standard basis: 6-31+G(d,p) (6D, 7F)
 There are   303 symmetry adapted basis functions of A   symmetry.
 Integral buffers will be    131072 words long.
 Raffenetti 2 integral format.
 Two-electron integral symmetry is turned on.
   303 basis functions,   489 primitive gaussians,   303 cartesian basis functions
    47 alpha electrons       47 beta electrons
       nuclear repulsion energy       809.4736418995 Hartrees.
 NAtoms=   27 NActive=   27 NUniq=   27 SFac= 1.00D+00 NAtFMM=   60 NAOKFM=F Big=F
 ------------------------------------------------------------------------------
 Polarizable Continuum Model (PCM)
 =================================
 Model                : PCM.
 Atomic radii         : UFF (Universal Force Field).
 Polarization charges : Total charges.
 Charge compensation  : None.
 Solution method      : Matrix inversion.
 Cavity type          : Scaled VdW (van der Waals Surface) (Alpha=1.100).
 Cavity algorithm     : GePol (No added spheres)
                        Default sphere list used, NSphG=   27.
                        Lebedev-Laikov grids with approx.  5.0 points / Ang**2.
                        Smoothing algorithm: Karplus/York (Gamma=1.0000).
                        Polarization charges: spherical gaussians, with
                                              point-specific exponents (IZeta= 3).
                        Self-potential: point-specific (ISelfS= 7).
                        Self-field    : sphere-specific E.n sum rule (ISelfD= 2).
 Solvent              : Water, Eps=  78.355300 Eps(inf)=   1.777849
 ------------------------------------------------------------------------------
 One-electron integrals computed using PRISM.
 NBasis=   303 RedAO= T  NBF=   303
 NBsUse=   303 1.00D-06 NBFU=   303
 Harris functional with IExCor=  908 diagonalized for initial guess.
 ExpMin= 4.38D-02 ExpMax= 5.48D+03 ExpMxC= 8.25D+02 IAcc=2 IRadAn=         4 AccDes= 0.00D+00
 HarFok:  IExCor=  908 AccDes= 0.00D+00 IRadAn=         4 IDoV= 1
 ScaDFX=  1.000000  1.000000  1.000000  1.000000
 FoFCou: FMM=F IPFlag=           0 FMFlag=      100000 FMFlg1=           0
         NFxFlg=           0 DoJE=T BraDBF=F KetDBF=T FulRan=T
         Omega=  0.000000  0.000000  1.000000  0.000000  0.000000 ICntrl=     500 IOpCl=  0
         NMat0=    1 NMatS0=    1 NMatT0=    0 NMatD0=    1 NMtDS0=    0 NMtDT0=    0
         I1Cent=           4 NGrid=           0.
 Petite list used in FoFCou.
 Initial guess orbital symmetries:
       Occupied  (A) (A) (A) (A) (A) (A) (A) (A) (A) (A) (A) (A)
                 (A) (A) (A) (A) (A) (A) (A) (A) (A) (A) (A) (A)
                 (A) (A) (A) (A) (A) (A) (A) (A) (A) (A) (A) (A)
                 (A) (A) (A) (A) (A) (A) (A) (A) (A) (A) (A)
       Virtual   (A) (A) (A) (A) (A) (A) (A) (A) (A) (A) (A) (A)
                 (A) (A) (A) (A) (A) (A) (A) (A) (A) (A) (A) (A)
                 (A) (A) (A) (A) (A) (A) (A) (A) (A) (A) (A) (A)
                 (A) (A) (A) (A) (A) (A) (A) (A) (A) (A) (A) (A)
                 (A) (A) (A) (A) (A) (A) (A) (A) (A) (A) (A) (A)
                 (A) (A) (A) (A) (A) (A) (A) (A) (A) (A) (A) (A)
                 (A) (A) (A) (A) (A) (A) (A) (A) (A) (A) (A) (A)
                 (A) (A) (A) (A) (A) (A) (A) (A) (A) (A) (A) (A)
                 (A) (A) (A) (A) (A) (A) (A) (A) (A) (A) (A) (A)
                 (A) (A) (A) (A) (A) (A) (A) (A) (A) (A) (A) (A)
                 (A) (A) (A) (A) (A) (A) (A) (A) (A) (A) (A) (A)
                 (A) (A) (A) (A) (A) (A) (A) (A) (A) (A) (A) (A)
                 (A) (A) (A) (A) (A) (A) (A) (A) (A) (A) (A) (A)
                 (A) (A) (A) (A) (A) (A) (A) (A) (A) (A) (A) (A)
                 (A) (A) (A) (A) (A) (A) (A) (A) (A) (A) (A) (A)
                 (A) (A) (A) (A) (A) (A) (A) (A) (A) (A) (A) (A)
                 (A) (A) (A) (A) (A) (A) (A) (A) (A) (A) (A) (A)
                 (A) (A) (A) (A) (A) (A) (A) (A) (A) (A) (A) (A)
                 (A) (A) (A) (A) (A) (A) (A) (A) (A) (A) (A) (A)
                 (A) (A) (A) (A) (A) (A) (A) (A) (A) (A) (A) (A)
                 (A) (A) (A) (A) (A) (A) (A) (A) (A) (A) (A) (A)
                 (A) (A) (A) (A)
 The electronic state of the initial guess is 1-A.
 Requested convergence on RMS density matrix=1.00D-08 within 128 cycles.
 Requested convergence on MAX density matrix=1.00D-06.
 Requested convergence on             energy=1.00D-06.
 No special actions if energy rises.
 Error on total polarization charges =  0.01410
 SCF Done:  E(RmPW1PW91) =  -594.196050840     A.U. after   13 cycles
             Convg  =    0.3125D-08             -V/T =  2.0094
 Range of M.O.s used for correlation:     1   303
 NBasis=   303 NAE=    47 NBE=    47 NFC=     0 NFV=     0
 NROrb=    303 NOA=    47 NOB=    47 NVA=   256 NVB=   256

 **** Warning!!: The largest alpha MO coefficient is  0.58900224D+02

 NEqPCM:  Using equilibrium solvation (IEInf=0, Eps=  78.3553, EpsInf=   1.7778)
          Differentiating once with respect to magnetic field using GIAOs.
          Electric field/nuclear overlap derivatives assumed to be zero.
 FoFCou: FMM=F IPFlag=           0 FMFlag=    10101102 FMFlg1=           0
         NFxFlg=    40000000 DoJE=F BraDBF=F KetDBF=T FulRan=T
         Omega=  0.000000  0.000000  1.000000  0.000000  0.000000 ICntrl=    6100 IOpCl=  0
         NMat0=    1 NMatS0=    1 NMatT0=    0 NMatD0=    1 NMtDS0=    0 NMtDT0=    0
         I1Cent=           7 NGrid=        1821.
 Symmetry not used in FoFCou.
          There are     3 degrees of freedom in the 1st order CPHF.  IDoFFX=0.
      3 vectors produced by pass  0 Test12= 4.01D-13 3.33D-08 XBig12= 2.43D+01 7.08D-01.
 AX will form     3 AO Fock derivatives at one time.
      3 vectors produced by pass  1 Test12= 4.01D-13 3.33D-08 XBig12= 5.72D-02 3.82D-02.
      3 vectors produced by pass  2 Test12= 4.01D-13 3.33D-08 XBig12= 1.24D-04 2.06D-03.
      3 vectors produced by pass  3 Test12= 4.01D-13 3.33D-08 XBig12= 5.24D-07 1.22D-04.
      3 vectors produced by pass  4 Test12= 4.01D-13 3.33D-08 XBig12= 1.69D-09 6.27D-06.
      3 vectors produced by pass  5 Test12= 4.01D-13 3.33D-08 XBig12= 5.39D-12 5.78D-07.
 Inverted reduced A of dimension    18 with in-core refinement.
 Calculating GIAO nuclear magnetic shielding tensors.
 SCF GIAO Magnetic shielding tensor (ppm):
      1  C    Isotropic =   169.2938   Anisotropy =    23.6525
   XX=   179.7368   YX=     3.7409   ZX=     3.4390
   XY=     0.8130   YY=   162.6625   ZY=   -17.7992
   XZ=     2.5748   YZ=   -23.9203   ZZ=   165.4822
   Eigenvalues:   142.7910   180.0284   185.0621
      2  C    Isotropic =   130.1384   Anisotropy =    61.7869
   XX=   148.6643   YX=    22.3572   ZX=    -4.5269
   XY=    26.0819   YY=   137.8409   ZY=   -18.0345
   XZ=    -1.4183   YZ=   -20.7788   ZZ=   103.9099
   Eigenvalues:    93.8988   125.1867   171.3297
      3  N    Isotropic =   195.7324   Anisotropy =    60.9987
   XX=   205.7936   YX=    10.0276   ZX=   -24.1045
   XY=    -0.7186   YY=   201.9346   ZY=   -28.0665
   XZ=   -37.0021   YZ=   -22.3750   ZZ=   179.4688
   Eigenvalues:   151.8819   198.9171   236.3981
      4  C    Isotropic =   137.2266   Anisotropy =    59.9547
   XX=   134.5723   YX=   -17.8327   ZX=     7.1690
   XY=    -3.5392   YY=   159.3948   ZY=   -27.4221
   XZ=    22.4522   YZ=   -22.4834   ZZ=   117.7127
   Eigenvalues:   103.1838   131.2996   177.1964
      5  C    Isotropic =   168.8582   Anisotropy =    19.7537
   XX=   174.5715   YX=     4.7899   ZX=    10.0720
   XY=     8.4343   YY=   171.4124   ZY=   -10.6986
   XZ=    12.3531   YZ=   -18.5126   ZZ=   160.5908
   Eigenvalues:   144.7679   179.7794   182.0273
      6  C    Isotropic =   127.5460   Anisotropy =    43.1675
   XX=   130.0244   YX=    -5.2005   ZX=   -13.0052
   XY=   -19.0929   YY=   134.3681   ZY=    20.0225
   XZ=   -16.6963   YZ=    10.3220   ZZ=   118.2456
   Eigenvalues:   106.3208   119.9929   156.3243
      7  C    Isotropic =   118.1652   Anisotropy =    41.3175
   XX=   118.0554   YX=    -6.5201   ZX=   -13.4246
   XY=   -21.7457   YY=   131.7851   ZY=     6.0157
   XZ=   -18.4486   YZ=     6.9272   ZZ=   104.6552
   Eigenvalues:    93.8778   114.9076   145.7102
      8  C    Isotropic =   115.2733   Anisotropy =    40.1346
   XX=   124.4153   YX=     6.3688   ZX=   -17.8806
   XY=    21.4949   YY=   123.6063   ZY=     9.9875
   XZ=   -24.6346   YZ=     0.1830   ZZ=    97.7982
   Eigenvalues:    82.8134   120.9767   142.0297
      9  H    Isotropic =    29.9384   Anisotropy =    12.5034
   XX=    33.7059   YX=    -4.0514   ZX=    -4.9013
   XY=    -4.2379   YY=    26.7605   ZY=     0.7697
   XZ=    -5.0214   YZ=     0.7007   ZZ=    29.3488
   Eigenvalues:    24.1763    27.3648    38.2740
     10  H    Isotropic =    30.1351   Anisotropy =     7.8167
   XX=    32.0223   YX=     2.7043   ZX=     3.0126
   XY=     2.8385   YY=    32.1317   ZY=     0.0906
   XZ=     2.2531   YZ=     0.5532   ZZ=    26.2514
   Eigenvalues:    25.1495    29.9096    35.3463
     11  H    Isotropic =    27.9922   Anisotropy =     8.8743
   XX=    26.4570   YX=    -0.4630   ZX=    -1.8579
   XY=    -0.5821   YY=    23.8959   ZY=     0.1009
   XZ=    -1.0547   YZ=    -0.2564   ZZ=    33.6237
   Eigenvalues:    23.7795    26.2888    33.9084
     12  H    Isotropic =    28.6563   Anisotropy =    11.5815
   XX=    25.5389   YX=    -2.2975   ZX=     0.8399
   XY=    -1.3149   YY=    34.6802   ZY=     4.5758
   XZ=     2.3906   YZ=     3.5786   ZZ=    25.7499
   Eigenvalues:    22.5573    27.0344    36.3773
     13  H    Isotropic =    28.7444   Anisotropy =     9.0560
   XX=    29.3746   YX=     2.1297   ZX=    -0.2654
   XY=     2.8812   YY=    31.5413   ZY=    -4.6706
   XZ=    -0.9493   YZ=    -3.6074   ZZ=    25.3174
   Eigenvalues:    23.1915    28.2600    34.7818
     14  H    Isotropic =    29.9207   Anisotropy =    12.5543
   XX=    30.4876   YX=    -4.6890   ZX=     2.3546
   XY=    -5.1538   YY=    32.4826   ZY=    -3.9189
   XZ=     2.6105   YZ=    -3.7105   ZZ=    26.7918
   Eigenvalues:    24.8781    26.5937    38.2902
     15  H    Isotropic =    30.1167   Anisotropy =     8.8567
   XX=    27.2780   YX=    -0.0087   ZX=    -0.0327
   XY=     0.0371   YY=    27.1097   ZY=     1.0947
   XZ=     0.3921   YZ=     0.3051   ZZ=    35.9624
   Eigenvalues:    27.0547    27.2743    36.0211
     16  H    Isotropic =    28.7807   Anisotropy =     5.9062
   XX=    29.0320   YX=    -1.1687   ZX=    -2.6926
   XY=    -1.0037   YY=    26.2101   ZY=    -0.2081
   XZ=    -2.1916   YZ=    -1.2828   ZZ=    31.1001
   Eigenvalues:    25.3637    28.2603    32.7182
     17  H    Isotropic =    27.7400   Anisotropy =     5.0563
   XX=    26.9160   YX=    -2.9277   ZX=     1.5632
   XY=    -2.9792   YY=    28.8816   ZY=     0.4047
   XZ=     0.8371   YZ=     2.7018   ZZ=    27.4226
   Eigenvalues:    23.7974    28.3118    31.1109
     18  H    Isotropic =    27.2989   Anisotropy =     2.8941
   XX=    27.6663   YX=     0.8057   ZX=     2.2873
   XY=     2.2357   YY=    27.6816   ZY=    -1.4066
   XZ=     1.4093   YZ=    -2.5533   ZZ=    26.5489
   Eigenvalues:    23.6362    29.0322    29.2283
     19  O    Isotropic =   300.1657   Anisotropy =    65.7606
   XX=   315.3989   YX=    21.9830   ZX=    23.1827
   XY=    -0.7901   YY=   270.9246   ZY=   -25.7624
   XZ=    29.3591   YZ=   -33.4330   ZZ=   314.1736
   Eigenvalues:   248.6036   307.8873   344.0061
     20  H    Isotropic =    30.5116   Anisotropy =    15.5352
   XX=    31.9525   YX=     1.1738   ZX=     8.8789
   XY=     1.9684   YY=    28.0432   ZY=    -1.6435
   XZ=     9.3478   YZ=    -0.7237   ZZ=    31.5391
   Eigenvalues:    22.0035    28.6629    40.8684
     21  O    Isotropic =   307.2991   Anisotropy =    37.2747
   XX=   303.0522   YX=     9.0659   ZX=     0.7898
   XY=    -0.9337   YY=   330.5833   ZY=    -0.6487
   XZ=    17.0481   YZ=   -14.6577   ZZ=   288.2619
   Eigenvalues:   282.5122   307.2363   332.1489
     22  H    Isotropic =    29.6745   Anisotropy =    18.5751
   XX=    28.6805   YX=     4.8439   ZX=    -1.1449
   XY=     6.0372   YY=    39.6460   ZY=     2.3951
   XZ=    -2.4177   YZ=     3.1568   ZZ=    20.6969
   Eigenvalues:    19.4859    27.4796    42.0579
     23  C    Isotropic =   132.4079   Anisotropy =    46.3042
   XX=   125.9158   YX=     8.4193   ZX=     6.8231
   XY=    21.8590   YY=   154.3570   ZY=     6.0670
   XZ=    10.0187   YZ=     9.3593   ZZ=   116.9509
   Eigenvalues:   111.8429   122.1033   163.2774
     24  H    Isotropic =    27.9871   Anisotropy =     6.0964
   XX=    30.6752   YX=    -0.1410   ZX=    -0.9550
   XY=    -1.3459   YY=    28.4637   ZY=     3.1423
   XZ=    -2.3481   YZ=     3.2504   ZZ=    24.8224
   Eigenvalues:    22.8176    29.0923    32.0513
     25  H    Isotropic =    28.1831   Anisotropy =     6.3619
   XX=    27.8518   YX=     2.2188   ZX=     3.1583
   XY=     1.5058   YY=    31.2119   ZY=    -3.6205
   XZ=     3.0569   YZ=    -1.8715   ZZ=    25.4856
   Eigenvalues:    22.1312    29.9937    32.4243
     26  O    Isotropic =   319.5753   Anisotropy =    36.7797
   XX=   334.9141   YX=   -12.1477   ZX=    -8.3883
   XY=    -7.0265   YY=   321.4737   ZY=     7.4350
   XZ=   -24.4046   YZ=   -16.5943   ZZ=   302.3381
   Eigenvalues:   293.2151   321.4156   344.0951
     27  H    Isotropic =    28.6495   Anisotropy =    16.2674
   XX=    36.0023   YX=    -2.5935   ZX=    -3.9147
   XY=    -4.5089   YY=    26.5153   ZY=     6.7071
   XZ=    -3.2733   YZ=     7.5083   ZZ=    23.4308
   Eigenvalues:    17.6804    28.7736    39.4944
 End of Minotr Frequency-dependent properties file   721 does not exist.
 End of Minotr Frequency-dependent properties file   722 does not exist.

 **********************************************************************

            Population analysis using the SCF density.

 **********************************************************************

 Orbital symmetries:
       Occupied  (A) (A) (A) (A) (A) (A) (A) (A) (A) (A) (A) (A)
                 (A) (A) (A) (A) (A) (A) (A) (A) (A) (A) (A) (A)
                 (A) (A) (A) (A) (A) (A) (A) (A) (A) (A) (A) (A)
                 (A) (A) (A) (A) (A) (A) (A) (A) (A) (A) (A)
       Virtual   (A) (A) (A) (A) (A) (A) (A) (A) (A) (A) (A) (A)
                 (A) (A) (A) (A) (A) (A) (A) (A) (A) (A) (A) (A)
                 (A) (A) (A) (A) (A) (A) (A) (A) (A) (A) (A) (A)
                 (A) (A) (A) (A) (A) (A) (A) (A) (A) (A) (A) (A)
                 (A) (A) (A) (A) (A) (A) (A) (A) (A) (A) (A) (A)
                 (A) (A) (A) (A) (A) (A) (A) (A) (A) (A) (A) (A)
                 (A) (A) (A) (A) (A) (A) (A) (A) (A) (A) (A) (A)
                 (A) (A) (A) (A) (A) (A) (A) (A) (A) (A) (A) (A)
                 (A) (A) (A) (A) (A) (A) (A) (A) (A) (A) (A) (A)
                 (A) (A) (A) (A) (A) (A) (A) (A) (A) (A) (A) (A)
                 (A) (A) (A) (A) (A) (A) (A) (A) (A) (A) (A) (A)
                 (A) (A) (A) (A) (A) (A) (A) (A) (A) (A) (A) (A)
                 (A) (A) (A) (A) (A) (A) (A) (A) (A) (A) (A) (A)
                 (A) (A) (A) (A) (A) (A) (A) (A) (A) (A) (A) (A)
                 (A) (A) (A) (A) (A) (A) (A) (A) (A) (A) (A) (A)
                 (A) (A) (A) (A) (A) (A) (A) (A) (A) (A) (A) (A)
                 (A) (A) (A) (A) (A) (A) (A) (A) (A) (A) (A) (A)
                 (A) (A) (A) (A) (A) (A) (A) (A) (A) (A) (A) (A)
                 (A) (A) (A) (A) (A) (A) (A) (A) (A) (A) (A) (A)
                 (A) (A) (A) (A) (A) (A) (A) (A) (A) (A) (A) (A)
                 (A) (A) (A) (A) (A) (A) (A) (A) (A) (A) (A) (A)
                 (A) (A) (A) (A)
 The electronic state is 1-A.
 Alpha  occ. eigenvalues --  -19.26706 -19.26246 -19.24762 -14.42387 -10.30999
 Alpha  occ. eigenvalues --  -10.30790 -10.29061 -10.28561 -10.28317 -10.27248
 Alpha  occ. eigenvalues --  -10.25116 -10.24713  -1.07890  -1.05991  -1.05183
 Alpha  occ. eigenvalues --   -0.97124  -0.82664  -0.79367  -0.75749  -0.71606
 Alpha  occ. eigenvalues --   -0.67529  -0.62676  -0.60364  -0.58109  -0.56358
 Alpha  occ. eigenvalues --   -0.54341  -0.50539  -0.49876  -0.49506  -0.47356
 Alpha  occ. eigenvalues --   -0.46122  -0.45610  -0.43638  -0.42902  -0.41104
 Alpha  occ. eigenvalues --   -0.39681  -0.38750  -0.38316  -0.37046  -0.35911
 Alpha  occ. eigenvalues --   -0.34996  -0.34137  -0.33427  -0.32286  -0.29553
 Alpha  occ. eigenvalues --   -0.28410  -0.24545
 Alpha virt. eigenvalues --    0.00539   0.01002   0.01735   0.02137   0.03779
 Alpha virt. eigenvalues --    0.04095   0.04623   0.04829   0.05182   0.06913
 Alpha virt. eigenvalues --    0.07917   0.08109   0.08925   0.08974   0.09663
 Alpha virt. eigenvalues --    0.09941   0.11130   0.11527   0.12412   0.12640
 Alpha virt. eigenvalues --    0.13024   0.13621   0.14064   0.14198   0.14839
 Alpha virt. eigenvalues --    0.15856   0.16647   0.16693   0.17293   0.17829
 Alpha virt. eigenvalues --    0.17961   0.18589   0.20113   0.20457   0.21046
 Alpha virt. eigenvalues --    0.21590   0.21949   0.22045   0.22727   0.23221
 Alpha virt. eigenvalues --    0.23557   0.23846   0.24823   0.25105   0.25791
 Alpha virt. eigenvalues --    0.26583   0.26586   0.27235   0.28031   0.28632
 Alpha virt. eigenvalues --    0.28829   0.30185   0.30881   0.31747   0.32219
 Alpha virt. eigenvalues --    0.32588   0.33567   0.33949   0.34216   0.35041
 Alpha virt. eigenvalues --    0.35657   0.36467   0.37147   0.37576   0.38327
 Alpha virt. eigenvalues --    0.38801   0.39157   0.40408   0.41194   0.41641
 Alpha virt. eigenvalues --    0.42858   0.43107   0.44236   0.45690   0.47021
 Alpha virt. eigenvalues --    0.48932   0.62781   0.65715   0.66731   0.67947
 Alpha virt. eigenvalues --    0.69481   0.70937   0.71565   0.72941   0.74249
 Alpha virt. eigenvalues --    0.76287   0.76920   0.78082   0.79365   0.80125
 Alpha virt. eigenvalues --    0.80826   0.84338   0.85893   0.86306   0.87765
 Alpha virt. eigenvalues --    0.90031   0.90930   0.92439   0.95986   0.98191
 Alpha virt. eigenvalues --    0.99453   1.00135   1.01951   1.02460   1.04741
 Alpha virt. eigenvalues --    1.06063   1.07032   1.09332   1.09968   1.10140
 Alpha virt. eigenvalues --    1.11401   1.12561   1.13858   1.14519   1.15122
 Alpha virt. eigenvalues --    1.16898   1.18555   1.20299   1.24733   1.26258
 Alpha virt. eigenvalues --    1.27503   1.29178   1.29657   1.30957   1.33103
 Alpha virt. eigenvalues --    1.34850   1.37316   1.37714   1.39467   1.41434
 Alpha virt. eigenvalues --    1.42936   1.44998   1.47390   1.48662   1.49987
 Alpha virt. eigenvalues --    1.51564   1.54150   1.58005   1.58860   1.60372
 Alpha virt. eigenvalues --    1.63702   1.64629   1.68665   1.69823   1.70188
 Alpha virt. eigenvalues --    1.73206   1.75944   1.76556   1.77115   1.78485
 Alpha virt. eigenvalues --    1.79308   1.81565   1.83034   1.83279   1.87019
 Alpha virt. eigenvalues --    1.88405   1.89736   1.90628   1.91750   1.92541
 Alpha virt. eigenvalues --    1.94856   1.97780   1.99912   2.00776   2.03077
 Alpha virt. eigenvalues --    2.04496   2.06806   2.07521   2.10072   2.10725
 Alpha virt. eigenvalues --    2.14167   2.15094   2.16844   2.18452   2.19766
 Alpha virt. eigenvalues --    2.21917   2.23463   2.25584   2.27404   2.30569
 Alpha virt. eigenvalues --    2.32693   2.33164   2.34026   2.37899   2.38603
 Alpha virt. eigenvalues --    2.41423   2.44436   2.45786   2.46218   2.47223
 Alpha virt. eigenvalues --    2.48510   2.49473   2.51386   2.51982   2.53995
 Alpha virt. eigenvalues --    2.55805   2.56644   2.58640   2.60435   2.62243
 Alpha virt. eigenvalues --    2.63104   2.64627   2.65205   2.66860   2.68712
 Alpha virt. eigenvalues --    2.69993   2.72062   2.74274   2.77076   2.78250
 Alpha virt. eigenvalues --    2.78969   2.80762   2.81777   2.83929   2.84983
 Alpha virt. eigenvalues --    2.85982   2.89898   2.90620   2.90934   2.94861
 Alpha virt. eigenvalues --    2.96495   2.98312   3.01377   3.03274   3.04877
 Alpha virt. eigenvalues --    3.06731   3.09697   3.14960   3.17041   3.32270
 Alpha virt. eigenvalues --    3.35373   3.36440   3.38080   3.40106   3.45270
 Alpha virt. eigenvalues --    3.46689   3.50443   3.53196   3.54091   3.55400
 Alpha virt. eigenvalues --    3.56567   3.59486   3.61391   3.64384   4.30851
 Alpha virt. eigenvalues --    4.37151   4.41832   4.44132   4.50938   4.55292
 Alpha virt. eigenvalues --    4.59591   4.67419   4.70598   4.86560   4.89230
 Alpha virt. eigenvalues --    4.92893
          Condensed to atoms (all electrons):
              1          2          3          4          5          6
     1  C    5.603499  -0.345714   0.106546  -0.049472   0.161912  -0.020717
     2  C   -0.345714   7.687065  -0.311537  -0.300282   0.185403  -0.108002
     3  N    0.106546  -0.311537   7.508810   0.152178  -0.256707  -0.203229
     4  C   -0.049472  -0.300282   0.152178   5.658995   0.145111  -0.015044
     5  C    0.161912   0.185403  -0.256707   0.145111   5.445017   0.054516
     6  C   -0.020717  -0.108002  -0.203229  -0.015044   0.054516   8.252478
     7  C   -0.037346   0.216728  -0.091599  -0.044904   0.003938  -0.611281
     8  C    0.049785  -0.707558   0.112830  -0.043806  -0.021035  -0.344933
     9  H    0.435445  -0.103197   0.013862   0.011442  -0.049482   0.009019
    10  H    0.416562  -0.101028   0.021026   0.029178  -0.037292  -0.001353
    11  H   -0.019518   0.277435  -0.038931  -0.019111   0.010488  -0.005229
    12  H    0.015729  -0.031183  -0.032850   0.409767  -0.066615  -0.001738
    13  H    0.014217   0.022060  -0.052600   0.385329  -0.026286  -0.000809
    14  H   -0.014869   0.008580   0.015049  -0.029323   0.358818  -0.001949
    15  H   -0.037362  -0.024511   0.013050  -0.060123   0.408712   0.018814
    16  H   -0.009396   0.027568  -0.058254   0.027305  -0.001625   0.318296
    17  H    0.016457   0.006953   0.023809   0.009680  -0.016462  -0.092645
    18  H    0.019445  -0.071979   0.021538   0.006129  -0.004401   0.007458
    19  O   -0.005781  -0.073947  -0.002391   0.001701   0.005667   0.036644
    20  H    0.027421  -0.080852   0.006006   0.001976  -0.002164   0.001596
    21  O    0.007071  -0.024946   0.036055   0.000966  -0.001573  -0.252698
    22  H   -0.000698   0.012366  -0.004470  -0.001337   0.000556   0.067236
    23  C    0.051978  -0.164751   0.168059  -0.051037  -0.027374  -0.580247
    24  H    0.001087   0.003288   0.009818  -0.003369   0.000834  -0.122376
    25  H   -0.002955   0.011652   0.010756   0.000522   0.000723  -0.141546
    26  O    0.001960  -0.015520  -0.007852  -0.019548  -0.002073  -0.055573
    27  H   -0.003851   0.031359   0.050158  -0.009635   0.008027  -0.072809
              7          8          9         10         11         12
     1  C   -0.037346   0.049785   0.435445   0.416562  -0.019518   0.015729
     2  C    0.216728  -0.707558  -0.103197  -0.101028   0.277435  -0.031183
     3  N   -0.091599   0.112830   0.013862   0.021026  -0.038931  -0.032850
     4  C   -0.044904  -0.043806   0.011442   0.029178  -0.019111   0.409767
     5  C    0.003938  -0.021035  -0.049482  -0.037292   0.010488  -0.066615
     6  C   -0.611281  -0.344933   0.009019  -0.001353  -0.005229  -0.001738
     7  C    6.283274  -0.027624  -0.008660  -0.006505   0.019903   0.002205
     8  C   -0.027624   6.333185   0.029877  -0.001742   0.059613   0.012098
     9  H   -0.008660   0.029877   0.510474  -0.024250  -0.007461   0.001278
    10  H   -0.006505  -0.001742  -0.024250   0.545441   0.003532  -0.000021
    11  H    0.019903   0.059613  -0.007461   0.003532   0.539936   0.001529
    12  H    0.002205   0.012098   0.001278  -0.000021   0.001529   0.531901
    13  H   -0.001477  -0.001942  -0.000112  -0.000143  -0.000133  -0.023949
    14  H    0.001049   0.002157  -0.005443   0.001448  -0.000003  -0.002764
    15  H   -0.010923   0.017484   0.003855  -0.006861  -0.000153   0.003985
    16  H    0.011330  -0.000433   0.000004  -0.000015  -0.000222   0.000068
    17  H    0.421007  -0.033488   0.000052   0.000172  -0.000210  -0.000001
    18  H   -0.086301   0.437727  -0.000089   0.000156  -0.007060   0.000004
    19  O   -0.090434   0.255567  -0.000387   0.004292  -0.000403  -0.000073
    20  H   -0.033266   0.073174  -0.000117   0.005501   0.000065   0.000001
    21  O    0.308149  -0.010324   0.000010  -0.000040  -0.000298   0.000073
    22  H    0.015453  -0.076109   0.000000  -0.000006  -0.000008   0.000000
    23  C   -0.243459   0.121131   0.000526  -0.001132   0.007522   0.007055
    24  H   -0.010591  -0.003623   0.000000   0.000000   0.000002   0.000000
    25  H    0.074380  -0.003158   0.000000   0.000000  -0.000102   0.000012
    26  O    0.036493   0.012581   0.000017   0.000003   0.000576   0.001086
    27  H    0.000321  -0.015670  -0.000002  -0.000001  -0.000262  -0.000514
             13         14         15         16         17         18
     1  C    0.014217  -0.014869  -0.037362  -0.009396   0.016457   0.019445
     2  C    0.022060   0.008580  -0.024511   0.027568   0.006953  -0.071979
     3  N   -0.052600   0.015049   0.013050  -0.058254   0.023809   0.021538
     4  C    0.385329  -0.029323  -0.060123   0.027305   0.009680   0.006129
     5  C   -0.026286   0.358818   0.408712  -0.001625  -0.016462  -0.004401
     6  C   -0.000809  -0.001949   0.018814   0.318296  -0.092645   0.007458
     7  C   -0.001477   0.001049  -0.010923   0.011330   0.421007  -0.086301
     8  C   -0.001942   0.002157   0.017484  -0.000433  -0.033488   0.437727
     9  H   -0.000112  -0.005443   0.003855   0.000004   0.000052  -0.000089
    10  H   -0.000143   0.001448  -0.006861  -0.000015   0.000172   0.000156
    11  H   -0.000133  -0.000003  -0.000153  -0.000222  -0.000210  -0.007060
    12  H   -0.023949  -0.002764   0.003985   0.000068  -0.000001   0.000004
    13  H    0.520187   0.001059  -0.005109   0.001825   0.000051   0.000006
    14  H    0.001059   0.512692  -0.023165  -0.000129   0.000063   0.000003
    15  H   -0.005109  -0.023165   0.520891   0.000679  -0.000188  -0.000001
    16  H    0.001825  -0.000129   0.000679   0.534778  -0.008262  -0.000129
    17  H    0.000051   0.000063  -0.000188  -0.008262   0.558011   0.004438
    18  H    0.000006   0.000003  -0.000001  -0.000129   0.004438   0.532670
    19  O    0.000018   0.000013  -0.000325   0.000007  -0.017230  -0.058519
    20  H    0.000000   0.000007  -0.000007  -0.000031   0.005785   0.007220
    21  O   -0.000007   0.000008   0.000208   0.004224  -0.045871  -0.001481
    22  H    0.000000   0.000000  -0.000004  -0.000172  -0.004877  -0.000891
    23  C   -0.007015   0.000165   0.005750  -0.028964  -0.000984   0.007726
    24  H   -0.000016   0.000000  -0.000001  -0.004650  -0.000107   0.000065
    25  H   -0.000023   0.000000   0.000001   0.004460  -0.000242  -0.000315
    26  O    0.001095   0.000020  -0.000036   0.000300  -0.000530  -0.000704
    27  H   -0.000162  -0.000006   0.000002   0.000369  -0.000008   0.000065
             19         20         21         22         23         24
     1  C   -0.005781   0.027421   0.007071  -0.000698   0.051978   0.001087
     2  C   -0.073947  -0.080852  -0.024946   0.012366  -0.164751   0.003288
     3  N   -0.002391   0.006006   0.036055  -0.004470   0.168059   0.009818
     4  C    0.001701   0.001976   0.000966  -0.001337  -0.051037  -0.003369
     5  C    0.005667  -0.002164  -0.001573   0.000556  -0.027374   0.000834
     6  C    0.036644   0.001596  -0.252698   0.067236  -0.580247  -0.122376
     7  C   -0.090434  -0.033266   0.308149   0.015453  -0.243459  -0.010591
     8  C    0.255567   0.073174  -0.010324  -0.076109   0.121131  -0.003623
     9  H   -0.000387  -0.000117   0.000010   0.000000   0.000526   0.000000
    10  H    0.004292   0.005501  -0.000040  -0.000006  -0.001132   0.000000
    11  H   -0.000403   0.000065  -0.000298  -0.000008   0.007522   0.000002
    12  H   -0.000073   0.000001   0.000073   0.000000   0.007055   0.000000
    13  H    0.000018   0.000000  -0.000007   0.000000  -0.007015  -0.000016
    14  H    0.000013   0.000007   0.000008   0.000000   0.000165   0.000000
    15  H   -0.000325  -0.000007   0.000208  -0.000004   0.005750  -0.000001
    16  H    0.000007  -0.000031   0.004224  -0.000172  -0.028964  -0.004650
    17  H   -0.017230   0.005785  -0.045871  -0.004877  -0.000984  -0.000107
    18  H   -0.058519   0.007220  -0.001481  -0.000891   0.007726   0.000065
    19  O    8.207134   0.242233  -0.010233   0.013915   0.001490   0.000076
    20  H    0.242233   0.382693  -0.002172  -0.000387   0.001015   0.000000
    21  O   -0.010233  -0.002172   8.281628   0.223779   0.013971   0.003454
    22  H    0.013915  -0.000387   0.223779   0.376801  -0.005177   0.000068
    23  C    0.001490   0.001015   0.013971  -0.005177   5.735585   0.510894
    24  H    0.000076   0.000000   0.003454   0.000068   0.510894   0.534136
    25  H   -0.000348  -0.000006  -0.004596  -0.000170   0.405719  -0.037369
    26  O    0.000108  -0.000007  -0.000847   0.000078   0.150954  -0.059289
    27  H    0.000056   0.000000   0.000082   0.000001   0.033453   0.006617
             25         26         27
     1  C   -0.002955   0.001960  -0.003851
     2  C    0.011652  -0.015520   0.031359
     3  N    0.010756  -0.007852   0.050158
     4  C    0.000522  -0.019548  -0.009635
     5  C    0.000723  -0.002073   0.008027
     6  C   -0.141546  -0.055573  -0.072809
     7  C    0.074380   0.036493   0.000321
     8  C   -0.003158   0.012581  -0.015670
     9  H    0.000000   0.000017  -0.000002
    10  H    0.000000   0.000003  -0.000001
    11  H   -0.000102   0.000576  -0.000262
    12  H    0.000012   0.001086  -0.000514
    13  H   -0.000023   0.001095  -0.000162
    14  H    0.000000   0.000020  -0.000006
    15  H    0.000001  -0.000036   0.000002
    16  H    0.004460   0.000300   0.000369
    17  H   -0.000242  -0.000530  -0.000008
    18  H   -0.000315  -0.000704   0.000065
    19  O   -0.000348   0.000108   0.000056
    20  H   -0.000006  -0.000007   0.000000
    21  O   -0.004596  -0.000847   0.000082
    22  H   -0.000170   0.000078   0.000001
    23  C    0.405719   0.150954   0.033453
    24  H   -0.037369  -0.059289   0.006617
    25  H    0.586451  -0.052045  -0.003811
    26  O   -0.052045   8.307356   0.228463
    27  H   -0.003811   0.228463   0.366934
 Mulliken atomic charges:
              1
     1  C   -0.381436
     2  C   -0.025453
     3  N   -0.209127
     4  C   -0.193288
     5  C   -0.276633
     6  C   -0.133879
     7  C   -0.089861
     8  C   -0.225763
     9  H    0.183337
    10  H    0.153079
    11  H    0.178504
    12  H    0.172916
    13  H    0.173938
    14  H    0.176519
    15  H    0.175340
    16  H    0.181070
    17  H    0.174626
    18  H    0.187217
    19  O   -0.508850
    20  H    0.364316
    21  O   -0.524594
    22  H    0.384053
    23  C   -0.112851
    24  H    0.171052
    25  H    0.152011
    26  O   -0.527067
    27  H    0.380825
 Sum of Mulliken atomic charges =   0.00000
 Mulliken charges with hydrogens summed into heavy atoms:
              1
     1  C   -0.045020
     2  C    0.153051
     3  N   -0.209127
     4  C    0.153565
     5  C    0.075226
     6  C    0.047192
     7  C    0.084766
     8  C   -0.038546
    19  O   -0.144534
    21  O   -0.140541
    23  C    0.210212
    26  O   -0.146242
 Sum of Mulliken charges with hydrogens summed into heavy atoms =   0.00000
 Electronic spatial extent (au):  <R**2>=           2005.0211
 Charge=              0.0000 electrons
 Dipole moment (field-independent basis, Debye):
    X=              5.4471    Y=             -0.6237    Z=              2.0432  Tot=              5.8510
 Quadrupole moment (field-independent basis, Debye-Ang):
   XX=            -85.1406   YY=            -72.8968   ZZ=            -72.5208
   XY=             -5.0690   XZ=              2.9238   YZ=              2.7308
 Traceless Quadrupole moment (field-independent basis, Debye-Ang):
   XX=             -8.2879   YY=              3.9559   ZZ=              4.3320
   XY=             -5.0690   XZ=              2.9238   YZ=              2.7308
 Octapole moment (field-independent basis, Debye-Ang**2):
  XXX=             53.1749  YYY=              4.4897  ZZZ=             -2.1207  XYY=              8.0622
  XXY=             14.8625  XXZ=             13.0927  XZZ=             -0.1684  YZZ=              0.0418
  YYZ=             10.7505  XYZ=             15.3816
 Hexadecapole moment (field-independent basis, Debye-Ang**3):
 XXXX=          -1365.1537 YYYY=           -975.0868 ZZZZ=           -296.4811 XXXY=            -53.3227
 XXXZ=            -16.3573 YYYX=             -6.0502 YYYZ=             50.4679 ZZZX=              1.8063
 ZZZY=              4.4186 XXYY=           -413.8332 XXZZ=           -261.5062 YYZZ=           -224.5316
 XXYZ=             12.2799 YYXZ=             31.4775 ZZXY=              5.0826
 N-N= 8.094736418995D+02 E-N=-3.004224019309D+03  KE= 5.886588523623D+02
 1\1\GINC-COMPUTE-3-2\SP\RmPW1PW91\6-31+G(d,p)\C8H15N1O3\MAMICHETTI.IQU
 IR\17-May-2024\0\\# mpw1pw91/6-31+G** nmr scrf=(pcm,solvent=water)\\co
 mment\\0,1\C,0,2.257113,-0.759665,-0.079627\C,0,1.035423,-0.216275,-0.
 884555\N,0,-0.165002,-0.990831,-0.430612\C,0,0.369364,-2.208828,0.2124
 49\C,0,1.661136,-1.774926,0.915982\C,0,-0.982367,-0.123755,0.475808\C,
 0,-0.180289,1.173953,0.655406\C,0,0.640439,1.252664,-0.634395\H,0,2.95
 2111,-1.255935,-0.764727\H,0,2.821237,0.032041,0.423867\H,0,1.200702,-
 0.382831,-1.953461\H,0,0.599173,-2.945049,-0.568921\H,0,-0.38125,-2.65
 0209,0.873374\H,0,2.336233,-2.611226,1.124688\H,0,1.422501,-1.290132,1
 .87053\H,0,-1.131692,-0.63366,1.433123\H,0,0.515985,1.064461,1.501477\
 H,0,-0.014694,1.58934,-1.444829\O,0,1.698931,2.202924,-0.604211\H,0,2.
 245971,2.017397,0.178018\O,0,-1.031357,2.296225,0.877129\H,0,-0.460384
 ,3.083393,0.857964\C,0,-2.364058,0.09105,-0.161024\H,0,-3.052101,0.556
 04,0.550263\H,0,-2.28666,0.748329,-1.039389\O,0,-2.923722,-1.170519,-0
 .528574\H,0,-2.183506,-1.620485,-0.982714\\Version=AM64L-G09RevC.01\St
 ate=1-A\HF=-594.1960508\RMSD=3.125e-09\Dipole=2.1430506,-0.2453854,0.8
 038708\Quadrupole=-6.161841,2.9411229,3.2207182,-3.7686773,2.1737763,2
 .030268\PG=C01 [X(C8H15N1O3)]\\@


 EVERYTHING'S GOT A MORAL, IF ONLY YOU CAN FIND IT.

                                    -- LEWIS CARROL, ALICE IN WONDERLAND
 Job cpu time:  0 days  0 hours  8 minutes 58.9 seconds.
 File lengths (MBytes):  RWF=    112 Int=      0 D2E=      0 Chk=      7 Scr=      1
 Normal termination of Gaussian 09 at Fri May 17 12:40:21 2024.
