 Entering Gaussian System, Link 0=g09
 Input=/home/mamichetti.iquir/Linux/03_Cardona_A1A3_R__S_S_R_040_OptB.gjc
 Output=/home/mamichetti.iquir/Linux/03_Cardona_A1A3_R__S_S_R_040_OptB.log
 Initial command:
 /opt/ohpc/pub/apps/software/Gaussian/09/AMD64.SSE4a-enabled/g09/l1.exe /local/mamichetti.iquir/Gau-132078.inp -scrdir=/local/mamichetti.iquir/
 Entering Link 1 = /opt/ohpc/pub/apps/software/Gaussian/09/AMD64.SSE4a-enabled/g09/l1.exe PID=    132079.
  
 Copyright (c) 1988,1990,1992,1993,1995,1998,2003,2009,2011,
            Gaussian, Inc.  All Rights Reserved.
  
 This is part of the Gaussian(R) 09 program.  It is based on
 the Gaussian(R) 03 system (copyright 2003, Gaussian, Inc.),
 the Gaussian(R) 98 system (copyright 1998, Gaussian, Inc.),
 the Gaussian(R) 94 system (copyright 1995, Gaussian, Inc.),
 the Gaussian 92(TM) system (copyright 1992, Gaussian, Inc.),
 the Gaussian 90(TM) system (copyright 1990, Gaussian, Inc.),
 the Gaussian 88(TM) system (copyright 1988, Gaussian, Inc.),
 the Gaussian 86(TM) system (copyright 1986, Carnegie Mellon
 University), and the Gaussian 82(TM) system (copyright 1983,
 Carnegie Mellon University). Gaussian is a federally registered
 trademark of Gaussian, Inc.
  
 This software contains proprietary and confidential information,
 including trade secrets, belonging to Gaussian, Inc.
  
 This software is provided under written license and may be
 used, copied, transmitted, or stored only in accord with that
 written license.
  
 The following legend is applicable only to US Government
 contracts under FAR:
  
                    RESTRICTED RIGHTS LEGEND
  
 Use, reproduction and disclosure by the US Government is
 subject to restrictions as set forth in subparagraphs (a)
 and (c) of the Commercial Computer Software - Restricted
 Rights clause in FAR 52.227-19.
  
 Gaussian, Inc.
 340 Quinnipiac St., Bldg. 40, Wallingford CT 06492
  
  
 ---------------------------------------------------------------
 Warning -- This program may not be used in any manner that
 competes with the business of Gaussian, Inc. or will provide
 assistance to any competitor of Gaussian, Inc.  The licensee
 of this program is prohibited from giving any competitor of
 Gaussian, Inc. access to this program.  By using this program,
 the user acknowledges that Gaussian, Inc. is engaged in the
 business of creating and licensing software in the field of
 computational chemistry and represents and warrants to the
 licensee that it is not a competitor of Gaussian, Inc. and that
 it will not use this program in any manner prohibited above.
 ---------------------------------------------------------------
  

 Cite this work as:
 Gaussian 09, Revision C.01,
 M. J. Frisch, G. W. Trucks, H. B. Schlegel, G. E. Scuseria, 
 M. A. Robb, J. R. Cheeseman, G. Scalmani, V. Barone, B. Mennucci, 
 G. A. Petersson, H. Nakatsuji, M. Caricato, X. Li, H. P. Hratchian, 
 A. F. Izmaylov, J. Bloino, G. Zheng, J. L. Sonnenberg, M. Hada, 
 M. Ehara, K. Toyota, R. Fukuda, J. Hasegawa, M. Ishida, T. Nakajima, 
 Y. Honda, O. Kitao, H. Nakai, T. Vreven, J. A. Montgomery, Jr., 
 J. E. Peralta, F. Ogliaro, M. Bearpark, J. J. Heyd, E. Brothers, 
 K. N. Kudin, V. N. Staroverov, T. Keith, R. Kobayashi, J. Normand, 
 K. Raghavachari, A. Rendell, J. C. Burant, S. S. Iyengar, J. Tomasi, 
 M. Cossi, N. Rega, J. M. Millam, M. Klene, J. E. Knox, J. B. Cross, 
 V. Bakken, C. Adamo, J. Jaramillo, R. Gomperts, R. E. Stratmann, 
 O. Yazyev, A. J. Austin, R. Cammi, C. Pomelli, J. W. Ochterski, 
 R. L. Martin, K. Morokuma, V. G. Zakrzewski, G. A. Voth, 
 P. Salvador, J. J. Dannenberg, S. Dapprich, A. D. Daniels, 
 O. Farkas, J. B. Foresman, J. V. Ortiz, J. Cioslowski, 
 and D. J. Fox, Gaussian, Inc., Wallingford CT, 2010.
 
 ******************************************
 Gaussian 09:  AM64L-G09RevC.01 23-Sep-2011
                17-May-2024 
 ******************************************
 %nprocshared=4
 Will use up to    4 processors via shared memory.
 ------------------------------------------------
 # mpw1pw91/6-31+G** nmr scrf=(pcm,solvent=water)
 ------------------------------------------------
 1/38=1/1;
 2/12=2,17=6,18=5,40=1/2;
 3/5=1,6=6,7=111,11=2,16=1,25=1,30=1,70=2201,72=1,74=-7/1,2,8,3;
 4//1;
 5/5=2,38=5,53=1/2;
 8/6=1,10=90,11=11/1;
 10/13=100,45=16/2;
 6/7=2,8=2,9=2,10=2,28=1/1;
 99/9=1/99;
 -------
 comment
 -------
 Charge =  0 Multiplicity = 1
 Symbolic Z-Matrix:
 6                    -2.46407   0.3115   -0.43003 
 6                    -1.10506  -0.35252  -0.71065 
 7                    -0.05805   0.6742   -0.37821 
 6                    -0.73362   1.79009   0.30874 
 6                    -2.12696   1.80993  -0.31929 
 6                     1.02628   0.01285   0.38123 
 6                     0.80737  -1.4953    0.17217 
 6                    -0.72923  -1.60872   0.10562 
 1                    -3.19926   0.0935   -1.2101 
 1                    -2.86751  -0.05041   0.52153 
 1                    -1.01485  -0.61823  -1.77073 
 1                    -0.18978   2.73132   0.17102 
 1                    -0.80752   1.61071   1.39697 
 1                    -2.08327   2.26962  -1.31389 
 1                    -2.84991   2.37042   0.28178 
 1                     0.90421   0.21106   1.46044 
 1                     1.21952  -2.0847    1.00007 
 1                    -1.03697  -2.53278  -0.3928 
 8                    -1.30487  -1.67655   1.41339 
 1                    -1.11094  -0.8488    1.88553 
 8                     1.4018   -1.89269  -1.06939 
 1                     1.22027  -2.84124  -1.17883 
 6                     2.42062   0.50224  -0.0031 
 1                     3.17431  -0.06748   0.5511 
 1                     2.59725   0.35226  -1.07422 
 8                     2.62895   1.87667   0.34821 
 1                     2.0718    2.40541  -0.24615 
 
                          Input orientation:                          
 ---------------------------------------------------------------------
 Center     Atomic      Atomic             Coordinates (Angstroms)
 Number     Number       Type             X           Y           Z
 ---------------------------------------------------------------------
      1          6           0       -2.464067    0.311501   -0.430026
      2          6           0       -1.105061   -0.352520   -0.710647
      3          7           0       -0.058053    0.674200   -0.378213
      4          6           0       -0.733622    1.790092    0.308741
      5          6           0       -2.126955    1.809932   -0.319294
      6          6           0        1.026280    0.012849    0.381232
      7          6           0        0.807370   -1.495296    0.172166
      8          6           0       -0.729232   -1.608721    0.105619
      9          1           0       -3.199258    0.093501   -1.210101
     10          1           0       -2.867510   -0.050414    0.521526
     11          1           0       -1.014851   -0.618230   -1.770726
     12          1           0       -0.189783    2.731319    0.171018
     13          1           0       -0.807521    1.610712    1.396974
     14          1           0       -2.083268    2.269623   -1.313888
     15          1           0       -2.849913    2.370418    0.281776
     16          1           0        0.904208    0.211058    1.460435
     17          1           0        1.219521   -2.084701    1.000067
     18          1           0       -1.036971   -2.532782   -0.392796
     19          8           0       -1.304870   -1.676547    1.413388
     20          1           0       -1.110941   -0.848796    1.885526
     21          8           0        1.401798   -1.892693   -1.069392
     22          1           0        1.220273   -2.841243   -1.178825
     23          6           0        2.420616    0.502243   -0.003097
     24          1           0        3.174307   -0.067480    0.551098
     25          1           0        2.597252    0.352260   -1.074218
     26          8           0        2.628952    1.876673    0.348205
     27          1           0        2.071803    2.405406   -0.246153
 ---------------------------------------------------------------------
                    Distance matrix (angstroms):
                    1          2          3          4          5
     1  C    0.000000
     2  C    1.538366   0.000000
     3  N    2.433750   1.503626   0.000000
     4  C    2.393000   2.401646   1.474284   0.000000
     5  C    1.539871   2.423556   2.360871   1.528463   0.000000
     6  C    3.595811   2.422459   1.479838   2.502220   3.696368
     7  C    3.785426   2.396391   2.399706   3.631402   4.447058
     8  C    2.642692   1.544532   2.428230   3.404880   3.717710
     9  H    1.093868   2.198647   3.300972   3.356287   2.211223
    10  H    1.095080   2.171577   3.037704   2.825990   2.171701
    11  H    2.182224   1.096589   2.127188   3.194259   3.039638
    12  H    3.374780   3.335435   2.133248   1.095736   2.200453
    13  H    2.787476   2.895665   2.142439   1.105391   2.173976
    14  H    2.181848   2.862939   2.742692   2.164352   1.096559
    15  H    2.212392   3.382869   3.332750   2.194583   1.094577
    16  H    3.863833   3.011375   2.126282   2.549948   3.861578
    17  H    4.621230   3.366107   3.338171   4.393941   5.301677
    18  H    3.182442   2.204361   3.353092   4.389922   4.478017
    19  O    2.948601   2.510876   3.207865   3.682955   3.979139
    20  H    2.922160   2.643187   2.924484   3.097152   3.600326
    21  O    4.495795   2.963979   3.032793   4.474614   5.169543
    22  H    4.906613   3.438039   3.825367   5.242120   5.794494
    23  C    4.907013   3.696166   2.512784   3.421259   4.742408
    24  H    5.735634   4.470597   3.444105   4.333730   5.690838
    25  H    5.102313   3.786294   2.763822   3.882610   5.001285
    26  O    5.384631   4.475860   3.032098   3.363920   4.802985
    27  H    4.999236   4.232538   2.747872   2.925223   4.241404
                    6          7          8          9         10
     6  C    0.000000
     7  C    1.538223   0.000000
     8  C    2.405675   1.542219   0.000000
     9  H    4.515974   4.526368   3.275623   0.000000
    10  H    3.896830   3.964149   2.678345   1.768983   0.000000
    11  H    3.032392   2.804383   2.140869   2.364846   3.001530
    12  H    2.985478   4.342648   4.373926   4.233499   3.876998
    13  H    2.635854   3.708816   3.469651   3.849568   2.787347
    14  H    4.199494   4.973807   4.346259   2.447797   3.060450
    15  H    4.537940   5.322732   4.512412   2.744465   2.432739
    16  H    1.104023   2.140247   2.795577   4.897348   3.895610
    17  H    2.195453   1.096671   2.196414   5.399538   4.590332
    18  H    3.366951   2.190240   1.094079   3.498690   3.216988
    19  O    3.058376   2.456632   1.430461   3.688424   2.425195
    20  H    2.751917   2.652071   1.972627   3.851220   2.362931
    21  O    2.424132   1.432737   2.450016   5.013430   4.914469
    22  H    3.258413   1.951215   2.639977   5.305276   5.233535
    23  C    1.526888   2.573605   3.793353   5.762544   5.342746
    24  H    2.156230   2.790097   4.220366   6.614383   6.041913
    25  H    2.168291   2.858429   4.037692   5.803874   5.707203
    26  O    2.458351   3.836577   4.846052   6.290950   5.827075
    27  H    2.685342   4.121803   4.907418   5.835939   5.569308
                   11         12         13         14         15
    11  H    0.000000
    12  H    3.958609   0.000000
    13  H    3.878852   1.772097   0.000000
    14  H    3.112862   2.450183   3.067648   0.000000
    15  H    4.063525   2.686784   2.447894   1.773146   0.000000
    16  H    3.848494   3.034984   2.212030   4.567228   4.488374
    17  H    3.849708   5.086011   4.233499   5.934892   6.076539
    18  H    2.358959   5.361564   4.519344   5.000624   5.270975
    19  O    3.367897   4.713405   3.324710   4.859650   4.477235
    20  H    3.664775   4.074959   2.525852   4.572331   3.994919
    21  O    2.820695   5.045120   4.820570   5.434182   6.170642
    22  H    3.207478   5.904556   5.528706   6.087083   6.772088
    23  C    4.022736   3.437045   3.689142   5.012662   5.599081
    24  H    4.821124   4.392589   4.403043   6.048332   6.504391
    25  H    3.804506   3.870155   4.391238   5.063693   5.965173
    26  O    4.898133   2.950777   3.602776   5.012183   5.501469
    27  H    4.581935   2.322719   3.409092   4.292215   4.950073
                   16         17         18         19         20
    16  H    0.000000
    17  H    2.362598   0.000000
    18  H    3.838137   2.689349   0.000000
    19  O    2.906078   2.590362   2.016732   0.000000
    20  H    2.316208   2.782544   2.834084   0.972468   0.000000
    21  O    3.327670   2.086325   2.610573   3.679262   4.016854
    22  H    4.047485   2.306497   2.410008   3.801635   4.335280
    23  C    2.127489   3.023449   4.617158   4.542334   4.226594
    24  H    2.461265   2.844634   4.970263   4.836907   4.555711
    25  H    3.051361   3.484190   4.689923   5.052801   4.894212
    26  O    2.643118   4.254868   5.781986   5.406935   4.876304
    27  H    3.015109   4.737142   5.837095   5.551427   5.026305
                   21         22         23         24         25
    21  O    0.000000
    22  H    0.971943   0.000000
    23  C    2.812596   3.741932   0.000000
    24  H    3.016484   3.808496   1.095339   0.000000
    25  H    2.543413   3.479292   1.095899   1.775057   0.000000
    26  O    4.209942   5.155088   1.433832   2.029362   2.085216
    27  H    4.427221   5.396509   1.950071   2.822462   2.275345
                   26         27
    26  O    0.000000
    27  H    0.971203   0.000000
 Stoichiometry    C8H15NO3
 Framework group  C1[X(C8H15NO3)]
 Deg. of freedom    75
 Full point group                 C1      NOp   1
 Largest Abelian subgroup         C1      NOp   1
 Largest concise Abelian subgroup C1      NOp   1
                         Standard orientation:                         
 ---------------------------------------------------------------------
 Center     Atomic      Atomic             Coordinates (Angstroms)
 Number     Number       Type             X           Y           Z
 ---------------------------------------------------------------------
      1          6           0       -2.464067    0.311502   -0.430026
      2          6           0       -1.105061   -0.352520   -0.710647
      3          7           0       -0.058053    0.674200   -0.378213
      4          6           0       -0.733621    1.790092    0.308741
      5          6           0       -2.126954    1.809933   -0.319294
      6          6           0        1.026280    0.012849    0.381232
      7          6           0        0.807370   -1.495296    0.172166
      8          6           0       -0.729232   -1.608721    0.105619
      9          1           0       -3.199258    0.093502   -1.210101
     10          1           0       -2.867510   -0.050413    0.521526
     11          1           0       -1.014851   -0.618230   -1.770726
     12          1           0       -0.189782    2.731319    0.171018
     13          1           0       -0.807520    1.610712    1.396974
     14          1           0       -2.083267    2.269624   -1.313888
     15          1           0       -2.849912    2.370419    0.281776
     16          1           0        0.904208    0.211058    1.460435
     17          1           0        1.219521   -2.084701    1.000067
     18          1           0       -1.036972   -2.532782   -0.392796
     19          8           0       -1.304870   -1.676547    1.413388
     20          1           0       -1.110941   -0.848796    1.885526
     21          8           0        1.401798   -1.892693   -1.069392
     22          1           0        1.220272   -2.841243   -1.178825
     23          6           0        2.420616    0.502242   -0.003097
     24          1           0        3.174307   -0.067481    0.551098
     25          1           0        2.597252    0.352259   -1.074218
     26          8           0        2.628953    1.876672    0.348205
     27          1           0        2.071804    2.405405   -0.246153
 ---------------------------------------------------------------------
 Rotational constants (GHZ):      1.1532629      0.9004676      0.6101627
 Standard basis: 6-31+G(d,p) (6D, 7F)
 There are   303 symmetry adapted basis functions of A   symmetry.
 Integral buffers will be    131072 words long.
 Raffenetti 2 integral format.
 Two-electron integral symmetry is turned on.
   303 basis functions,   489 primitive gaussians,   303 cartesian basis functions
    47 alpha electrons       47 beta electrons
       nuclear repulsion energy       808.1522991985 Hartrees.
 NAtoms=   27 NActive=   27 NUniq=   27 SFac= 1.00D+00 NAtFMM=   60 NAOKFM=F Big=F
 ------------------------------------------------------------------------------
 Polarizable Continuum Model (PCM)
 =================================
 Model                : PCM.
 Atomic radii         : UFF (Universal Force Field).
 Polarization charges : Total charges.
 Charge compensation  : None.
 Solution method      : Matrix inversion.
 Cavity type          : Scaled VdW (van der Waals Surface) (Alpha=1.100).
 Cavity algorithm     : GePol (No added spheres)
                        Default sphere list used, NSphG=   27.
                        Lebedev-Laikov grids with approx.  5.0 points / Ang**2.
                        Smoothing algorithm: Karplus/York (Gamma=1.0000).
                        Polarization charges: spherical gaussians, with
                                              point-specific exponents (IZeta= 3).
                        Self-potential: point-specific (ISelfS= 7).
                        Self-field    : sphere-specific E.n sum rule (ISelfD= 2).
 Solvent              : Water, Eps=  78.355300 Eps(inf)=   1.777849
 ------------------------------------------------------------------------------
 One-electron integrals computed using PRISM.
 NBasis=   303 RedAO= T  NBF=   303
 NBsUse=   303 1.00D-06 NBFU=   303
 Harris functional with IExCor=  908 diagonalized for initial guess.
 ExpMin= 4.38D-02 ExpMax= 5.48D+03 ExpMxC= 8.25D+02 IAcc=2 IRadAn=         4 AccDes= 0.00D+00
 HarFok:  IExCor=  908 AccDes= 0.00D+00 IRadAn=         4 IDoV= 1
 ScaDFX=  1.000000  1.000000  1.000000  1.000000
 FoFCou: FMM=F IPFlag=           0 FMFlag=      100000 FMFlg1=           0
         NFxFlg=           0 DoJE=T BraDBF=F KetDBF=T FulRan=T
         Omega=  0.000000  0.000000  1.000000  0.000000  0.000000 ICntrl=     500 IOpCl=  0
         NMat0=    1 NMatS0=    1 NMatT0=    0 NMatD0=    1 NMtDS0=    0 NMtDT0=    0
         I1Cent=           4 NGrid=           0.
 Petite list used in FoFCou.
 Initial guess orbital symmetries:
       Occupied  (A) (A) (A) (A) (A) (A) (A) (A) (A) (A) (A) (A)
                 (A) (A) (A) (A) (A) (A) (A) (A) (A) (A) (A) (A)
                 (A) (A) (A) (A) (A) (A) (A) (A) (A) (A) (A) (A)
                 (A) (A) (A) (A) (A) (A) (A) (A) (A) (A) (A)
       Virtual   (A) (A) (A) (A) (A) (A) (A) (A) (A) (A) (A) (A)
                 (A) (A) (A) (A) (A) (A) (A) (A) (A) (A) (A) (A)
                 (A) (A) (A) (A) (A) (A) (A) (A) (A) (A) (A) (A)
                 (A) (A) (A) (A) (A) (A) (A) (A) (A) (A) (A) (A)
                 (A) (A) (A) (A) (A) (A) (A) (A) (A) (A) (A) (A)
                 (A) (A) (A) (A) (A) (A) (A) (A) (A) (A) (A) (A)
                 (A) (A) (A) (A) (A) (A) (A) (A) (A) (A) (A) (A)
                 (A) (A) (A) (A) (A) (A) (A) (A) (A) (A) (A) (A)
                 (A) (A) (A) (A) (A) (A) (A) (A) (A) (A) (A) (A)
                 (A) (A) (A) (A) (A) (A) (A) (A) (A) (A) (A) (A)
                 (A) (A) (A) (A) (A) (A) (A) (A) (A) (A) (A) (A)
                 (A) (A) (A) (A) (A) (A) (A) (A) (A) (A) (A) (A)
                 (A) (A) (A) (A) (A) (A) (A) (A) (A) (A) (A) (A)
                 (A) (A) (A) (A) (A) (A) (A) (A) (A) (A) (A) (A)
                 (A) (A) (A) (A) (A) (A) (A) (A) (A) (A) (A) (A)
                 (A) (A) (A) (A) (A) (A) (A) (A) (A) (A) (A) (A)
                 (A) (A) (A) (A) (A) (A) (A) (A) (A) (A) (A) (A)
                 (A) (A) (A) (A) (A) (A) (A) (A) (A) (A) (A) (A)
                 (A) (A) (A) (A) (A) (A) (A) (A) (A) (A) (A) (A)
                 (A) (A) (A) (A) (A) (A) (A) (A) (A) (A) (A) (A)
                 (A) (A) (A) (A) (A) (A) (A) (A) (A) (A) (A) (A)
                 (A) (A) (A) (A)
 The electronic state of the initial guess is 1-A.
 Requested convergence on RMS density matrix=1.00D-08 within 128 cycles.
 Requested convergence on MAX density matrix=1.00D-06.
 Requested convergence on             energy=1.00D-06.
 No special actions if energy rises.
 Error on total polarization charges =  0.01427
 SCF Done:  E(RmPW1PW91) =  -594.194659934     A.U. after   13 cycles
             Convg  =    0.4052D-08             -V/T =  2.0094
 Range of M.O.s used for correlation:     1   303
 NBasis=   303 NAE=    47 NBE=    47 NFC=     0 NFV=     0
 NROrb=    303 NOA=    47 NOB=    47 NVA=   256 NVB=   256

 **** Warning!!: The largest alpha MO coefficient is  0.78340214D+02

 NEqPCM:  Using equilibrium solvation (IEInf=0, Eps=  78.3553, EpsInf=   1.7778)
          Differentiating once with respect to magnetic field using GIAOs.
          Electric field/nuclear overlap derivatives assumed to be zero.
 FoFCou: FMM=F IPFlag=           0 FMFlag=    10101102 FMFlg1=           0
         NFxFlg=    40000000 DoJE=F BraDBF=F KetDBF=T FulRan=T
         Omega=  0.000000  0.000000  1.000000  0.000000  0.000000 ICntrl=    6100 IOpCl=  0
         NMat0=    1 NMatS0=    1 NMatT0=    0 NMatD0=    1 NMtDS0=    0 NMtDT0=    0
         I1Cent=           7 NGrid=        1823.
 Symmetry not used in FoFCou.
          There are     3 degrees of freedom in the 1st order CPHF.  IDoFFX=0.
      3 vectors produced by pass  0 Test12= 4.01D-13 3.33D-08 XBig12= 4.51D+01 1.39D+00.
 AX will form     3 AO Fock derivatives at one time.
      3 vectors produced by pass  1 Test12= 4.01D-13 3.33D-08 XBig12= 1.08D-01 4.26D-02.
      3 vectors produced by pass  2 Test12= 4.01D-13 3.33D-08 XBig12= 2.65D-04 3.16D-03.
      3 vectors produced by pass  3 Test12= 4.01D-13 3.33D-08 XBig12= 1.45D-06 2.49D-04.
      3 vectors produced by pass  4 Test12= 4.01D-13 3.33D-08 XBig12= 3.55D-09 8.19D-06.
      3 vectors produced by pass  5 Test12= 4.01D-13 3.33D-08 XBig12= 1.04D-11 7.92D-07.
      1 vectors produced by pass  6 Test12= 4.01D-13 3.33D-08 XBig12= 4.61D-14 5.27D-08.
 Inverted reduced A of dimension    19 with in-core refinement.
 Calculating GIAO nuclear magnetic shielding tensors.
 SCF GIAO Magnetic shielding tensor (ppm):
      1  C    Isotropic =   172.0779   Anisotropy =    20.8796
   XX=   180.0043   YX=    -3.8032   ZX=     2.8126
   XY=     5.4808   YY=   184.5072   ZY=    10.2263
   XZ=     0.6321   YZ=     2.9123   ZZ=   151.7221
   Eigenvalues:   150.3754   179.8606   185.9976
      2  C    Isotropic =   126.2884   Anisotropy =    58.5297
   XX=   146.4570   YX=    16.5962   ZX=     9.0177
   XY=    19.2574   YY=   147.5158   ZY=     1.2193
   XZ=    10.6212   YZ=    -4.9179   ZZ=    84.8924
   Eigenvalues:    83.0129   130.5441   165.3082
      3  N    Isotropic =   186.5531   Anisotropy =    92.1555
   XX=   232.0671   YX=   -10.0009   ZX=    36.0859
   XY=   -14.2219   YY=   197.3464   ZY=     6.7114
   XZ=    46.7584   YZ=    15.6166   ZZ=   130.2457
   Eigenvalues:   112.9917   198.6774   247.9901
      4  C    Isotropic =   134.7411   Anisotropy =    54.4782
   XX=   136.2396   YX=   -20.9941   ZX=    -6.1130
   XY=   -30.4214   YY=   143.3071   ZY=    13.6194
   XZ=    -0.5563   YZ=    21.6616   ZZ=   124.6766
   Eigenvalues:   107.5063   125.6572   171.0599
      5  C    Isotropic =   163.3199   Anisotropy =    27.0148
   XX=   177.8536   YX=    -2.0599   ZX=     8.3032
   XY=    -2.2308   YY=   175.4245   ZY=    12.0822
   XZ=    16.6114   YZ=     3.6145   ZZ=   136.6815
   Eigenvalues:   131.6921   176.9378   181.3297
      6  C    Isotropic =   125.2538   Anisotropy =    38.7247
   XX=   136.7979   YX=   -10.3260   ZX=    10.2637
   XY=   -18.1556   YY=   124.5835   ZY=   -12.1708
   XZ=    12.0726   YZ=    -2.5918   ZZ=   114.3799
   Eigenvalues:   109.4954   115.1956   151.0702
      7  C    Isotropic =   110.8840   Anisotropy =    30.2449
   XX=   124.8039   YX=    -7.3512   ZX=    -9.9780
   XY=     2.7324   YY=   102.6142   ZY=    -1.8034
   XZ=   -13.1807   YZ=    15.1116   ZZ=   105.2338
   Eigenvalues:    95.7218   105.8829   131.0472
      8  C    Isotropic =   114.9478   Anisotropy =    34.9726
   XX=   119.4812   YX=    -1.0604   ZX=   -17.4123
   XY=    -7.3460   YY=   101.3317   ZY=     6.0372
   XZ=   -15.0707   YZ=    -8.1130   ZZ=   124.0306
   Eigenvalues:    98.9244   107.6563   138.2629
      9  H    Isotropic =    29.8612   Anisotropy =    11.7757
   XX=    33.2012   YX=     1.0681   ZX=     5.8344
   XY=     2.1931   YY=    27.3736   ZY=     2.2067
   XZ=     5.5486   YZ=     1.3796   ZZ=    29.0088
   Eigenvalues:    24.8965    26.9754    37.7117
     10  H    Isotropic =    29.6592   Anisotropy =     7.4077
   XX=    31.0778   YX=     0.1784   ZX=    -3.2396
   XY=    -0.0301   YY=    29.0839   ZY=    -4.0331
   XZ=    -3.5173   YZ=    -3.3065   ZZ=    28.8160
   Eigenvalues:    24.3399    30.0401    34.5977
     11  H    Isotropic =    27.4251   Anisotropy =     7.6567
   XX=    25.9826   YX=     0.1585   ZX=     1.3237
   XY=    -0.3850   YY=    25.5078   ZY=     3.6078
   XZ=     1.7382   YZ=     2.6849   ZZ=    30.7850
   Eigenvalues:    23.7605    25.9853    32.5296
     12  H    Isotropic =    28.3703   Anisotropy =     8.4749
   XX=    28.5618   YX=     0.8747   ZX=     0.1819
   XY=     1.8789   YY=    33.5314   ZY=     0.8634
   XZ=    -0.0324   YZ=     1.5945   ZZ=    23.0176
   Eigenvalues:    22.8746    28.2161    34.0202
     13  H    Isotropic =    29.2191   Anisotropy =     7.8300
   XX=    27.2808   YX=    -1.1928   ZX=    -1.3917
   XY=    -1.0840   YY=    28.2517   ZY=     3.9718
   XZ=    -0.0772   YZ=     3.1290   ZZ=    32.1247
   Eigenvalues:    25.8528    27.3653    34.4391
     14  H    Isotropic =    29.3528   Anisotropy =    10.5225
   XX=    26.8232   YX=    -0.7094   ZX=     2.2815
   XY=    -1.0795   YY=    30.9845   ZY=    -5.2191
   XZ=     2.4550   YZ=    -5.1635   ZZ=    30.2507
   Eigenvalues:    24.6686    27.0220    36.3678
     15  H    Isotropic =    29.4667   Anisotropy =    11.6428
   XX=    31.3757   YX=    -4.5107   ZX=    -2.3608
   XY=    -5.2001   YY=    31.2064   ZY=     2.7783
   XZ=    -2.2818   YZ=     2.5180   ZZ=    25.8181
   Eigenvalues:    24.7011    26.4704    37.2286
     16  H    Isotropic =    28.8098   Anisotropy =     5.3587
   XX=    29.0545   YX=     0.3737   ZX=     2.1725
   XY=     1.8154   YY=    26.7275   ZY=    -1.5849
   XZ=     2.5824   YZ=     0.8981   ZZ=    30.6474
   Eigenvalues:    25.8910    28.1562    32.3823
     17  H    Isotropic =    27.0970   Anisotropy =     5.1074
   XX=    25.6199   YX=    -2.6718   ZX=    -0.3651
   XY=    -2.5695   YY=    27.6149   ZY=    -1.6697
   XZ=     0.1249   YZ=    -2.2625   ZZ=    28.0563
   Eigenvalues:    23.4613    27.3278    30.5020
     18  H    Isotropic =    28.0220   Anisotropy =     6.5418
   XX=    25.3898   YX=     1.3223   ZX=    -1.1760
   XY=     1.7081   YY=    31.2553   ZY=     1.6125
   XZ=    -1.4205   YZ=     2.8359   ZZ=    27.4208
   Eigenvalues:    23.9611    27.7217    32.3832
     19  O    Isotropic =   286.2062   Anisotropy =    41.9667
   XX=   262.6518   YX=    14.8961   ZX=    35.7796
   XY=    15.4856   YY=   304.5532   ZY=     7.2104
   XZ=     0.3822   YZ=     0.5299   ZZ=   291.4137
   Eigenvalues:   251.1256   293.3090   314.1840
     20  H    Isotropic =    31.1878   Anisotropy =    13.1196
   XX=    25.4028   YX=     3.4223   ZX=    -2.0294
   XY=     1.5446   YY=    34.0754   ZY=     6.4329
   XZ=    -1.8636   YZ=     5.2540   ZZ=    34.0851
   Eigenvalues:    23.3755    30.2536    39.9341
     21  O    Isotropic =   292.8876   Anisotropy =    67.7668
   XX=   277.8548   YX=    17.0672   ZX=    10.9758
   XY=     9.5746   YY=   322.7060   ZY=    29.0606
   XZ=   -12.2767   YZ=    25.7874   ZZ=   278.1022
   Eigenvalues:   262.1728   278.4247   338.0655
     22  H    Isotropic =    30.2941   Anisotropy =    19.9042
   XX=    23.7033   YX=     0.5431   ZX=    -2.9465
   XY=     0.8438   YY=    41.6756   ZY=     4.8554
   XZ=    -2.2766   YZ=     6.8195   ZZ=    25.5033
   Eigenvalues:    20.9608    26.3578    43.5635
     23  C    Isotropic =   128.2265   Anisotropy =    47.6857
   XX=   124.2498   YX=     1.8489   ZX=    -4.3800
   XY=    13.6305   YY=   155.1973   ZY=    15.6540
   XZ=    -2.0147   YZ=    11.9128   ZZ=   105.2322
   Eigenvalues:   100.5788   124.0837   160.0169
     24  H    Isotropic =    27.7943   Anisotropy =     6.5475
   XX=    31.2203   YX=    -0.2491   ZX=     2.1915
   XY=    -1.7954   YY=    29.5182   ZY=    -0.6732
   XZ=     2.1561   YZ=     0.1714   ZZ=    22.6446
   Eigenvalues:    22.1250    29.0987    32.1593
     25  H    Isotropic =    27.5940   Anisotropy =     6.1045
   XX=    26.7081   YX=     2.6676   ZX=    -3.4278
   XY=     1.5483   YY=    29.4238   ZY=     4.6596
   XZ=    -3.3739   YZ=     2.0281   ZZ=    26.6499
   Eigenvalues:    21.4021    29.7161    31.6636
     26  O    Isotropic =   310.0528   Anisotropy =    41.8054
   XX=   311.8663   YX=   -24.6786   ZX=     9.2692
   XY=    -5.5751   YY=   313.3832   ZY=    -9.9203
   XZ=    21.5881   YZ=   -10.9620   ZZ=   304.9088
   Eigenvalues:   292.4109   299.8243   337.9230
     27  H    Isotropic =    30.2804   Anisotropy =    15.2489
   XX=    29.6992   YX=    -2.2870   ZX=     6.6406
   XY=    -3.0207   YY=    34.4530   ZY=    -6.0645
   XZ=     5.4891   YZ=    -5.7952   ZZ=    26.6891
   Eigenvalues:    21.0985    29.2964    40.4464
 End of Minotr Frequency-dependent properties file   721 does not exist.
 End of Minotr Frequency-dependent properties file   722 does not exist.

 **********************************************************************

            Population analysis using the SCF density.

 **********************************************************************

 Orbital symmetries:
       Occupied  (A) (A) (A) (A) (A) (A) (A) (A) (A) (A) (A) (A)
                 (A) (A) (A) (A) (A) (A) (A) (A) (A) (A) (A) (A)
                 (A) (A) (A) (A) (A) (A) (A) (A) (A) (A) (A) (A)
                 (A) (A) (A) (A) (A) (A) (A) (A) (A) (A) (A)
       Virtual   (A) (A) (A) (A) (A) (A) (A) (A) (A) (A) (A) (A)
                 (A) (A) (A) (A) (A) (A) (A) (A) (A) (A) (A) (A)
                 (A) (A) (A) (A) (A) (A) (A) (A) (A) (A) (A) (A)
                 (A) (A) (A) (A) (A) (A) (A) (A) (A) (A) (A) (A)
                 (A) (A) (A) (A) (A) (A) (A) (A) (A) (A) (A) (A)
                 (A) (A) (A) (A) (A) (A) (A) (A) (A) (A) (A) (A)
                 (A) (A) (A) (A) (A) (A) (A) (A) (A) (A) (A) (A)
                 (A) (A) (A) (A) (A) (A) (A) (A) (A) (A) (A) (A)
                 (A) (A) (A) (A) (A) (A) (A) (A) (A) (A) (A) (A)
                 (A) (A) (A) (A) (A) (A) (A) (A) (A) (A) (A) (A)
                 (A) (A) (A) (A) (A) (A) (A) (A) (A) (A) (A) (A)
                 (A) (A) (A) (A) (A) (A) (A) (A) (A) (A) (A) (A)
                 (A) (A) (A) (A) (A) (A) (A) (A) (A) (A) (A) (A)
                 (A) (A) (A) (A) (A) (A) (A) (A) (A) (A) (A) (A)
                 (A) (A) (A) (A) (A) (A) (A) (A) (A) (A) (A) (A)
                 (A) (A) (A) (A) (A) (A) (A) (A) (A) (A) (A) (A)
                 (A) (A) (A) (A) (A) (A) (A) (A) (A) (A) (A) (A)
                 (A) (A) (A) (A) (A) (A) (A) (A) (A) (A) (A) (A)
                 (A) (A) (A) (A) (A) (A) (A) (A) (A) (A) (A) (A)
                 (A) (A) (A) (A) (A) (A) (A) (A) (A) (A) (A) (A)
                 (A) (A) (A) (A) (A) (A) (A) (A) (A) (A) (A) (A)
                 (A) (A) (A) (A)
 The electronic state is 1-A.
 Alpha  occ. eigenvalues --  -19.26340 -19.26142 -19.25521 -14.41406 -10.30894
 Alpha  occ. eigenvalues --  -10.30614 -10.29421 -10.28365 -10.27810 -10.27251
 Alpha  occ. eigenvalues --  -10.24725 -10.24628  -1.07441  -1.05995  -1.05547
 Alpha  occ. eigenvalues --   -0.96407  -0.83097  -0.79060  -0.75547  -0.71985
 Alpha  occ. eigenvalues --   -0.67077  -0.61535  -0.60775  -0.58207  -0.55932
 Alpha  occ. eigenvalues --   -0.53873  -0.51937  -0.51412  -0.48035  -0.47045
 Alpha  occ. eigenvalues --   -0.45757  -0.45139  -0.43712  -0.42274  -0.40936
 Alpha  occ. eigenvalues --   -0.39873  -0.38294  -0.37200  -0.36727  -0.35776
 Alpha  occ. eigenvalues --   -0.34789  -0.34725  -0.33885  -0.32396  -0.29983
 Alpha  occ. eigenvalues --   -0.28435  -0.23307
 Alpha virt. eigenvalues --    0.00533   0.01388   0.01737   0.02135   0.03486
 Alpha virt. eigenvalues --    0.04238   0.04659   0.05173   0.05412   0.06673
 Alpha virt. eigenvalues --    0.07577   0.07958   0.08643   0.08749   0.09618
 Alpha virt. eigenvalues --    0.10631   0.11158   0.11894   0.12256   0.12514
 Alpha virt. eigenvalues --    0.12842   0.13853   0.14249   0.14859   0.15175
 Alpha virt. eigenvalues --    0.15651   0.17051   0.17260   0.17971   0.18669
 Alpha virt. eigenvalues --    0.18958   0.20019   0.20136   0.20282   0.21224
 Alpha virt. eigenvalues --    0.21354   0.21649   0.22012   0.22576   0.23364
 Alpha virt. eigenvalues --    0.24053   0.24568   0.25063   0.25551   0.26192
 Alpha virt. eigenvalues --    0.26209   0.26744   0.27266   0.28041   0.28157
 Alpha virt. eigenvalues --    0.29377   0.30120   0.30369   0.31482   0.31988
 Alpha virt. eigenvalues --    0.32414   0.32970   0.33789   0.34208   0.34811
 Alpha virt. eigenvalues --    0.35127   0.35450   0.36534   0.37126   0.37655
 Alpha virt. eigenvalues --    0.38787   0.39395   0.40619   0.40739   0.41621
 Alpha virt. eigenvalues --    0.42502   0.43176   0.44113   0.44542   0.46571
 Alpha virt. eigenvalues --    0.47230   0.63116   0.65879   0.66919   0.68615
 Alpha virt. eigenvalues --    0.69080   0.69791   0.72343   0.73322   0.74420
 Alpha virt. eigenvalues --    0.74586   0.76755   0.78567   0.80532   0.81507
 Alpha virt. eigenvalues --    0.82022   0.84679   0.85886   0.87404   0.88902
 Alpha virt. eigenvalues --    0.90152   0.90924   0.93487   0.94548   0.95536
 Alpha virt. eigenvalues --    0.97680   0.99758   1.01456   1.01967   1.05042
 Alpha virt. eigenvalues --    1.06206   1.06542   1.07566   1.08200   1.10264
 Alpha virt. eigenvalues --    1.10777   1.12484   1.14014   1.14524   1.15518
 Alpha virt. eigenvalues --    1.16749   1.18852   1.19882   1.22739   1.25410
 Alpha virt. eigenvalues --    1.27082   1.27788   1.30585   1.31388   1.33450
 Alpha virt. eigenvalues --    1.34571   1.36324   1.38918   1.40654   1.41510
 Alpha virt. eigenvalues --    1.43848   1.45222   1.46138   1.49685   1.50651
 Alpha virt. eigenvalues --    1.51492   1.54698   1.57371   1.58730   1.60153
 Alpha virt. eigenvalues --    1.62962   1.64169   1.66376   1.69789   1.70302
 Alpha virt. eigenvalues --    1.71356   1.74410   1.75739   1.77401   1.78891
 Alpha virt. eigenvalues --    1.80463   1.82259   1.82751   1.85547   1.87179
 Alpha virt. eigenvalues --    1.88494   1.89137   1.91674   1.92962   1.95494
 Alpha virt. eigenvalues --    1.98421   2.01116   2.01360   2.03343   2.04642
 Alpha virt. eigenvalues --    2.06585   2.07697   2.08943   2.09690   2.10656
 Alpha virt. eigenvalues --    2.10936   2.14450   2.15595   2.16457   2.17845
 Alpha virt. eigenvalues --    2.21940   2.22499   2.25498   2.27402   2.29867
 Alpha virt. eigenvalues --    2.30484   2.32989   2.34999   2.38347   2.40175
 Alpha virt. eigenvalues --    2.40668   2.42620   2.43860   2.46186   2.47778
 Alpha virt. eigenvalues --    2.48548   2.50382   2.51592   2.52673   2.53106
 Alpha virt. eigenvalues --    2.56656   2.57335   2.59661   2.60206   2.62241
 Alpha virt. eigenvalues --    2.64494   2.65777   2.66392   2.67435   2.67832
 Alpha virt. eigenvalues --    2.70890   2.72497   2.73580   2.76993   2.77624
 Alpha virt. eigenvalues --    2.78902   2.80014   2.81803   2.84908   2.86212
 Alpha virt. eigenvalues --    2.86686   2.89491   2.92242   2.93808   2.94969
 Alpha virt. eigenvalues --    2.96885   2.98968   3.00689   3.01925   3.04522
 Alpha virt. eigenvalues --    3.05067   3.06500   3.12557   3.15200   3.32220
 Alpha virt. eigenvalues --    3.34742   3.35676   3.37266   3.42889   3.44688
 Alpha virt. eigenvalues --    3.46302   3.50478   3.51465   3.54457   3.56131
 Alpha virt. eigenvalues --    3.57144   3.58672   3.60318   3.60684   4.31347
 Alpha virt. eigenvalues --    4.32594   4.37573   4.39829   4.49336   4.56970
 Alpha virt. eigenvalues --    4.60784   4.69914   4.77518   4.80316   4.89582
 Alpha virt. eigenvalues --    4.97407
          Condensed to atoms (all electrons):
              1          2          3          4          5          6
     1  C    6.447991  -1.529567   0.183260  -0.015093  -0.048675   0.362543
     2  C   -1.529567  11.101682  -0.648798  -0.714876   0.584328  -1.595934
     3  N    0.183260  -0.648798   7.643931   0.303279  -0.220584  -0.139331
     4  C   -0.015093  -0.714876   0.303279   6.014978  -0.406285  -0.020321
     5  C   -0.048675   0.584328  -0.220584  -0.406285   6.205186  -0.225240
     6  C    0.362543  -1.595934  -0.139331  -0.020321  -0.225240   9.777227
     7  C   -0.504207   2.151860  -0.429071  -0.037724   0.010278  -1.832304
     8  C    0.714930  -3.220737   0.322641   0.365720  -0.207739   1.309470
     9  H    0.395945  -0.094386   0.014015   0.026933  -0.027258   0.004984
    10  H    0.504024  -0.195093   0.032836   0.036078  -0.090521   0.006698
    11  H    0.073152   0.130629  -0.002145   0.036094  -0.044384   0.034385
    12  H    0.033633   0.008209  -0.051548   0.381083  -0.019499  -0.004551
    13  H   -0.012905   0.023361  -0.094035   0.391641  -0.011558  -0.000084
    14  H   -0.018442  -0.056242   0.017277  -0.030575   0.399216   0.007485
    15  H   -0.077970   0.056304   0.004684  -0.012095   0.374599  -0.006428
    16  H   -0.023601   0.054825  -0.079960   0.003418   0.021241   0.224716
    17  H    0.013751  -0.032350   0.021149   0.001343   0.001905   0.064985
    18  H    0.001890  -0.046170   0.016061   0.000278  -0.001173   0.010645
    19  O    0.077072  -0.215166   0.034764   0.050075  -0.074853   0.009662
    20  H   -0.005265  -0.023762   0.014538   0.002502   0.001194   0.035839
    21  O    0.043539  -0.098362   0.056434   0.002202   0.007292  -0.262378
    22  H   -0.004396  -0.004197  -0.006248  -0.001109   0.000332   0.041757
    23  C   -0.081285   0.184575   0.206448  -0.133974   0.084776  -1.440919
    24  H   -0.000172   0.015215   0.009492  -0.002968   0.000989  -0.136068
    25  H   -0.000156   0.011031   0.013025   0.007404   0.003006  -0.162192
    26  O   -0.008020   0.061135   0.028694  -0.025231   0.020066  -0.172409
    27  H   -0.001607   0.013208   0.023964   0.000391   0.006957  -0.096626
              7          8          9         10         11         12
     1  C   -0.504207   0.714930   0.395945   0.504024   0.073152   0.033633
     2  C    2.151860  -3.220737  -0.094386  -0.195093   0.130629   0.008209
     3  N   -0.429071   0.322641   0.014015   0.032836  -0.002145  -0.051548
     4  C   -0.037724   0.365720   0.026933   0.036078   0.036094   0.381083
     5  C    0.010278  -0.207739  -0.027258  -0.090521  -0.044384  -0.019499
     6  C   -1.832304   1.309470   0.004984   0.006698   0.034385  -0.004551
     7  C    8.522635  -2.272493  -0.010078  -0.012906  -0.046226  -0.003242
     8  C   -2.272493   8.706447   0.034219   0.033966   0.081765  -0.006739
     9  H   -0.010078   0.034219   0.512133  -0.023550  -0.004987  -0.000111
    10  H   -0.012906   0.033966  -0.023550   0.514817   0.003795  -0.000057
    11  H   -0.046226   0.081765  -0.004987   0.003795   0.550101   0.000101
    12  H   -0.003242  -0.006739  -0.000111  -0.000057   0.000101   0.551201
    13  H   -0.000862   0.001772  -0.000122   0.000715  -0.000596  -0.043095
    14  H   -0.006134   0.016419  -0.005365   0.003899   0.000521  -0.005738
    15  H    0.003477  -0.003601   0.000711  -0.005619  -0.000115   0.000373
    16  H    0.077947  -0.043297  -0.000002  -0.000039  -0.000609  -0.001369
    17  H    0.164580   0.115142   0.000002  -0.000014  -0.000018   0.000004
    18  H    0.008420   0.336861   0.000151   0.000126  -0.001810   0.000005
    19  O   -0.116720   0.343409  -0.000556   0.010501   0.006987  -0.000003
    20  H   -0.042801  -0.007162   0.000054  -0.001585  -0.000107   0.000009
    21  O    0.236129   0.043588   0.000060   0.000028   0.002336   0.000013
    22  H    0.044697  -0.058780   0.000000   0.000000   0.000111   0.000000
    23  C    0.141314  -0.456020   0.000048  -0.000664   0.007904   0.000080
    24  H    0.031573  -0.010681   0.000000   0.000000  -0.000013  -0.000050
    25  H    0.022612  -0.021739   0.000000   0.000000  -0.000048   0.000034
    26  O    0.077875  -0.057404   0.000000  -0.000008  -0.000185   0.000900
    27  H    0.004502  -0.002451   0.000000   0.000000  -0.000010   0.000111
             13         14         15         16         17         18
     1  C   -0.012905  -0.018442  -0.077970  -0.023601   0.013751   0.001890
     2  C    0.023361  -0.056242   0.056304   0.054825  -0.032350  -0.046170
     3  N   -0.094035   0.017277   0.004684  -0.079960   0.021149   0.016061
     4  C    0.391641  -0.030575  -0.012095   0.003418   0.001343   0.000278
     5  C   -0.011558   0.399216   0.374599   0.021241   0.001905  -0.001173
     6  C   -0.000084   0.007485  -0.006428   0.224716   0.064985   0.010645
     7  C   -0.000862  -0.006134   0.003477   0.077947   0.164580   0.008420
     8  C    0.001772   0.016419  -0.003601  -0.043297   0.115142   0.336861
     9  H   -0.000122  -0.005365   0.000711  -0.000002   0.000002   0.000151
    10  H    0.000715   0.003899  -0.005619  -0.000039  -0.000014   0.000126
    11  H   -0.000596   0.000521  -0.000115  -0.000609  -0.000018  -0.001810
    12  H   -0.043095  -0.005738   0.000373  -0.001369   0.000004   0.000005
    13  H    0.589682   0.003888  -0.003840   0.012969  -0.000055  -0.000047
    14  H    0.003888   0.518099  -0.024539  -0.000013   0.000000  -0.000001
    15  H   -0.003840  -0.024539   0.516251  -0.000003   0.000000   0.000002
    16  H    0.012969  -0.000013  -0.000003   0.581881  -0.005022  -0.000242
    17  H   -0.000055   0.000000   0.000000  -0.005022   0.553768  -0.002723
    18  H   -0.000047  -0.000001   0.000002  -0.000242  -0.002723   0.536737
    19  O   -0.001411   0.000145   0.000308  -0.001052  -0.001481  -0.051069
    20  H   -0.000829  -0.000008   0.000001  -0.000027  -0.001268   0.006169
    21  O   -0.000075  -0.000006  -0.000004   0.008190  -0.031462  -0.011454
    22  H    0.000000   0.000000   0.000000  -0.000214  -0.006887   0.003999
    23  C   -0.005913   0.000341   0.000342   0.000890  -0.037061   0.019094
    24  H    0.000040   0.000000   0.000000  -0.002269   0.000925  -0.000002
    25  H   -0.000006  -0.000001   0.000000   0.004522  -0.000034  -0.000002
    26  O   -0.000926  -0.000077   0.000012   0.001745  -0.000853   0.000039
    27  H    0.000182   0.000000   0.000000   0.000088   0.000007   0.000000
             19         20         21         22         23         24
     1  C    0.077072  -0.005265   0.043539  -0.004396  -0.081285  -0.000172
     2  C   -0.215166  -0.023762  -0.098362  -0.004197   0.184575   0.015215
     3  N    0.034764   0.014538   0.056434  -0.006248   0.206448   0.009492
     4  C    0.050075   0.002502   0.002202  -0.001109  -0.133974  -0.002968
     5  C   -0.074853   0.001194   0.007292   0.000332   0.084776   0.000989
     6  C    0.009662   0.035839  -0.262378   0.041757  -1.440919  -0.136068
     7  C   -0.116720  -0.042801   0.236129   0.044697   0.141314   0.031573
     8  C    0.343409  -0.007162   0.043588  -0.058780  -0.456020  -0.010681
     9  H   -0.000556   0.000054   0.000060   0.000000   0.000048   0.000000
    10  H    0.010501  -0.001585   0.000028   0.000000  -0.000664   0.000000
    11  H    0.006987  -0.000107   0.002336   0.000111   0.007904  -0.000013
    12  H   -0.000003   0.000009   0.000013   0.000000   0.000080  -0.000050
    13  H   -0.001411  -0.000829  -0.000075   0.000000  -0.005913   0.000040
    14  H    0.000145  -0.000008  -0.000006   0.000000   0.000341   0.000000
    15  H    0.000308   0.000001  -0.000004   0.000000   0.000342   0.000000
    16  H   -0.001052  -0.000027   0.008190  -0.000214   0.000890  -0.002269
    17  H   -0.001481  -0.001268  -0.031462  -0.006887  -0.037061   0.000925
    18  H   -0.051069   0.006169  -0.011454   0.003999   0.019094  -0.000002
    19  O    8.152508   0.258524   0.006041   0.000048   0.026188  -0.000024
    20  H    0.258524   0.354932  -0.000311   0.000017   0.025242  -0.000004
    21  O    0.006041  -0.000311   8.301223   0.228564   0.014229  -0.000162
    22  H    0.000048   0.000017   0.228564   0.371641   0.003673  -0.000104
    23  C    0.026188   0.025242   0.014229   0.003673   6.535769   0.468780
    24  H   -0.000024  -0.000004  -0.000162  -0.000104   0.468780   0.545001
    25  H    0.000019   0.000002   0.004379   0.000057   0.482560  -0.031791
    26  O   -0.000097   0.000125  -0.001610   0.000068   0.192473  -0.059241
    27  H   -0.000008  -0.000001   0.000068  -0.000001   0.044701   0.006618
             25         26         27
     1  C   -0.000156  -0.008020  -0.001607
     2  C    0.011031   0.061135   0.013208
     3  N    0.013025   0.028694   0.023964
     4  C    0.007404  -0.025231   0.000391
     5  C    0.003006   0.020066   0.006957
     6  C   -0.162192  -0.172409  -0.096626
     7  C    0.022612   0.077875   0.004502
     8  C   -0.021739  -0.057404  -0.002451
     9  H    0.000000   0.000000   0.000000
    10  H    0.000000  -0.000008   0.000000
    11  H   -0.000048  -0.000185  -0.000010
    12  H    0.000034   0.000900   0.000111
    13  H   -0.000006  -0.000926   0.000182
    14  H   -0.000001  -0.000077   0.000000
    15  H    0.000000   0.000012   0.000000
    16  H    0.004522   0.001745   0.000088
    17  H   -0.000034  -0.000853   0.000007
    18  H   -0.000002   0.000039   0.000000
    19  O    0.000019  -0.000097  -0.000008
    20  H    0.000002   0.000125  -0.000001
    21  O    0.004379  -0.001610   0.000068
    22  H    0.000057   0.000068  -0.000001
    23  C    0.482560   0.192473   0.044701
    24  H   -0.031791  -0.059241   0.006618
    25  H    0.545967  -0.043846  -0.007250
    26  O   -0.043846   8.271118   0.257620
    27  H   -0.007250   0.257620   0.374758
 Mulliken atomic charges:
              1
     1  C   -0.520369
     2  C    0.079278
     3  N   -0.274771
     4  C   -0.223168
     5  C   -0.343594
     6  C    0.204389
     7  C   -0.183131
     8  C   -0.057505
     9  H    0.177159
    10  H    0.182573
    11  H    0.173373
    12  H    0.160245
    13  H    0.152105
    14  H    0.179853
    15  H    0.177152
    16  H    0.165288
    17  H    0.181666
    18  H    0.174216
    19  O   -0.513813
    20  H    0.383982
    21  O   -0.548491
    22  H    0.386971
    23  C   -0.283590
    24  H    0.164917
    25  H    0.172446
    26  O   -0.541962
    27  H    0.374780
 Sum of Mulliken atomic charges =   0.00000
 Mulliken charges with hydrogens summed into heavy atoms:
              1
     1  C   -0.160637
     2  C    0.252651
     3  N   -0.274771
     4  C    0.089182
     5  C    0.013411
     6  C    0.369677
     7  C   -0.001465
     8  C    0.116712
    19  O   -0.129831
    21  O   -0.161520
    23  C    0.053773
    26  O   -0.167182
 Sum of Mulliken charges with hydrogens summed into heavy atoms =   0.00000
 Electronic spatial extent (au):  <R**2>=           2020.4318
 Charge=              0.0000 electrons
 Dipole moment (field-independent basis, Debye):
    X=             -2.4512    Y=             -0.9867    Z=             -0.1996  Tot=              2.6499
 Quadrupole moment (field-independent basis, Debye-Ang):
   XX=            -81.5554   YY=            -68.0911   ZZ=            -74.7047
   XY=             -9.8519   XZ=              1.6089   YZ=              2.1908
 Traceless Quadrupole moment (field-independent basis, Debye-Ang):
   XX=             -6.7716   YY=              6.6926   ZZ=              0.0790
   XY=             -9.8519   XZ=              1.6089   YZ=              2.1908
 Octapole moment (field-independent basis, Debye-Ang**2):
  XXX=            -20.2919  YYY=            -22.9406  ZZZ=              5.3572  XYY=              4.9055
  XXY=            -12.5765  XXZ=             -8.5655  XZZ=             -1.2398  YZZ=              0.7067
  YYZ=            -24.1796  XYZ=            -17.5321
 Hexadecapole moment (field-independent basis, Debye-Ang**3):
 XXXX=          -1410.5570 YYYY=           -845.5823 ZZZZ=           -295.1888 XXXY=            -71.1530
 XXXZ=             -8.7796 YYYX=            -40.7103 YYYZ=             39.7960 ZZZX=             -6.4727
 ZZZY=              9.3541 XXYY=           -426.7548 XXZZ=           -272.9827 YYZZ=           -224.0318
 XXYZ=            -13.4944 YYXZ=            -10.6233 ZZXY=            -10.5778
 N-N= 8.081522991985D+02 E-N=-3.002016563274D+03  KE= 5.886580168922D+02
 1\1\GINC-COMPUTE-3-2\SP\RmPW1PW91\6-31+G(d,p)\C8H15N1O3\MAMICHETTI.IQU
 IR\17-May-2024\0\\# mpw1pw91/6-31+G** nmr scrf=(pcm,solvent=water)\\co
 mment\\0,1\C,0,-2.464067,0.311501,-0.430026\C,0,-1.105061,-0.35252,-0.
 710647\N,0,-0.058053,0.6742,-0.378213\C,0,-0.733622,1.790092,0.308741\
 C,0,-2.126955,1.809932,-0.319294\C,0,1.02628,0.012849,0.381232\C,0,0.8
 0737,-1.495296,0.172166\C,0,-0.729232,-1.608721,0.105619\H,0,-3.199258
 ,0.093501,-1.210101\H,0,-2.86751,-0.050414,0.521526\H,0,-1.014851,-0.6
 1823,-1.770726\H,0,-0.189783,2.731319,0.171018\H,0,-0.807521,1.610712,
 1.396974\H,0,-2.083268,2.269623,-1.313888\H,0,-2.849913,2.370418,0.281
 776\H,0,0.904208,0.211058,1.460435\H,0,1.219521,-2.084701,1.000067\H,0
 ,-1.036971,-2.532782,-0.392796\O,0,-1.30487,-1.676547,1.413388\H,0,-1.
 110941,-0.848796,1.885526\O,0,1.401798,-1.892693,-1.069392\H,0,1.22027
 3,-2.841243,-1.178825\C,0,2.420616,0.502243,-0.003097\H,0,3.174307,-0.
 06748,0.551098\H,0,2.597252,0.35226,-1.074218\O,0,2.628952,1.876673,0.
 348205\H,0,2.071803,2.405406,-0.246153\\Version=AM64L-G09RevC.01\State
 =1-A\HF=-594.1946599\RMSD=4.052e-09\Dipole=-0.9643877,-0.3881898,-0.07
 85483\Quadrupole=-5.0345329,4.975791,0.058742,-7.324668,1.1961794,1.62
 88401\PG=C01 [X(C8H15N1O3)]\\@


 MY DESCRIPTION OF EXPERIENCE IS NOT WHAT HAPPENS
 TO A MAN.  EXPERIENCE IS WHAT A MAN DOES WITH WHAT
 HAPPENS TO HIM.
                         - CHUCK KNOX, SEATTLE SEAHAWKS, 1985
 Job cpu time:  0 days  0 hours  8 minutes 59.5 seconds.
 File lengths (MBytes):  RWF=    113 Int=      0 D2E=      0 Chk=      7 Scr=      1
 Normal termination of Gaussian 09 at Fri May 17 12:56:50 2024.
