 Entering Gaussian System, Link 0=g09
 Input=/home/mamichetti.iquir/Linux/03_Cardona_A1A3_R__S_S_R_047_OptB.gjc
 Output=/home/mamichetti.iquir/Linux/03_Cardona_A1A3_R__S_S_R_047_OptB.log
 Initial command:
 /opt/ohpc/pub/apps/software/Gaussian/09/AMD64.SSE4a-enabled/g09/l1.exe /local/mamichetti.iquir/Gau-124743.inp -scrdir=/local/mamichetti.iquir/
 Entering Link 1 = /opt/ohpc/pub/apps/software/Gaussian/09/AMD64.SSE4a-enabled/g09/l1.exe PID=    124744.
  
 Copyright (c) 1988,1990,1992,1993,1995,1998,2003,2009,2011,
            Gaussian, Inc.  All Rights Reserved.
  
 This is part of the Gaussian(R) 09 program.  It is based on
 the Gaussian(R) 03 system (copyright 2003, Gaussian, Inc.),
 the Gaussian(R) 98 system (copyright 1998, Gaussian, Inc.),
 the Gaussian(R) 94 system (copyright 1995, Gaussian, Inc.),
 the Gaussian 92(TM) system (copyright 1992, Gaussian, Inc.),
 the Gaussian 90(TM) system (copyright 1990, Gaussian, Inc.),
 the Gaussian 88(TM) system (copyright 1988, Gaussian, Inc.),
 the Gaussian 86(TM) system (copyright 1986, Carnegie Mellon
 University), and the Gaussian 82(TM) system (copyright 1983,
 Carnegie Mellon University). Gaussian is a federally registered
 trademark of Gaussian, Inc.
  
 This software contains proprietary and confidential information,
 including trade secrets, belonging to Gaussian, Inc.
  
 This software is provided under written license and may be
 used, copied, transmitted, or stored only in accord with that
 written license.
  
 The following legend is applicable only to US Government
 contracts under FAR:
  
                    RESTRICTED RIGHTS LEGEND
  
 Use, reproduction and disclosure by the US Government is
 subject to restrictions as set forth in subparagraphs (a)
 and (c) of the Commercial Computer Software - Restricted
 Rights clause in FAR 52.227-19.
  
 Gaussian, Inc.
 340 Quinnipiac St., Bldg. 40, Wallingford CT 06492
  
  
 ---------------------------------------------------------------
 Warning -- This program may not be used in any manner that
 competes with the business of Gaussian, Inc. or will provide
 assistance to any competitor of Gaussian, Inc.  The licensee
 of this program is prohibited from giving any competitor of
 Gaussian, Inc. access to this program.  By using this program,
 the user acknowledges that Gaussian, Inc. is engaged in the
 business of creating and licensing software in the field of
 computational chemistry and represents and warrants to the
 licensee that it is not a competitor of Gaussian, Inc. and that
 it will not use this program in any manner prohibited above.
 ---------------------------------------------------------------
  

 Cite this work as:
 Gaussian 09, Revision C.01,
 M. J. Frisch, G. W. Trucks, H. B. Schlegel, G. E. Scuseria, 
 M. A. Robb, J. R. Cheeseman, G. Scalmani, V. Barone, B. Mennucci, 
 G. A. Petersson, H. Nakatsuji, M. Caricato, X. Li, H. P. Hratchian, 
 A. F. Izmaylov, J. Bloino, G. Zheng, J. L. Sonnenberg, M. Hada, 
 M. Ehara, K. Toyota, R. Fukuda, J. Hasegawa, M. Ishida, T. Nakajima, 
 Y. Honda, O. Kitao, H. Nakai, T. Vreven, J. A. Montgomery, Jr., 
 J. E. Peralta, F. Ogliaro, M. Bearpark, J. J. Heyd, E. Brothers, 
 K. N. Kudin, V. N. Staroverov, T. Keith, R. Kobayashi, J. Normand, 
 K. Raghavachari, A. Rendell, J. C. Burant, S. S. Iyengar, J. Tomasi, 
 M. Cossi, N. Rega, J. M. Millam, M. Klene, J. E. Knox, J. B. Cross, 
 V. Bakken, C. Adamo, J. Jaramillo, R. Gomperts, R. E. Stratmann, 
 O. Yazyev, A. J. Austin, R. Cammi, C. Pomelli, J. W. Ochterski, 
 R. L. Martin, K. Morokuma, V. G. Zakrzewski, G. A. Voth, 
 P. Salvador, J. J. Dannenberg, S. Dapprich, A. D. Daniels, 
 O. Farkas, J. B. Foresman, J. V. Ortiz, J. Cioslowski, 
 and D. J. Fox, Gaussian, Inc., Wallingford CT, 2010.
 
 ******************************************
 Gaussian 09:  AM64L-G09RevC.01 23-Sep-2011
                17-May-2024 
 ******************************************
 %nprocshared=4
 Will use up to    4 processors via shared memory.
 ------------------------------------------------
 # mpw1pw91/6-31+G** nmr scrf=(pcm,solvent=water)
 ------------------------------------------------
 1/38=1/1;
 2/12=2,17=6,18=5,40=1/2;
 3/5=1,6=6,7=111,11=2,16=1,25=1,30=1,70=2201,72=1,74=-7/1,2,8,3;
 4//1;
 5/5=2,38=5,53=1/2;
 8/6=1,10=90,11=11/1;
 10/13=100,45=16/2;
 6/7=2,8=2,9=2,10=2,28=1/1;
 99/9=1/99;
 -------
 comment
 -------
 Charge =  0 Multiplicity = 1
 Symbolic Z-Matrix:
 6                    -2.47914   0.31869  -0.41498 
 6                    -1.12438  -0.35056  -0.70367 
 7                    -0.07289   0.6737   -0.38099 
 6                    -0.73773   1.80269   0.2914 
 6                    -2.1364    1.81734  -0.32558 
 6                     1.01722   0.01873   0.37064 
 6                     0.79662  -1.49698   0.1671 
 6                    -0.74255  -1.60792   0.10708 
 1                    -3.2241    0.09328  -1.18352 
 1                    -2.87144  -0.0319    0.54541 
 1                    -1.04823  -0.61455  -1.76762 
 1                    -0.18936   2.73734   0.13312 
 1                    -0.80289   1.64196   1.38317 
 1                    -2.09971   2.26418  -1.32635 
 1                    -2.85341   2.38717   0.27381 
 1                     0.90839   0.22375   1.45056 
 1                     1.20257  -2.07847   0.99784 
 1                    -1.05069  -2.53283  -0.38687 
 8                    -1.30894  -1.66993   1.41979 
 1                    -1.11663  -0.83799   1.88526 
 8                     1.42482  -2.02776  -1.00545 
 1                     1.11521  -1.52664  -1.77859 
 6                     2.40663   0.48638  -0.03427 
 1                     3.16288  -0.14931   0.44999 
 1                     2.5299    0.39552  -1.12064 
 8                     2.56243   1.85117   0.37683 
 1                     3.41948   2.15455   0.03582 
 
                          Input orientation:                          
 ---------------------------------------------------------------------
 Center     Atomic      Atomic             Coordinates (Angstroms)
 Number     Number       Type             X           Y           Z
 ---------------------------------------------------------------------
      1          6           0       -2.479140    0.318693   -0.414975
      2          6           0       -1.124376   -0.350564   -0.703668
      3          7           0       -0.072889    0.673704   -0.380993
      4          6           0       -0.737727    1.802687    0.291398
      5          6           0       -2.136398    1.817336   -0.325584
      6          6           0        1.017224    0.018731    0.370635
      7          6           0        0.796623   -1.496979    0.167096
      8          6           0       -0.742551   -1.607917    0.107078
      9          1           0       -3.224097    0.093281   -1.183519
     10          1           0       -2.871435   -0.031902    0.545411
     11          1           0       -1.048229   -0.614551   -1.767623
     12          1           0       -0.189358    2.737341    0.133118
     13          1           0       -0.802894    1.641956    1.383173
     14          1           0       -2.099710    2.264175   -1.326348
     15          1           0       -2.853410    2.387169    0.273808
     16          1           0        0.908393    0.223749    1.450561
     17          1           0        1.202572   -2.078466    0.997837
     18          1           0       -1.050692   -2.532834   -0.386874
     19          8           0       -1.308941   -1.669929    1.419786
     20          1           0       -1.116627   -0.837991    1.885263
     21          8           0        1.424824   -2.027763   -1.005448
     22          1           0        1.115206   -1.526644   -1.778587
     23          6           0        2.406633    0.486377   -0.034273
     24          1           0        3.162882   -0.149314    0.449986
     25          1           0        2.529904    0.395523   -1.120642
     26          8           0        2.562432    1.851173    0.376830
     27          1           0        3.419477    2.154547    0.035815
 ---------------------------------------------------------------------
                    Distance matrix (angstroms):
                    1          2          3          4          5
     1  C    0.000000
     2  C    1.538387   0.000000
     3  N    2.432536   1.502953   0.000000
     4  C    2.394519   2.403361   1.472658   0.000000
     5  C    1.539933   2.422174   2.359880   1.528778   0.000000
     6  C    3.596070   2.424243   1.477254   2.503723   3.696624
     7  C    3.790263   2.400570   2.401732   3.641082   4.453092
     8  C    2.645771   1.544032   2.427438   3.415584   3.723220
     9  H    1.093815   2.199110   3.303188   3.358494   2.211675
    10  H    1.095059   2.171165   3.031165   2.825411   2.172232
    11  H    2.179015   1.098857   2.129233   3.190457   3.029466
    12  H    3.375406   3.333111   2.129900   1.095143   2.201768
    13  H    2.791803   2.903169   2.140724   1.105465   2.174590
    14  H    2.181621   2.859347   2.744321   2.164502   1.096604
    15  H    2.212034   3.382336   3.331069   2.195004   1.094571
    16  H    3.868413   3.017066   2.126021   2.558596   3.868457
    17  H    4.614912   3.360871   3.332028   4.396267   5.298815
    18  H    3.189429   2.206375   3.352316   4.399402   4.484026
    19  O    2.947937   2.506760   3.203630   3.695755   3.986479
    20  H    2.912980   2.634428   2.917281   3.107596   3.602574
    21  O    4.592978   3.066348   3.151351   4.585933   5.284818
    22  H    4.264274   2.748516   2.864676   4.336202   4.885320
    23  C    4.903451   3.690066   2.510644   3.424286   4.742936
    24  H    5.727094   4.444322   3.440654   4.364654   5.705400
    25  H    5.059090   3.752902   2.720110   3.827712   4.942473
    26  O    5.328499   4.428055   2.984233   3.301621   4.751161
    27  H    6.194131   5.241089   3.816182   4.179889   5.577819
                    6          7          8          9         10
     6  C    0.000000
     7  C    1.545144   0.000000
     8  C    2.410862   1.544334   0.000000
     9  H    4.517716   4.529821   3.273803   0.000000
    10  H    3.892914   3.967899   2.684792   1.768966   0.000000
    11  H    3.039620   2.815190   2.143530   2.361484   3.002280
    12  H    2.983805   4.347733   4.380407   4.234882   3.877142
    13  H    2.640629   3.726957   3.491953   3.853379   2.789715
    14  H    4.199649   4.976485   4.346227   2.448964   3.061211
    15  H    4.538797   5.331110   4.521530   2.742833   2.434337
    16  H    1.104589   2.149577   2.808124   4.902333   3.895094
    17  H    2.196809   1.092269   2.190519   5.391679   4.581555
    18  H    3.370546   2.189167   1.092891   3.500687   3.230932
    19  O    3.059957   2.456124   1.431029   3.681566   2.426737
    20  H    2.753433   2.654598   1.973489   3.837463   2.350390
    21  O    2.499576   1.432211   2.472145   5.113023   4.984623
    22  H    2.648951   1.971816   2.648320   4.669884   4.850621
    23  C    1.520888   2.562495   3.784628   5.760244   5.335040
    24  H    2.153691   2.737775   4.183003   6.597021   6.036213
    25  H    2.157332   2.871253   4.028651   5.762277   5.668588
    26  O    2.396988   3.791067   4.791762   6.245702   5.753373
    27  H    3.231816   4.497804   5.611033   7.062058   6.679508
                   11         12         13         14         15
    11  H    0.000000
    12  H    3.947867   0.000000
    13  H    3.883237   1.771703   0.000000
    14  H    3.096353   2.450178   3.067636   0.000000
    15  H    4.054188   2.690648   2.447580   1.773046   0.000000
    16  H    3.858474   3.042837   2.223591   4.574193   4.496253
    17  H    3.854468   5.086964   4.244045   5.930045   6.075945
    18  H    2.363532   5.365355   4.541293   4.999435   5.281356
    19  O    3.367695   4.725781   3.350523   4.862483   4.489843
    20  H    3.660352   4.088134   2.549639   4.572125   4.001857
    21  O    2.948571   5.158307   4.912746   5.562917   6.279443
    22  H    2.347868   4.851605   4.869893   4.991043   5.939711
    23  C    4.019032   3.440062   3.693992   5.013696   5.601426
    24  H    4.782017   4.435166   4.450490   6.056002   6.531505
    25  H    3.773840   3.801370   4.350888   4.996749   5.906879
    26  O    4.869840   2.901213   3.518795   4.980658   5.443276
    27  H    5.557040   3.656885   4.461675   5.685854   6.281709
                   16         17         18         19         20
    16  H    0.000000
    17  H    2.364676   0.000000
    18  H    3.848757   2.683482   0.000000
    19  O    2.916082   2.579271   2.018742   0.000000
    20  H    2.327437   2.775786   2.835392   0.972509   0.000000
    21  O    3.371645   2.016214   2.601136   3.671958   4.028739
    22  H    3.678865   2.832079   2.764127   4.015795   4.345011
    23  C    2.125660   3.015532   4.603592   4.535354   4.225154
    24  H    2.494604   2.804386   4.912811   4.821824   4.566015
    25  H    3.044649   3.517156   4.683413   5.045453   4.884077
    26  O    2.556805   4.204394   5.732140   5.336051   4.800255
    27  H    3.469154   4.874275   6.490964   6.236981   5.740382
                   21         22         23         24         25
    21  O    0.000000
    22  H    0.971971   0.000000
    23  C    2.868454   2.960180   0.000000
    24  H    2.944097   3.325139   1.100237   0.000000
    25  H    2.665856   2.475679   1.097109   1.778871   0.000000
    26  O    4.272118   4.260274   1.433857   2.089938   2.088635
    27  H    4.749167   4.706685   1.952833   2.354815   2.285366
                   26         27
    26  O    0.000000
    27  H    0.971006   0.000000
 Stoichiometry    C8H15NO3
 Framework group  C1[X(C8H15NO3)]
 Deg. of freedom    75
 Full point group                 C1      NOp   1
 Largest Abelian subgroup         C1      NOp   1
 Largest concise Abelian subgroup C1      NOp   1
                         Standard orientation:                         
 ---------------------------------------------------------------------
 Center     Atomic      Atomic             Coordinates (Angstroms)
 Number     Number       Type             X           Y           Z
 ---------------------------------------------------------------------
      1          6           0       -2.479140    0.318692   -0.414975
      2          6           0       -1.124376   -0.350564   -0.703668
      3          7           0       -0.072889    0.673704   -0.380993
      4          6           0       -0.737728    1.802687    0.291398
      5          6           0       -2.136399    1.817335   -0.325584
      6          6           0        1.017224    0.018731    0.370635
      7          6           0        0.796623   -1.496979    0.167096
      8          6           0       -0.742551   -1.607917    0.107078
      9          1           0       -3.224097    0.093280   -1.183519
     10          1           0       -2.871435   -0.031903    0.545411
     11          1           0       -1.048229   -0.614551   -1.767623
     12          1           0       -0.189359    2.737341    0.133118
     13          1           0       -0.802895    1.641956    1.383173
     14          1           0       -2.099711    2.264174   -1.326348
     15          1           0       -2.853411    2.387168    0.273808
     16          1           0        0.908393    0.223749    1.450561
     17          1           0        1.202573   -2.078466    0.997837
     18          1           0       -1.050691   -2.532834   -0.386874
     19          8           0       -1.308941   -1.669929    1.419786
     20          1           0       -1.116627   -0.837991    1.885263
     21          8           0        1.424825   -2.027763   -1.005448
     22          1           0        1.115206   -1.526644   -1.778587
     23          6           0        2.406633    0.486378   -0.034273
     24          1           0        3.162882   -0.149313    0.449986
     25          1           0        2.529904    0.395524   -1.120642
     26          8           0        2.562431    1.851174    0.376830
     27          1           0        3.419476    2.154548    0.035815
 ---------------------------------------------------------------------
 Rotational constants (GHZ):      1.1513530      0.8955604      0.6069456
 Standard basis: 6-31+G(d,p) (6D, 7F)
 There are   303 symmetry adapted basis functions of A   symmetry.
 Integral buffers will be    131072 words long.
 Raffenetti 2 integral format.
 Two-electron integral symmetry is turned on.
   303 basis functions,   489 primitive gaussians,   303 cartesian basis functions
    47 alpha electrons       47 beta electrons
       nuclear repulsion energy       807.1136494606 Hartrees.
 NAtoms=   27 NActive=   27 NUniq=   27 SFac= 1.00D+00 NAtFMM=   60 NAOKFM=F Big=F
 ------------------------------------------------------------------------------
 Polarizable Continuum Model (PCM)
 =================================
 Model                : PCM.
 Atomic radii         : UFF (Universal Force Field).
 Polarization charges : Total charges.
 Charge compensation  : None.
 Solution method      : Matrix inversion.
 Cavity type          : Scaled VdW (van der Waals Surface) (Alpha=1.100).
 Cavity algorithm     : GePol (No added spheres)
                        Default sphere list used, NSphG=   27.
                        Lebedev-Laikov grids with approx.  5.0 points / Ang**2.
                        Smoothing algorithm: Karplus/York (Gamma=1.0000).
                        Polarization charges: spherical gaussians, with
                                              point-specific exponents (IZeta= 3).
                        Self-potential: point-specific (ISelfS= 7).
                        Self-field    : sphere-specific E.n sum rule (ISelfD= 2).
 Solvent              : Water, Eps=  78.355300 Eps(inf)=   1.777849
 ------------------------------------------------------------------------------
 One-electron integrals computed using PRISM.
 NBasis=   303 RedAO= T  NBF=   303
 NBsUse=   303 1.00D-06 NBFU=   303
 Harris functional with IExCor=  908 diagonalized for initial guess.
 ExpMin= 4.38D-02 ExpMax= 5.48D+03 ExpMxC= 8.25D+02 IAcc=2 IRadAn=         4 AccDes= 0.00D+00
 HarFok:  IExCor=  908 AccDes= 0.00D+00 IRadAn=         4 IDoV= 1
 ScaDFX=  1.000000  1.000000  1.000000  1.000000
 FoFCou: FMM=F IPFlag=           0 FMFlag=      100000 FMFlg1=           0
         NFxFlg=           0 DoJE=T BraDBF=F KetDBF=T FulRan=T
         Omega=  0.000000  0.000000  1.000000  0.000000  0.000000 ICntrl=     500 IOpCl=  0
         NMat0=    1 NMatS0=    1 NMatT0=    0 NMatD0=    1 NMtDS0=    0 NMtDT0=    0
         I1Cent=           4 NGrid=           0.
 Petite list used in FoFCou.
 Initial guess orbital symmetries:
       Occupied  (A) (A) (A) (A) (A) (A) (A) (A) (A) (A) (A) (A)
                 (A) (A) (A) (A) (A) (A) (A) (A) (A) (A) (A) (A)
                 (A) (A) (A) (A) (A) (A) (A) (A) (A) (A) (A) (A)
                 (A) (A) (A) (A) (A) (A) (A) (A) (A) (A) (A)
       Virtual   (A) (A) (A) (A) (A) (A) (A) (A) (A) (A) (A) (A)
                 (A) (A) (A) (A) (A) (A) (A) (A) (A) (A) (A) (A)
                 (A) (A) (A) (A) (A) (A) (A) (A) (A) (A) (A) (A)
                 (A) (A) (A) (A) (A) (A) (A) (A) (A) (A) (A) (A)
                 (A) (A) (A) (A) (A) (A) (A) (A) (A) (A) (A) (A)
                 (A) (A) (A) (A) (A) (A) (A) (A) (A) (A) (A) (A)
                 (A) (A) (A) (A) (A) (A) (A) (A) (A) (A) (A) (A)
                 (A) (A) (A) (A) (A) (A) (A) (A) (A) (A) (A) (A)
                 (A) (A) (A) (A) (A) (A) (A) (A) (A) (A) (A) (A)
                 (A) (A) (A) (A) (A) (A) (A) (A) (A) (A) (A) (A)
                 (A) (A) (A) (A) (A) (A) (A) (A) (A) (A) (A) (A)
                 (A) (A) (A) (A) (A) (A) (A) (A) (A) (A) (A) (A)
                 (A) (A) (A) (A) (A) (A) (A) (A) (A) (A) (A) (A)
                 (A) (A) (A) (A) (A) (A) (A) (A) (A) (A) (A) (A)
                 (A) (A) (A) (A) (A) (A) (A) (A) (A) (A) (A) (A)
                 (A) (A) (A) (A) (A) (A) (A) (A) (A) (A) (A) (A)
                 (A) (A) (A) (A) (A) (A) (A) (A) (A) (A) (A) (A)
                 (A) (A) (A) (A) (A) (A) (A) (A) (A) (A) (A) (A)
                 (A) (A) (A) (A) (A) (A) (A) (A) (A) (A) (A) (A)
                 (A) (A) (A) (A) (A) (A) (A) (A) (A) (A) (A) (A)
                 (A) (A) (A) (A) (A) (A) (A) (A) (A) (A) (A) (A)
                 (A) (A) (A) (A)
 The electronic state of the initial guess is 1-A.
 Requested convergence on RMS density matrix=1.00D-08 within 128 cycles.
 Requested convergence on MAX density matrix=1.00D-06.
 Requested convergence on             energy=1.00D-06.
 No special actions if energy rises.
 Error on total polarization charges =  0.01411
 SCF Done:  E(RmPW1PW91) =  -594.192904800     A.U. after   13 cycles
             Convg  =    0.4173D-08             -V/T =  2.0094
 Range of M.O.s used for correlation:     1   303
 NBasis=   303 NAE=    47 NBE=    47 NFC=     0 NFV=     0
 NROrb=    303 NOA=    47 NOB=    47 NVA=   256 NVB=   256

 **** Warning!!: The largest alpha MO coefficient is  0.78090119D+02

 NEqPCM:  Using equilibrium solvation (IEInf=0, Eps=  78.3553, EpsInf=   1.7778)
          Differentiating once with respect to magnetic field using GIAOs.
          Electric field/nuclear overlap derivatives assumed to be zero.
 FoFCou: FMM=F IPFlag=           0 FMFlag=    10101102 FMFlg1=           0
         NFxFlg=    40000000 DoJE=F BraDBF=F KetDBF=T FulRan=T
         Omega=  0.000000  0.000000  1.000000  0.000000  0.000000 ICntrl=    6100 IOpCl=  0
         NMat0=    1 NMatS0=    1 NMatT0=    0 NMatD0=    1 NMtDS0=    0 NMtDT0=    0
         I1Cent=           7 NGrid=        1835.
 Symmetry not used in FoFCou.
          There are     3 degrees of freedom in the 1st order CPHF.  IDoFFX=0.
      3 vectors produced by pass  0 Test12= 4.01D-13 3.33D-08 XBig12= 4.41D+01 1.42D+00.
 AX will form     3 AO Fock derivatives at one time.
      3 vectors produced by pass  1 Test12= 4.01D-13 3.33D-08 XBig12= 1.08D-01 4.72D-02.
      3 vectors produced by pass  2 Test12= 4.01D-13 3.33D-08 XBig12= 1.72D-04 2.94D-03.
      3 vectors produced by pass  3 Test12= 4.01D-13 3.33D-08 XBig12= 8.27D-07 2.45D-04.
      3 vectors produced by pass  4 Test12= 4.01D-13 3.33D-08 XBig12= 3.09D-09 1.25D-05.
      3 vectors produced by pass  5 Test12= 4.01D-13 3.33D-08 XBig12= 1.00D-11 5.59D-07.
      1 vectors produced by pass  6 Test12= 4.01D-13 3.33D-08 XBig12= 3.69D-14 3.72D-08.
 Inverted reduced A of dimension    19 with in-core refinement.
 Calculating GIAO nuclear magnetic shielding tensors.
 SCF GIAO Magnetic shielding tensor (ppm):
      1  C    Isotropic =   171.5591   Anisotropy =    21.5779
   XX=   179.7773   YX=    -3.6652   ZX=     2.2800
   XY=     5.9002   YY=   184.4661   ZY=    10.2210
   XZ=    -0.0490   YZ=     2.7982   ZZ=   150.4340
   Eigenvalues:   149.2052   179.5279   185.9444
      2  C    Isotropic =   127.4121   Anisotropy =    59.5676
   XX=   147.5184   YX=    17.2190   ZX=     8.2555
   XY=    20.9470   YY=   147.8835   ZY=     0.9955
   XZ=    10.0442   YZ=    -4.5787   ZZ=    86.8343
   Eigenvalues:    85.1225   129.9899   167.1238
      3  N    Isotropic =   187.0118   Anisotropy =    95.5689
   XX=   235.3955   YX=    -6.3935   ZX=    37.7116
   XY=   -15.1012   YY=   198.6894   ZY=     5.3652
   XZ=    45.8240   YZ=    11.0850   ZZ=   126.9505
   Eigenvalues:   111.2740   199.0371   250.7244
      4  C    Isotropic =   135.5840   Anisotropy =    54.7030
   XX=   137.1498   YX=   -20.9014   ZX=    -5.8817
   XY=   -30.4725   YY=   144.3029   ZY=    14.3878
   XZ=     0.0527   YZ=    21.8882   ZZ=   125.2994
   Eigenvalues:   107.7607   126.9388   172.0527
      5  C    Isotropic =   163.7037   Anisotropy =    26.1017
   XX=   177.9238   YX=    -1.8613   ZX=     7.7608
   XY=    -1.9045   YY=   175.5370   ZY=    11.3861
   XZ=    15.7465   YZ=     3.2060   ZZ=   137.6502
   Eigenvalues:   133.1322   176.8740   181.1048
      6  C    Isotropic =   126.7647   Anisotropy =    40.1872
   XX=   138.1059   YX=   -13.1072   ZX=     9.5499
   XY=   -18.1078   YY=   126.9340   ZY=   -10.9652
   XZ=    11.3680   YZ=    -4.7244   ZZ=   115.2541
   Eigenvalues:   110.7688   115.9691   153.5561
      7  C    Isotropic =   109.3528   Anisotropy =    29.7807
   XX=   122.6233   YX=    -4.9748   ZX=   -12.1065
   XY=     6.5777   YY=   104.2982   ZY=    -0.1542
   XZ=   -14.2183   YZ=    16.5498   ZZ=   101.1370
   Eigenvalues:    90.4793   108.3726   129.2066
      8  C    Isotropic =   115.7673   Anisotropy =    34.4598
   XX=   120.0850   YX=     0.2115   ZX=   -16.4949
   XY=    -7.5018   YY=   101.8278   ZY=     7.5548
   XZ=   -14.8035   YZ=    -7.9748   ZZ=   125.3891
   Eigenvalues:   100.3860   108.1754   138.7405
      9  H    Isotropic =    29.8318   Anisotropy =    11.7460
   XX=    33.3409   YX=     1.1047   ZX=     5.7316
   XY=     2.2917   YY=    27.3658   ZY=     2.2300
   XZ=     5.4537   YZ=     1.3130   ZZ=    28.7886
   Eigenvalues:    24.8907    26.9423    37.6625
     10  H    Isotropic =    29.6315   Anisotropy =     7.4453
   XX=    30.9974   YX=     0.0940   ZX=    -3.3594
   XY=    -0.1723   YY=    28.9707   ZY=    -3.9900
   XZ=    -3.5802   YZ=    -3.3131   ZZ=    28.9265
   Eigenvalues:    24.2693    30.0302    34.5951
     11  H    Isotropic =    27.6487   Anisotropy =     7.7942
   XX=    26.2994   YX=     0.3088   ZX=     1.3836
   XY=    -0.2925   YY=    25.5460   ZY=     3.6651
   XZ=     1.6999   YZ=     2.6807   ZZ=    31.1007
   Eigenvalues:    23.9221    26.1792    32.8448
     12  H    Isotropic =    28.1462   Anisotropy =     8.4675
   XX=    28.3301   YX=     1.1140   ZX=     0.2799
   XY=     1.9802   YY=    33.2644   ZY=     0.6299
   XZ=     0.0586   YZ=     1.2433   ZZ=    22.8442
   Eigenvalues:    22.7605    27.8869    33.7912
     13  H    Isotropic =    29.2320   Anisotropy =     7.9703
   XX=    27.2953   YX=    -1.3186   ZX=    -1.2887
   XY=    -1.1185   YY=    28.2718   ZY=     4.1465
   XZ=     0.0433   YZ=     3.2184   ZZ=    32.1288
   Eigenvalues:    25.6864    27.4640    34.5455
     14  H    Isotropic =    29.3826   Anisotropy =    10.5039
   XX=    26.8681   YX=    -0.6989   ZX=     2.2597
   XY=    -1.0880   YY=    30.8458   ZY=    -5.2008
   XZ=     2.4575   YZ=    -5.1784   ZZ=    30.4338
   Eigenvalues:    24.7412    27.0214    36.3852
     15  H    Isotropic =    29.4974   Anisotropy =    11.6159
   XX=    31.3242   YX=    -4.5266   ZX=    -2.3515
   XY=    -5.1926   YY=    31.2839   ZY=     2.7453
   XZ=    -2.2951   YZ=     2.5025   ZZ=    25.8841
   Eigenvalues:    24.7803    26.4706    37.2413
     16  H    Isotropic =    28.7296   Anisotropy =     5.1201
   XX=    29.0000   YX=     0.6373   ZX=     1.9529
   XY=     2.0052   YY=    26.6423   ZY=    -1.2215
   XZ=     2.3872   YZ=     0.7912   ZZ=    30.5464
   Eigenvalues:    25.7470    28.2988    32.1429
     17  H    Isotropic =    27.2579   Anisotropy =     5.0546
   XX=    25.8748   YX=    -2.3847   ZX=    -0.2666
   XY=    -2.4581   YY=    27.9857   ZY=    -1.6616
   XZ=    -0.0625   YZ=    -2.4124   ZZ=    27.9132
   Eigenvalues:    23.8528    27.2933    30.6277
     18  H    Isotropic =    27.8654   Anisotropy =     6.6247
   XX=    25.1766   YX=     1.5183   ZX=    -1.1660
   XY=     1.7359   YY=    31.1401   ZY=     1.6165
   XZ=    -1.2883   YZ=     2.7846   ZZ=    27.2796
   Eigenvalues:    23.7823    27.5321    32.2819
     19  O    Isotropic =   284.9063   Anisotropy =    36.4368
   XX=   264.7527   YX=    13.1994   ZX=    36.0819
   XY=    13.0466   YY=   299.1814   ZY=     5.7522
   XZ=     0.6362   YZ=    -0.2838   ZZ=   290.7847
   Eigenvalues:   252.8496   292.6717   309.1974
     20  H    Isotropic =    31.0998   Anisotropy =    12.9711
   XX=    25.2633   YX=     3.3586   ZX=    -2.0944
   XY=     1.4343   YY=    33.9754   ZY=     6.3625
   XZ=    -1.8525   YZ=     5.0833   ZZ=    34.0607
   Eigenvalues:    23.3328    30.2195    39.7472
     21  O    Isotropic =   295.1788   Anisotropy =    28.3802
   XX=   286.8691   YX=    -5.5413   ZX=    26.9052
   XY=    -1.9843   YY=   288.6896   ZY=   -10.7216
   XZ=    -5.9596   YZ=    10.5674   ZZ=   309.9776
   Eigenvalues:   281.1967   290.2407   314.0989
     22  H    Isotropic =    30.3995   Anisotropy =    13.2294
   XX=    25.5400   YX=    -4.8033   ZX=     0.3259
   XY=    -3.4100   YY=    27.3902   ZY=    -2.9519
   XZ=     0.1708   YZ=    -3.2319   ZZ=    38.2683
   Eigenvalues:    22.0601    29.9193    39.2191
     23  C    Isotropic =   127.8052   Anisotropy =    46.6936
   XX=   120.4539   YX=     3.1670   ZX=     1.0009
   XY=    14.0212   YY=   152.3906   ZY=    15.5128
   XZ=     4.3193   YZ=    13.1518   ZZ=   110.5712
   Eigenvalues:   106.1307   118.3506   158.9343
     24  H    Isotropic =    27.5181   Anisotropy =     6.1272
   XX=    30.4144   YX=    -0.2807   ZX=     2.1078
   XY=    -1.9478   YY=    29.8124   ZY=    -0.3851
   XZ=     2.3963   YZ=     0.7428   ZZ=    22.3276
   Eigenvalues:    21.7170    29.2345    31.6029
     25  H    Isotropic =    27.8220   Anisotropy =     5.4105
   XX=    26.7252   YX=     2.2331   ZX=    -2.4736
   XY=     2.0737   YY=    29.0918   ZY=     4.2993
   XZ=    -2.9206   YZ=     1.6448   ZZ=    27.6489
   Eigenvalues:    22.4958    29.5412    31.4290
     26  O    Isotropic =   312.6983   Anisotropy =    84.1312
   XX=   343.6211   YX=    44.2964   ZX=   -14.0344
   XY=    28.3994   YY=   302.3730   ZY=    -4.0561
   XZ=   -20.1696   YZ=    -6.7108   ZZ=   292.1010
   Eigenvalues:   279.4760   289.8333   368.7858
     27  H    Isotropic =    30.1871   Anisotropy =    21.5675
   XX=    38.2729   YX=     7.4996   ZX=    -6.1735
   XY=     9.0770   YY=    29.4740   ZY=    -0.8877
   XZ=    -5.5678   YZ=    -0.1315   ZZ=    22.8142
   Eigenvalues:    20.0840    25.9118    44.5654
 End of Minotr Frequency-dependent properties file   721 does not exist.
 End of Minotr Frequency-dependent properties file   722 does not exist.

 **********************************************************************

            Population analysis using the SCF density.

 **********************************************************************

 Orbital symmetries:
       Occupied  (A) (A) (A) (A) (A) (A) (A) (A) (A) (A) (A) (A)
                 (A) (A) (A) (A) (A) (A) (A) (A) (A) (A) (A) (A)
                 (A) (A) (A) (A) (A) (A) (A) (A) (A) (A) (A) (A)
                 (A) (A) (A) (A) (A) (A) (A) (A) (A) (A) (A)
       Virtual   (A) (A) (A) (A) (A) (A) (A) (A) (A) (A) (A) (A)
                 (A) (A) (A) (A) (A) (A) (A) (A) (A) (A) (A) (A)
                 (A) (A) (A) (A) (A) (A) (A) (A) (A) (A) (A) (A)
                 (A) (A) (A) (A) (A) (A) (A) (A) (A) (A) (A) (A)
                 (A) (A) (A) (A) (A) (A) (A) (A) (A) (A) (A) (A)
                 (A) (A) (A) (A) (A) (A) (A) (A) (A) (A) (A) (A)
                 (A) (A) (A) (A) (A) (A) (A) (A) (A) (A) (A) (A)
                 (A) (A) (A) (A) (A) (A) (A) (A) (A) (A) (A) (A)
                 (A) (A) (A) (A) (A) (A) (A) (A) (A) (A) (A) (A)
                 (A) (A) (A) (A) (A) (A) (A) (A) (A) (A) (A) (A)
                 (A) (A) (A) (A) (A) (A) (A) (A) (A) (A) (A) (A)
                 (A) (A) (A) (A) (A) (A) (A) (A) (A) (A) (A) (A)
                 (A) (A) (A) (A) (A) (A) (A) (A) (A) (A) (A) (A)
                 (A) (A) (A) (A) (A) (A) (A) (A) (A) (A) (A) (A)
                 (A) (A) (A) (A) (A) (A) (A) (A) (A) (A) (A) (A)
                 (A) (A) (A) (A) (A) (A) (A) (A) (A) (A) (A) (A)
                 (A) (A) (A) (A) (A) (A) (A) (A) (A) (A) (A) (A)
                 (A) (A) (A) (A) (A) (A) (A) (A) (A) (A) (A) (A)
                 (A) (A) (A) (A) (A) (A) (A) (A) (A) (A) (A) (A)
                 (A) (A) (A) (A) (A) (A) (A) (A) (A) (A) (A) (A)
                 (A) (A) (A) (A) (A) (A) (A) (A) (A) (A) (A) (A)
                 (A) (A) (A) (A)
 The electronic state is 1-A.
 Alpha  occ. eigenvalues --  -19.26361 -19.26338 -19.25442 -14.41287 -10.30945
 Alpha  occ. eigenvalues --  -10.30581 -10.29591 -10.28422 -10.28070 -10.26933
 Alpha  occ. eigenvalues --  -10.24714 -10.24637  -1.07472  -1.06051  -1.05503
 Alpha  occ. eigenvalues --   -0.96405  -0.83056  -0.79140  -0.75620  -0.72217
 Alpha  occ. eigenvalues --   -0.66906  -0.61873  -0.60890  -0.58712  -0.54342
 Alpha  occ. eigenvalues --   -0.53565  -0.52959  -0.50797  -0.48587  -0.46858
 Alpha  occ. eigenvalues --   -0.46395  -0.45602  -0.43530  -0.41935  -0.40386
 Alpha  occ. eigenvalues --   -0.39695  -0.38166  -0.38078  -0.36283  -0.35708
 Alpha  occ. eigenvalues --   -0.35552  -0.34736  -0.33784  -0.32280  -0.29768
 Alpha  occ. eigenvalues --   -0.28384  -0.23213
 Alpha virt. eigenvalues --    0.00612   0.01180   0.01739   0.02218   0.03313
 Alpha virt. eigenvalues --    0.04236   0.04803   0.04909   0.05439   0.07028
 Alpha virt. eigenvalues --    0.07614   0.07978   0.08593   0.08834   0.09534
 Alpha virt. eigenvalues --    0.10451   0.10929   0.11546   0.12391   0.12760
 Alpha virt. eigenvalues --    0.13061   0.13749   0.13958   0.15057   0.15367
 Alpha virt. eigenvalues --    0.15639   0.17038   0.17457   0.18232   0.18705
 Alpha virt. eigenvalues --    0.19091   0.19672   0.20100   0.20428   0.21320
 Alpha virt. eigenvalues --    0.21613   0.21801   0.22074   0.22963   0.23279
 Alpha virt. eigenvalues --    0.23458   0.23807   0.24590   0.24879   0.25918
 Alpha virt. eigenvalues --    0.26501   0.27237   0.27551   0.27978   0.28472
 Alpha virt. eigenvalues --    0.28679   0.30338   0.30581   0.32131   0.32137
 Alpha virt. eigenvalues --    0.33043   0.33228   0.33755   0.33823   0.34570
 Alpha virt. eigenvalues --    0.35467   0.35664   0.36179   0.36789   0.37611
 Alpha virt. eigenvalues --    0.38801   0.39884   0.40163   0.40511   0.41479
 Alpha virt. eigenvalues --    0.42356   0.43699   0.44465   0.44849   0.46403
 Alpha virt. eigenvalues --    0.47535   0.62947   0.65675   0.67176   0.68936
 Alpha virt. eigenvalues --    0.69345   0.70373   0.72080   0.72972   0.73790
 Alpha virt. eigenvalues --    0.75445   0.76569   0.78450   0.79786   0.80676
 Alpha virt. eigenvalues --    0.83860   0.84173   0.86691   0.87654   0.88842
 Alpha virt. eigenvalues --    0.89466   0.92355   0.93926   0.94662   0.95844
 Alpha virt. eigenvalues --    0.97946   0.99626   1.01938   1.02713   1.04641
 Alpha virt. eigenvalues --    1.05425   1.05759   1.07645   1.08984   1.09816
 Alpha virt. eigenvalues --    1.10786   1.12343   1.14041   1.14680   1.16186
 Alpha virt. eigenvalues --    1.16863   1.18914   1.20254   1.23901   1.25190
 Alpha virt. eigenvalues --    1.25492   1.27918   1.29485   1.30384   1.31309
 Alpha virt. eigenvalues --    1.33637   1.36305   1.38126   1.39946   1.41262
 Alpha virt. eigenvalues --    1.43985   1.45292   1.48841   1.50747   1.51433
 Alpha virt. eigenvalues --    1.52772   1.55168   1.57111   1.57629   1.59975
 Alpha virt. eigenvalues --    1.62813   1.63893   1.66436   1.68171   1.70437
 Alpha virt. eigenvalues --    1.71479   1.74124   1.76684   1.78400   1.79523
 Alpha virt. eigenvalues --    1.80073   1.82664   1.84168   1.86371   1.88109
 Alpha virt. eigenvalues --    1.88911   1.90018   1.93171   1.94607   1.96005
 Alpha virt. eigenvalues --    1.99002   1.99673   2.00816   2.02081   2.03287
 Alpha virt. eigenvalues --    2.03982   2.06865   2.07977   2.09510   2.10374
 Alpha virt. eigenvalues --    2.11302   2.13579   2.15015   2.15921   2.18320
 Alpha virt. eigenvalues --    2.20794   2.24563   2.25101   2.27311   2.29643
 Alpha virt. eigenvalues --    2.30252   2.32297   2.33447   2.37051   2.39381
 Alpha virt. eigenvalues --    2.41904   2.44476   2.45085   2.46273   2.48305
 Alpha virt. eigenvalues --    2.48768   2.50795   2.51451   2.52282   2.54869
 Alpha virt. eigenvalues --    2.55375   2.57445   2.58784   2.60951   2.62791
 Alpha virt. eigenvalues --    2.64596   2.65707   2.66262   2.67907   2.70259
 Alpha virt. eigenvalues --    2.71109   2.72914   2.73532   2.76460   2.78147
 Alpha virt. eigenvalues --    2.79416   2.79619   2.80396   2.82696   2.84721
 Alpha virt. eigenvalues --    2.87172   2.89274   2.90202   2.92481   2.95494
 Alpha virt. eigenvalues --    2.96193   3.00094   3.01879   3.03009   3.03752
 Alpha virt. eigenvalues --    3.04397   3.07674   3.11239   3.17090   3.32304
 Alpha virt. eigenvalues --    3.35598   3.35902   3.37134   3.43470   3.44890
 Alpha virt. eigenvalues --    3.46417   3.49865   3.51765   3.54262   3.55565
 Alpha virt. eigenvalues --    3.57061   3.58160   3.60773   3.60980   4.32578
 Alpha virt. eigenvalues --    4.34019   4.36736   4.42363   4.49422   4.56760
 Alpha virt. eigenvalues --    4.59200   4.69255   4.78107   4.80103   4.89166
 Alpha virt. eigenvalues --    4.96494
          Condensed to atoms (all electrons):
              1          2          3          4          5          6
     1  C    6.541200  -1.396149   0.210565  -0.040260  -0.034003   0.196573
     2  C   -1.396149   9.526751  -0.484950  -0.380558   0.325939  -0.795424
     3  N    0.210565  -0.484950   7.668845   0.265913  -0.190937  -0.119146
     4  C   -0.040260  -0.380558   0.265913   5.876920  -0.263602  -0.136811
     5  C   -0.034003   0.325939  -0.190937  -0.263602   6.139644  -0.111960
     6  C    0.196573  -0.795424  -0.119146  -0.136811  -0.111960   8.759764
     7  C   -0.411173   1.370253  -0.461798   0.033415  -0.084418  -1.267589
     8  C    0.532525  -2.042893   0.155132   0.128847  -0.085138   0.808920
     9  H    0.390401  -0.080992   0.012082   0.022757  -0.025150   0.004067
    10  H    0.506758  -0.199210   0.032853   0.034929  -0.086521   0.002343
    11  H    0.090868   0.106160  -0.004105   0.028869  -0.038299   0.011193
    12  H    0.037497  -0.005794  -0.051750   0.390038  -0.031090   0.014614
    13  H   -0.018072   0.024724  -0.102140   0.407729  -0.013787  -0.010070
    14  H   -0.017757  -0.052894   0.016695  -0.032315   0.399275   0.006248
    15  H   -0.076667   0.059920   0.004156  -0.011292   0.369829  -0.004404
    16  H   -0.024874   0.048445  -0.073501   0.022712   0.018996   0.209854
    17  H    0.012497   0.005230   0.023631   0.001843   0.001294   0.010826
    18  H    0.000834  -0.047744   0.015650   0.000043  -0.002241   0.030737
    19  O    0.079255  -0.199246   0.040452   0.054939  -0.077881  -0.025888
    20  H   -0.005966  -0.022510   0.014524   0.003346  -0.000353   0.041941
    21  O    0.010553  -0.016158   0.049768   0.010879   0.002927  -0.234865
    22  H    0.013368   0.020455   0.020145   0.003993   0.001720  -0.030219
    23  C   -0.062060   0.069328   0.178950  -0.115001   0.081519  -1.174417
    24  H    0.000112   0.006003  -0.003436  -0.011253  -0.000265  -0.128344
    25  H   -0.000202   0.010766   0.024722   0.015984   0.001409  -0.155859
    26  O   -0.003275   0.002548  -0.026002  -0.015698  -0.002642   0.021772
    27  H   -0.000457  -0.001711  -0.000888  -0.000931   0.000471   0.049454
              7          8          9         10         11         12
     1  C   -0.411173   0.532525   0.390401   0.506758   0.090868   0.037497
     2  C    1.370253  -2.042893  -0.080992  -0.199210   0.106160  -0.005794
     3  N   -0.461798   0.155132   0.012082   0.032853  -0.004105  -0.051750
     4  C    0.033415   0.128847   0.022757   0.034929   0.028869   0.390038
     5  C   -0.084418  -0.085138  -0.025150  -0.086521  -0.038299  -0.031090
     6  C   -1.267589   0.808920   0.004067   0.002343   0.011193   0.014614
     7  C    8.044542  -1.535148  -0.009484  -0.011929  -0.043723  -0.005100
     8  C   -1.535148   7.748557   0.030591   0.036759   0.108382  -0.002943
     9  H   -0.009484   0.030591   0.511410  -0.023395  -0.004899  -0.000105
    10  H   -0.011929   0.036759  -0.023395   0.514042   0.003840  -0.000055
    11  H   -0.043723   0.108382  -0.004899   0.003840   0.565514   0.000114
    12  H   -0.005100  -0.002943  -0.000105  -0.000055   0.000114   0.532967
    13  H    0.005632  -0.002365  -0.000136   0.000727  -0.000636  -0.041729
    14  H   -0.005355   0.014957  -0.005289   0.003895   0.000521  -0.005769
    15  H    0.003197  -0.006202   0.000674  -0.005587  -0.000120   0.000446
    16  H    0.064009  -0.052099  -0.000003  -0.000032  -0.000656  -0.001328
    17  H    0.281252   0.019675   0.000002  -0.000011  -0.000045   0.000004
    18  H   -0.022558   0.346842   0.000176   0.000077  -0.002217   0.000005
    19  O   -0.098826   0.343817  -0.000594   0.010006   0.006269   0.000010
    20  H   -0.049552  -0.007622   0.000062  -0.001575  -0.000116   0.000012
    21  O    0.372618  -0.103614  -0.000005   0.000059  -0.001414   0.000022
    22  H   -0.013707  -0.022696   0.000006  -0.000001   0.000706   0.000002
    23  C   -0.015213  -0.320954   0.000230  -0.000835   0.005494  -0.001188
    24  H    0.063677   0.006727   0.000000   0.000000  -0.000014  -0.000039
    25  H   -0.006930  -0.026802   0.000000   0.000000  -0.000071   0.000018
    26  O    0.061213  -0.015910  -0.000002  -0.000007  -0.000282  -0.001391
    27  H   -0.008410   0.002762   0.000000   0.000000  -0.000001   0.000039
             13         14         15         16         17         18
     1  C   -0.018072  -0.017757  -0.076667  -0.024874   0.012497   0.000834
     2  C    0.024724  -0.052894   0.059920   0.048445   0.005230  -0.047744
     3  N   -0.102140   0.016695   0.004156  -0.073501   0.023631   0.015650
     4  C    0.407729  -0.032315  -0.011292   0.022712   0.001843   0.000043
     5  C   -0.013787   0.399275   0.369829   0.018996   0.001294  -0.002241
     6  C   -0.010070   0.006248  -0.004404   0.209854   0.010826   0.030737
     7  C    0.005632  -0.005355   0.003197   0.064009   0.281252  -0.022558
     8  C   -0.002365   0.014957  -0.006202  -0.052099   0.019675   0.346842
     9  H   -0.000136  -0.005289   0.000674  -0.000003   0.000002   0.000176
    10  H    0.000727   0.003895  -0.005587  -0.000032  -0.000011   0.000077
    11  H   -0.000636   0.000521  -0.000120  -0.000656  -0.000045  -0.002217
    12  H   -0.041729  -0.005769   0.000446  -0.001328   0.000004   0.000005
    13  H    0.594216   0.003942  -0.003863   0.013303  -0.000050  -0.000044
    14  H    0.003942   0.519499  -0.024639  -0.000011   0.000000  -0.000001
    15  H   -0.003863  -0.024639   0.517232  -0.000001   0.000000   0.000002
    16  H    0.013303  -0.000011  -0.000001   0.582625  -0.004380  -0.000231
    17  H   -0.000050   0.000000   0.000000  -0.004380   0.527049  -0.002064
    18  H   -0.000044  -0.000001   0.000002  -0.000231  -0.002064   0.531069
    19  O   -0.001384   0.000159   0.000357  -0.001109  -0.002247  -0.049518
    20  H   -0.000768  -0.000009   0.000002  -0.000141  -0.001117   0.006093
    21  O   -0.000059   0.000016   0.000005   0.008813  -0.046175  -0.002508
    22  H   -0.000005  -0.000001   0.000000  -0.000122   0.006188  -0.000857
    23  C   -0.003841  -0.000155   0.000600   0.018048  -0.022478   0.016283
    24  H    0.000037   0.000000   0.000000  -0.002926   0.000899  -0.000006
    25  H    0.000000  -0.000001   0.000000   0.004913   0.000091  -0.000003
    26  O    0.001163  -0.000078   0.000018   0.006466  -0.000665   0.000017
    27  H   -0.000003   0.000000   0.000000  -0.000044   0.000000   0.000000
             19         20         21         22         23         24
     1  C    0.079255  -0.005966   0.010553   0.013368  -0.062060   0.000112
     2  C   -0.199246  -0.022510  -0.016158   0.020455   0.069328   0.006003
     3  N    0.040452   0.014524   0.049768   0.020145   0.178950  -0.003436
     4  C    0.054939   0.003346   0.010879   0.003993  -0.115001  -0.011253
     5  C   -0.077881  -0.000353   0.002927   0.001720   0.081519  -0.000265
     6  C   -0.025888   0.041941  -0.234865  -0.030219  -1.174417  -0.128344
     7  C   -0.098826  -0.049552   0.372618  -0.013707  -0.015213   0.063677
     8  C    0.343817  -0.007622  -0.103614  -0.022696  -0.320954   0.006727
     9  H   -0.000594   0.000062  -0.000005   0.000006   0.000230   0.000000
    10  H    0.010006  -0.001575   0.000059  -0.000001  -0.000835   0.000000
    11  H    0.006269  -0.000116  -0.001414   0.000706   0.005494  -0.000014
    12  H    0.000010   0.000012   0.000022   0.000002  -0.001188  -0.000039
    13  H   -0.001384  -0.000768  -0.000059  -0.000005  -0.003841   0.000037
    14  H    0.000159  -0.000009   0.000016  -0.000001  -0.000155   0.000000
    15  H    0.000357   0.000002   0.000005   0.000000   0.000600   0.000000
    16  H   -0.001109  -0.000141   0.008813  -0.000122   0.018048  -0.002926
    17  H   -0.002247  -0.001117  -0.046175   0.006188  -0.022478   0.000899
    18  H   -0.049518   0.006093  -0.002508  -0.000857   0.016283  -0.000006
    19  O    8.141699   0.259154   0.004836   0.000054   0.028843  -0.000131
    20  H    0.259154   0.354913   0.000054  -0.000024   0.025733  -0.000003
    21  O    0.004836   0.000054   8.148886   0.267439   0.033184  -0.006208
    22  H    0.000054  -0.000024   0.267439   0.358808  -0.005097   0.000414
    23  C    0.028843   0.025733   0.033184  -0.005097   6.441244   0.441101
    24  H   -0.000131  -0.000003  -0.006208   0.000414   0.441101   0.577966
    25  H    0.000063   0.000001   0.009214  -0.000287   0.496098  -0.044538
    26  O   -0.000054   0.000129  -0.003486  -0.000091   0.052003  -0.056323
    27  H    0.000001   0.000000   0.000233  -0.000007  -0.033292  -0.003605
             25         26         27
     1  C   -0.000202  -0.003275  -0.000457
     2  C    0.010766   0.002548  -0.001711
     3  N    0.024722  -0.026002  -0.000888
     4  C    0.015984  -0.015698  -0.000931
     5  C    0.001409  -0.002642   0.000471
     6  C   -0.155859   0.021772   0.049454
     7  C   -0.006930   0.061213  -0.008410
     8  C   -0.026802  -0.015910   0.002762
     9  H    0.000000  -0.000002   0.000000
    10  H    0.000000  -0.000007   0.000000
    11  H   -0.000071  -0.000282  -0.000001
    12  H    0.000018  -0.001391   0.000039
    13  H    0.000000   0.001163  -0.000003
    14  H   -0.000001  -0.000078   0.000000
    15  H    0.000000   0.000018   0.000000
    16  H    0.004913   0.006466  -0.000044
    17  H    0.000091  -0.000665   0.000000
    18  H   -0.000003   0.000017   0.000000
    19  O    0.000063  -0.000054   0.000001
    20  H    0.000001   0.000129   0.000000
    21  O    0.009214  -0.003486   0.000233
    22  H   -0.000287  -0.000091  -0.000007
    23  C    0.496098   0.052003  -0.033292
    24  H   -0.044538  -0.056323  -0.003605
    25  H    0.565175  -0.049060  -0.005478
    26  O   -0.049060   8.392704   0.230499
    27  H   -0.005478   0.230499   0.378552
 Mulliken atomic charges:
              1
     1  C   -0.532092
     2  C    0.149709
     3  N   -0.215430
     4  C   -0.295435
     5  C   -0.294737
     6  C    0.026688
     7  C   -0.248896
     8  C   -0.060110
     9  H    0.177596
    10  H    0.182869
    11  H    0.168666
    12  H    0.172492
    13  H    0.147479
    14  H    0.179069
    15  H    0.176337
    16  H    0.163273
    17  H    0.188752
    18  H    0.182164
    19  O   -0.513035
    20  H    0.383791
    21  O   -0.505014
    22  H    0.379815
    23  C   -0.134128
    24  H    0.160155
    25  H    0.160774
    26  O   -0.593566
    27  H    0.392816
 Sum of Mulliken atomic charges =   0.00000
 Mulliken charges with hydrogens summed into heavy atoms:
              1
     1  C   -0.171627
     2  C    0.318375
     3  N   -0.215430
     4  C    0.024537
     5  C    0.060668
     6  C    0.189961
     7  C   -0.060143
     8  C    0.122054
    19  O   -0.129244
    21  O   -0.125199
    23  C    0.186801
    26  O   -0.200751
 Sum of Mulliken charges with hydrogens summed into heavy atoms =   0.00000
 Electronic spatial extent (au):  <R**2>=           2028.3084
 Charge=              0.0000 electrons
 Dipole moment (field-independent basis, Debye):
    X=              0.0923    Y=              1.8097    Z=             -0.9721  Tot=              2.0563
 Quadrupole moment (field-independent basis, Debye-Ang):
   XX=            -66.4863   YY=            -83.0195   ZZ=            -70.8423
   XY=              0.3660   XZ=              1.0369   YZ=              1.4410
 Traceless Quadrupole moment (field-independent basis, Debye-Ang):
   XX=              6.9631   YY=             -9.5701   ZZ=              2.6070
   XY=              0.3660   XZ=              1.0369   YZ=              1.4410
 Octapole moment (field-independent basis, Debye-Ang**2):
  XXX=             47.0425  YYY=             17.5303  ZZZ=             -4.8391  XYY=             -0.2098
  XXY=             29.1608  XXZ=             -9.2834  XZZ=              2.6582  YZZ=             -1.5011
  YYZ=             -6.2171  XYZ=            -18.4029
 Hexadecapole moment (field-independent basis, Debye-Ang**3):
 XXXX=          -1159.2225 YYYY=          -1015.5359 ZZZZ=           -273.8046 XXXY=             97.7146
 XXXZ=            -11.1599 YYYX=             41.8170 YYYZ=             -6.6651 ZZZX=            -18.1828
 ZZZY=             18.5111 XXYY=           -373.1832 XXZZ=           -274.0672 YYZZ=           -235.1384
 XXYZ=            -14.3449 YYXZ=             15.1942 ZZXY=            -12.0303
 N-N= 8.071136494606D+02 E-N=-3.000036061619D+03  KE= 5.886544058720D+02
 1\1\GINC-COMPUTE-3-2\SP\RmPW1PW91\6-31+G(d,p)\C8H15N1O3\MAMICHETTI.IQU
 IR\17-May-2024\0\\# mpw1pw91/6-31+G** nmr scrf=(pcm,solvent=water)\\co
 mment\\0,1\C,0,-2.47914,0.318693,-0.414975\C,0,-1.124376,-0.350564,-0.
 703668\N,0,-0.072889,0.673704,-0.380993\C,0,-0.737727,1.802687,0.29139
 8\C,0,-2.136398,1.817336,-0.325584\C,0,1.017224,0.018731,0.370635\C,0,
 0.796623,-1.496979,0.167096\C,0,-0.742551,-1.607917,0.107078\H,0,-3.22
 4097,0.093281,-1.183519\H,0,-2.871435,-0.031902,0.545411\H,0,-1.048229
 ,-0.614551,-1.767623\H,0,-0.189358,2.737341,0.133118\H,0,-0.802894,1.6
 41956,1.383173\H,0,-2.09971,2.264175,-1.326348\H,0,-2.85341,2.387169,0
 .273808\H,0,0.908393,0.223749,1.450561\H,0,1.202572,-2.078466,0.997837
 \H,0,-1.050692,-2.532834,-0.386874\O,0,-1.308941,-1.669929,1.419786\H,
 0,-1.116627,-0.837991,1.885263\O,0,1.424824,-2.027763,-1.005448\H,0,1.
 115206,-1.526644,-1.778587\C,0,2.406633,0.486377,-0.034273\H,0,3.16288
 2,-0.149314,0.449986\H,0,2.529904,0.395523,-1.120642\O,0,2.562432,1.85
 1173,0.37683\H,0,3.419477,2.154547,0.035815\\Version=AM64L-G09RevC.01\
 State=1-A\HF=-594.1929048\RMSD=4.173e-09\Dipole=0.0363129,0.7119732,-0
 .3824554\Quadrupole=5.1768656,-7.1151415,1.9382759,0.2721363,0.7708967
 ,1.0713454\PG=C01 [X(C8H15N1O3)]\\@


 WHEN A MATHEMATICIAN ENGAGED IN INVESTIGATING
 PHYSICAL ACTIONS AND RESULTS HAS ARRIVED AT HIS
 CONCLUSIONS, MAY THEY NOT BE EXPRESSED IN COMMON
 LANGUAGE AS FULLY, CLEARLY, AND DEFINITELY AS IN
 MATHEMATICAL FORMULAE?
           - LETTER FROM M. FARADAY TO J.C. MAXWELL, 1857.
 Job cpu time:  0 days  0 hours  8 minutes 39.3 seconds.
 File lengths (MBytes):  RWF=    113 Int=      0 D2E=      0 Chk=      7 Scr=      1
 Normal termination of Gaussian 09 at Fri May 17 12:23:02 2024.
