 Entering Gaussian System, Link 0=g09
 Input=/home/mamichetti.iquir/Linux/03_Cardona_A1A3_R__S_S_R_026_OptB.gjc
 Output=/home/mamichetti.iquir/Linux/03_Cardona_A1A3_R__S_S_R_026_OptB.log
 Initial command:
 /opt/ohpc/pub/apps/software/Gaussian/09/AMD64.SSE4a-enabled/g09/l1.exe /local/mamichetti.iquir/Gau-123770.inp -scrdir=/local/mamichetti.iquir/
 Entering Link 1 = /opt/ohpc/pub/apps/software/Gaussian/09/AMD64.SSE4a-enabled/g09/l1.exe PID=    123771.
  
 Copyright (c) 1988,1990,1992,1993,1995,1998,2003,2009,2011,
            Gaussian, Inc.  All Rights Reserved.
  
 This is part of the Gaussian(R) 09 program.  It is based on
 the Gaussian(R) 03 system (copyright 2003, Gaussian, Inc.),
 the Gaussian(R) 98 system (copyright 1998, Gaussian, Inc.),
 the Gaussian(R) 94 system (copyright 1995, Gaussian, Inc.),
 the Gaussian 92(TM) system (copyright 1992, Gaussian, Inc.),
 the Gaussian 90(TM) system (copyright 1990, Gaussian, Inc.),
 the Gaussian 88(TM) system (copyright 1988, Gaussian, Inc.),
 the Gaussian 86(TM) system (copyright 1986, Carnegie Mellon
 University), and the Gaussian 82(TM) system (copyright 1983,
 Carnegie Mellon University). Gaussian is a federally registered
 trademark of Gaussian, Inc.
  
 This software contains proprietary and confidential information,
 including trade secrets, belonging to Gaussian, Inc.
  
 This software is provided under written license and may be
 used, copied, transmitted, or stored only in accord with that
 written license.
  
 The following legend is applicable only to US Government
 contracts under FAR:
  
                    RESTRICTED RIGHTS LEGEND
  
 Use, reproduction and disclosure by the US Government is
 subject to restrictions as set forth in subparagraphs (a)
 and (c) of the Commercial Computer Software - Restricted
 Rights clause in FAR 52.227-19.
  
 Gaussian, Inc.
 340 Quinnipiac St., Bldg. 40, Wallingford CT 06492
  
  
 ---------------------------------------------------------------
 Warning -- This program may not be used in any manner that
 competes with the business of Gaussian, Inc. or will provide
 assistance to any competitor of Gaussian, Inc.  The licensee
 of this program is prohibited from giving any competitor of
 Gaussian, Inc. access to this program.  By using this program,
 the user acknowledges that Gaussian, Inc. is engaged in the
 business of creating and licensing software in the field of
 computational chemistry and represents and warrants to the
 licensee that it is not a competitor of Gaussian, Inc. and that
 it will not use this program in any manner prohibited above.
 ---------------------------------------------------------------
  

 Cite this work as:
 Gaussian 09, Revision C.01,
 M. J. Frisch, G. W. Trucks, H. B. Schlegel, G. E. Scuseria, 
 M. A. Robb, J. R. Cheeseman, G. Scalmani, V. Barone, B. Mennucci, 
 G. A. Petersson, H. Nakatsuji, M. Caricato, X. Li, H. P. Hratchian, 
 A. F. Izmaylov, J. Bloino, G. Zheng, J. L. Sonnenberg, M. Hada, 
 M. Ehara, K. Toyota, R. Fukuda, J. Hasegawa, M. Ishida, T. Nakajima, 
 Y. Honda, O. Kitao, H. Nakai, T. Vreven, J. A. Montgomery, Jr., 
 J. E. Peralta, F. Ogliaro, M. Bearpark, J. J. Heyd, E. Brothers, 
 K. N. Kudin, V. N. Staroverov, T. Keith, R. Kobayashi, J. Normand, 
 K. Raghavachari, A. Rendell, J. C. Burant, S. S. Iyengar, J. Tomasi, 
 M. Cossi, N. Rega, J. M. Millam, M. Klene, J. E. Knox, J. B. Cross, 
 V. Bakken, C. Adamo, J. Jaramillo, R. Gomperts, R. E. Stratmann, 
 O. Yazyev, A. J. Austin, R. Cammi, C. Pomelli, J. W. Ochterski, 
 R. L. Martin, K. Morokuma, V. G. Zakrzewski, G. A. Voth, 
 P. Salvador, J. J. Dannenberg, S. Dapprich, A. D. Daniels, 
 O. Farkas, J. B. Foresman, J. V. Ortiz, J. Cioslowski, 
 and D. J. Fox, Gaussian, Inc., Wallingford CT, 2010.
 
 ******************************************
 Gaussian 09:  AM64L-G09RevC.01 23-Sep-2011
                17-May-2024 
 ******************************************
 %nprocshared=4
 Will use up to    4 processors via shared memory.
 ------------------------------------------------
 # mpw1pw91/6-31+G** nmr scrf=(pcm,solvent=water)
 ------------------------------------------------
 1/38=1/1;
 2/12=2,17=6,18=5,40=1/2;
 3/5=1,6=6,7=111,11=2,16=1,25=1,30=1,70=2201,72=1,74=-7/1,2,8,3;
 4//1;
 5/5=2,38=5,53=1/2;
 8/6=1,10=90,11=11/1;
 10/13=100,45=16/2;
 6/7=2,8=2,9=2,10=2,28=1/1;
 99/9=1/99;
 -------
 comment
 -------
 Charge =  0 Multiplicity = 1
 Symbolic Z-Matrix:
 6                    -2.61052   0.21241   0.2734 
 6                    -1.14983   0.48417   0.6783 
 7                    -0.3891   -0.78117   0.38758 
 6                    -1.28839  -1.68739  -0.34867 
 6                    -2.68171  -1.32244   0.16679 
 6                     0.8659   -0.43117  -0.30652 
 6                     1.06437   1.07459  -0.02769 
 6                    -0.38466   1.60479  -0.04256 
 1                    -3.32016   0.62382   0.99727 
 1                    -2.82372   0.66388  -0.69937 
 1                    -1.09208   0.69485   1.75444 
 1                    -1.03036  -2.73732  -0.16872 
 1                    -1.22837  -1.51577  -1.4379 
 1                    -2.85045  -1.77054   1.15336 
 1                    -3.47753  -1.66873  -0.50009 
 1                     0.7506   -0.54703  -1.39658 
 1                     1.6711    1.55475  -0.80017 
 1                    -0.46352   2.56788   0.47735 
 8                    -0.85122   1.71731  -1.39052 
 1                    -0.29112   2.37853  -1.83124 
 8                     1.73576   1.35738   1.20465 
 1                     1.287     0.87446   1.91917 
 6                     2.03229  -1.31737   0.13166 
 1                     2.19205  -1.22938   1.2139 
 1                     1.79678  -2.364    -0.0863 
 8                     3.23616  -1.02455  -0.58779 
 1                     3.55317  -0.16399  -0.26725 
 
                          Input orientation:                          
 ---------------------------------------------------------------------
 Center     Atomic      Atomic             Coordinates (Angstroms)
 Number     Number       Type             X           Y           Z
 ---------------------------------------------------------------------
      1          6           0       -2.610524    0.212407    0.273398
      2          6           0       -1.149832    0.484173    0.678302
      3          7           0       -0.389097   -0.781165    0.387584
      4          6           0       -1.288389   -1.687392   -0.348665
      5          6           0       -2.681710   -1.322436    0.166789
      6          6           0        0.865896   -0.431165   -0.306522
      7          6           0        1.064369    1.074588   -0.027687
      8          6           0       -0.384659    1.604786   -0.042561
      9          1           0       -3.320160    0.623816    0.997274
     10          1           0       -2.823723    0.663879   -0.699373
     11          1           0       -1.092075    0.694854    1.754444
     12          1           0       -1.030363   -2.737316   -0.168716
     13          1           0       -1.228374   -1.515774   -1.437899
     14          1           0       -2.850448   -1.770543    1.153357
     15          1           0       -3.477531   -1.668725   -0.500088
     16          1           0        0.750599   -0.547026   -1.396576
     17          1           0        1.671101    1.554746   -0.800166
     18          1           0       -0.463519    2.567883    0.477346
     19          8           0       -0.851223    1.717314   -1.390520
     20          1           0       -0.291120    2.378528   -1.831235
     21          8           0        1.735760    1.357384    1.204649
     22          1           0        1.286997    0.874455    1.919171
     23          6           0        2.032295   -1.317373    0.131663
     24          1           0        2.192055   -1.229384    1.213896
     25          1           0        1.796778   -2.363998   -0.086301
     26          8           0        3.236163   -1.024545   -0.587789
     27          1           0        3.553174   -0.163988   -0.267254
 ---------------------------------------------------------------------
                    Distance matrix (angstroms):
                    1          2          3          4          5
     1  C    0.000000
     2  C    1.539943   0.000000
     3  N    2.436178   1.504764   0.000000
     4  C    2.396714   2.406149   1.473783   0.000000
     5  C    1.540187   2.423248   2.365967   1.529781   0.000000
     6  C    3.582735   2.422990   1.476242   2.494158   3.688346
     7  C    3.786667   2.397852   2.393498   3.642394   4.451590
     8  C    2.644433   1.536524   2.424419   3.427662   3.726781
     9  H    1.094000   2.198083   3.307087   3.358769   2.210254
    10  H    1.093419   2.175361   3.032661   2.829969   2.171601
    11  H    2.175302   1.098091   2.130990   3.183819   3.019445
    12  H    3.375387   3.333122   2.132421   1.096038   2.200317
    13  H    2.797407   2.912776   2.139258   1.104303   2.173612
    14  H    2.182655   2.863829   2.761073   2.168643   1.096626
    15  H    2.211027   3.382566   3.333789   2.194452   1.094519
    16  H    3.829190   2.996686   2.130013   2.560473   3.850470
    17  H    4.613754   3.360009   3.333414   4.412923   5.306613
    18  H    3.193664   2.203011   3.351077   4.412490   4.489031
    19  O    2.851054   2.426897   3.101227   3.587283   3.875045
    20  H    3.808043   3.259408   3.862178   4.441201   4.837784
    21  O    4.590031   3.060422   3.123460   4.563871   5.269974
    22  H    4.282236   2.762284   2.810005   4.282377   4.862901
    23  C    4.890407   3.697339   2.493222   3.375585   4.714139
    24  H    5.101771   3.793593   2.747005   3.842507   4.985848
    25  H    5.117769   4.168838   2.740069   3.169367   4.604971
    26  O    6.037834   4.807928   3.762060   4.579096   5.973219
    27  H    6.198802   4.840708   4.043664   5.076231   6.356428
                    6          7          8          9         10
     6  C    0.000000
     7  C    1.544161   0.000000
     8  C    2.403884   1.543053   0.000000
     9  H    4.509538   4.525244   3.265077   0.000000
    10  H    3.868687   3.967002   2.695504   1.768238   0.000000
    11  H    3.057638   2.823197   2.134863   2.354297   3.003462
    12  H    2.988833   4.351828   4.391662   4.230829   3.881477
    13  H    2.615790   3.735685   3.520897   3.857912   2.800258
    14  H    4.211460   4.981509   4.347779   2.444984   3.059368
    15  H    4.520440   5.327080   4.526705   2.742736   2.430683
    16  H    1.102241   2.145213   2.784324   4.865436   3.837729
    17  H    2.199064   1.093343   2.191488   5.386103   4.583366
    18  H    3.372845   2.195320   1.097305   3.494298   3.252762
    19  O    2.956266   2.437192   1.430852   3.604573   2.340548
    20  H    3.399678   2.605839   1.951097   4.500507   3.261167
    21  O    2.497841   1.431570   2.472431   5.113067   4.989502
    22  H    2.614513   1.969739   2.678845   4.705168   4.878436
    23  C    1.529005   2.585295   3.796187   5.759017   5.310074
    24  H    2.169683   2.849823   4.031211   5.819432   5.692370
    25  H    2.156590   3.516210   4.528998   6.023639   5.558141
    26  O    2.459548   3.071931   4.507883   6.943694   6.291697
    27  H    2.700813   2.790271   4.322682   7.032950   6.444913
                   11         12         13         14         15
    11  H    0.000000
    12  H    3.934736   0.000000
    13  H    3.885422   1.772625   0.000000
    14  H    3.087291   2.448517   3.067676   0.000000
    15  H    4.044728   2.690785   2.441637   1.771293   0.000000
    16  H    3.855728   3.078447   2.203750   4.578940   4.465309
    17  H    3.860128   5.110620   4.271036   5.942912   6.081877
    18  H    2.352509   5.374369   4.574868   4.997636   5.290415
    19  O    3.315755   4.622621   3.255356   4.757453   4.376714
    20  H    4.041458   5.429761   4.024767   5.716007   5.320284
    21  O    2.955989   5.128756   4.901447   5.551564   6.264333
    22  H    2.391521   4.772245   4.828064   4.970004   5.917880
    23  C    4.055140   3.389150   3.624203   5.009032   5.557044
    24  H    3.844528   3.816995   4.337438   5.071820   5.939273
    25  H    4.592427   2.852873   3.420211   4.846200   5.336006
    26  O    5.213064   4.616541   4.571223   6.374554   6.745098
    27  H    5.138405   5.257427   5.104991   6.753187   7.193696
                   16         17         18         19         20
    16  H    0.000000
    17  H    2.370754   0.000000
    18  H    3.832535   2.686091   0.000000
    19  O    2.773645   2.595586   2.088709   0.000000
    20  H    3.135757   2.364748   2.322740   0.972188   0.000000
    21  O    3.371007   2.015544   2.613638   3.681974   3.790458
    22  H    3.647261   2.829333   2.830347   4.029448   4.337999
    23  C    2.138152   3.041025   4.630745   4.454328   4.786534
    24  H    3.059080   3.475517   4.691888   4.972681   5.334417
    25  H    2.472387   3.985217   5.454364   5.036865   5.467693
    26  O    2.657102   3.024445   5.265710   4.986872   5.056559
    27  H    3.045737   2.603890   4.914404   4.919323   4.867137
                   21         22         23         24         25
    21  O    0.000000
    22  H    0.972188   0.000000
    23  C    2.897164   2.924853   0.000000
    24  H    2.626720   2.396389   1.097494   0.000000
    25  H    3.939411   3.843094   1.094715   1.770340   0.000000
    26  O    3.337309   3.700040   1.432710   2.092412   2.029151
    27  H    2.789994   3.315777   1.950001   2.276295   2.820942
                   26         27
    26  O    0.000000
    27  H    0.971492   0.000000
 Stoichiometry    C8H15NO3
 Framework group  C1[X(C8H15NO3)]
 Deg. of freedom    75
 Full point group                 C1      NOp   1
 Largest Abelian subgroup         C1      NOp   1
 Largest concise Abelian subgroup C1      NOp   1
                         Standard orientation:                         
 ---------------------------------------------------------------------
 Center     Atomic      Atomic             Coordinates (Angstroms)
 Number     Number       Type             X           Y           Z
 ---------------------------------------------------------------------
      1          6           0        2.610524    0.212407   -0.273398
      2          6           0        1.149832    0.484173   -0.678302
      3          7           0        0.389097   -0.781165   -0.387584
      4          6           0        1.288389   -1.687392    0.348665
      5          6           0        2.681710   -1.322436   -0.166789
      6          6           0       -0.865896   -0.431165    0.306522
      7          6           0       -1.064369    1.074588    0.027687
      8          6           0        0.384659    1.604786    0.042561
      9          1           0        3.320160    0.623816   -0.997274
     10          1           0        2.823723    0.663879    0.699373
     11          1           0        1.092075    0.694854   -1.754444
     12          1           0        1.030363   -2.737316    0.168716
     13          1           0        1.228374   -1.515774    1.437899
     14          1           0        2.850448   -1.770543   -1.153357
     15          1           0        3.477531   -1.668725    0.500088
     16          1           0       -0.750599   -0.547026    1.396576
     17          1           0       -1.671101    1.554746    0.800166
     18          1           0        0.463519    2.567883   -0.477346
     19          8           0        0.851223    1.717314    1.390520
     20          1           0        0.291120    2.378528    1.831235
     21          8           0       -1.735760    1.357384   -1.204649
     22          1           0       -1.286997    0.874455   -1.919171
     23          6           0       -2.032295   -1.317373   -0.131663
     24          1           0       -2.192055   -1.229384   -1.213896
     25          1           0       -1.796778   -2.363998    0.086301
     26          8           0       -3.236163   -1.024545    0.587789
     27          1           0       -3.553174   -0.163988    0.267254
 ---------------------------------------------------------------------
 Rotational constants (GHZ):      1.4056814      0.7568412      0.5980884
 Standard basis: 6-31+G(d,p) (6D, 7F)
 There are   303 symmetry adapted basis functions of A   symmetry.
 Integral buffers will be    131072 words long.
 Raffenetti 2 integral format.
 Two-electron integral symmetry is turned on.
   303 basis functions,   489 primitive gaussians,   303 cartesian basis functions
    47 alpha electrons       47 beta electrons
       nuclear repulsion energy       806.4024115142 Hartrees.
 NAtoms=   27 NActive=   27 NUniq=   27 SFac= 1.00D+00 NAtFMM=   60 NAOKFM=F Big=F
 ------------------------------------------------------------------------------
 Polarizable Continuum Model (PCM)
 =================================
 Model                : PCM.
 Atomic radii         : UFF (Universal Force Field).
 Polarization charges : Total charges.
 Charge compensation  : None.
 Solution method      : Matrix inversion.
 Cavity type          : Scaled VdW (van der Waals Surface) (Alpha=1.100).
 Cavity algorithm     : GePol (No added spheres)
                        Default sphere list used, NSphG=   27.
                        Lebedev-Laikov grids with approx.  5.0 points / Ang**2.
                        Smoothing algorithm: Karplus/York (Gamma=1.0000).
                        Polarization charges: spherical gaussians, with
                                              point-specific exponents (IZeta= 3).
                        Self-potential: point-specific (ISelfS= 7).
                        Self-field    : sphere-specific E.n sum rule (ISelfD= 2).
 Solvent              : Water, Eps=  78.355300 Eps(inf)=   1.777849
 ------------------------------------------------------------------------------
 One-electron integrals computed using PRISM.
 NBasis=   303 RedAO= T  NBF=   303
 NBsUse=   303 1.00D-06 NBFU=   303
 Harris functional with IExCor=  908 diagonalized for initial guess.
 ExpMin= 4.38D-02 ExpMax= 5.48D+03 ExpMxC= 8.25D+02 IAcc=2 IRadAn=         4 AccDes= 0.00D+00
 HarFok:  IExCor=  908 AccDes= 0.00D+00 IRadAn=         4 IDoV= 1
 ScaDFX=  1.000000  1.000000  1.000000  1.000000
 FoFCou: FMM=F IPFlag=           0 FMFlag=      100000 FMFlg1=           0
         NFxFlg=           0 DoJE=T BraDBF=F KetDBF=T FulRan=T
         Omega=  0.000000  0.000000  1.000000  0.000000  0.000000 ICntrl=     500 IOpCl=  0
         NMat0=    1 NMatS0=    1 NMatT0=    0 NMatD0=    1 NMtDS0=    0 NMtDT0=    0
         I1Cent=           4 NGrid=           0.
 Petite list used in FoFCou.
 Initial guess orbital symmetries:
       Occupied  (A) (A) (A) (A) (A) (A) (A) (A) (A) (A) (A) (A)
                 (A) (A) (A) (A) (A) (A) (A) (A) (A) (A) (A) (A)
                 (A) (A) (A) (A) (A) (A) (A) (A) (A) (A) (A) (A)
                 (A) (A) (A) (A) (A) (A) (A) (A) (A) (A) (A)
       Virtual   (A) (A) (A) (A) (A) (A) (A) (A) (A) (A) (A) (A)
                 (A) (A) (A) (A) (A) (A) (A) (A) (A) (A) (A) (A)
                 (A) (A) (A) (A) (A) (A) (A) (A) (A) (A) (A) (A)
                 (A) (A) (A) (A) (A) (A) (A) (A) (A) (A) (A) (A)
                 (A) (A) (A) (A) (A) (A) (A) (A) (A) (A) (A) (A)
                 (A) (A) (A) (A) (A) (A) (A) (A) (A) (A) (A) (A)
                 (A) (A) (A) (A) (A) (A) (A) (A) (A) (A) (A) (A)
                 (A) (A) (A) (A) (A) (A) (A) (A) (A) (A) (A) (A)
                 (A) (A) (A) (A) (A) (A) (A) (A) (A) (A) (A) (A)
                 (A) (A) (A) (A) (A) (A) (A) (A) (A) (A) (A) (A)
                 (A) (A) (A) (A) (A) (A) (A) (A) (A) (A) (A) (A)
                 (A) (A) (A) (A) (A) (A) (A) (A) (A) (A) (A) (A)
                 (A) (A) (A) (A) (A) (A) (A) (A) (A) (A) (A) (A)
                 (A) (A) (A) (A) (A) (A) (A) (A) (A) (A) (A) (A)
                 (A) (A) (A) (A) (A) (A) (A) (A) (A) (A) (A) (A)
                 (A) (A) (A) (A) (A) (A) (A) (A) (A) (A) (A) (A)
                 (A) (A) (A) (A) (A) (A) (A) (A) (A) (A) (A) (A)
                 (A) (A) (A) (A) (A) (A) (A) (A) (A) (A) (A) (A)
                 (A) (A) (A) (A) (A) (A) (A) (A) (A) (A) (A) (A)
                 (A) (A) (A) (A) (A) (A) (A) (A) (A) (A) (A) (A)
                 (A) (A) (A) (A) (A) (A) (A) (A) (A) (A) (A) (A)
                 (A) (A) (A) (A)
 The electronic state of the initial guess is 1-A.
 Requested convergence on RMS density matrix=1.00D-08 within 128 cycles.
 Requested convergence on MAX density matrix=1.00D-06.
 Requested convergence on             energy=1.00D-06.
 No special actions if energy rises.
 Error on total polarization charges =  0.01440
 SCF Done:  E(RmPW1PW91) =  -594.195950960     A.U. after   13 cycles
             Convg  =    0.5164D-08             -V/T =  2.0094
 Range of M.O.s used for correlation:     1   303
 NBasis=   303 NAE=    47 NBE=    47 NFC=     0 NFV=     0
 NROrb=    303 NOA=    47 NOB=    47 NVA=   256 NVB=   256

 **** Warning!!: The largest alpha MO coefficient is  0.83793575D+02

 NEqPCM:  Using equilibrium solvation (IEInf=0, Eps=  78.3553, EpsInf=   1.7778)
          Differentiating once with respect to magnetic field using GIAOs.
          Electric field/nuclear overlap derivatives assumed to be zero.
 FoFCou: FMM=F IPFlag=           0 FMFlag=    10101102 FMFlg1=           0
         NFxFlg=    40000000 DoJE=F BraDBF=F KetDBF=T FulRan=T
         Omega=  0.000000  0.000000  1.000000  0.000000  0.000000 ICntrl=    6100 IOpCl=  0
         NMat0=    1 NMatS0=    1 NMatT0=    0 NMatD0=    1 NMtDS0=    0 NMtDT0=    0
         I1Cent=           7 NGrid=        1835.
 Symmetry not used in FoFCou.
          There are     3 degrees of freedom in the 1st order CPHF.  IDoFFX=0.
      3 vectors produced by pass  0 Test12= 4.01D-13 3.33D-08 XBig12= 4.02D+01 1.73D+00.
 AX will form     3 AO Fock derivatives at one time.
      3 vectors produced by pass  1 Test12= 4.01D-13 3.33D-08 XBig12= 9.98D-02 3.91D-02.
      3 vectors produced by pass  2 Test12= 4.01D-13 3.33D-08 XBig12= 2.37D-04 3.58D-03.
      3 vectors produced by pass  3 Test12= 4.01D-13 3.33D-08 XBig12= 1.04D-06 1.94D-04.
      3 vectors produced by pass  4 Test12= 4.01D-13 3.33D-08 XBig12= 2.95D-09 8.68D-06.
      3 vectors produced by pass  5 Test12= 4.01D-13 3.33D-08 XBig12= 1.02D-11 6.20D-07.
 Inverted reduced A of dimension    18 with in-core refinement.
 Calculating GIAO nuclear magnetic shielding tensors.
 SCF GIAO Magnetic shielding tensor (ppm):
      1  C    Isotropic =   172.2073   Anisotropy =    21.2711
   XX=   181.0308   YX=    -4.1537   ZX=     2.2898
   XY=     4.5883   YY=   184.6182   ZY=   -11.0387
   XZ=     2.6613   YZ=    -4.6998   ZZ=   150.9731
   Eigenvalues:   149.0338   181.2001   186.3881
      2  C    Isotropic =   127.8035   Anisotropy =    60.7687
   XX=   138.9692   YX=    15.0519   ZX=    -5.3352
   XY=    17.0355   YY=   159.0293   ZY=    -5.4325
   XZ=    -8.4194   YZ=     0.0028   ZZ=    85.4119
   Eigenvalues:    84.5362   130.5583   168.3159
      3  N    Isotropic =   193.3146   Anisotropy =    89.4854
   XX=   245.7067   YX=     5.1073   ZX=   -27.1606
   XY=    -8.2959   YY=   215.7354   ZY=   -23.6395
   XZ=   -33.2255   YZ=   -26.0253   ZZ=   118.5017
   Eigenvalues:   106.1809   220.7914   252.9715
      4  C    Isotropic =   138.4610   Anisotropy =    56.6576
   XX=   150.0900   YX=   -19.7019   ZX=    12.0708
   XY=   -29.4767   YY=   132.5773   ZY=   -14.7164
   XZ=     7.7781   YZ=   -23.7440   ZZ=   132.7158
   Eigenvalues:   109.3611   129.7892   176.2328
      5  C    Isotropic =   163.7374   Anisotropy =    26.0946
   XX=   179.6397   YX=    -0.4625   ZX=    -2.3721
   XY=    -0.4329   YY=   175.3328   ZY=   -13.7208
   XZ=   -11.1451   YZ=    -8.3459   ZZ=   136.2395
   Eigenvalues:   132.4035   177.6748   181.1337
      6  C    Isotropic =   125.3130   Anisotropy =    56.8333
   XX=   155.3422   YX=   -16.9130   ZX=   -14.8914
   XY=    -5.1872   YY=   109.7497   ZY=     6.0015
   XZ=   -16.3982   YZ=     6.7291   ZZ=   110.8470
   Eigenvalues:   103.6621   109.0749   163.2018
      7  C    Isotropic =   110.9389   Anisotropy =    35.5605
   XX=   119.8307   YX=     1.7909   ZX=    14.5975
   XY=     9.3483   YY=   104.4589   ZY=     1.2362
   XZ=    24.6031   YZ=   -11.3783   ZZ=   108.5270
   Eigenvalues:    89.9845   108.1863   134.6459
      8  C    Isotropic =   118.2977   Anisotropy =    32.4900
   XX=   119.2086   YX=     9.5732   ZX=    16.9630
   XY=     2.4795   YY=   106.8063   ZY=    -4.8577
   XZ=    11.6193   YZ=     9.0173   ZZ=   128.8783
   Eigenvalues:   103.5397   111.3957   139.9578
      9  H    Isotropic =    29.9387   Anisotropy =    11.7221
   XX=    32.9916   YX=     2.5669   ZX=    -4.6471
   XY=     3.6665   YY=    28.6965   ZY=    -3.3196
   XZ=    -4.6481   YZ=    -2.5484   ZZ=    28.1280
   Eigenvalues:    24.9401    27.1226    37.7534
     10  H    Isotropic =    29.3477   Anisotropy =     7.4293
   XX=    30.5072   YX=    -0.0466   ZX=     2.4557
   XY=    -0.3195   YY=    28.7308   ZY=     4.9214
   XZ=     2.7658   YZ=     4.4011   ZZ=    28.8051
   Eigenvalues:    23.5264    30.2161    34.3006
     11  H    Isotropic =    27.7520   Anisotropy =     7.7701
   XX=    26.6604   YX=     0.9871   ZX=    -0.8530
   XY=     0.1590   YY=    25.5103   ZY=    -3.9528
   XZ=    -1.4666   YZ=    -2.7718   ZZ=    31.0853
   Eigenvalues:    23.9300    26.3940    32.9321
     12  H    Isotropic =    28.4481   Anisotropy =     9.5481
   XX=    27.2635   YX=    -0.8159   ZX=     0.5252
   XY=     0.2603   YY=    34.7205   ZY=    -0.8038
   XZ=     0.2880   YZ=    -1.1126   ZZ=    23.3604
   Eigenvalues:    23.2437    27.2870    34.8135
     13  H    Isotropic =    29.1541   Anisotropy =     7.9751
   XX=    27.7867   YX=    -1.3049   ZX=     1.7972
   XY=    -1.2882   YY=    27.3066   ZY=    -3.6985
   XZ=     0.0906   YZ=    -3.3130   ZZ=    32.3691
   Eigenvalues:    25.2828    27.7087    34.4709
     14  H    Isotropic =    29.4370   Anisotropy =    10.7206
   XX=    28.2761   YX=    -2.1344   ZX=    -3.8780
   XY=    -2.4363   YY=    30.1927   ZY=     4.2095
   XZ=    -4.0679   YZ=     4.1694   ZZ=    29.8422
   Eigenvalues:    24.7279    26.9991    36.5841
     15  H    Isotropic =    29.5054   Anisotropy =    11.6234
   XX=    33.3595   YX=    -3.6769   ZX=     3.6029
   XY=    -4.3443   YY=    28.7284   ZY=    -2.3884
   XZ=     3.3843   YZ=    -2.0472   ZZ=    26.4284
   Eigenvalues:    24.8327    26.4292    37.2544
     16  H    Isotropic =    28.5442   Anisotropy =     4.3104
   XX=    28.5643   YX=     0.9909   ZX=    -1.2717
   XY=     1.1564   YY=    27.3161   ZY=    -0.4040
   XZ=    -1.4784   YZ=    -2.4129   ZZ=    29.7521
   Eigenvalues:    26.5435    27.6713    31.4178
     17  H    Isotropic =    27.3644   Anisotropy =     4.2367
   XX=    27.7742   YX=    -1.8759   ZX=    -0.1449
   XY=    -2.0664   YY=    26.8864   ZY=     1.4516
   XZ=    -0.3499   YZ=     2.4454   ZZ=    27.4328
   Eigenvalues:    24.5520    27.3524    30.1889
     18  H    Isotropic =    27.6542   Anisotropy =     6.6803
   XX=    24.1500   YX=     0.4380   ZX=     1.6094
   XY=     0.1429   YY=    31.0732   ZY=    -1.5005
   XZ=     1.5391   YZ=    -2.6907   ZZ=    27.7393
   Eigenvalues:    23.4108    27.4440    32.1077
     19  O    Isotropic =   289.0316   Anisotropy =    82.9851
   XX=   289.7829   YX=   -23.9572   ZX=   -44.1446
   XY=   -19.4942   YY=   282.3007   ZY=    29.7142
   XZ=   -14.5124   YZ=    31.6319   ZZ=   295.0111
   Eigenvalues:   257.0909   265.6488   344.3550
     20  H    Isotropic =    30.2677   Anisotropy =    19.7023
   XX=    27.5757   YX=    -6.5527   ZX=    -1.9545
   XY=    -6.2887   YY=    31.4018   ZY=     8.4831
   XZ=    -3.2574   YZ=     9.8716   ZZ=    31.8257
   Eigenvalues:    20.8147    26.5859    43.4026
     21  O    Isotropic =   302.0508   Anisotropy =    33.9414
   XX=   299.2001   YX=   -11.0567   ZX=   -26.1912
   XY=    -6.2786   YY=   293.2425   ZY=    12.2365
   XZ=    -0.1973   YZ=     0.4952   ZZ=   313.7097
   Eigenvalues:   286.6683   294.8056   324.6784
     22  H    Isotropic =    30.2164   Anisotropy =    14.4010
   XX=    27.1099   YX=    -4.4311   ZX=    -2.1390
   XY=    -4.0494   YY=    25.6394   ZY=     4.1274
   XZ=    -1.1748   YZ=     4.0858   ZZ=    37.8999
   Eigenvalues:    21.7722    29.0599    39.8170
     23  C    Isotropic =   132.5192   Anisotropy =    73.0173
   XX=   167.0957   YX=    -9.4681   ZX=   -28.0181
   XY=    -0.6333   YY=   109.6932   ZY=    11.8904
   XZ=   -26.3388   YZ=    16.0056   ZZ=   120.7687
   Eigenvalues:    97.7462   118.6140   181.1974
     24  H    Isotropic =    27.7953   Anisotropy =     3.2217
   XX=    28.4423   YX=     1.2945   ZX=    -1.4437
   XY=     1.2599   YY=    25.7941   ZY=     1.9366
   XZ=     0.6881   YZ=     1.6316   ZZ=    29.1494
   Eigenvalues:    24.5706    28.8721    29.9431
     25  H    Isotropic =    27.9211   Anisotropy =     5.0032
   XX=    30.0736   YX=    -1.0951   ZX=    -0.6000
   XY=     0.9489   YY=    31.1708   ZY=    -0.1301
   XZ=    -1.9783   YZ=     1.5136   ZZ=    22.5188
   Eigenvalues:    22.2545    30.2523    31.2565
     26  O    Isotropic =   311.4371   Anisotropy =    35.9766
   XX=   312.3778   YX=    -4.4597   ZX=    -2.9207
   XY=   -21.8736   YY=   326.9224   ZY=     2.0273
   XZ=     4.4188   YZ=   -13.7279   ZZ=   295.0112
   Eigenvalues:   293.7921   305.0977   335.4215
     27  H    Isotropic =    30.2268   Anisotropy =    15.4604
   XX=    32.0416   YX=    -6.0765   ZX=    -1.1205
   XY=    -5.7735   YY=    35.3885   ZY=    -5.7212
   XZ=    -1.5164   YZ=    -4.4303   ZZ=    23.2504
   Eigenvalues:    20.3578    29.7890    40.5337
 End of Minotr Frequency-dependent properties file   721 does not exist.
 End of Minotr Frequency-dependent properties file   722 does not exist.

 **********************************************************************

            Population analysis using the SCF density.

 **********************************************************************

 Orbital symmetries:
       Occupied  (A) (A) (A) (A) (A) (A) (A) (A) (A) (A) (A) (A)
                 (A) (A) (A) (A) (A) (A) (A) (A) (A) (A) (A) (A)
                 (A) (A) (A) (A) (A) (A) (A) (A) (A) (A) (A) (A)
                 (A) (A) (A) (A) (A) (A) (A) (A) (A) (A) (A)
       Virtual   (A) (A) (A) (A) (A) (A) (A) (A) (A) (A) (A) (A)
                 (A) (A) (A) (A) (A) (A) (A) (A) (A) (A) (A) (A)
                 (A) (A) (A) (A) (A) (A) (A) (A) (A) (A) (A) (A)
                 (A) (A) (A) (A) (A) (A) (A) (A) (A) (A) (A) (A)
                 (A) (A) (A) (A) (A) (A) (A) (A) (A) (A) (A) (A)
                 (A) (A) (A) (A) (A) (A) (A) (A) (A) (A) (A) (A)
                 (A) (A) (A) (A) (A) (A) (A) (A) (A) (A) (A) (A)
                 (A) (A) (A) (A) (A) (A) (A) (A) (A) (A) (A) (A)
                 (A) (A) (A) (A) (A) (A) (A) (A) (A) (A) (A) (A)
                 (A) (A) (A) (A) (A) (A) (A) (A) (A) (A) (A) (A)
                 (A) (A) (A) (A) (A) (A) (A) (A) (A) (A) (A) (A)
                 (A) (A) (A) (A) (A) (A) (A) (A) (A) (A) (A) (A)
                 (A) (A) (A) (A) (A) (A) (A) (A) (A) (A) (A) (A)
                 (A) (A) (A) (A) (A) (A) (A) (A) (A) (A) (A) (A)
                 (A) (A) (A) (A) (A) (A) (A) (A) (A) (A) (A) (A)
                 (A) (A) (A) (A) (A) (A) (A) (A) (A) (A) (A) (A)
                 (A) (A) (A) (A) (A) (A) (A) (A) (A) (A) (A) (A)
                 (A) (A) (A) (A) (A) (A) (A) (A) (A) (A) (A) (A)
                 (A) (A) (A) (A) (A) (A) (A) (A) (A) (A) (A) (A)
                 (A) (A) (A) (A) (A) (A) (A) (A) (A) (A) (A) (A)
                 (A) (A) (A) (A) (A) (A) (A) (A) (A) (A) (A) (A)
                 (A) (A) (A) (A)
 The electronic state is 1-A.
 Alpha  occ. eigenvalues --  -19.26519 -19.26031 -19.25666 -14.41295 -10.30878
 Alpha  occ. eigenvalues --  -10.30514 -10.29467 -10.28029 -10.27884 -10.26830
 Alpha  occ. eigenvalues --  -10.24571 -10.24450  -1.07545  -1.06085  -1.05514
 Alpha  occ. eigenvalues --   -0.96299  -0.82682  -0.79284  -0.74969  -0.72105
 Alpha  occ. eigenvalues --   -0.67077  -0.61903  -0.60743  -0.57467  -0.54815
 Alpha  occ. eigenvalues --   -0.53991  -0.52661  -0.51393  -0.48847  -0.47407
 Alpha  occ. eigenvalues --   -0.45238  -0.43639  -0.43051  -0.42211  -0.41577
 Alpha  occ. eigenvalues --   -0.38755  -0.38636  -0.38206  -0.37524  -0.35643
 Alpha  occ. eigenvalues --   -0.35134  -0.34076  -0.32489  -0.32370  -0.30053
 Alpha  occ. eigenvalues --   -0.28509  -0.23295
 Alpha virt. eigenvalues --    0.00534   0.01124   0.01625   0.02443   0.03758
 Alpha virt. eigenvalues --    0.04321   0.04571   0.05067   0.05454   0.06547
 Alpha virt. eigenvalues --    0.07545   0.08043   0.08754   0.09129   0.09453
 Alpha virt. eigenvalues --    0.10559   0.11448   0.11831   0.12275   0.12398
 Alpha virt. eigenvalues --    0.13376   0.13702   0.13921   0.14826   0.15526
 Alpha virt. eigenvalues --    0.15898   0.16872   0.17483   0.17784   0.18889
 Alpha virt. eigenvalues --    0.19473   0.19660   0.19904   0.20827   0.21341
 Alpha virt. eigenvalues --    0.21481   0.21747   0.22347   0.23015   0.23525
 Alpha virt. eigenvalues --    0.23621   0.24260   0.24928   0.25470   0.25566
 Alpha virt. eigenvalues --    0.26041   0.27233   0.28111   0.28367   0.28702
 Alpha virt. eigenvalues --    0.29053   0.29527   0.30706   0.31256   0.31898
 Alpha virt. eigenvalues --    0.32140   0.33475   0.33952   0.34414   0.34892
 Alpha virt. eigenvalues --    0.35133   0.36100   0.36124   0.37556   0.37807
 Alpha virt. eigenvalues --    0.38871   0.39489   0.39840   0.41150   0.41345
 Alpha virt. eigenvalues --    0.42306   0.43266   0.44101   0.44446   0.46236
 Alpha virt. eigenvalues --    0.48643   0.63749   0.66135   0.67502   0.68540
 Alpha virt. eigenvalues --    0.69109   0.70804   0.71987   0.72857   0.74384
 Alpha virt. eigenvalues --    0.75214   0.75787   0.77262   0.79314   0.80766
 Alpha virt. eigenvalues --    0.82511   0.84232   0.87213   0.88186   0.89366
 Alpha virt. eigenvalues --    0.90531   0.92382   0.94193   0.94868   0.96399
 Alpha virt. eigenvalues --    0.98890   0.99763   1.00880   1.02249   1.04368
 Alpha virt. eigenvalues --    1.05194   1.05704   1.07857   1.08021   1.10481
 Alpha virt. eigenvalues --    1.11090   1.11623   1.14249   1.14486   1.15756
 Alpha virt. eigenvalues --    1.16857   1.19553   1.20925   1.22829   1.23705
 Alpha virt. eigenvalues --    1.25786   1.27970   1.29547   1.30531   1.33207
 Alpha virt. eigenvalues --    1.34435   1.37495   1.38575   1.39298   1.41016
 Alpha virt. eigenvalues --    1.42230   1.45750   1.47739   1.48581   1.49510
 Alpha virt. eigenvalues --    1.51504   1.55787   1.57909   1.58878   1.60570
 Alpha virt. eigenvalues --    1.64228   1.65088   1.66893   1.68755   1.71154
 Alpha virt. eigenvalues --    1.73167   1.73486   1.75952   1.76093   1.77767
 Alpha virt. eigenvalues --    1.80445   1.82216   1.84296   1.84960   1.87897
 Alpha virt. eigenvalues --    1.88252   1.89553   1.93038   1.93380   1.94738
 Alpha virt. eigenvalues --    1.98459   2.00699   2.01017   2.01858   2.05297
 Alpha virt. eigenvalues --    2.06177   2.06884   2.08358   2.09248   2.11075
 Alpha virt. eigenvalues --    2.12941   2.14135   2.14917   2.17494   2.18665
 Alpha virt. eigenvalues --    2.21498   2.23194   2.24636   2.26445   2.27712
 Alpha virt. eigenvalues --    2.30206   2.33175   2.35132   2.39109   2.40347
 Alpha virt. eigenvalues --    2.41190   2.43073   2.44509   2.46521   2.47587
 Alpha virt. eigenvalues --    2.49536   2.50306   2.51361   2.52616   2.53566
 Alpha virt. eigenvalues --    2.56448   2.57213   2.57727   2.61919   2.62995
 Alpha virt. eigenvalues --    2.64936   2.65219   2.66903   2.67251   2.68203
 Alpha virt. eigenvalues --    2.70773   2.71932   2.74985   2.76458   2.78472
 Alpha virt. eigenvalues --    2.78816   2.80037   2.81362   2.85144   2.85855
 Alpha virt. eigenvalues --    2.87212   2.89352   2.92064   2.93308   2.94662
 Alpha virt. eigenvalues --    2.98117   2.99995   3.01091   3.02675   3.03358
 Alpha virt. eigenvalues --    3.05281   3.07009   3.13295   3.14179   3.32415
 Alpha virt. eigenvalues --    3.35464   3.36544   3.37555   3.42919   3.44848
 Alpha virt. eigenvalues --    3.46576   3.50101   3.52293   3.54384   3.56559
 Alpha virt. eigenvalues --    3.57454   3.58268   3.59284   3.61083   4.30813
 Alpha virt. eigenvalues --    4.32259   4.37863   4.42215   4.50359   4.56820
 Alpha virt. eigenvalues --    4.59150   4.71287   4.76909   4.79437   4.88927
 Alpha virt. eigenvalues --    4.95642
          Condensed to atoms (all electrons):
              1          2          3          4          5          6
     1  C    6.366785  -1.162201   0.151567  -0.211766   0.199086   0.225133
     2  C   -1.162201   8.756131  -0.298985  -0.306102   0.221932  -0.731199
     3  N    0.151567  -0.298985   7.510616   0.228186  -0.162918  -0.120088
     4  C   -0.211766  -0.306102   0.228186   5.621780   0.049871  -0.050330
     5  C    0.199086   0.221932  -0.162918   0.049871   5.688080  -0.095495
     6  C    0.225133  -0.731199  -0.120088  -0.050330  -0.095495   9.491397
     7  C   -0.374593   0.923670  -0.149690  -0.030539  -0.008166  -2.223072
     8  C    0.288206  -1.028034  -0.021241   0.138802  -0.055892   0.826311
     9  H    0.382089  -0.068078   0.011859   0.023770  -0.025077   0.005026
    10  H    0.519996  -0.224624   0.028281   0.025206  -0.079349   0.007821
    11  H    0.083699   0.147510  -0.012232   0.025438  -0.037834   0.016373
    12  H    0.036197   0.008147  -0.051794   0.383681  -0.037238  -0.004811
    13  H   -0.009578   0.000752  -0.092729   0.432083  -0.020275  -0.009246
    14  H   -0.017884  -0.056317   0.017188  -0.032175   0.398474   0.006056
    15  H   -0.080283   0.059555   0.005494  -0.017016   0.378137  -0.004452
    16  H   -0.012909   0.030584  -0.055441   0.023021   0.004944   0.268021
    17  H    0.010723  -0.005633   0.020968  -0.000879   0.003244  -0.009152
    18  H   -0.009659  -0.035456   0.013133  -0.000031  -0.001974   0.015775
    19  O    0.069195  -0.234041   0.036582   0.021663  -0.045102  -0.091237
    20  H   -0.007573   0.037929  -0.002618  -0.001480   0.004642  -0.009399
    21  O    0.014196   0.000122   0.045079   0.008569   0.000143  -0.213650
    22  H    0.009964   0.014889   0.023039   0.002951   0.002292  -0.055337
    23  C    0.058596  -0.145006   0.029471  -0.111528  -0.026991  -0.898887
    24  H    0.001111  -0.007734   0.019892   0.011436  -0.002186  -0.046223
    25  H   -0.000981   0.006455  -0.010716  -0.001669   0.006270  -0.079781
    26  O    0.001519   0.012188   0.001014   0.002766   0.000272   0.002305
    27  H   -0.000320   0.001452  -0.002301  -0.000678   0.000443  -0.049262
              7          8          9         10         11         12
     1  C   -0.374593   0.288206   0.382089   0.519996   0.083699   0.036197
     2  C    0.923670  -1.028034  -0.068078  -0.224624   0.147510   0.008147
     3  N   -0.149690  -0.021241   0.011859   0.028281  -0.012232  -0.051794
     4  C   -0.030539   0.138802   0.023770   0.025206   0.025438   0.383681
     5  C   -0.008166  -0.055892  -0.025077  -0.079349  -0.037834  -0.037238
     6  C   -2.223072   0.826311   0.005026   0.007821   0.016373  -0.004811
     7  C    8.298769  -1.320258  -0.009455  -0.013654  -0.043671  -0.003316
     8  C   -1.320258   6.759415   0.021224   0.060165   0.069981  -0.008714
     9  H   -0.009455   0.021224   0.519887  -0.024867  -0.005453  -0.000112
    10  H   -0.013654   0.060165  -0.024867   0.506163   0.003864  -0.000051
    11  H   -0.043671   0.069981  -0.005453   0.003864   0.561824   0.000116
    12  H   -0.003316  -0.008714  -0.000112  -0.000051   0.000116   0.544852
    13  H    0.013307   0.006316  -0.000138   0.001063  -0.000535  -0.043285
    14  H   -0.003493   0.016693  -0.005502   0.003988   0.000652  -0.005795
    15  H    0.003068  -0.004350   0.000757  -0.005665  -0.000114   0.000520
    16  H    0.074190  -0.028309  -0.000005  -0.000039  -0.000570  -0.001267
    17  H    0.310564   0.029696   0.000002  -0.000014  -0.000079   0.000004
    18  H    0.036196   0.285610   0.000231   0.000096  -0.002181   0.000005
    19  O    0.128652   0.130288  -0.000302   0.000841   0.007056   0.000097
    20  H   -0.063522   0.064763  -0.000010   0.000020  -0.000269  -0.000001
    21  O    0.375803  -0.128434  -0.000009   0.000068   0.001190   0.000053
    22  H    0.031006  -0.030594   0.000005  -0.000001  -0.000389   0.000002
    23  C    0.333411  -0.170098   0.000589  -0.000083   0.015703   0.016966
    24  H   -0.026832   0.001218   0.000000   0.000000  -0.000064   0.000063
    25  H    0.006112  -0.003875   0.000000   0.000000   0.000011  -0.000167
    26  O   -0.020271   0.001253  -0.000001  -0.000004  -0.000031  -0.000005
    27  H    0.018797   0.008677   0.000000   0.000000   0.000001  -0.000001
             13         14         15         16         17         18
     1  C   -0.009578  -0.017884  -0.080283  -0.012909   0.010723  -0.009659
     2  C    0.000752  -0.056317   0.059555   0.030584  -0.005633  -0.035456
     3  N   -0.092729   0.017188   0.005494  -0.055441   0.020968   0.013133
     4  C    0.432083  -0.032175  -0.017016   0.023021  -0.000879  -0.000031
     5  C   -0.020275   0.398474   0.378137   0.004944   0.003244  -0.001974
     6  C   -0.009246   0.006056  -0.004452   0.268021  -0.009152   0.015775
     7  C    0.013307  -0.003493   0.003068   0.074190   0.310564   0.036196
     8  C    0.006316   0.016693  -0.004350  -0.028309   0.029696   0.285610
     9  H   -0.000138  -0.005502   0.000757  -0.000005   0.000002   0.000231
    10  H    0.001063   0.003988  -0.005665  -0.000039  -0.000014   0.000096
    11  H   -0.000535   0.000652  -0.000114  -0.000570  -0.000079  -0.002181
    12  H   -0.043285  -0.005795   0.000520  -0.001267   0.000004   0.000005
    13  H    0.585038   0.004082  -0.004275   0.013354  -0.000043  -0.000028
    14  H    0.004082   0.523047  -0.025089  -0.000008   0.000000   0.000000
    15  H   -0.004275  -0.025089   0.517396  -0.000007   0.000000   0.000002
    16  H    0.013354  -0.000008  -0.000007   0.567790  -0.003360  -0.000203
    17  H   -0.000043   0.000000   0.000000  -0.003360   0.531248  -0.002853
    18  H   -0.000028   0.000000   0.000002  -0.000203  -0.002853   0.557274
    19  O    0.000772   0.000100   0.000285   0.002967  -0.014027  -0.035390
    20  H    0.000100   0.000000  -0.000001   0.000617   0.004587  -0.006399
    21  O   -0.000033   0.000019   0.000004   0.008032  -0.049782  -0.001086
    22  H   -0.000002  -0.000002   0.000000   0.000018   0.006029  -0.000879
    23  C   -0.025117  -0.000959   0.000217  -0.064238  -0.012309   0.013759
    24  H    0.000009  -0.000001   0.000000   0.004528   0.000177  -0.000008
    25  H    0.000045   0.000004   0.000000  -0.006032  -0.000083   0.000003
    26  O    0.000109  -0.000002  -0.000002   0.006404   0.000239  -0.000040
    27  H    0.000000   0.000000   0.000000  -0.000613  -0.000646   0.000003
             19         20         21         22         23         24
     1  C    0.069195  -0.007573   0.014196   0.009964   0.058596   0.001111
     2  C   -0.234041   0.037929   0.000122   0.014889  -0.145006  -0.007734
     3  N    0.036582  -0.002618   0.045079   0.023039   0.029471   0.019892
     4  C    0.021663  -0.001480   0.008569   0.002951  -0.111528   0.011436
     5  C   -0.045102   0.004642   0.000143   0.002292  -0.026991  -0.002186
     6  C   -0.091237  -0.009399  -0.213650  -0.055337  -0.898887  -0.046223
     7  C    0.128652  -0.063522   0.375803   0.031006   0.333411  -0.026832
     8  C    0.130288   0.064763  -0.128434  -0.030594  -0.170098   0.001218
     9  H   -0.000302  -0.000010  -0.000009   0.000005   0.000589   0.000000
    10  H    0.000841   0.000020   0.000068  -0.000001  -0.000083   0.000000
    11  H    0.007056  -0.000269   0.001190  -0.000389   0.015703  -0.000064
    12  H    0.000097  -0.000001   0.000053   0.000002   0.016966   0.000063
    13  H    0.000772   0.000100  -0.000033  -0.000002  -0.025117   0.000009
    14  H    0.000100   0.000000   0.000019  -0.000002  -0.000959  -0.000001
    15  H    0.000285  -0.000001   0.000004   0.000000   0.000217   0.000000
    16  H    0.002967   0.000617   0.008032   0.000018  -0.064238   0.004528
    17  H   -0.014027   0.004587  -0.049782   0.006029  -0.012309   0.000177
    18  H   -0.035390  -0.006399  -0.001086  -0.000879   0.013759  -0.000008
    19  O    8.310365   0.225694   0.006401  -0.000409   0.046634   0.000075
    20  H    0.225694   0.371912   0.000193   0.000016  -0.007223   0.000001
    21  O    0.006401   0.000193   8.184667   0.264688   0.009690   0.006599
    22  H   -0.000409   0.000016   0.264688   0.353807  -0.005562   0.000453
    23  C    0.046634  -0.007223   0.009690  -0.005562   5.966537   0.397726
    24  H    0.000075   0.000001   0.006599   0.000453   0.397726   0.563504
    25  H    0.000015   0.000000  -0.001069   0.000016   0.467976  -0.034849
    26  O    0.000553  -0.000014  -0.011476   0.000112   0.126514  -0.040908
    27  H   -0.000052   0.000001   0.003138  -0.000085   0.014576  -0.008135
             25         26         27
     1  C   -0.000981   0.001519  -0.000320
     2  C    0.006455   0.012188   0.001452
     3  N   -0.010716   0.001014  -0.002301
     4  C   -0.001669   0.002766  -0.000678
     5  C    0.006270   0.000272   0.000443
     6  C   -0.079781   0.002305  -0.049262
     7  C    0.006112  -0.020271   0.018797
     8  C   -0.003875   0.001253   0.008677
     9  H    0.000000  -0.000001   0.000000
    10  H    0.000000  -0.000004   0.000000
    11  H    0.000011  -0.000031   0.000001
    12  H   -0.000167  -0.000005  -0.000001
    13  H    0.000045   0.000109   0.000000
    14  H    0.000004  -0.000002   0.000000
    15  H    0.000000  -0.000002   0.000000
    16  H   -0.006032   0.006404  -0.000613
    17  H   -0.000083   0.000239  -0.000646
    18  H    0.000003  -0.000040   0.000003
    19  O    0.000015   0.000553  -0.000052
    20  H    0.000000  -0.000014   0.000001
    21  O   -0.001069  -0.011476   0.003138
    22  H    0.000016   0.000112  -0.000085
    23  C    0.467976   0.126514   0.014576
    24  H   -0.034849  -0.040908  -0.008135
    25  H    0.535524  -0.057230   0.006250
    26  O   -0.057230   8.250217   0.261027
    27  H    0.006250   0.261027   0.366584
 Mulliken atomic charges:
              1
     1  C   -0.530314
     2  C    0.082094
     3  N   -0.161617
     4  C   -0.235030
     5  C   -0.359336
     6  C   -0.172597
     7  C   -0.263009
     8  C    0.091184
     9  H    0.173569
    10  H    0.190778
    11  H    0.170005
    12  H    0.165854
    13  H    0.148253
    14  H    0.176925
    15  H    0.175819
    16  H    0.168533
    17  H    0.181378
    18  H    0.174098
    19  O   -0.567675
    20  H    0.388035
    21  O   -0.523112
    22  H    0.383972
    23  C   -0.030363
    24  H    0.160151
    25  H    0.167769
    26  O   -0.536508
    27  H    0.381144
 Sum of Mulliken atomic charges =   0.00000
 Mulliken charges with hydrogens summed into heavy atoms:
              1
     1  C   -0.165967
     2  C    0.252099
     3  N   -0.161617
     4  C    0.079076
     5  C   -0.006592
     6  C   -0.004064
     7  C   -0.081632
     8  C    0.265282
    19  O   -0.179640
    21  O   -0.139140
    23  C    0.297557
    26  O   -0.155363
 Sum of Mulliken charges with hydrogens summed into heavy atoms =   0.00000
 Electronic spatial extent (au):  <R**2>=           2066.3077
 Charge=              0.0000 electrons
 Dipole moment (field-independent basis, Debye):
    X=              2.1448    Y=              1.7535    Z=             -0.8300  Tot=              2.8920
 Quadrupole moment (field-independent basis, Debye-Ang):
   XX=            -80.9805   YY=            -70.9739   ZZ=            -72.1845
   XY=             -6.0187   XZ=             -0.4910   YZ=              3.6083
 Traceless Quadrupole moment (field-independent basis, Debye-Ang):
   XX=             -6.2676   YY=              3.7391   ZZ=              2.5285
   XY=             -6.0187   XZ=             -0.4910   YZ=              3.6083
 Octapole moment (field-independent basis, Debye-Ang**2):
  XXX=             20.4511  YYY=             15.2006  ZZZ=             -5.3587  XYY=              5.4640
  XXY=             14.9020  XXZ=            -11.8370  XZZ=             -3.1360  YZZ=             11.1492
  YYZ=             14.4652  XYZ=            -17.6999
 Hexadecapole moment (field-independent basis, Debye-Ang**3):
 XXXX=          -1628.8655 YYYY=           -730.3713 ZZZZ=           -283.8485 XXXY=            -87.8372
 XXXZ=             31.9710 YYYX=              4.6995 YYYZ=             40.5642 ZZZX=             12.1481
 ZZZY=             14.7719 XXYY=           -437.2839 XXZZ=           -329.3813 YYZZ=           -171.3141
 XXYZ=             27.5248 YYXZ=            -11.7535 ZZXY=             -4.9711
 N-N= 8.064024115142D+02 E-N=-2.998578460600D+03  KE= 5.886518637545D+02
 1\1\GINC-COMPUTE-3-2\SP\RmPW1PW91\6-31+G(d,p)\C8H15N1O3\MAMICHETTI.IQU
 IR\17-May-2024\0\\# mpw1pw91/6-31+G** nmr scrf=(pcm,solvent=water)\\co
 mment\\0,1\C,0,-2.610524,0.212407,0.273398\C,0,-1.149832,0.484173,0.67
 8302\N,0,-0.389097,-0.781165,0.387584\C,0,-1.288389,-1.687392,-0.34866
 5\C,0,-2.68171,-1.322436,0.166789\C,0,0.865896,-0.431165,-0.306522\C,0
 ,1.064369,1.074588,-0.027687\C,0,-0.384659,1.604786,-0.042561\H,0,-3.3
 2016,0.623816,0.997274\H,0,-2.823723,0.663879,-0.699373\H,0,-1.092075,
 0.694854,1.754444\H,0,-1.030363,-2.737316,-0.168716\H,0,-1.228374,-1.5
 15774,-1.437899\H,0,-2.850448,-1.770543,1.153357\H,0,-3.477531,-1.6687
 25,-0.500088\H,0,0.750599,-0.547026,-1.396576\H,0,1.671101,1.554746,-0
 .800166\H,0,-0.463519,2.567883,0.477346\O,0,-0.851223,1.717314,-1.3905
 2\H,0,-0.29112,2.378528,-1.831235\O,0,1.73576,1.357384,1.204649\H,0,1.
 286997,0.874455,1.919171\C,0,2.032295,-1.317373,0.131663\H,0,2.192055,
 -1.229384,1.213896\H,0,1.796778,-2.363998,-0.086301\O,0,3.236163,-1.02
 4545,-0.587789\H,0,3.553174,-0.163988,-0.267254\\Version=AM64L-G09RevC
 .01\State=1-A\HF=-594.195951\RMSD=5.164e-09\Dipole=-0.8438274,0.689880
 4,0.3265483\Quadrupole=-4.6597798,2.7799126,1.8798671,4.4747308,-0.365
 0115,-2.6826716\PG=C01 [X(C8H15N1O3)]\\@


 THE SCIENTIFIC THEORIST IS NOT TO BE ENVIED. FOR NATURE, OR MORE
 PRECISELY EXPERIMENT, IS AN INEXORABLE AND NOT VERY FRIENDLY JUDGE OF HIS
 WORK.  IT NEVER SAYS "YES" TO A THEORY. IN THE MOST FAVORABLE CASES
 IT SAYS "MAYBE", AND IN THE GREAT MAJORITY OF CASES SIMPLY "NO"...
 PROBABLY EVERY THEORY WILL SOME DAY EXPERIENCE ITS "NO" - MOST
 THEORIES, SOON AFTER CONCEPTION.  -- A.EINSTEIN, NOV 11, 1922.
 Job cpu time:  0 days  0 hours  8 minutes 20.0 seconds.
 File lengths (MBytes):  RWF=    113 Int=      0 D2E=      0 Chk=      7 Scr=      1
 Normal termination of Gaussian 09 at Fri May 17 12:18:00 2024.
