 Entering Gaussian System, Link 0=g09
 Input=/home/mamichetti.iquir/Linux/03_Cardona_A1A3_R__S_S_R_004_OptB.gjc
 Output=/home/mamichetti.iquir/Linux/03_Cardona_A1A3_R__S_S_R_004_OptB.log
 Initial command:
 /opt/ohpc/pub/apps/software/Gaussian/09/AMD64.SSE4a-enabled/g09/l1.exe /local/mamichetti.iquir/Gau-130994.inp -scrdir=/local/mamichetti.iquir/
 Entering Link 1 = /opt/ohpc/pub/apps/software/Gaussian/09/AMD64.SSE4a-enabled/g09/l1.exe PID=    130995.
  
 Copyright (c) 1988,1990,1992,1993,1995,1998,2003,2009,2011,
            Gaussian, Inc.  All Rights Reserved.
  
 This is part of the Gaussian(R) 09 program.  It is based on
 the Gaussian(R) 03 system (copyright 2003, Gaussian, Inc.),
 the Gaussian(R) 98 system (copyright 1998, Gaussian, Inc.),
 the Gaussian(R) 94 system (copyright 1995, Gaussian, Inc.),
 the Gaussian 92(TM) system (copyright 1992, Gaussian, Inc.),
 the Gaussian 90(TM) system (copyright 1990, Gaussian, Inc.),
 the Gaussian 88(TM) system (copyright 1988, Gaussian, Inc.),
 the Gaussian 86(TM) system (copyright 1986, Carnegie Mellon
 University), and the Gaussian 82(TM) system (copyright 1983,
 Carnegie Mellon University). Gaussian is a federally registered
 trademark of Gaussian, Inc.
  
 This software contains proprietary and confidential information,
 including trade secrets, belonging to Gaussian, Inc.
  
 This software is provided under written license and may be
 used, copied, transmitted, or stored only in accord with that
 written license.
  
 The following legend is applicable only to US Government
 contracts under FAR:
  
                    RESTRICTED RIGHTS LEGEND
  
 Use, reproduction and disclosure by the US Government is
 subject to restrictions as set forth in subparagraphs (a)
 and (c) of the Commercial Computer Software - Restricted
 Rights clause in FAR 52.227-19.
  
 Gaussian, Inc.
 340 Quinnipiac St., Bldg. 40, Wallingford CT 06492
  
  
 ---------------------------------------------------------------
 Warning -- This program may not be used in any manner that
 competes with the business of Gaussian, Inc. or will provide
 assistance to any competitor of Gaussian, Inc.  The licensee
 of this program is prohibited from giving any competitor of
 Gaussian, Inc. access to this program.  By using this program,
 the user acknowledges that Gaussian, Inc. is engaged in the
 business of creating and licensing software in the field of
 computational chemistry and represents and warrants to the
 licensee that it is not a competitor of Gaussian, Inc. and that
 it will not use this program in any manner prohibited above.
 ---------------------------------------------------------------
  

 Cite this work as:
 Gaussian 09, Revision C.01,
 M. J. Frisch, G. W. Trucks, H. B. Schlegel, G. E. Scuseria, 
 M. A. Robb, J. R. Cheeseman, G. Scalmani, V. Barone, B. Mennucci, 
 G. A. Petersson, H. Nakatsuji, M. Caricato, X. Li, H. P. Hratchian, 
 A. F. Izmaylov, J. Bloino, G. Zheng, J. L. Sonnenberg, M. Hada, 
 M. Ehara, K. Toyota, R. Fukuda, J. Hasegawa, M. Ishida, T. Nakajima, 
 Y. Honda, O. Kitao, H. Nakai, T. Vreven, J. A. Montgomery, Jr., 
 J. E. Peralta, F. Ogliaro, M. Bearpark, J. J. Heyd, E. Brothers, 
 K. N. Kudin, V. N. Staroverov, T. Keith, R. Kobayashi, J. Normand, 
 K. Raghavachari, A. Rendell, J. C. Burant, S. S. Iyengar, J. Tomasi, 
 M. Cossi, N. Rega, J. M. Millam, M. Klene, J. E. Knox, J. B. Cross, 
 V. Bakken, C. Adamo, J. Jaramillo, R. Gomperts, R. E. Stratmann, 
 O. Yazyev, A. J. Austin, R. Cammi, C. Pomelli, J. W. Ochterski, 
 R. L. Martin, K. Morokuma, V. G. Zakrzewski, G. A. Voth, 
 P. Salvador, J. J. Dannenberg, S. Dapprich, A. D. Daniels, 
 O. Farkas, J. B. Foresman, J. V. Ortiz, J. Cioslowski, 
 and D. J. Fox, Gaussian, Inc., Wallingford CT, 2010.
 
 ******************************************
 Gaussian 09:  AM64L-G09RevC.01 23-Sep-2011
                17-May-2024 
 ******************************************
 %nprocshared=4
 Will use up to    4 processors via shared memory.
 ------------------------------------------------
 # mpw1pw91/6-31+G** nmr scrf=(pcm,solvent=water)
 ------------------------------------------------
 1/38=1/1;
 2/12=2,17=6,18=5,40=1/2;
 3/5=1,6=6,7=111,11=2,16=1,25=1,30=1,70=2201,72=1,74=-7/1,2,8,3;
 4//1;
 5/5=2,38=5,53=1/2;
 8/6=1,10=90,11=11/1;
 10/13=100,45=16/2;
 6/7=2,8=2,9=2,10=2,28=1/1;
 99/9=1/99;
 -------
 comment
 -------
 Charge =  0 Multiplicity = 1
 Symbolic Z-Matrix:
 6                    -2.27779   0.56406  -0.19814 
 6                    -1.05108   0.46983   0.75519 
 7                    -0.44458  -0.86583   0.54284 
 6                    -1.58835  -1.74609   0.24624 
 6                    -2.57371  -0.90596  -0.60145 
 6                     0.51659  -0.7438   -0.59451 
 6                     0.85916   0.77577  -0.69206 
 6                     0.11235   1.41947   0.49275 
 1                    -3.12509   1.03262   0.31138 
 1                    -2.05393   1.17613  -1.07694 
 1                    -1.39424   0.54653   1.79253 
 1                    -2.05566  -2.04078   1.19349 
 1                    -1.24992  -2.65923  -0.25176 
 1                    -3.6125   -1.19478  -0.41428 
 1                    -2.38285  -1.05508  -1.66935 
 1                     0.06403  -1.07774  -1.53831 
 1                     0.46145   1.18938  -1.62302 
 1                     0.78723   1.40401   1.36158 
 8                    -0.34224   2.74885   0.25489 
 1                     0.44824   3.29227   0.09756 
 8                     2.25407   1.07983  -0.7054 
 1                     2.63557   0.56292   0.03447 
 6                     1.73274  -1.62429  -0.32585 
 1                     1.41803  -2.67331  -0.23961 
 1                     2.45586  -1.55028  -1.14246 
 8                     2.41655  -1.20814   0.8678 
 1                     1.70933  -1.11009   1.5335 
 
                          Input orientation:                          
 ---------------------------------------------------------------------
 Center     Atomic      Atomic             Coordinates (Angstroms)
 Number     Number       Type             X           Y           Z
 ---------------------------------------------------------------------
      1          6           0       -2.277788    0.564062   -0.198135
      2          6           0       -1.051076    0.469829    0.755191
      3          7           0       -0.444580   -0.865828    0.542843
      4          6           0       -1.588349   -1.746094    0.246237
      5          6           0       -2.573708   -0.905963   -0.601453
      6          6           0        0.516592   -0.743803   -0.594512
      7          6           0        0.859162    0.775772   -0.692061
      8          6           0        0.112348    1.419472    0.492750
      9          1           0       -3.125093    1.032619    0.311380
     10          1           0       -2.053926    1.176128   -1.076941
     11          1           0       -1.394243    0.546529    1.792525
     12          1           0       -2.055665   -2.040782    1.193486
     13          1           0       -1.249924   -2.659229   -0.251759
     14          1           0       -3.612504   -1.194780   -0.414276
     15          1           0       -2.382846   -1.055080   -1.669354
     16          1           0        0.064028   -1.077743   -1.538309
     17          1           0        0.461453    1.189376   -1.623021
     18          1           0        0.787230    1.404008    1.361583
     19          8           0       -0.342238    2.748851    0.254889
     20          1           0        0.448242    3.292268    0.097558
     21          8           0        2.254065    1.079832   -0.705402
     22          1           0        2.635565    0.562923    0.034466
     23          6           0        1.732741   -1.624293   -0.325848
     24          1           0        1.418028   -2.673306   -0.239612
     25          1           0        2.455859   -1.550278   -1.142461
     26          8           0        2.416546   -1.208140    0.867803
     27          1           0        1.709330   -1.110091    1.533504
 ---------------------------------------------------------------------
                    Distance matrix (angstroms):
                    1          2          3          4          5
     1  C    0.000000
     2  C    1.556449   0.000000
     3  N    2.440140   1.482197   0.000000
     4  C    2.451451   2.336239   1.473449   0.000000
     5  C    1.552806   2.460019   2.417480   1.547686   0.000000
     6  C    3.110657   2.398371   1.494094   2.478351   3.094559
     7  C    3.182647   2.416019   2.433019   3.637378   3.823747
     8  C    2.630931   1.524550   2.352716   3.601937   3.717503
     9  H    1.094110   2.194367   3.292845   3.176015   2.212553
    10  H    1.094093   2.204830   3.063214   3.241442   2.198037
    11  H    2.178001   1.095312   2.111473   2.772148   3.038421
    12  H    2.961614   2.739429   2.097486   1.096588   2.185861
    13  H    3.383635   3.293098   2.120438   1.093776   2.224552
    14  H    2.218492   3.271007   3.325662   2.199415   1.094325
    15  H    2.190238   3.158699   2.947288   2.185913   1.095024
    16  H    3.158432   2.983048   2.152855   2.522231   2.804436
    17  H    3.150359   2.908846   3.120213   4.038910   3.827042
    18  H    3.540136   2.149365   2.709215   4.100063   4.526078
    19  O    2.953792   2.438585   3.627574   4.664483   4.366972
    20  H    3.868046   3.262912   4.276116   5.436442   5.219765
    21  O    4.589230   3.664614   3.553364   4.863704   5.221262
    22  H    4.918856   3.757583   3.433230   4.818491   5.449637
    23  C    4.570509   3.647414   2.463863   3.372203   4.374638
    24  H    4.913383   4.118908   2.710816   3.183406   4.380455
    25  H    5.269687   4.469956   3.423634   4.280472   5.099449
    26  O    5.129688   3.853915   2.899796   4.088389   5.210821
    27  H    4.658162   3.274410   2.383359   3.596699   4.790003
                    6          7          8          9         10
     6  C    0.000000
     7  C    1.560762   0.000000
     8  C    2.454651   1.541382   0.000000
     9  H    4.151889   4.116692   3.265513   0.000000
    10  H    3.244447   2.965552   2.686241   1.759383   0.000000
    11  H    3.318764   3.362076   2.172846   2.329360   3.010882
    12  H    3.390516   4.470400   4.143027   3.371584   3.937430
    13  H    2.628101   4.054792   4.364159   4.178891   4.004661
    14  H    4.157559   4.894490   4.640208   2.392792   2.913674
    15  H    3.107880   3.849381   4.126026   2.971990   2.331830
    16  H    1.098673   2.187211   3.219257   4.247996   3.127063
    17  H    2.190446   1.093585   2.156689   4.077964   2.574007
    18  H    2.917644   2.148792   1.100262   4.067816   3.751066
    19  O    3.695633   2.496621   1.424947   3.270004   2.679012
    20  H    4.095547   2.669289   1.943288   4.233256   3.481141
    21  O    2.521260   1.427720   2.477474   5.474616   4.325055
    22  H    2.567721   1.930998   2.703761   5.786404   4.858248
    23  C    1.525274   2.580226   3.544049   5.573490   4.769208
    24  H    2.159056   3.523234   4.357980   5.888754   5.251069
    25  H    2.170577   2.857063   4.121332   6.319180   5.270270
    26  O    2.442089   2.965557   3.514874   6.003363   5.426959
    27  H    2.466829   3.038487   3.167366   5.427379   5.118917
                   11         12         13         14         15
    11  H    0.000000
    12  H    2.736879   0.000000
    13  H    3.804840   1.766473   0.000000
    14  H    3.580895   2.392565   2.784386   0.000000
    15  H    3.940443   3.045408   2.422061   1.762610   0.000000
    16  H    3.982370   3.589324   2.425444   3.846302   2.450485
    17  H    3.939900   4.970163   4.429552   4.872616   3.623502
    18  H    2.383234   4.469551   4.823149   5.409717   5.028228
    19  O    2.884660   5.172754   5.507079   5.166686   4.726170
    20  H    3.715743   5.992665   6.198879   6.073321   5.480554
    21  O    4.453561   5.649582   5.144347   6.298829   5.194997
    22  H    4.396634   5.489102   5.055810   6.506094   5.541244
    23  C    4.356375   4.102909   3.157985   5.363203   4.366585
    24  H    4.733475   3.810564   2.668017   5.246218   4.371437
    25  H    5.275796   5.104027   3.969377   6.122227   4.892433
    26  O    4.296055   4.560705   4.099034   6.163875   5.430908
    27  H    3.527555   3.893197   3.787371   5.667710   5.196848
                   16         17         18         19         20
    16  H    0.000000
    17  H    2.303248   0.000000
    18  H    3.884776   3.009993   0.000000
    19  O    4.245401   2.569908   2.075831   0.000000
    20  H    4.681952   2.717116   2.297433   0.972067   0.000000
    21  O    3.185141   2.016800   2.555215   3.232425   2.966583
    22  H    3.431939   2.804723   2.425903   3.700565   3.498241
    23  C    2.133865   3.348965   3.593330   4.875160   5.099194
    24  H    2.462875   4.212976   4.425632   5.722137   6.053284
    25  H    2.469988   3.422616   4.216914   5.316432   5.386875
    26  O    3.367598   3.971735   3.117981   4.862544   4.972039
    27  H    3.484839   4.099804   2.683378   4.553594   4.799276
                   21         22         23         24         25
    21  O    0.000000
    22  H    0.979868   0.000000
    23  C    2.779952   2.393498   0.000000
    24  H    3.873237   3.468529   1.098594   0.000000
    25  H    2.673803   2.425504   1.093268   1.775788   0.000000
    26  O    2.781401   1.969539   1.437211   2.090483   2.039550
    27  H    3.178868   2.429815   1.929285   2.381688   2.812803
                   26         27
    26  O    0.000000
    27  H    0.976179   0.000000
 Stoichiometry    C8H15NO3
 Framework group  C1[X(C8H15NO3)]
 Deg. of freedom    75
 Full point group                 C1      NOp   1
 Largest Abelian subgroup         C1      NOp   1
 Largest concise Abelian subgroup C1      NOp   1
                         Standard orientation:                         
 ---------------------------------------------------------------------
 Center     Atomic      Atomic             Coordinates (Angstroms)
 Number     Number       Type             X           Y           Z
 ---------------------------------------------------------------------
      1          6           0       -2.277788    0.564062   -0.198135
      2          6           0       -1.051076    0.469829    0.755191
      3          7           0       -0.444580   -0.865828    0.542843
      4          6           0       -1.588349   -1.746094    0.246237
      5          6           0       -2.573708   -0.905963   -0.601453
      6          6           0        0.516592   -0.743803   -0.594512
      7          6           0        0.859162    0.775772   -0.692061
      8          6           0        0.112348    1.419472    0.492750
      9          1           0       -3.125093    1.032620    0.311380
     10          1           0       -2.053926    1.176128   -1.076941
     11          1           0       -1.394243    0.546529    1.792525
     12          1           0       -2.055665   -2.040782    1.193486
     13          1           0       -1.249924   -2.659229   -0.251759
     14          1           0       -3.612504   -1.194779   -0.414276
     15          1           0       -2.382846   -1.055080   -1.669354
     16          1           0        0.064028   -1.077743   -1.538309
     17          1           0        0.461453    1.189376   -1.623021
     18          1           0        0.787230    1.404008    1.361583
     19          8           0       -0.342237    2.748851    0.254889
     20          1           0        0.448243    3.292268    0.097558
     21          8           0        2.254065    1.079832   -0.705402
     22          1           0        2.635565    0.562922    0.034466
     23          6           0        1.732741   -1.624293   -0.325848
     24          1           0        1.418028   -2.673306   -0.239612
     25          1           0        2.455859   -1.550278   -1.142461
     26          8           0        2.416546   -1.208140    0.867803
     27          1           0        1.709330   -1.110091    1.533504
 ---------------------------------------------------------------------
 Rotational constants (GHZ):      1.2311651      0.9291943      0.6225800
 Standard basis: 6-31+G(d,p) (6D, 7F)
 There are   303 symmetry adapted basis functions of A   symmetry.
 Integral buffers will be    131072 words long.
 Raffenetti 2 integral format.
 Two-electron integral symmetry is turned on.
   303 basis functions,   489 primitive gaussians,   303 cartesian basis functions
    47 alpha electrons       47 beta electrons
       nuclear repulsion energy       815.3506986646 Hartrees.
 NAtoms=   27 NActive=   27 NUniq=   27 SFac= 1.00D+00 NAtFMM=   60 NAOKFM=F Big=F
 ------------------------------------------------------------------------------
 Polarizable Continuum Model (PCM)
 =================================
 Model                : PCM.
 Atomic radii         : UFF (Universal Force Field).
 Polarization charges : Total charges.
 Charge compensation  : None.
 Solution method      : Matrix inversion.
 Cavity type          : Scaled VdW (van der Waals Surface) (Alpha=1.100).
 Cavity algorithm     : GePol (No added spheres)
                        Default sphere list used, NSphG=   27.
                        Lebedev-Laikov grids with approx.  5.0 points / Ang**2.
                        Smoothing algorithm: Karplus/York (Gamma=1.0000).
                        Polarization charges: spherical gaussians, with
                                              point-specific exponents (IZeta= 3).
                        Self-potential: point-specific (ISelfS= 7).
                        Self-field    : sphere-specific E.n sum rule (ISelfD= 2).
 Solvent              : Water, Eps=  78.355300 Eps(inf)=   1.777849
 ------------------------------------------------------------------------------
 One-electron integrals computed using PRISM.
 NBasis=   303 RedAO= T  NBF=   303
 NBsUse=   303 1.00D-06 NBFU=   303
 Harris functional with IExCor=  908 diagonalized for initial guess.
 ExpMin= 4.38D-02 ExpMax= 5.48D+03 ExpMxC= 8.25D+02 IAcc=2 IRadAn=         4 AccDes= 0.00D+00
 HarFok:  IExCor=  908 AccDes= 0.00D+00 IRadAn=         4 IDoV= 1
 ScaDFX=  1.000000  1.000000  1.000000  1.000000
 FoFCou: FMM=F IPFlag=           0 FMFlag=      100000 FMFlg1=           0
         NFxFlg=           0 DoJE=T BraDBF=F KetDBF=T FulRan=T
         Omega=  0.000000  0.000000  1.000000  0.000000  0.000000 ICntrl=     500 IOpCl=  0
         NMat0=    1 NMatS0=    1 NMatT0=    0 NMatD0=    1 NMtDS0=    0 NMtDT0=    0
         I1Cent=           4 NGrid=           0.
 Petite list used in FoFCou.
 Initial guess orbital symmetries:
       Occupied  (A) (A) (A) (A) (A) (A) (A) (A) (A) (A) (A) (A)
                 (A) (A) (A) (A) (A) (A) (A) (A) (A) (A) (A) (A)
                 (A) (A) (A) (A) (A) (A) (A) (A) (A) (A) (A) (A)
                 (A) (A) (A) (A) (A) (A) (A) (A) (A) (A) (A)
       Virtual   (A) (A) (A) (A) (A) (A) (A) (A) (A) (A) (A) (A)
                 (A) (A) (A) (A) (A) (A) (A) (A) (A) (A) (A) (A)
                 (A) (A) (A) (A) (A) (A) (A) (A) (A) (A) (A) (A)
                 (A) (A) (A) (A) (A) (A) (A) (A) (A) (A) (A) (A)
                 (A) (A) (A) (A) (A) (A) (A) (A) (A) (A) (A) (A)
                 (A) (A) (A) (A) (A) (A) (A) (A) (A) (A) (A) (A)
                 (A) (A) (A) (A) (A) (A) (A) (A) (A) (A) (A) (A)
                 (A) (A) (A) (A) (A) (A) (A) (A) (A) (A) (A) (A)
                 (A) (A) (A) (A) (A) (A) (A) (A) (A) (A) (A) (A)
                 (A) (A) (A) (A) (A) (A) (A) (A) (A) (A) (A) (A)
                 (A) (A) (A) (A) (A) (A) (A) (A) (A) (A) (A) (A)
                 (A) (A) (A) (A) (A) (A) (A) (A) (A) (A) (A) (A)
                 (A) (A) (A) (A) (A) (A) (A) (A) (A) (A) (A) (A)
                 (A) (A) (A) (A) (A) (A) (A) (A) (A) (A) (A) (A)
                 (A) (A) (A) (A) (A) (A) (A) (A) (A) (A) (A) (A)
                 (A) (A) (A) (A) (A) (A) (A) (A) (A) (A) (A) (A)
                 (A) (A) (A) (A) (A) (A) (A) (A) (A) (A) (A) (A)
                 (A) (A) (A) (A) (A) (A) (A) (A) (A) (A) (A) (A)
                 (A) (A) (A) (A) (A) (A) (A) (A) (A) (A) (A) (A)
                 (A) (A) (A) (A) (A) (A) (A) (A) (A) (A) (A) (A)
                 (A) (A) (A) (A) (A) (A) (A) (A) (A) (A) (A) (A)
                 (A) (A) (A) (A)
 The electronic state of the initial guess is 1-A.
 Requested convergence on RMS density matrix=1.00D-08 within 128 cycles.
 Requested convergence on MAX density matrix=1.00D-06.
 Requested convergence on             energy=1.00D-06.
 No special actions if energy rises.
 Error on total polarization charges =  0.01415
 SCF Done:  E(RmPW1PW91) =  -594.199313786     A.U. after   12 cycles
             Convg  =    0.8938D-08             -V/T =  2.0094
 Range of M.O.s used for correlation:     1   303
 NBasis=   303 NAE=    47 NBE=    47 NFC=     0 NFV=     0
 NROrb=    303 NOA=    47 NOB=    47 NVA=   256 NVB=   256

 **** Warning!!: The largest alpha MO coefficient is  0.61753582D+02

 NEqPCM:  Using equilibrium solvation (IEInf=0, Eps=  78.3553, EpsInf=   1.7778)
          Differentiating once with respect to magnetic field using GIAOs.
          Electric field/nuclear overlap derivatives assumed to be zero.
 FoFCou: FMM=F IPFlag=           0 FMFlag=    10101102 FMFlg1=           0
         NFxFlg=    40000000 DoJE=F BraDBF=F KetDBF=T FulRan=T
         Omega=  0.000000  0.000000  1.000000  0.000000  0.000000 ICntrl=    6100 IOpCl=  0
         NMat0=    1 NMatS0=    1 NMatT0=    0 NMatD0=    1 NMtDS0=    0 NMtDT0=    0
         I1Cent=           7 NGrid=        1792.
 Symmetry not used in FoFCou.
          There are     3 degrees of freedom in the 1st order CPHF.  IDoFFX=0.
      3 vectors produced by pass  0 Test12= 4.01D-13 3.33D-08 XBig12= 2.44D+01 8.23D-01.
 AX will form     3 AO Fock derivatives at one time.
      3 vectors produced by pass  1 Test12= 4.01D-13 3.33D-08 XBig12= 6.08D-02 4.12D-02.
      3 vectors produced by pass  2 Test12= 4.01D-13 3.33D-08 XBig12= 1.15D-04 2.14D-03.
      3 vectors produced by pass  3 Test12= 4.01D-13 3.33D-08 XBig12= 5.38D-07 1.40D-04.
      3 vectors produced by pass  4 Test12= 4.01D-13 3.33D-08 XBig12= 1.76D-09 5.52D-06.
      3 vectors produced by pass  5 Test12= 4.01D-13 3.33D-08 XBig12= 5.49D-12 4.10D-07.
 Inverted reduced A of dimension    18 with in-core refinement.
 Calculating GIAO nuclear magnetic shielding tensors.
 SCF GIAO Magnetic shielding tensor (ppm):
      1  C    Isotropic =   169.6481   Anisotropy =    28.5821
   XX=   171.8783   YX=    -1.6123   ZX=    19.5896
   XY=     0.8349   YY=   179.3977   ZY=     8.6491
   XZ=    23.2736   YZ=     4.1251   ZZ=   157.6681
   Eigenvalues:   141.4199   178.8215   188.7028
      2  C    Isotropic =   129.0580   Anisotropy =    58.8318
   XX=   121.4372   YX=   -12.6823   ZX=     5.3147
   XY=   -11.9896   YY=   164.5318   ZY=     7.5875
   XZ=    16.9341   YZ=     9.6086   ZZ=   101.2049
   Eigenvalues:    93.8827   125.0120   168.2792
      3  N    Isotropic =   188.4609   Anisotropy =    68.6423
   XX=   182.6731   YX=   -13.9849   ZX=    -5.5126
   XY=    11.1885   YY=   233.1562   ZY=    12.6379
   XZ=   -29.2026   YZ=     4.4274   ZZ=   149.5535
   Eigenvalues:   141.5399   189.6204   234.2225
      4  C    Isotropic =   142.4222   Anisotropy =    58.6513
   XX=   157.2695   YX=    30.9915   ZX=    13.8256
   XY=    18.3337   YY=   150.2109   ZY=     2.9904
   XZ=    24.5897   YZ=    -7.9933   ZZ=   119.7862
   Eigenvalues:   107.5903   138.1532   181.5231
      5  C    Isotropic =   171.8253   Anisotropy =    31.6090
   XX=   169.6974   YX=     0.2500   ZX=    18.3121
   XY=     0.3306   YY=   192.8917   ZY=    -2.0866
   XZ=    23.1186   YZ=     1.0900   ZZ=   152.8867
   Eigenvalues:   138.9303   183.6476   192.8980
      6  C    Isotropic =   130.3387   Anisotropy =    38.3159
   XX=   139.0612   YX=     6.3455   ZX=   -21.1487
   XY=     3.6195   YY=   128.2965   ZY=    -3.6590
   XZ=   -23.1135   YZ=    -1.2459   ZZ=   123.6584
   Eigenvalues:   107.8872   127.2463   155.8826
      7  C    Isotropic =   115.0016   Anisotropy =    34.8373
   XX=   132.5672   YX=    -1.8087   ZX=   -10.4404
   XY=     5.6634   YY=   114.6260   ZY=    11.3669
   XZ=   -19.4621   YZ=     7.9781   ZZ=    97.8115
   Eigenvalues:    88.6120   118.1663   138.2264
      8  C    Isotropic =   111.3074   Anisotropy =    32.7021
   XX=   107.4006   YX=    -2.0156   ZX=   -14.1196
   XY=   -16.1344   YY=   127.1438   ZY=     0.9395
   XZ=   -11.9468   YZ=     7.1683   ZZ=    99.3777
   Eigenvalues:    89.6195   111.1939   133.1088
      9  H    Isotropic =    29.8602   Anisotropy =    11.4532
   XX=    34.4460   YX=    -3.9652   ZX=    -1.8941
   XY=    -3.9967   YY=    29.3724   ZY=     2.9807
   XZ=    -1.9977   YZ=     3.0217   ZZ=    25.7621
   Eigenvalues:    24.0557    28.0292    37.4957
     10  H    Isotropic =    29.7808   Anisotropy =     7.6780
   XX=    28.1095   YX=     1.4105   ZX=     2.1036
   XY=     1.2950   YY=    31.1309   ZY=    -4.0964
   XZ=     1.8211   YZ=    -4.3803   ZZ=    30.1020
   Eigenvalues:    24.7010    29.7420    34.8995
     11  H    Isotropic =    28.1036   Anisotropy =     8.9292
   XX=    26.4484   YX=    -1.5087   ZX=    -1.7745
   XY=    -1.0725   YY=    24.8154   ZY=     2.3363
   XZ=    -1.0070   YZ=     2.4126   ZZ=    33.0469
   Eigenvalues:    23.8408    26.4136    34.0564
     12  H    Isotropic =    28.7736   Anisotropy =    11.7927
   XX=    29.0340   YX=     3.8285   ZX=    -2.8155
   XY=     3.8508   YY=    27.7489   ZY=    -5.5227
   XZ=    -1.5283   YZ=    -5.6989   ZZ=    29.5380
   Eigenvalues:    22.5112    27.1743    36.6354
     13  H    Isotropic =    28.6416   Anisotropy =     9.3281
   XX=    27.7780   YX=     0.7988   ZX=     1.3180
   XY=     0.1379   YY=    34.5756   ZY=     1.8925
   XZ=     0.6716   YZ=     1.3398   ZZ=    23.5711
   Eigenvalues:    23.1551    27.9093    34.8603
     14  H    Isotropic =    29.9185   Anisotropy =    12.1628
   XX=    36.7239   YX=     3.1175   ZX=     0.6968
   XY=     3.8546   YY=    28.3959   ZY=     0.1185
   XZ=     0.7912   YZ=    -0.1170   ZZ=    24.6358
   Eigenvalues:    24.5742    27.1543    38.0271
     15  H    Isotropic =    29.6261   Anisotropy =    10.2526
   XX=    26.4954   YX=     0.1359   ZX=     1.9256
   XY=     0.0038   YY=    27.1663   ZY=     2.6003
   XZ=     2.2707   YZ=     2.8336   ZZ=    35.2166
   Eigenvalues:    25.6581    26.7590    36.4611
     16  H    Isotropic =    28.5955   Anisotropy =     4.7106
   XX=    29.1033   YX=     0.4505   ZX=    -0.7514
   XY=     0.3970   YY=    25.4721   ZY=     2.1554
   XZ=     0.1401   YZ=     1.4255   ZZ=    31.2110
   Eigenvalues:    24.9017    29.1488    31.7359
     17  H    Isotropic =    27.4310   Anisotropy =     2.7458
   XX=    29.0120   YX=     0.6489   ZX=     1.3340
   XY=     0.9866   YY=    25.6501   ZY=    -1.5020
   XZ=    -0.0662   YZ=    -2.9288   ZZ=    27.6309
   Eigenvalues:    24.0016    29.0299    29.2616
     18  H    Isotropic =    27.3144   Anisotropy =     3.3700
   XX=    25.9268   YX=    -0.4822   ZX=     2.2273
   XY=    -1.1397   YY=    29.3540   ZY=    -0.1466
   XZ=     2.3715   YZ=     1.5610   ZZ=    26.6623
   Eigenvalues:    23.7590    28.6230    29.5611
     19  O    Isotropic =   298.0236   Anisotropy =    31.3438
   XX=   291.2540   YX=    11.4910   ZX=    -8.0947
   XY=     2.8847   YY=   314.3376   ZY=    -5.3231
   XZ=    16.2379   YZ=   -14.7926   ZZ=   288.4792
   Eigenvalues:   280.9832   294.1680   318.9195
     20  H    Isotropic =    29.3377   Anisotropy =    18.6735
   XX=    32.5398   YX=     6.9682   ZX=    -1.5461
   XY=     7.6268   YY=    35.5674   ZY=    -2.0057
   XZ=    -2.5243   YZ=    -1.0640   ZZ=    19.9060
   Eigenvalues:    19.5738    26.6526    41.7867
     21  O    Isotropic =   293.3208   Anisotropy =    40.4601
   XX=   297.0564   YX=    -6.0262   ZX=     3.4523
   XY=   -11.4686   YY=   279.0805   ZY=    -8.6684
   XZ=    31.8861   YZ=     0.5196   ZZ=   303.8254
   Eigenvalues:   275.0184   284.6497   320.2942
     22  H    Isotropic =    27.7650   Anisotropy =    18.4012
   XX=    28.0344   YX=    -1.3850   ZX=     6.4991
   XY=    -1.4298   YY=    28.8615   ZY=    -9.5320
   XZ=     5.6904   YZ=   -10.5763   ZZ=    26.3991
   Eigenvalues:    16.2541    27.0085    40.0325
     23  C    Isotropic =   132.7036   Anisotropy =    49.4395
   XX=   127.6302   YX=    -0.5044   ZX=    17.9646
   XY=     3.1785   YY=   122.4056   ZY=     7.7531
   XZ=    28.6813   YZ=    14.4387   ZZ=   148.0751
   Eigenvalues:   110.0474   122.4002   165.6633
     24  H    Isotropic =    27.9044   Anisotropy =     8.4467
   XX=    26.7426   YX=    -0.1042   ZX=     2.1886
   XY=    -0.3821   YY=    32.4504   ZY=     1.8700
   XZ=     2.3017   YZ=     4.2594   ZZ=    24.5204
   Eigenvalues:    22.3606    27.8171    33.5356
     25  H    Isotropic =    27.8499   Anisotropy =     7.0398
   XX=    27.8134   YX=    -1.9577   ZX=    -1.5278
   XY=    -1.7179   YY=    26.2842   ZY=     1.9980
   XZ=    -3.4354   YZ=     2.3722   ZZ=    29.4522
   Eigenvalues:    24.9543    26.0523    32.5431
     26  O    Isotropic =   312.3549   Anisotropy =    23.1218
   XX=   317.1430   YX=    -7.6405   ZX=    -3.3524
   XY=     3.1763   YY=   319.0852   ZY=    16.7944
   XZ=   -13.8241   YZ=     5.2291   ZZ=   300.8366
   Eigenvalues:   293.5915   315.7039   327.7695
     27  H    Isotropic =    28.7521   Anisotropy =    14.5574
   XX=    33.2130   YX=    -1.5457   ZX=    -4.4940
   XY=    -3.5630   YY=    19.5477   ZY=    -0.4294
   XZ=    -5.3773   YZ=     0.3464   ZZ=    33.4957
   Eigenvalues:    19.0202    28.7791    38.4570
 End of Minotr Frequency-dependent properties file   721 does not exist.
 End of Minotr Frequency-dependent properties file   722 does not exist.

 **********************************************************************

            Population analysis using the SCF density.

 **********************************************************************

 Orbital symmetries:
       Occupied  (A) (A) (A) (A) (A) (A) (A) (A) (A) (A) (A) (A)
                 (A) (A) (A) (A) (A) (A) (A) (A) (A) (A) (A) (A)
                 (A) (A) (A) (A) (A) (A) (A) (A) (A) (A) (A) (A)
                 (A) (A) (A) (A) (A) (A) (A) (A) (A) (A) (A)
       Virtual   (A) (A) (A) (A) (A) (A) (A) (A) (A) (A) (A) (A)
                 (A) (A) (A) (A) (A) (A) (A) (A) (A) (A) (A) (A)
                 (A) (A) (A) (A) (A) (A) (A) (A) (A) (A) (A) (A)
                 (A) (A) (A) (A) (A) (A) (A) (A) (A) (A) (A) (A)
                 (A) (A) (A) (A) (A) (A) (A) (A) (A) (A) (A) (A)
                 (A) (A) (A) (A) (A) (A) (A) (A) (A) (A) (A) (A)
                 (A) (A) (A) (A) (A) (A) (A) (A) (A) (A) (A) (A)
                 (A) (A) (A) (A) (A) (A) (A) (A) (A) (A) (A) (A)
                 (A) (A) (A) (A) (A) (A) (A) (A) (A) (A) (A) (A)
                 (A) (A) (A) (A) (A) (A) (A) (A) (A) (A) (A) (A)
                 (A) (A) (A) (A) (A) (A) (A) (A) (A) (A) (A) (A)
                 (A) (A) (A) (A) (A) (A) (A) (A) (A) (A) (A) (A)
                 (A) (A) (A) (A) (A) (A) (A) (A) (A) (A) (A) (A)
                 (A) (A) (A) (A) (A) (A) (A) (A) (A) (A) (A) (A)
                 (A) (A) (A) (A) (A) (A) (A) (A) (A) (A) (A) (A)
                 (A) (A) (A) (A) (A) (A) (A) (A) (A) (A) (A) (A)
                 (A) (A) (A) (A) (A) (A) (A) (A) (A) (A) (A) (A)
                 (A) (A) (A) (A) (A) (A) (A) (A) (A) (A) (A) (A)
                 (A) (A) (A) (A) (A) (A) (A) (A) (A) (A) (A) (A)
                 (A) (A) (A) (A) (A) (A) (A) (A) (A) (A) (A) (A)
                 (A) (A) (A) (A) (A) (A) (A) (A) (A) (A) (A) (A)
                 (A) (A) (A) (A)
 The electronic state is 1-A.
 Alpha  occ. eigenvalues --  -19.26433 -19.25991 -19.25148 -14.42160 -10.30460
 Alpha  occ. eigenvalues --  -10.30419 -10.29871 -10.28584 -10.27878 -10.27132
 Alpha  occ. eigenvalues --  -10.24491 -10.24452  -1.07533  -1.06399  -1.04796
 Alpha  occ. eigenvalues --   -0.97371  -0.81750  -0.79450  -0.75804  -0.71418
 Alpha  occ. eigenvalues --   -0.67513  -0.62577  -0.59933  -0.57953  -0.54979
 Alpha  occ. eigenvalues --   -0.54613  -0.50928  -0.50596  -0.49384  -0.46951
 Alpha  occ. eigenvalues --   -0.46261  -0.44688  -0.43650  -0.42998  -0.40964
 Alpha  occ. eigenvalues --   -0.39984  -0.38163  -0.37711  -0.36557  -0.35873
 Alpha  occ. eigenvalues --   -0.35359  -0.34415  -0.33103  -0.31689  -0.30446
 Alpha  occ. eigenvalues --   -0.27705  -0.24806
 Alpha virt. eigenvalues --    0.00613   0.01247   0.01896   0.02212   0.03620
 Alpha virt. eigenvalues --    0.04339   0.04647   0.04725   0.04920   0.07280
 Alpha virt. eigenvalues --    0.07840   0.08258   0.08439   0.08983   0.09246
 Alpha virt. eigenvalues --    0.09964   0.10951   0.11572   0.12496   0.12946
 Alpha virt. eigenvalues --    0.13499   0.14001   0.14190   0.14933   0.15677
 Alpha virt. eigenvalues --    0.16083   0.16704   0.16892   0.17399   0.18155
 Alpha virt. eigenvalues --    0.18590   0.19056   0.19461   0.20047   0.20662
 Alpha virt. eigenvalues --    0.21005   0.21353   0.21738   0.21968   0.23236
 Alpha virt. eigenvalues --    0.23544   0.24192   0.24888   0.25118   0.25367
 Alpha virt. eigenvalues --    0.26437   0.26954   0.27520   0.28504   0.29096
 Alpha virt. eigenvalues --    0.29412   0.29965   0.30593   0.31391   0.32114
 Alpha virt. eigenvalues --    0.32528   0.33048   0.33852   0.34517   0.34759
 Alpha virt. eigenvalues --    0.35769   0.36444   0.37485   0.38454   0.38706
 Alpha virt. eigenvalues --    0.39658   0.40285   0.41425   0.41732   0.42256
 Alpha virt. eigenvalues --    0.43642   0.44344   0.44996   0.46277   0.47668
 Alpha virt. eigenvalues --    0.49222   0.64978   0.66400   0.67695   0.68544
 Alpha virt. eigenvalues --    0.69841   0.71554   0.72887   0.73610   0.75089
 Alpha virt. eigenvalues --    0.75463   0.77070   0.78261   0.79612   0.80666
 Alpha virt. eigenvalues --    0.82442   0.82704   0.83737   0.87192   0.88270
 Alpha virt. eigenvalues --    0.89346   0.90037   0.93694   0.94826   0.97228
 Alpha virt. eigenvalues --    0.99200   1.00527   1.01479   1.03400   1.04409
 Alpha virt. eigenvalues --    1.06939   1.07424   1.08517   1.09906   1.10570
 Alpha virt. eigenvalues --    1.12224   1.13119   1.13595   1.14932   1.16958
 Alpha virt. eigenvalues --    1.17917   1.20219   1.21570   1.22274   1.26585
 Alpha virt. eigenvalues --    1.26630   1.27911   1.29757   1.30970   1.32236
 Alpha virt. eigenvalues --    1.33072   1.36881   1.38517   1.40009   1.40403
 Alpha virt. eigenvalues --    1.42904   1.43467   1.45545   1.49996   1.50603
 Alpha virt. eigenvalues --    1.53556   1.55509   1.59236   1.60706   1.62159
 Alpha virt. eigenvalues --    1.64231   1.65900   1.67216   1.68847   1.69032
 Alpha virt. eigenvalues --    1.72876   1.73967   1.74637   1.79167   1.79879
 Alpha virt. eigenvalues --    1.80213   1.82336   1.84307   1.86064   1.86957
 Alpha virt. eigenvalues --    1.88486   1.89639   1.91649   1.91876   1.92787
 Alpha virt. eigenvalues --    1.94855   1.98150   2.00438   2.00987   2.02568
 Alpha virt. eigenvalues --    2.03765   2.07080   2.09968   2.10590   2.12157
 Alpha virt. eigenvalues --    2.13691   2.15803   2.17298   2.19176   2.20710
 Alpha virt. eigenvalues --    2.23706   2.25224   2.26774   2.29312   2.30402
 Alpha virt. eigenvalues --    2.32080   2.34950   2.36622   2.39607   2.42371
 Alpha virt. eigenvalues --    2.43303   2.44535   2.46272   2.47808   2.48101
 Alpha virt. eigenvalues --    2.49234   2.50760   2.51716   2.53170   2.54963
 Alpha virt. eigenvalues --    2.56564   2.57403   2.58923   2.61321   2.61351
 Alpha virt. eigenvalues --    2.63476   2.64485   2.65971   2.68426   2.68801
 Alpha virt. eigenvalues --    2.70736   2.72901   2.74211   2.75533   2.78016
 Alpha virt. eigenvalues --    2.79667   2.81274   2.83375   2.84429   2.85808
 Alpha virt. eigenvalues --    2.85906   2.87911   2.90923   2.93337   2.94389
 Alpha virt. eigenvalues --    2.96196   2.99653   3.01951   3.03562   3.05241
 Alpha virt. eigenvalues --    3.08273   3.09509   3.12863   3.17594   3.31833
 Alpha virt. eigenvalues --    3.34153   3.36616   3.39296   3.42894   3.46960
 Alpha virt. eigenvalues --    3.48270   3.49192   3.51408   3.53455   3.54791
 Alpha virt. eigenvalues --    3.56474   3.62333   3.63663   3.64536   4.33705
 Alpha virt. eigenvalues --    4.36237   4.38722   4.45616   4.50940   4.57273
 Alpha virt. eigenvalues --    4.59728   4.62878   4.75357   4.81819   4.94120
 Alpha virt. eigenvalues --    4.96215
          Condensed to atoms (all electrons):
              1          2          3          4          5          6
     1  C    5.816297  -0.420497   0.155265  -0.028508   0.060086  -0.069270
     2  C   -0.420497   8.293625  -0.416454  -0.268324   0.127785  -0.454167
     3  N    0.155265  -0.416454   7.583802   0.155445  -0.234944  -0.029180
     4  C   -0.028508  -0.268324   0.155445   5.755572   0.171487  -0.309221
     5  C    0.060086   0.127785  -0.234944   0.171487   5.482863   0.083851
     6  C   -0.069270  -0.454167  -0.029180  -0.309221   0.083851   7.319078
     7  C   -0.100437   0.377174  -0.244594  -0.074794   0.056310  -0.205588
     8  C    0.001116  -0.813874   0.051761  -0.004545   0.006715   0.308873
     9  H    0.397232  -0.091495   0.015549   0.010962  -0.022470   0.010259
    10  H    0.465091  -0.138023   0.023298   0.018609  -0.061172   0.021682
    11  H    0.017613   0.221552  -0.027512  -0.005033  -0.010230   0.045361
    12  H    0.006177  -0.021225  -0.033302   0.400622  -0.054329   0.014152
    13  H    0.007514   0.035905  -0.045781   0.352113  -0.020669   0.024360
    14  H   -0.023688   0.007990   0.013325  -0.058314   0.390276   0.006973
    15  H   -0.071469   0.014733   0.006994  -0.057830   0.430907   0.013814
    16  H    0.002524   0.033556  -0.051388   0.056578  -0.011399   0.245318
    17  H    0.009807   0.009653   0.023895   0.002929  -0.006934  -0.103492
    18  H    0.006749  -0.072475   0.031496   0.009253  -0.005357  -0.020277
    19  O    0.001677  -0.188807   0.010379  -0.003402   0.012283   0.012472
    20  H   -0.006570   0.056327  -0.001701   0.000140  -0.001228   0.004084
    21  O    0.007034  -0.010399   0.026215  -0.002562   0.000178  -0.123203
    22  H    0.000760   0.012003   0.005345   0.001331  -0.001019  -0.095262
    23  C    0.074254  -0.132887   0.102390   0.065344  -0.090107  -0.379746
    24  H   -0.002656  -0.007520  -0.013064   0.011916   0.000899  -0.040359
    25  H    0.001734  -0.001462   0.010883   0.001755  -0.000800  -0.096817
    26  O    0.009890  -0.078717   0.053376   0.033571  -0.008949  -0.237523
    27  H    0.000215  -0.000782   0.032478   0.006626  -0.000818  -0.014354
              7          8          9         10         11         12
     1  C   -0.100437   0.001116   0.397232   0.465091   0.017613   0.006177
     2  C    0.377174  -0.813874  -0.091495  -0.138023   0.221552  -0.021225
     3  N   -0.244594   0.051761   0.015549   0.023298  -0.027512  -0.033302
     4  C   -0.074794  -0.004545   0.010962   0.018609  -0.005033   0.400622
     5  C    0.056310   0.006715  -0.022470  -0.061172  -0.010230  -0.054329
     6  C   -0.205588   0.308873   0.010259   0.021682   0.045361   0.014152
     7  C    6.445197  -0.381149  -0.012581  -0.023263  -0.019082  -0.004217
     8  C   -0.381149   6.201581   0.032251   0.020881   0.058606   0.011406
     9  H   -0.012581   0.032251   0.517270  -0.023422  -0.005745   0.000368
    10  H   -0.023263   0.020881  -0.023422   0.513376   0.003731  -0.000084
    11  H   -0.019082   0.058606  -0.005745   0.003731   0.535093   0.001746
    12  H   -0.004217   0.011406   0.000368  -0.000084   0.001746   0.527921
    13  H    0.014175  -0.007584  -0.000109  -0.000118  -0.000089  -0.024516
    14  H    0.000109   0.005156  -0.006329   0.002582   0.000196  -0.004472
    15  H   -0.004342   0.002515   0.003092  -0.008715  -0.000136   0.003684
    16  H    0.013637  -0.016879  -0.000011  -0.000669  -0.000342  -0.000139
    17  H    0.482958  -0.083130   0.000049  -0.000136  -0.000123   0.000008
    18  H   -0.024724   0.395018  -0.000089   0.000044  -0.006933   0.000025
    19  O   -0.106048   0.344406   0.000296   0.001346   0.004113  -0.000033
    20  H   -0.047825   0.006229   0.000006  -0.000194  -0.000229   0.000000
    21  O    0.264096  -0.063683  -0.000001   0.000107  -0.000034   0.000053
    22  H    0.089137  -0.056155   0.000000  -0.000005  -0.000022   0.000000
    23  C   -0.409214   0.109474   0.000742   0.003302   0.004824   0.004909
    24  H    0.023486   0.004661   0.000000   0.000000   0.000005  -0.000078
    25  H   -0.026897   0.005844   0.000000  -0.000001   0.000001   0.000001
    26  O    0.087389   0.024551   0.000009   0.000008   0.000254   0.000343
    27  H   -0.027677   0.006826  -0.000001  -0.000001  -0.000063  -0.000044
             13         14         15         16         17         18
     1  C    0.007514  -0.023688  -0.071469   0.002524   0.009807   0.006749
     2  C    0.035905   0.007990   0.014733   0.033556   0.009653  -0.072475
     3  N   -0.045781   0.013325   0.006994  -0.051388   0.023895   0.031496
     4  C    0.352113  -0.058314  -0.057830   0.056578   0.002929   0.009253
     5  C   -0.020669   0.390276   0.430907  -0.011399  -0.006934  -0.005357
     6  C    0.024360   0.006973   0.013814   0.245318  -0.103492  -0.020277
     7  C    0.014175   0.000109  -0.004342   0.013637   0.482958  -0.024724
     8  C   -0.007584   0.005156   0.002515  -0.016879  -0.083130   0.395018
     9  H   -0.000109  -0.006329   0.003092  -0.000011   0.000049  -0.000089
    10  H   -0.000118   0.002582  -0.008715  -0.000669  -0.000136   0.000044
    11  H   -0.000089   0.000196  -0.000136  -0.000342  -0.000123  -0.006933
    12  H   -0.024516  -0.004472   0.003684  -0.000139   0.000008   0.000025
    13  H    0.521117   0.001997  -0.005952  -0.001274   0.000003   0.000006
    14  H    0.001997   0.513324  -0.024968  -0.000194  -0.000001   0.000003
    15  H   -0.005952  -0.024968   0.520450   0.000277   0.000069   0.000006
    16  H   -0.001274  -0.000194   0.000277   0.551348  -0.008244  -0.000154
    17  H    0.000003  -0.000001   0.000069  -0.008244   0.524938   0.004046
    18  H    0.000006   0.000003   0.000006  -0.000154   0.004046   0.559718
    19  O    0.000046   0.000048  -0.000074  -0.000388  -0.004457  -0.044344
    20  H    0.000000   0.000000   0.000000  -0.000001  -0.000409  -0.005495
    21  O   -0.000063   0.000000   0.000042   0.004434  -0.056031  -0.005385
    22  H    0.000001   0.000000   0.000000  -0.000261   0.006185   0.002419
    23  C   -0.024221   0.000240   0.001374  -0.005001   0.012988   0.004882
    24  H    0.001112   0.000000  -0.000002  -0.001595  -0.000117  -0.000010
    25  H   -0.000072   0.000000  -0.000001   0.000194   0.000195   0.000015
    26  O    0.000036   0.000003   0.000042   0.011978  -0.000803  -0.000806
    27  H   -0.000027   0.000000   0.000000   0.000316  -0.000039  -0.000792
             19         20         21         22         23         24
     1  C    0.001677  -0.006570   0.007034   0.000760   0.074254  -0.002656
     2  C   -0.188807   0.056327  -0.010399   0.012003  -0.132887  -0.007520
     3  N    0.010379  -0.001701   0.026215   0.005345   0.102390  -0.013064
     4  C   -0.003402   0.000140  -0.002562   0.001331   0.065344   0.011916
     5  C    0.012283  -0.001228   0.000178  -0.001019  -0.090107   0.000899
     6  C    0.012472   0.004084  -0.123203  -0.095262  -0.379746  -0.040359
     7  C   -0.106048  -0.047825   0.264096   0.089137  -0.409214   0.023486
     8  C    0.344406   0.006229  -0.063683  -0.056155   0.109474   0.004661
     9  H    0.000296   0.000006  -0.000001   0.000000   0.000742   0.000000
    10  H    0.001346  -0.000194   0.000107  -0.000005   0.003302   0.000000
    11  H    0.004113  -0.000229  -0.000034  -0.000022   0.004824   0.000005
    12  H   -0.000033   0.000000   0.000053   0.000000   0.004909  -0.000078
    13  H    0.000046   0.000000  -0.000063   0.000001  -0.024221   0.001112
    14  H    0.000048   0.000000   0.000000   0.000000   0.000240   0.000000
    15  H   -0.000074   0.000000   0.000042   0.000000   0.001374  -0.000002
    16  H   -0.000388  -0.000001   0.004434  -0.000261  -0.005001  -0.001595
    17  H   -0.004457  -0.000409  -0.056031   0.006185   0.012988  -0.000117
    18  H   -0.044344  -0.005495  -0.005385   0.002419   0.004882  -0.000010
    19  O    8.262458   0.229172  -0.010689  -0.000472   0.008271   0.000000
    20  H    0.229172   0.377267   0.006367   0.000050  -0.000662   0.000000
    21  O   -0.010689   0.006367   8.247498   0.245383   0.046602  -0.001948
    22  H   -0.000472   0.000050   0.245383   0.346059   0.019054   0.000472
    23  C    0.008271  -0.000662   0.046602   0.019054   5.770004   0.376793
    24  H    0.000000   0.000000  -0.001948   0.000472   0.376793   0.560942
    25  H   -0.000011   0.000000   0.002171  -0.001890   0.488859  -0.033884
    26  O   -0.000358   0.000047  -0.029733   0.031198   0.196090  -0.037976
    27  H    0.000056   0.000000   0.000524  -0.003389   0.007327  -0.005315
             25         26         27
     1  C    0.001734   0.009890   0.000215
     2  C   -0.001462  -0.078717  -0.000782
     3  N    0.010883   0.053376   0.032478
     4  C    0.001755   0.033571   0.006626
     5  C   -0.000800  -0.008949  -0.000818
     6  C   -0.096817  -0.237523  -0.014354
     7  C   -0.026897   0.087389  -0.027677
     8  C    0.005844   0.024551   0.006826
     9  H    0.000000   0.000009  -0.000001
    10  H   -0.000001   0.000008  -0.000001
    11  H    0.000001   0.000254  -0.000063
    12  H    0.000001   0.000343  -0.000044
    13  H   -0.000072   0.000036  -0.000027
    14  H    0.000000   0.000003   0.000000
    15  H   -0.000001   0.000042   0.000000
    16  H    0.000194   0.011978   0.000316
    17  H    0.000195  -0.000803  -0.000039
    18  H    0.000015  -0.000806  -0.000792
    19  O   -0.000011  -0.000358   0.000056
    20  H    0.000000   0.000047   0.000000
    21  O    0.002171  -0.029733   0.000524
    22  H   -0.001890   0.031198  -0.003389
    23  C    0.488859   0.196090   0.007327
    24  H   -0.033884  -0.037976  -0.005315
    25  H    0.517445  -0.055460   0.006173
    26  O   -0.055460   8.348376   0.249066
    27  H    0.006173   0.249066   0.342865
 Mulliken atomic charges:
              1
     1  C   -0.317937
     2  C   -0.073196
     3  N   -0.203977
     4  C   -0.241720
     5  C   -0.293214
     6  C    0.068180
     7  C   -0.141233
     8  C   -0.170872
     9  H    0.174170
    10  H    0.181748
    11  H    0.182479
    12  H    0.171022
    13  H    0.172092
    14  H    0.175743
    15  H    0.175491
    16  H    0.177778
    17  H    0.186192
    18  H    0.173163
    19  O   -0.527942
    20  H    0.384627
    21  O   -0.546975
    22  H    0.399078
    23  C   -0.255884
    24  H    0.164239
    25  H    0.182026
    26  O   -0.595905
    27  H    0.400831
 Sum of Mulliken atomic charges =   0.00000
 Mulliken charges with hydrogens summed into heavy atoms:
              1
     1  C    0.037980
     2  C    0.109282
     3  N   -0.203977
     4  C    0.101394
     5  C    0.058019
     6  C    0.245958
     7  C    0.044959
     8  C    0.002291
    19  O   -0.143315
    21  O   -0.147898
    23  C    0.090381
    26  O   -0.195074
 Sum of Mulliken charges with hydrogens summed into heavy atoms =   0.00000
 Electronic spatial extent (au):  <R**2>=           1961.8550
 Charge=              0.0000 electrons
 Dipole moment (field-independent basis, Debye):
    X=             -2.6482    Y=             -2.1839    Z=             -0.2731  Tot=              3.4433
 Quadrupole moment (field-independent basis, Debye-Ang):
   XX=            -81.0814   YY=            -73.8779   ZZ=            -71.5656
   XY=              4.8966   XZ=              0.8173   YZ=              3.6503
 Traceless Quadrupole moment (field-independent basis, Debye-Ang):
   XX=             -5.5731   YY=              1.6304   ZZ=              3.9428
   XY=              4.8966   XZ=              0.8173   YZ=              3.6503
 Octapole moment (field-independent basis, Debye-Ang**2):
  XXX=            -25.4499  YYY=              1.7628  ZZZ=              4.8151  XYY=             13.0834
  XXY=             -2.1067  XXZ=              5.2113  XZZ=              1.3613  YZZ=              0.5718
  YYZ=             -5.0912  XYZ=             11.5971
 Hexadecapole moment (field-independent basis, Debye-Ang**3):
 XXXX=          -1367.7509 YYYY=           -877.0728 ZZZZ=           -265.0556 XXXY=             13.4809
 XXXZ=            -16.4878 YYYX=             55.4508 YYYZ=             -5.6166 ZZZX=              9.0840
 ZZZY=             -3.8640 XXYY=           -400.0356 XXZZ=           -275.5236 YYZZ=           -207.1349
 XXYZ=             28.9995 YYXZ=              0.7243 ZZXY=             -3.5686
 N-N= 8.153506986646D+02 E-N=-3.016243903280D+03  KE= 5.886696132759D+02
 1\1\GINC-COMPUTE-3-2\SP\RmPW1PW91\6-31+G(d,p)\C8H15N1O3\MAMICHETTI.IQU
 IR\17-May-2024\0\\# mpw1pw91/6-31+G** nmr scrf=(pcm,solvent=water)\\co
 mment\\0,1\C,0,-2.277788,0.564062,-0.198135\C,0,-1.051076,0.469829,0.7
 55191\N,0,-0.44458,-0.865828,0.542843\C,0,-1.588349,-1.746094,0.246237
 \C,0,-2.573708,-0.905963,-0.601453\C,0,0.516592,-0.743803,-0.594512\C,
 0,0.859162,0.775772,-0.692061\C,0,0.112348,1.419472,0.49275\H,0,-3.125
 093,1.032619,0.31138\H,0,-2.053926,1.176128,-1.076941\H,0,-1.394243,0.
 546529,1.792525\H,0,-2.055665,-2.040782,1.193486\H,0,-1.249924,-2.6592
 29,-0.251759\H,0,-3.612504,-1.19478,-0.414276\H,0,-2.382846,-1.05508,-
 1.669354\H,0,0.064028,-1.077743,-1.538309\H,0,0.461453,1.189376,-1.623
 021\H,0,0.78723,1.404008,1.361583\O,0,-0.342238,2.748851,0.254889\H,0,
 0.448242,3.292268,0.097558\O,0,2.254065,1.079832,-0.705402\H,0,2.63556
 5,0.562923,0.034466\C,0,1.732741,-1.624293,-0.325848\H,0,1.418028,-2.6
 73306,-0.239612\H,0,2.455859,-1.550278,-1.142461\O,0,2.416546,-1.20814
 ,0.867803\H,0,1.70933,-1.110091,1.533504\\Version=AM64L-G09RevC.01\Sta
 te=1-A\HF=-594.1993138\RMSD=8.938e-09\Dipole=-1.0418646,-0.859193,-0.1
 074337\Quadrupole=-4.1434933,1.2121514,2.9313419,3.6405214,0.6076683,2
 .7139181\PG=C01 [X(C8H15N1O3)]\\@


 WHAT, THEN, IS TIME?  IF NO ONE ASKS ME, I KNOW WHAT IT IS.
 IF I WISH TO EXPLAIN WHAT IT IS TO HIM WHO ASKS ME, I DO NOT KNOW.
                                   -- ST. AUGUSTINE (FIFTH CENTURY)
 Job cpu time:  0 days  0 hours  8 minutes 34.8 seconds.
 File lengths (MBytes):  RWF=    111 Int=      0 D2E=      0 Chk=      7 Scr=      1
 Normal termination of Gaussian 09 at Fri May 17 12:51:57 2024.
