 Entering Gaussian System, Link 0=g09
 Input=/home/mamichetti.iquir/Linux/03_Cardona_A1A3_R__S_S_R_043_OptB.gjc
 Output=/home/mamichetti.iquir/Linux/03_Cardona_A1A3_R__S_S_R_043_OptB.log
 Initial command:
 /opt/ohpc/pub/apps/software/Gaussian/09/AMD64.SSE4a-enabled/g09/l1.exe /local/mamichetti.iquir/Gau-122663.inp -scrdir=/local/mamichetti.iquir/
 Entering Link 1 = /opt/ohpc/pub/apps/software/Gaussian/09/AMD64.SSE4a-enabled/g09/l1.exe PID=    122664.
  
 Copyright (c) 1988,1990,1992,1993,1995,1998,2003,2009,2011,
            Gaussian, Inc.  All Rights Reserved.
  
 This is part of the Gaussian(R) 09 program.  It is based on
 the Gaussian(R) 03 system (copyright 2003, Gaussian, Inc.),
 the Gaussian(R) 98 system (copyright 1998, Gaussian, Inc.),
 the Gaussian(R) 94 system (copyright 1995, Gaussian, Inc.),
 the Gaussian 92(TM) system (copyright 1992, Gaussian, Inc.),
 the Gaussian 90(TM) system (copyright 1990, Gaussian, Inc.),
 the Gaussian 88(TM) system (copyright 1988, Gaussian, Inc.),
 the Gaussian 86(TM) system (copyright 1986, Carnegie Mellon
 University), and the Gaussian 82(TM) system (copyright 1983,
 Carnegie Mellon University). Gaussian is a federally registered
 trademark of Gaussian, Inc.
  
 This software contains proprietary and confidential information,
 including trade secrets, belonging to Gaussian, Inc.
  
 This software is provided under written license and may be
 used, copied, transmitted, or stored only in accord with that
 written license.
  
 The following legend is applicable only to US Government
 contracts under FAR:
  
                    RESTRICTED RIGHTS LEGEND
  
 Use, reproduction and disclosure by the US Government is
 subject to restrictions as set forth in subparagraphs (a)
 and (c) of the Commercial Computer Software - Restricted
 Rights clause in FAR 52.227-19.
  
 Gaussian, Inc.
 340 Quinnipiac St., Bldg. 40, Wallingford CT 06492
  
  
 ---------------------------------------------------------------
 Warning -- This program may not be used in any manner that
 competes with the business of Gaussian, Inc. or will provide
 assistance to any competitor of Gaussian, Inc.  The licensee
 of this program is prohibited from giving any competitor of
 Gaussian, Inc. access to this program.  By using this program,
 the user acknowledges that Gaussian, Inc. is engaged in the
 business of creating and licensing software in the field of
 computational chemistry and represents and warrants to the
 licensee that it is not a competitor of Gaussian, Inc. and that
 it will not use this program in any manner prohibited above.
 ---------------------------------------------------------------
  

 Cite this work as:
 Gaussian 09, Revision C.01,
 M. J. Frisch, G. W. Trucks, H. B. Schlegel, G. E. Scuseria, 
 M. A. Robb, J. R. Cheeseman, G. Scalmani, V. Barone, B. Mennucci, 
 G. A. Petersson, H. Nakatsuji, M. Caricato, X. Li, H. P. Hratchian, 
 A. F. Izmaylov, J. Bloino, G. Zheng, J. L. Sonnenberg, M. Hada, 
 M. Ehara, K. Toyota, R. Fukuda, J. Hasegawa, M. Ishida, T. Nakajima, 
 Y. Honda, O. Kitao, H. Nakai, T. Vreven, J. A. Montgomery, Jr., 
 J. E. Peralta, F. Ogliaro, M. Bearpark, J. J. Heyd, E. Brothers, 
 K. N. Kudin, V. N. Staroverov, T. Keith, R. Kobayashi, J. Normand, 
 K. Raghavachari, A. Rendell, J. C. Burant, S. S. Iyengar, J. Tomasi, 
 M. Cossi, N. Rega, J. M. Millam, M. Klene, J. E. Knox, J. B. Cross, 
 V. Bakken, C. Adamo, J. Jaramillo, R. Gomperts, R. E. Stratmann, 
 O. Yazyev, A. J. Austin, R. Cammi, C. Pomelli, J. W. Ochterski, 
 R. L. Martin, K. Morokuma, V. G. Zakrzewski, G. A. Voth, 
 P. Salvador, J. J. Dannenberg, S. Dapprich, A. D. Daniels, 
 O. Farkas, J. B. Foresman, J. V. Ortiz, J. Cioslowski, 
 and D. J. Fox, Gaussian, Inc., Wallingford CT, 2010.
 
 ******************************************
 Gaussian 09:  AM64L-G09RevC.01 23-Sep-2011
                17-May-2024 
 ******************************************
 %nprocshared=4
 Will use up to    4 processors via shared memory.
 ------------------------------------------------
 # mpw1pw91/6-31+G** nmr scrf=(pcm,solvent=water)
 ------------------------------------------------
 1/38=1/1;
 2/12=2,17=6,18=5,40=1/2;
 3/5=1,6=6,7=111,11=2,16=1,25=1,30=1,70=2201,72=1,74=-7/1,2,8,3;
 4//1;
 5/5=2,38=5,53=1/2;
 8/6=1,10=90,11=11/1;
 10/13=100,45=16/2;
 6/7=2,8=2,9=2,10=2,28=1/1;
 99/9=1/99;
 -------
 comment
 -------
 Charge =  0 Multiplicity = 1
 Symbolic Z-Matrix:
 6                    -2.60219   0.17846   0.20322 
 6                    -1.16581   0.47699   0.66458 
 7                    -0.37498  -0.77525   0.40149 
 6                    -1.2504   -1.73361  -0.2964 
 6                    -2.65863  -1.3596    0.17165 
 6                     0.86647  -0.41492  -0.30693 
 6                     1.05932   1.08691  -0.01237 
 6                    -0.3865    1.61652  -0.02854 
 1                    -3.3522    0.62483   0.86269 
 1                    -2.76796   0.56565  -0.80766 
 1                    -1.15698   0.68383   1.74376 
 1                    -0.98414  -2.76847  -0.05193 
 1                    -1.17116  -1.62451  -1.39229 
 1                    -2.84379  -1.75992   1.1757 
 1                    -3.43631  -1.74727  -0.49381 
 1                     0.73879  -0.51877  -1.39785 
 1                     1.6651    1.57849  -0.77661 
 1                    -0.46904   2.56473   0.51551 
 8                    -0.73107   1.80008  -1.40585 
 1                    -1.60858   2.21516  -1.43395 
 8                     1.71959   1.35695   1.22749 
 1                     1.26683   0.86374   1.93234 
 6                     2.03981  -1.30309   0.10789 
 1                     2.21506  -1.21869   1.18812 
 1                     1.7992   -2.34868  -0.10972 
 8                     3.23197  -1.00964  -0.63002 
 1                     3.55374  -0.1484   -0.3163 
 
                          Input orientation:                          
 ---------------------------------------------------------------------
 Center     Atomic      Atomic             Coordinates (Angstroms)
 Number     Number       Type             X           Y           Z
 ---------------------------------------------------------------------
      1          6           0       -2.602189    0.178463    0.203215
      2          6           0       -1.165813    0.476985    0.664576
      3          7           0       -0.374979   -0.775254    0.401489
      4          6           0       -1.250399   -1.733608   -0.296396
      5          6           0       -2.658633   -1.359600    0.171648
      6          6           0        0.866467   -0.414916   -0.306929
      7          6           0        1.059317    1.086905   -0.012367
      8          6           0       -0.386498    1.616524   -0.028541
      9          1           0       -3.352204    0.624827    0.862686
     10          1           0       -2.767956    0.565651   -0.807656
     11          1           0       -1.156980    0.683834    1.743763
     12          1           0       -0.984139   -2.768470   -0.051929
     13          1           0       -1.171157   -1.624514   -1.392287
     14          1           0       -2.843790   -1.759916    1.175700
     15          1           0       -3.436311   -1.747270   -0.493807
     16          1           0        0.738790   -0.518774   -1.397846
     17          1           0        1.665101    1.578489   -0.776605
     18          1           0       -0.469042    2.564727    0.515505
     19          8           0       -0.731069    1.800078   -1.405848
     20          1           0       -1.608576    2.215161   -1.433945
     21          8           0        1.719593    1.356950    1.227489
     22          1           0        1.266834    0.863736    1.932344
     23          6           0        2.039810   -1.303088    0.107893
     24          1           0        2.215062   -1.218693    1.188119
     25          1           0        1.799201   -2.348675   -0.109723
     26          8           0        3.231967   -1.009644   -0.630019
     27          1           0        3.553736   -0.148395   -0.316303
 ---------------------------------------------------------------------
                    Distance matrix (angstroms):
                    1          2          3          4          5
     1  C    0.000000
     2  C    1.537903   0.000000
     3  N    2.430916   1.504239   0.000000
     4  C    2.394361   2.411917   1.473718   0.000000
     5  C    1.539422   2.417547   2.368409   1.530382   0.000000
     6  C    3.555829   2.422699   1.474072   2.494029   3.680733
     7  C    3.778673   2.404466   2.386654   3.656604   4.454481
     8  C    2.651606   1.544763   2.430156   3.470080   3.749665
     9  H    1.093922   2.200321   3.322168   3.365007   2.212809
    10  H    1.095104   2.177657   2.997732   2.801956   2.162771
    11  H    2.171939   1.098867   2.131235   3.164649   2.983644
    12  H    3.371587   3.328568   2.132973   1.096174   2.199734
    13  H    2.800751   2.940580   2.138405   1.104155   2.174548
    14  H    2.182066   2.842636   2.768391   2.169482   1.096657
    15  H    2.211345   3.382946   3.334385   2.194851   1.094487
    16  H    3.769838   2.978697   2.131635   2.577962   3.835725
    17  H    4.596725   3.362200   3.330156   4.438550   5.312836
    18  H    3.215913   2.205987   3.343250   4.443578   4.506982
    19  O    2.952932   2.495242   3.166323   3.739990   4.023377
    20  H    2.795657   2.760631   3.719296   4.124935   4.057027
    21  O    4.595190   3.068677   3.100936   4.549135   5.259592
    22  H    4.292881   2.770304   2.779452   4.248522   4.842785
    23  C    4.873626   3.708716   2.489179   3.342794   4.699215
    24  H    5.111554   3.818342   2.742943   3.805042   4.980559
    25  H    5.084938   4.168357   2.732041   3.116603   4.574901
    26  O    6.011926   4.819389   3.758857   4.552695   5.955192
    27  H    6.186449   4.860799   4.042645   5.058953   6.348121
                    6          7          8          9         10
     6  C    0.000000
     7  C    1.542538   0.000000
     8  C    2.402950   1.539850   0.000000
     9  H    4.499583   4.521145   3.251640   0.000000
    10  H    3.797535   3.943629   2.717112   1.770562   0.000000
    11  H    3.083331   2.856297   2.145837   2.366176   3.019760
    12  H    3.004827   4.363622   4.425595   4.237773   3.856098
    13  H    2.606346   3.772398   3.602752   3.860234   2.772793
    14  H    4.215830   4.974951   4.346128   2.458345   3.057403
    15  H    4.508214   5.336197   4.564312   2.733860   2.427922
    16  H    1.103262   2.144876   2.775026   4.811867   3.717737
    17  H    2.198198   1.092103   2.184057   5.363776   4.547395
    18  H    3.367232   2.190545   1.096307   3.492330   3.321455
    19  O    2.943797   2.378211   1.431571   3.660302   2.455718
    20  H    3.783293   3.226685   1.956272   3.293010   2.111228
    21  O    2.494348   1.430431   2.465889   5.137335   4.990598
    22  H    2.609519   1.968443   2.673063   4.747290   4.886306
    23  C    1.528941   2.586097   3.798647   5.775845   5.238800
    24  H    2.167933   2.844766   4.035695   5.873578   5.656631
    25  H    2.155993   3.515696   4.528430   6.026962   5.462539
    26  O    2.460422   3.081788   4.511299   6.946292   6.205819
    27  H    2.700470   2.800084   4.327030   7.048397   6.380837
                   11         12         13         14         15
    11  H    0.000000
    12  H    3.895226   0.000000
    13  H    3.894031   1.772053   0.000000
    14  H    3.023233   2.445926   3.067669   0.000000
    15  H    4.014017   2.692815   2.439930   1.771580   0.000000
    16  H    3.861336   3.137054   2.206941   4.582407   4.444992
    17  H    3.888033   5.141953   4.322343   5.940248   6.096315
    18  H    2.349390   5.387977   4.656434   4.977733   5.330733
    19  O    3.368598   4.771663   3.452780   4.878682   4.553442
    20  H    3.556224   5.209267   3.864735   4.912966   4.463780
    21  O    2.999049   5.095701   4.910070   5.526482   6.259584
    22  H    2.437786   4.711384   4.815429   4.934905   5.901113
    23  C    4.104071   3.364098   3.558674   5.019806   5.526956
    24  H    3.911396   3.764892   4.276642   5.087736   5.919990
    25  H    4.622827   2.815413   3.315480   4.853485   5.283918
    26  O    5.269304   4.604694   4.510723   6.382660   6.710334
    27  H    5.208390   5.246618   5.065697   6.763979   7.172773
                   16         17         18         19         20
    16  H    0.000000
    17  H    2.375396   0.000000
    18  H    3.824624   2.682681   0.000000
    19  O    2.745473   2.487304   2.084453   0.000000
    20  H    3.603586   3.399178   2.284970   0.971134   0.000000
    21  O    3.372343   2.017038   2.599186   3.624441   4.347007
    22  H    3.644219   2.829822   2.813195   4.001485   4.628848
    23  C    2.138937   3.037471   4.628226   4.427056   5.297741
    24  H    3.058836   3.462199   4.687333   4.951902   5.769470
    25  H    2.476342   3.985641   5.447693   5.029350   5.847658
    26  O    2.654514   3.029024   5.271226   4.919563   5.871671
    27  H    3.038229   2.600182   4.922975   4.831481   5.786621
                   21         22         23         24         25
    21  O    0.000000
    22  H    0.972148   0.000000
    23  C    2.903762   2.936195   0.000000
    24  H    2.623162   2.406142   1.097599   0.000000
    25  H    3.940321   3.843571   1.094761   1.770365   0.000000
    26  O    3.367251   3.733230   1.432432   2.093663   2.028923
    27  H    2.830802   3.363145   1.950700   2.280542   2.821755
                   26         27
    26  O    0.000000
    27  H    0.971444   0.000000
 Stoichiometry    C8H15NO3
 Framework group  C1[X(C8H15NO3)]
 Deg. of freedom    75
 Full point group                 C1      NOp   1
 Largest Abelian subgroup         C1      NOp   1
 Largest concise Abelian subgroup C1      NOp   1
                         Standard orientation:                         
 ---------------------------------------------------------------------
 Center     Atomic      Atomic             Coordinates (Angstroms)
 Number     Number       Type             X           Y           Z
 ---------------------------------------------------------------------
      1          6           0        2.602189    0.178463   -0.203215
      2          6           0        1.165813    0.476985   -0.664576
      3          7           0        0.374979   -0.775254   -0.401489
      4          6           0        1.250399   -1.733608    0.296396
      5          6           0        2.658633   -1.359600   -0.171648
      6          6           0       -0.866467   -0.414916    0.306929
      7          6           0       -1.059317    1.086905    0.012367
      8          6           0        0.386498    1.616524    0.028541
      9          1           0        3.352204    0.624827   -0.862686
     10          1           0        2.767956    0.565651    0.807656
     11          1           0        1.156980    0.683834   -1.743763
     12          1           0        0.984140   -2.768470    0.051929
     13          1           0        1.171157   -1.624514    1.392287
     14          1           0        2.843790   -1.759916   -1.175700
     15          1           0        3.436311   -1.747269    0.493807
     16          1           0       -0.738790   -0.518774    1.397846
     17          1           0       -1.665101    1.578489    0.776605
     18          1           0        0.469042    2.564727   -0.515505
     19          8           0        0.731069    1.800078    1.405848
     20          1           0        1.608576    2.215161    1.433945
     21          8           0       -1.719593    1.356950   -1.227489
     22          1           0       -1.266834    0.863736   -1.932344
     23          6           0       -2.039810   -1.303088   -0.107893
     24          1           0       -2.215062   -1.218693   -1.188119
     25          1           0       -1.799200   -2.348675    0.109723
     26          8           0       -3.231967   -1.009645    0.630019
     27          1           0       -3.553736   -0.148396    0.316303
 ---------------------------------------------------------------------
 Rotational constants (GHZ):      1.3796667      0.7626894      0.5968307
 Standard basis: 6-31+G(d,p) (6D, 7F)
 There are   303 symmetry adapted basis functions of A   symmetry.
 Integral buffers will be    131072 words long.
 Raffenetti 2 integral format.
 Two-electron integral symmetry is turned on.
   303 basis functions,   489 primitive gaussians,   303 cartesian basis functions
    47 alpha electrons       47 beta electrons
       nuclear repulsion energy       805.6915000783 Hartrees.
 NAtoms=   27 NActive=   27 NUniq=   27 SFac= 1.00D+00 NAtFMM=   60 NAOKFM=F Big=F
 ------------------------------------------------------------------------------
 Polarizable Continuum Model (PCM)
 =================================
 Model                : PCM.
 Atomic radii         : UFF (Universal Force Field).
 Polarization charges : Total charges.
 Charge compensation  : None.
 Solution method      : Matrix inversion.
 Cavity type          : Scaled VdW (van der Waals Surface) (Alpha=1.100).
 Cavity algorithm     : GePol (No added spheres)
                        Default sphere list used, NSphG=   27.
                        Lebedev-Laikov grids with approx.  5.0 points / Ang**2.
                        Smoothing algorithm: Karplus/York (Gamma=1.0000).
                        Polarization charges: spherical gaussians, with
                                              point-specific exponents (IZeta= 3).
                        Self-potential: point-specific (ISelfS= 7).
                        Self-field    : sphere-specific E.n sum rule (ISelfD= 2).
 Solvent              : Water, Eps=  78.355300 Eps(inf)=   1.777849
 ------------------------------------------------------------------------------
 One-electron integrals computed using PRISM.
 NBasis=   303 RedAO= T  NBF=   303
 NBsUse=   303 1.00D-06 NBFU=   303
 Harris functional with IExCor=  908 diagonalized for initial guess.
 ExpMin= 4.38D-02 ExpMax= 5.48D+03 ExpMxC= 8.25D+02 IAcc=2 IRadAn=         4 AccDes= 0.00D+00
 HarFok:  IExCor=  908 AccDes= 0.00D+00 IRadAn=         4 IDoV= 1
 ScaDFX=  1.000000  1.000000  1.000000  1.000000
 FoFCou: FMM=F IPFlag=           0 FMFlag=      100000 FMFlg1=           0
         NFxFlg=           0 DoJE=T BraDBF=F KetDBF=T FulRan=T
         Omega=  0.000000  0.000000  1.000000  0.000000  0.000000 ICntrl=     500 IOpCl=  0
         NMat0=    1 NMatS0=    1 NMatT0=    0 NMatD0=    1 NMtDS0=    0 NMtDT0=    0
         I1Cent=           4 NGrid=           0.
 Petite list used in FoFCou.
 Initial guess orbital symmetries:
       Occupied  (A) (A) (A) (A) (A) (A) (A) (A) (A) (A) (A) (A)
                 (A) (A) (A) (A) (A) (A) (A) (A) (A) (A) (A) (A)
                 (A) (A) (A) (A) (A) (A) (A) (A) (A) (A) (A) (A)
                 (A) (A) (A) (A) (A) (A) (A) (A) (A) (A) (A)
       Virtual   (A) (A) (A) (A) (A) (A) (A) (A) (A) (A) (A) (A)
                 (A) (A) (A) (A) (A) (A) (A) (A) (A) (A) (A) (A)
                 (A) (A) (A) (A) (A) (A) (A) (A) (A) (A) (A) (A)
                 (A) (A) (A) (A) (A) (A) (A) (A) (A) (A) (A) (A)
                 (A) (A) (A) (A) (A) (A) (A) (A) (A) (A) (A) (A)
                 (A) (A) (A) (A) (A) (A) (A) (A) (A) (A) (A) (A)
                 (A) (A) (A) (A) (A) (A) (A) (A) (A) (A) (A) (A)
                 (A) (A) (A) (A) (A) (A) (A) (A) (A) (A) (A) (A)
                 (A) (A) (A) (A) (A) (A) (A) (A) (A) (A) (A) (A)
                 (A) (A) (A) (A) (A) (A) (A) (A) (A) (A) (A) (A)
                 (A) (A) (A) (A) (A) (A) (A) (A) (A) (A) (A) (A)
                 (A) (A) (A) (A) (A) (A) (A) (A) (A) (A) (A) (A)
                 (A) (A) (A) (A) (A) (A) (A) (A) (A) (A) (A) (A)
                 (A) (A) (A) (A) (A) (A) (A) (A) (A) (A) (A) (A)
                 (A) (A) (A) (A) (A) (A) (A) (A) (A) (A) (A) (A)
                 (A) (A) (A) (A) (A) (A) (A) (A) (A) (A) (A) (A)
                 (A) (A) (A) (A) (A) (A) (A) (A) (A) (A) (A) (A)
                 (A) (A) (A) (A) (A) (A) (A) (A) (A) (A) (A) (A)
                 (A) (A) (A) (A) (A) (A) (A) (A) (A) (A) (A) (A)
                 (A) (A) (A) (A) (A) (A) (A) (A) (A) (A) (A) (A)
                 (A) (A) (A) (A) (A) (A) (A) (A) (A) (A) (A) (A)
                 (A) (A) (A) (A)
 The electronic state of the initial guess is 1-A.
 Requested convergence on RMS density matrix=1.00D-08 within 128 cycles.
 Requested convergence on MAX density matrix=1.00D-06.
 Requested convergence on             energy=1.00D-06.
 No special actions if energy rises.
 Error on total polarization charges =  0.01440
 SCF Done:  E(RmPW1PW91) =  -594.195754165     A.U. after   13 cycles
             Convg  =    0.4839D-08             -V/T =  2.0094
 Range of M.O.s used for correlation:     1   303
 NBasis=   303 NAE=    47 NBE=    47 NFC=     0 NFV=     0
 NROrb=    303 NOA=    47 NOB=    47 NVA=   256 NVB=   256

 **** Warning!!: The largest alpha MO coefficient is  0.79612105D+02

 NEqPCM:  Using equilibrium solvation (IEInf=0, Eps=  78.3553, EpsInf=   1.7778)
          Differentiating once with respect to magnetic field using GIAOs.
          Electric field/nuclear overlap derivatives assumed to be zero.
 FoFCou: FMM=F IPFlag=           0 FMFlag=    10101102 FMFlg1=           0
         NFxFlg=    40000000 DoJE=F BraDBF=F KetDBF=T FulRan=T
         Omega=  0.000000  0.000000  1.000000  0.000000  0.000000 ICntrl=    6100 IOpCl=  0
         NMat0=    1 NMatS0=    1 NMatT0=    0 NMatD0=    1 NMtDS0=    0 NMtDT0=    0
         I1Cent=           7 NGrid=        1834.
 Symmetry not used in FoFCou.
          There are     3 degrees of freedom in the 1st order CPHF.  IDoFFX=0.
      3 vectors produced by pass  0 Test12= 4.01D-13 3.33D-08 XBig12= 3.90D+01 1.21D+00.
 AX will form     3 AO Fock derivatives at one time.
      3 vectors produced by pass  1 Test12= 4.01D-13 3.33D-08 XBig12= 9.73D-02 4.47D-02.
      3 vectors produced by pass  2 Test12= 4.01D-13 3.33D-08 XBig12= 1.85D-04 2.18D-03.
      3 vectors produced by pass  3 Test12= 4.01D-13 3.33D-08 XBig12= 8.86D-07 2.68D-04.
      3 vectors produced by pass  4 Test12= 4.01D-13 3.33D-08 XBig12= 2.49D-09 6.94D-06.
      3 vectors produced by pass  5 Test12= 4.01D-13 3.33D-08 XBig12= 8.90D-12 7.15D-07.
 Inverted reduced A of dimension    18 with in-core refinement.
 Calculating GIAO nuclear magnetic shielding tensors.
 SCF GIAO Magnetic shielding tensor (ppm):
      1  C    Isotropic =   171.2788   Anisotropy =    19.4640
   XX=   178.9220   YX=    -4.1318   ZX=     3.1904
   XY=     4.8440   YY=   183.1603   ZY=    -9.1601
   XZ=     3.6832   YZ=    -2.6882   ZZ=   151.7542
   Eigenvalues:   150.2598   179.3218   184.2548
      2  C    Isotropic =   126.8594   Anisotropy =    58.9957
   XX=   137.3414   YX=    13.3735   ZX=    -3.7727
   XY=    17.6249   YY=   157.6938   ZY=    -2.8317
   XZ=    -5.6715   YZ=     0.5610   ZZ=    85.5429
   Eigenvalues:    85.1149   129.2734   166.1898
      3  N    Isotropic =   194.2951   Anisotropy =    88.2209
   XX=   246.1198   YX=     5.5919   ZX=   -26.2927
   XY=    -7.7936   YY=   221.0822   ZY=   -22.2750
   XZ=   -33.4443   YZ=   -22.4373   ZZ=   115.6833
   Eigenvalues:   104.9681   224.8082   253.1090
      4  C    Isotropic =   138.8433   Anisotropy =    56.6466
   XX=   149.2212   YX=   -19.9446   ZX=    11.8402
   XY=   -29.6008   YY=   135.7188   ZY=   -15.3150
   XZ=     7.0368   YZ=   -23.1735   ZZ=   131.5898
   Eigenvalues:   110.5515   129.3706   176.6077
      5  C    Isotropic =   163.4231   Anisotropy =    25.9798
   XX=   179.3604   YX=    -0.0057   ZX=    -1.5347
   XY=    -0.0991   YY=   176.6637   ZY=   -12.1335
   XZ=   -10.5705   YZ=    -6.3869   ZZ=   134.2454
   Eigenvalues:   131.5742   177.9521   180.7430
      6  C    Isotropic =   125.0135   Anisotropy =    54.8092
   XX=   153.2979   YX=   -18.6430   ZX=   -14.5159
   XY=    -4.5149   YY=   110.7026   ZY=     5.4558
   XZ=   -16.4316   YZ=     5.7027   ZZ=   111.0400
   Eigenvalues:   104.9217   108.5659   161.5530
      7  C    Isotropic =   112.4012   Anisotropy =    33.8152
   XX=   120.0365   YX=     1.6591   ZX=    12.7609
   XY=     8.4236   YY=   106.5196   ZY=    -0.0696
   XZ=    25.3017   YZ=   -12.2843   ZZ=   110.6474
   Eigenvalues:    91.5072   110.7517   134.9446
      8  C    Isotropic =   117.5827   Anisotropy =    32.6027
   XX=   117.0142   YX=     3.4076   ZX=    18.1445
   XY=    -4.1236   YY=   107.2992   ZY=    -2.1322
   XZ=    12.1053   YZ=    11.5740   ZZ=   128.4346
   Eigenvalues:   103.7512   109.6790   139.3178
      9  H    Isotropic =    29.9267   Anisotropy =    11.7374
   XX=    33.3971   YX=     2.8231   ZX=    -4.2751
   XY=     4.1844   YY=    28.8454   ZY=    -3.0128
   XZ=    -4.2833   YZ=    -2.1968   ZZ=    27.5376
   Eigenvalues:    25.0600    26.9684    37.7516
     10  H    Isotropic =    29.9259   Anisotropy =     7.2357
   XX=    30.4195   YX=    -0.2643   ZX=     2.6176
   XY=    -0.5605   YY=    29.3944   ZY=     4.4146
   XZ=     2.8998   YZ=     4.1357   ZZ=    29.9636
   Eigenvalues:    24.5358    30.4921    34.7497
     11  H    Isotropic =    27.7892   Anisotropy =     7.7439
   XX=    26.7418   YX=     1.1512   ZX=    -1.1416
   XY=     0.3527   YY=    25.6216   ZY=    -3.8504
   XZ=    -1.4375   YZ=    -2.8117   ZZ=    31.0043
   Eigenvalues:    24.0244    26.3915    32.9518
     12  H    Isotropic =    28.4421   Anisotropy =     9.5735
   XX=    27.2413   YX=    -0.6447   ZX=     0.5617
   XY=     0.3565   YY=    34.8132   ZY=    -0.1474
   XZ=     0.3818   YZ=    -0.4611   ZZ=    23.2719
   Eigenvalues:    23.2095    27.2923    34.8245
     13  H    Isotropic =    29.1880   Anisotropy =     8.1502
   XX=    27.8294   YX=    -1.1401   ZX=     1.6326
   XY=    -1.1315   YY=    27.6453   ZY=    -4.1478
   XZ=    -0.1060   YZ=    -3.7462   ZZ=    32.0891
   Eigenvalues:    25.1943    27.7481    34.6214
     14  H    Isotropic =    29.3866   Anisotropy =    10.6939
   XX=    28.3797   YX=    -2.0286   ZX=    -3.9108
   XY=    -2.3336   YY=    29.7543   ZY=     4.1698
   XZ=    -4.1117   YZ=     4.2386   ZZ=    30.0257
   Eigenvalues:    24.7350    26.9089    36.5159
     15  H    Isotropic =    29.4550   Anisotropy =    11.6540
   XX=    33.0431   YX=    -3.8244   ZX=     3.5657
   XY=    -4.5430   YY=    29.0153   ZY=    -2.4501
   XZ=     3.3051   YZ=    -2.0884   ZZ=    26.3066
   Eigenvalues:    24.7501    26.3906    37.2244
     16  H    Isotropic =    28.6259   Anisotropy =     4.3442
   XX=    28.7120   YX=     1.2055   ZX=    -1.2914
   XY=     1.1180   YY=    27.3021   ZY=    -0.2740
   XZ=    -1.5054   YZ=    -2.3641   ZZ=    29.8636
   Eigenvalues:    26.5451    27.8106    31.5220
     17  H    Isotropic =    27.1552   Anisotropy =     4.3882
   XX=    27.6936   YX=    -2.0341   ZX=    -0.2054
   XY=    -1.8780   YY=    26.6933   ZY=     1.5253
   XZ=    -0.5820   YZ=     2.4081   ZZ=    27.0785
   Eigenvalues:    24.3944    26.9905    30.0806
     18  H    Isotropic =    27.6580   Anisotropy =     6.7385
   XX=    23.9437   YX=    -0.0450   ZX=     1.2941
   XY=     0.1232   YY=    31.0619   ZY=    -1.4860
   XZ=     1.9293   YZ=    -2.6314   ZZ=    27.9683
   Eigenvalues:    23.3045    27.5191    32.1503
     19  O    Isotropic =   291.2636   Anisotropy =    50.8837
   XX=   317.8655   YX=    18.3408   ZX=    -8.4460
   XY=    13.5301   YY=   276.8962   ZY=    -3.8223
   XZ=   -11.0713   YZ=     3.8413   ZZ=   279.0290
   Eigenvalues:   270.0591   278.5456   325.1860
     20  H    Isotropic =    30.0356   Anisotropy =    19.2395
   XX=    37.0280   YX=     8.2130   ZX=     3.3715
   XY=     7.2371   YY=    26.7608   ZY=     5.6601
   XZ=     3.3599   YZ=     3.9457   ZZ=    26.3178
   Eigenvalues:    20.9010    26.3438    42.8619
     21  O    Isotropic =   302.7694   Anisotropy =    30.5628
   XX=   299.7424   YX=    -8.7892   ZX=   -25.2587
   XY=    -3.3724   YY=   295.1293   ZY=    13.2424
   XZ=     1.1900   YZ=    -0.2050   ZZ=   313.4366
   Eigenvalues:   290.6858   294.4778   323.1447
     22  H    Isotropic =    30.1462   Anisotropy =    14.2720
   XX=    26.9649   YX=    -4.6288   ZX=    -2.1440
   XY=    -4.1931   YY=    25.8080   ZY=     4.1187
   XZ=    -1.0808   YZ=     4.1543   ZZ=    37.6655
   Eigenvalues:    21.6457    29.1320    39.6608
     23  C    Isotropic =   132.5323   Anisotropy =    72.5855
   XX=   166.1798   YX=    -9.3046   ZX=   -28.2519
   XY=    -0.3948   YY=   109.6916   ZY=    11.6398
   XZ=   -26.9386   YZ=    16.0485   ZZ=   121.7255
   Eigenvalues:    98.0522   118.6221   180.9226
     24  H    Isotropic =    27.7768   Anisotropy =     3.1110
   XX=    28.4266   YX=     1.2708   ZX=    -1.3954
   XY=     1.3453   YY=    25.8047   ZY=     1.8512
   XZ=     0.7291   YZ=     1.5296   ZZ=    29.0991
   Eigenvalues:    24.6225    28.8572    29.8508
     25  H    Isotropic =    27.9538   Anisotropy =     4.9215
   XX=    30.2160   YX=    -1.1128   ZX=    -0.7102
   XY=     0.9242   YY=    31.1344   ZY=    -0.1594
   XZ=    -2.0955   YZ=     1.4772   ZZ=    22.5109
   Eigenvalues:    22.2186    30.4081    31.2348
     26  O    Isotropic =   311.6069   Anisotropy =    35.6601
   XX=   312.3419   YX=    -4.3127   ZX=    -2.8335
   XY=   -21.7092   YY=   327.0766   ZY=     2.4768
   XZ=     4.4680   YZ=   -13.9118   ZZ=   295.4022
   Eigenvalues:   294.2444   305.1960   335.3803
     27  H    Isotropic =    30.2225   Anisotropy =    15.5525
   XX=    32.0047   YX=    -6.2465   ZX=    -1.2576
   XY=    -5.9017   YY=    35.3968   ZY=    -5.5629
   XZ=    -1.6268   YZ=    -4.3066   ZZ=    23.2660
   Eigenvalues:    20.3617    29.7150    40.5908
 End of Minotr Frequency-dependent properties file   721 does not exist.
 End of Minotr Frequency-dependent properties file   722 does not exist.

 **********************************************************************

            Population analysis using the SCF density.

 **********************************************************************

 Orbital symmetries:
       Occupied  (A) (A) (A) (A) (A) (A) (A) (A) (A) (A) (A) (A)
                 (A) (A) (A) (A) (A) (A) (A) (A) (A) (A) (A) (A)
                 (A) (A) (A) (A) (A) (A) (A) (A) (A) (A) (A) (A)
                 (A) (A) (A) (A) (A) (A) (A) (A) (A) (A) (A)
       Virtual   (A) (A) (A) (A) (A) (A) (A) (A) (A) (A) (A) (A)
                 (A) (A) (A) (A) (A) (A) (A) (A) (A) (A) (A) (A)
                 (A) (A) (A) (A) (A) (A) (A) (A) (A) (A) (A) (A)
                 (A) (A) (A) (A) (A) (A) (A) (A) (A) (A) (A) (A)
                 (A) (A) (A) (A) (A) (A) (A) (A) (A) (A) (A) (A)
                 (A) (A) (A) (A) (A) (A) (A) (A) (A) (A) (A) (A)
                 (A) (A) (A) (A) (A) (A) (A) (A) (A) (A) (A) (A)
                 (A) (A) (A) (A) (A) (A) (A) (A) (A) (A) (A) (A)
                 (A) (A) (A) (A) (A) (A) (A) (A) (A) (A) (A) (A)
                 (A) (A) (A) (A) (A) (A) (A) (A) (A) (A) (A) (A)
                 (A) (A) (A) (A) (A) (A) (A) (A) (A) (A) (A) (A)
                 (A) (A) (A) (A) (A) (A) (A) (A) (A) (A) (A) (A)
                 (A) (A) (A) (A) (A) (A) (A) (A) (A) (A) (A) (A)
                 (A) (A) (A) (A) (A) (A) (A) (A) (A) (A) (A) (A)
                 (A) (A) (A) (A) (A) (A) (A) (A) (A) (A) (A) (A)
                 (A) (A) (A) (A) (A) (A) (A) (A) (A) (A) (A) (A)
                 (A) (A) (A) (A) (A) (A) (A) (A) (A) (A) (A) (A)
                 (A) (A) (A) (A) (A) (A) (A) (A) (A) (A) (A) (A)
                 (A) (A) (A) (A) (A) (A) (A) (A) (A) (A) (A) (A)
                 (A) (A) (A) (A) (A) (A) (A) (A) (A) (A) (A) (A)
                 (A) (A) (A) (A) (A) (A) (A) (A) (A) (A) (A) (A)
                 (A) (A) (A) (A)
 The electronic state is 1-A.
 Alpha  occ. eigenvalues --  -19.26450 -19.26091 -19.25681 -14.41334 -10.30838
 Alpha  occ. eigenvalues --  -10.30585 -10.29468 -10.28006 -10.27883 -10.26933
 Alpha  occ. eigenvalues --  -10.24906 -10.24763  -1.07524  -1.06099  -1.05534
 Alpha  occ. eigenvalues --   -0.96383  -0.82915  -0.79273  -0.75052  -0.72461
 Alpha  occ. eigenvalues --   -0.67001  -0.61772  -0.60552  -0.58194  -0.55361
 Alpha  occ. eigenvalues --   -0.53259  -0.52771  -0.50530  -0.49261  -0.47128
 Alpha  occ. eigenvalues --   -0.45371  -0.45178  -0.43541  -0.42803  -0.40492
 Alpha  occ. eigenvalues --   -0.39288  -0.38734  -0.37982  -0.36600  -0.35850
 Alpha  occ. eigenvalues --   -0.35119  -0.34920  -0.33067  -0.31034  -0.29983
 Alpha  occ. eigenvalues --   -0.29563  -0.23158
 Alpha virt. eigenvalues --    0.00619   0.00793   0.01794   0.02420   0.03762
 Alpha virt. eigenvalues --    0.04108   0.04830   0.05091   0.05489   0.06456
 Alpha virt. eigenvalues --    0.07675   0.07764   0.08690   0.09383   0.09503
 Alpha virt. eigenvalues --    0.10278   0.11575   0.11659   0.12166   0.12293
 Alpha virt. eigenvalues --    0.13524   0.13644   0.13798   0.14662   0.15202
 Alpha virt. eigenvalues --    0.15884   0.16871   0.17342   0.18197   0.18836
 Alpha virt. eigenvalues --    0.19040   0.19887   0.20080   0.20835   0.21192
 Alpha virt. eigenvalues --    0.21492   0.21711   0.22246   0.23064   0.23367
 Alpha virt. eigenvalues --    0.23901   0.24182   0.24882   0.24941   0.25595
 Alpha virt. eigenvalues --    0.26042   0.27079   0.27904   0.28338   0.28936
 Alpha virt. eigenvalues --    0.29311   0.29542   0.31007   0.31112   0.31960
 Alpha virt. eigenvalues --    0.32530   0.32735   0.33812   0.34293   0.34513
 Alpha virt. eigenvalues --    0.34865   0.34983   0.35899   0.37643   0.37792
 Alpha virt. eigenvalues --    0.38750   0.39716   0.40044   0.40660   0.41201
 Alpha virt. eigenvalues --    0.41597   0.43033   0.44039   0.44902   0.45252
 Alpha virt. eigenvalues --    0.49819   0.64174   0.65432   0.67071   0.68532
 Alpha virt. eigenvalues --    0.68894   0.71747   0.72101   0.72388   0.73180
 Alpha virt. eigenvalues --    0.75224   0.75886   0.77459   0.78759   0.80913
 Alpha virt. eigenvalues --    0.82579   0.83966   0.87217   0.88038   0.89910
 Alpha virt. eigenvalues --    0.90288   0.92375   0.94147   0.94608   0.95810
 Alpha virt. eigenvalues --    0.98492   0.99446   1.01714   1.02393   1.04575
 Alpha virt. eigenvalues --    1.04908   1.05734   1.06994   1.09265   1.10122
 Alpha virt. eigenvalues --    1.10701   1.11955   1.13178   1.14034   1.15509
 Alpha virt. eigenvalues --    1.16853   1.19305   1.19929   1.22667   1.24073
 Alpha virt. eigenvalues --    1.26041   1.27729   1.29449   1.30995   1.32478
 Alpha virt. eigenvalues --    1.35487   1.37739   1.38805   1.40151   1.41194
 Alpha virt. eigenvalues --    1.43340   1.44688   1.47116   1.47717   1.51282
 Alpha virt. eigenvalues --    1.52472   1.53490   1.57163   1.58839   1.60548
 Alpha virt. eigenvalues --    1.62888   1.64157   1.66043   1.69069   1.70767
 Alpha virt. eigenvalues --    1.72461   1.73731   1.75705   1.76174   1.78587
 Alpha virt. eigenvalues --    1.80587   1.82281   1.84285   1.85614   1.87685
 Alpha virt. eigenvalues --    1.88150   1.89311   1.91392   1.93935   1.95481
 Alpha virt. eigenvalues --    1.98626   1.99821   2.01475   2.02302   2.03347
 Alpha virt. eigenvalues --    2.05569   2.06934   2.07436   2.09863   2.10758
 Alpha virt. eigenvalues --    2.12750   2.14211   2.15838   2.17183   2.18873
 Alpha virt. eigenvalues --    2.21810   2.22356   2.24031   2.26649   2.27913
 Alpha virt. eigenvalues --    2.30959   2.32325   2.34882   2.38442   2.39866
 Alpha virt. eigenvalues --    2.40749   2.42058   2.44266   2.44740   2.47891
 Alpha virt. eigenvalues --    2.49030   2.49730   2.51725   2.52276   2.54372
 Alpha virt. eigenvalues --    2.55857   2.56545   2.58531   2.61337   2.63127
 Alpha virt. eigenvalues --    2.64008   2.64783   2.66849   2.68557   2.70066
 Alpha virt. eigenvalues --    2.71498   2.74158   2.75459   2.77262   2.77821
 Alpha virt. eigenvalues --    2.79819   2.80619   2.81950   2.84112   2.85194
 Alpha virt. eigenvalues --    2.86172   2.88155   2.91123   2.92498   2.94491
 Alpha virt. eigenvalues --    2.97203   3.00134   3.00235   3.02562   3.03775
 Alpha virt. eigenvalues --    3.05615   3.09055   3.12926   3.17699   3.32095
 Alpha virt. eigenvalues --    3.35494   3.36268   3.36741   3.42874   3.44771
 Alpha virt. eigenvalues --    3.46966   3.50114   3.51992   3.54136   3.55780
 Alpha virt. eigenvalues --    3.57780   3.58142   3.59303   3.61240   4.30911
 Alpha virt. eigenvalues --    4.33557   4.37536   4.41348   4.50021   4.56865
 Alpha virt. eigenvalues --    4.58436   4.70349   4.77409   4.80043   4.88928
 Alpha virt. eigenvalues --    4.98199
          Condensed to atoms (all electrons):
              1          2          3          4          5          6
     1  C    6.077779  -0.854411   0.112373  -0.288647   0.289529   0.171637
     2  C   -0.854411   8.539909  -0.253961  -0.218735   0.182176  -0.524451
     3  N    0.112373  -0.253961   7.466621   0.235005  -0.178223  -0.026032
     4  C   -0.288647  -0.218735   0.235005   5.785117  -0.080228  -0.226698
     5  C    0.289529   0.182176  -0.178223  -0.080228   5.786202   0.020057
     6  C    0.171637  -0.524451  -0.026032  -0.226698   0.020057   8.794440
     7  C   -0.218950   0.541210  -0.164128   0.087060  -0.111747  -1.617401
     8  C    0.220450  -1.123311  -0.028313   0.138309  -0.097154   0.397863
     9  H    0.396201  -0.081006   0.012308   0.026092  -0.034218   0.006712
    10  H    0.481498  -0.203249   0.029146   0.028883  -0.070809  -0.001142
    11  H    0.064990   0.132219  -0.010177   0.016740  -0.031663   0.020799
    12  H    0.034920   0.003378  -0.050109   0.377824  -0.032850  -0.000837
    13  H   -0.001072  -0.003248  -0.092893   0.443549  -0.032537  -0.002299
    14  H   -0.024172  -0.049984   0.016106  -0.028800   0.399804   0.006502
    15  H   -0.070923   0.054446   0.005801  -0.014095   0.370517  -0.005050
    16  H   -0.012555   0.031403  -0.056146   0.027908   0.002930   0.265816
    17  H    0.009266   0.014524   0.019167   0.000077   0.002754  -0.013621
    18  H   -0.008149  -0.042846   0.014907   0.004150  -0.004793   0.010396
    19  O    0.015701  -0.121005   0.030710   0.039047  -0.043272  -0.033777
    20  H    0.016387  -0.081220  -0.001263   0.001582  -0.006913  -0.001845
    21  O    0.013716  -0.005621   0.043298   0.010550  -0.001357  -0.184195
    22  H    0.008826   0.021597   0.023260   0.004108   0.001999  -0.049746
    23  C    0.017669   0.022267   0.001661  -0.138133   0.032092  -0.731515
    24  H    0.001172  -0.007465   0.020498   0.011207  -0.003050  -0.058622
    25  H   -0.001625   0.005926  -0.011961  -0.002764   0.007537  -0.080989
    26  O    0.001107   0.011349  -0.000217   0.001908  -0.000289   0.006595
    27  H   -0.000353   0.001615  -0.002406  -0.000373   0.000509  -0.042806
              7          8          9         10         11         12
     1  C   -0.218950   0.220450   0.396201   0.481498   0.064990   0.034920
     2  C    0.541210  -1.123311  -0.081006  -0.203249   0.132219   0.003378
     3  N   -0.164128  -0.028313   0.012308   0.029146  -0.010177  -0.050109
     4  C    0.087060   0.138309   0.026092   0.028883   0.016740   0.377824
     5  C   -0.111747  -0.097154  -0.034218  -0.070809  -0.031663  -0.032850
     6  C   -1.617401   0.397863   0.006712  -0.001142   0.020799  -0.000837
     7  C    7.687399  -0.633130  -0.011965  -0.014949  -0.036844  -0.002641
     8  C   -0.633130   6.511491   0.029402   0.058570   0.092454  -0.007126
     9  H   -0.011965   0.029402   0.511957  -0.025316  -0.004661  -0.000102
    10  H   -0.014949   0.058570  -0.025316   0.542523   0.004367  -0.000031
    11  H   -0.036844   0.092454  -0.004661   0.004367   0.568474   0.000165
    12  H   -0.002641  -0.007126  -0.000102  -0.000031   0.000165   0.544181
    13  H    0.006445   0.006385  -0.000159   0.001375  -0.000505  -0.043020
    14  H   -0.004332   0.014398  -0.005147   0.004210   0.000735  -0.005783
    15  H    0.003721  -0.004278   0.000603  -0.005713  -0.000104   0.000612
    16  H    0.063805  -0.025845  -0.000007  -0.000063  -0.000598  -0.001200
    17  H    0.324334  -0.002300   0.000002  -0.000020  -0.000122   0.000004
    18  H    0.014146   0.326163   0.000227   0.000285  -0.001343   0.000005
    19  O    0.027420   0.126340  -0.001010   0.008162   0.006229   0.000094
    20  H   -0.010089   0.095349   0.000023   0.004115   0.000243  -0.000001
    21  O    0.372237  -0.135070  -0.000014   0.000094   0.001234   0.000055
    22  H    0.025092  -0.032416   0.000004  -0.000002  -0.000763   0.000002
    23  C    0.051350  -0.117232   0.000430  -0.001835   0.009284   0.015874
    24  H   -0.020509   0.000025   0.000000   0.000000  -0.000057   0.000077
    25  H    0.005509  -0.003924   0.000000   0.000001   0.000011  -0.000257
    26  O   -0.012692  -0.000215  -0.000001  -0.000005  -0.000034  -0.000002
    27  H    0.013062   0.008894   0.000000   0.000000   0.000001  -0.000001
             13         14         15         16         17         18
     1  C   -0.001072  -0.024172  -0.070923  -0.012555   0.009266  -0.008149
     2  C   -0.003248  -0.049984   0.054446   0.031403   0.014524  -0.042846
     3  N   -0.092893   0.016106   0.005801  -0.056146   0.019167   0.014907
     4  C    0.443549  -0.028800  -0.014095   0.027908   0.000077   0.004150
     5  C   -0.032537   0.399804   0.370517   0.002930   0.002754  -0.004793
     6  C   -0.002299   0.006502  -0.005050   0.265816  -0.013621   0.010396
     7  C    0.006445  -0.004332   0.003721   0.063805   0.324334   0.014146
     8  C    0.006385   0.014398  -0.004278  -0.025845  -0.002300   0.326163
     9  H   -0.000159  -0.005147   0.000603  -0.000007   0.000002   0.000227
    10  H    0.001375   0.004210  -0.005713  -0.000063  -0.000020   0.000285
    11  H   -0.000505   0.000735  -0.000104  -0.000598  -0.000122  -0.001343
    12  H   -0.043020  -0.005783   0.000612  -0.001200   0.000004   0.000005
    13  H    0.582408   0.004058  -0.004442   0.013306  -0.000033  -0.000023
    14  H    0.004058   0.518972  -0.024563  -0.000008   0.000000  -0.000001
    15  H   -0.004442  -0.024563   0.514863  -0.000008   0.000000   0.000002
    16  H    0.013306  -0.000008  -0.000008   0.569475  -0.003319  -0.000202
    17  H   -0.000033   0.000000   0.000000  -0.003319   0.519809  -0.002434
    18  H   -0.000023  -0.000001   0.000002  -0.000202  -0.002434   0.552928
    19  O    0.000899   0.000075   0.000272   0.001887  -0.001830  -0.036080
    20  H    0.000047   0.000002   0.000005  -0.000009   0.000056  -0.006437
    21  O   -0.000004   0.000024   0.000004   0.007866  -0.049452  -0.004360
    22  H   -0.000002  -0.000002   0.000000   0.000010   0.005948  -0.000848
    23  C   -0.027049  -0.001574   0.000480  -0.057025  -0.011318   0.009509
    24  H    0.000015  -0.000001   0.000000   0.004504   0.000161  -0.000006
    25  H    0.000053   0.000004   0.000000  -0.006044  -0.000086   0.000003
    26  O    0.000109  -0.000002  -0.000001   0.005840   0.000152  -0.000047
    27  H    0.000000   0.000000   0.000000  -0.000607  -0.000602   0.000003
             19         20         21         22         23         24
     1  C    0.015701   0.016387   0.013716   0.008826   0.017669   0.001172
     2  C   -0.121005  -0.081220  -0.005621   0.021597   0.022267  -0.007465
     3  N    0.030710  -0.001263   0.043298   0.023260   0.001661   0.020498
     4  C    0.039047   0.001582   0.010550   0.004108  -0.138133   0.011207
     5  C   -0.043272  -0.006913  -0.001357   0.001999   0.032092  -0.003050
     6  C   -0.033777  -0.001845  -0.184195  -0.049746  -0.731515  -0.058622
     7  C    0.027420  -0.010089   0.372237   0.025092   0.051350  -0.020509
     8  C    0.126340   0.095349  -0.135070  -0.032416  -0.117232   0.000025
     9  H   -0.001010   0.000023  -0.000014   0.000004   0.000430   0.000000
    10  H    0.008162   0.004115   0.000094  -0.000002  -0.001835   0.000000
    11  H    0.006229   0.000243   0.001234  -0.000763   0.009284  -0.000057
    12  H    0.000094  -0.000001   0.000055   0.000002   0.015874   0.000077
    13  H    0.000899   0.000047  -0.000004  -0.000002  -0.027049   0.000015
    14  H    0.000075   0.000002   0.000024  -0.000002  -0.001574  -0.000001
    15  H    0.000272   0.000005   0.000004   0.000000   0.000480   0.000000
    16  H    0.001887  -0.000009   0.007866   0.000010  -0.057025   0.004504
    17  H   -0.001830   0.000056  -0.049452   0.005948  -0.011318   0.000161
    18  H   -0.036080  -0.006437  -0.004360  -0.000848   0.009509  -0.000006
    19  O    8.276808   0.238832   0.006846  -0.000367   0.033170   0.000062
    20  H    0.238832   0.372417  -0.000232   0.000001  -0.005868   0.000000
    21  O    0.006846  -0.000232   8.177658   0.263986   0.003698   0.006818
    22  H   -0.000367   0.000001   0.263986   0.353218  -0.008227   0.000280
    23  C    0.033170  -0.005868   0.003698  -0.008227   5.961610   0.405540
    24  H    0.000062   0.000000   0.006818   0.000280   0.405540   0.562441
    25  H   -0.000030   0.000000  -0.001158   0.000019   0.471909  -0.035030
    26  O    0.000138  -0.000005  -0.011260   0.000083   0.125101  -0.040973
    27  H   -0.000070   0.000000   0.002581  -0.000049   0.013597  -0.008028
             25         26         27
     1  C   -0.001625   0.001107  -0.000353
     2  C    0.005926   0.011349   0.001615
     3  N   -0.011961  -0.000217  -0.002406
     4  C   -0.002764   0.001908  -0.000373
     5  C    0.007537  -0.000289   0.000509
     6  C   -0.080989   0.006595  -0.042806
     7  C    0.005509  -0.012692   0.013062
     8  C   -0.003924  -0.000215   0.008894
     9  H    0.000000  -0.000001   0.000000
    10  H    0.000001  -0.000005   0.000000
    11  H    0.000011  -0.000034   0.000001
    12  H   -0.000257  -0.000002  -0.000001
    13  H    0.000053   0.000109   0.000000
    14  H    0.000004  -0.000002   0.000000
    15  H    0.000000  -0.000001   0.000000
    16  H   -0.006044   0.005840  -0.000607
    17  H   -0.000086   0.000152  -0.000602
    18  H    0.000003  -0.000047   0.000003
    19  O   -0.000030   0.000138  -0.000070
    20  H    0.000000  -0.000005   0.000000
    21  O   -0.001158  -0.011260   0.002581
    22  H    0.000019   0.000083  -0.000049
    23  C    0.471909   0.125101   0.013597
    24  H   -0.035030  -0.040973  -0.008028
    25  H    0.536685  -0.057349   0.006278
    26  O   -0.057349   8.248328   0.260203
    27  H    0.006278   0.260203   0.367429
 Mulliken atomic charges:
              1
     1  C   -0.452365
     2  C    0.008494
     3  N   -0.155029
     4  C   -0.240643
     5  C   -0.367002
     6  C   -0.099793
     7  C   -0.363411
     8  C    0.184223
     9  H    0.179647
    10  H    0.159904
    11  H    0.168924
    12  H    0.166771
    13  H    0.148637
    14  H    0.179478
    15  H    0.177853
    16  H    0.168890
    17  H    0.188884
    18  H    0.174847
    19  O   -0.575248
    20  H    0.384826
    21  O   -0.517941
    22  H    0.383988
    23  C   -0.075465
    24  H    0.160943
    25  H    0.167283
    26  O   -0.537819
    27  H    0.381124
 Sum of Mulliken atomic charges =   0.00000
 Mulliken charges with hydrogens summed into heavy atoms:
              1
     1  C   -0.112814
     2  C    0.177418
     3  N   -0.155029
     4  C    0.074765
     5  C   -0.009671
     6  C    0.069096
     7  C   -0.174527
     8  C    0.359070
    19  O   -0.190422
    21  O   -0.133953
    23  C    0.252760
    26  O   -0.156696
 Sum of Mulliken charges with hydrogens summed into heavy atoms =   0.00000
 Electronic spatial extent (au):  <R**2>=           2069.4495
 Charge=              0.0000 electrons
 Dipole moment (field-independent basis, Debye):
    X=              4.9644    Y=              1.0678    Z=             -1.7175  Tot=              5.3605
 Quadrupole moment (field-independent basis, Debye-Ang):
   XX=            -74.8433   YY=            -73.0618   ZZ=            -75.4090
   XY=              0.1579   XZ=              3.4756   YZ=              0.7400
 Traceless Quadrupole moment (field-independent basis, Debye-Ang):
   XX=             -0.4052   YY=              1.3762   ZZ=             -0.9710
   XY=              0.1579   XZ=              3.4756   YZ=              0.7400
 Octapole moment (field-independent basis, Debye-Ang**2):
  XXX=             30.9905  YYY=              6.4295  ZZZ=            -13.2564  XYY=             20.4060
  XXY=             27.5736  XXZ=             -3.7285  XZZ=              3.8858  YZZ=              2.1926
  YYZ=              4.7719  XYZ=             -8.9009
 Hexadecapole moment (field-independent basis, Debye-Ang**3):
 XXXX=          -1593.3173 YYYY=           -771.1116 ZZZZ=           -300.6357 XXXY=            -63.5040
 XXXZ=             46.0188 YYYX=             38.9387 YYYZ=             13.4422 ZZZX=             21.8961
 ZZZY=             -6.7860 XXYY=           -405.4738 XXZZ=           -315.9532 YYZZ=           -197.8153
 XXYZ=             47.3691 YYXZ=              8.7070 ZZXY=              8.2984
 N-N= 8.056915000783D+02 E-N=-2.997096183537D+03  KE= 5.886528174506D+02
 1\1\GINC-COMPUTE-3-2\SP\RmPW1PW91\6-31+G(d,p)\C8H15N1O3\MAMICHETTI.IQU
 IR\17-May-2024\0\\# mpw1pw91/6-31+G** nmr scrf=(pcm,solvent=water)\\co
 mment\\0,1\C,0,-2.602189,0.178463,0.203215\C,0,-1.165813,0.476985,0.66
 4576\N,0,-0.374979,-0.775254,0.401489\C,0,-1.250399,-1.733608,-0.29639
 6\C,0,-2.658633,-1.3596,0.171648\C,0,0.866467,-0.414916,-0.306929\C,0,
 1.059317,1.086905,-0.012367\C,0,-0.386498,1.616524,-0.028541\H,0,-3.35
 2204,0.624827,0.862686\H,0,-2.767956,0.565651,-0.807656\H,0,-1.15698,0
 .683834,1.743763\H,0,-0.984139,-2.76847,-0.051929\H,0,-1.171157,-1.624
 514,-1.392287\H,0,-2.84379,-1.759916,1.1757\H,0,-3.436311,-1.74727,-0.
 493807\H,0,0.73879,-0.518774,-1.397846\H,0,1.665101,1.578489,-0.776605
 \H,0,-0.469042,2.564727,0.515505\O,0,-0.731069,1.800078,-1.405848\H,0,
 -1.608576,2.215161,-1.433945\O,0,1.719593,1.35695,1.227489\H,0,1.26683
 4,0.863736,1.932344\C,0,2.03981,-1.303088,0.107893\H,0,2.215062,-1.218
 693,1.188119\H,0,1.799201,-2.348675,-0.109723\O,0,3.231967,-1.009644,-
 0.630019\H,0,3.553736,-0.148395,-0.316303\\Version=AM64L-G09RevC.01\St
 ate=1-A\HF=-594.1957542\RMSD=4.839e-09\Dipole=-1.9531289,0.4200942,0.6
 757306\Quadrupole=-0.3012737,1.0231925,-0.7219188,-0.1173776,2.5840339
 ,-0.5502023\PG=C01 [X(C8H15N1O3)]\\@


 ALL PAPERS THAT YOU SAVE WILL NEVER BE NEEDED UNTIL
 SUCH TIME AS THEY ARE DISPOSED OF, WHEN THEY BECOME
 ESSENTIAL.

           -- JOHN CORCORAN IN
              PAUL DICKSON'S "THE OFFICIAL RULES"
 Job cpu time:  0 days  0 hours  8 minutes 35.3 seconds.
 File lengths (MBytes):  RWF=    113 Int=      0 D2E=      0 Chk=      7 Scr=      1
 Normal termination of Gaussian 09 at Fri May 17 12:13:55 2024.
