 Entering Gaussian System, Link 0=g09
 Input=/home/mamichetti.iquir/Linux/04_Cardona_A1A3_R__S_R_S_010_OptB.gjc
 Output=/home/mamichetti.iquir/Linux/04_Cardona_A1A3_R__S_R_S_010_OptB.log
 Initial command:
 /opt/ohpc/pub/apps/software/Gaussian/09/AMD64.SSE4a-enabled/g09/l1.exe /local/mamichetti.iquir/Gau-409810.inp -scrdir=/local/mamichetti.iquir/
 Entering Link 1 = /opt/ohpc/pub/apps/software/Gaussian/09/AMD64.SSE4a-enabled/g09/l1.exe PID=    409811.
  
 Copyright (c) 1988,1990,1992,1993,1995,1998,2003,2009,2011,
            Gaussian, Inc.  All Rights Reserved.
  
 This is part of the Gaussian(R) 09 program.  It is based on
 the Gaussian(R) 03 system (copyright 2003, Gaussian, Inc.),
 the Gaussian(R) 98 system (copyright 1998, Gaussian, Inc.),
 the Gaussian(R) 94 system (copyright 1995, Gaussian, Inc.),
 the Gaussian 92(TM) system (copyright 1992, Gaussian, Inc.),
 the Gaussian 90(TM) system (copyright 1990, Gaussian, Inc.),
 the Gaussian 88(TM) system (copyright 1988, Gaussian, Inc.),
 the Gaussian 86(TM) system (copyright 1986, Carnegie Mellon
 University), and the Gaussian 82(TM) system (copyright 1983,
 Carnegie Mellon University). Gaussian is a federally registered
 trademark of Gaussian, Inc.
  
 This software contains proprietary and confidential information,
 including trade secrets, belonging to Gaussian, Inc.
  
 This software is provided under written license and may be
 used, copied, transmitted, or stored only in accord with that
 written license.
  
 The following legend is applicable only to US Government
 contracts under FAR:
  
                    RESTRICTED RIGHTS LEGEND
  
 Use, reproduction and disclosure by the US Government is
 subject to restrictions as set forth in subparagraphs (a)
 and (c) of the Commercial Computer Software - Restricted
 Rights clause in FAR 52.227-19.
  
 Gaussian, Inc.
 340 Quinnipiac St., Bldg. 40, Wallingford CT 06492
  
  
 ---------------------------------------------------------------
 Warning -- This program may not be used in any manner that
 competes with the business of Gaussian, Inc. or will provide
 assistance to any competitor of Gaussian, Inc.  The licensee
 of this program is prohibited from giving any competitor of
 Gaussian, Inc. access to this program.  By using this program,
 the user acknowledges that Gaussian, Inc. is engaged in the
 business of creating and licensing software in the field of
 computational chemistry and represents and warrants to the
 licensee that it is not a competitor of Gaussian, Inc. and that
 it will not use this program in any manner prohibited above.
 ---------------------------------------------------------------
  

 Cite this work as:
 Gaussian 09, Revision C.01,
 M. J. Frisch, G. W. Trucks, H. B. Schlegel, G. E. Scuseria, 
 M. A. Robb, J. R. Cheeseman, G. Scalmani, V. Barone, B. Mennucci, 
 G. A. Petersson, H. Nakatsuji, M. Caricato, X. Li, H. P. Hratchian, 
 A. F. Izmaylov, J. Bloino, G. Zheng, J. L. Sonnenberg, M. Hada, 
 M. Ehara, K. Toyota, R. Fukuda, J. Hasegawa, M. Ishida, T. Nakajima, 
 Y. Honda, O. Kitao, H. Nakai, T. Vreven, J. A. Montgomery, Jr., 
 J. E. Peralta, F. Ogliaro, M. Bearpark, J. J. Heyd, E. Brothers, 
 K. N. Kudin, V. N. Staroverov, T. Keith, R. Kobayashi, J. Normand, 
 K. Raghavachari, A. Rendell, J. C. Burant, S. S. Iyengar, J. Tomasi, 
 M. Cossi, N. Rega, J. M. Millam, M. Klene, J. E. Knox, J. B. Cross, 
 V. Bakken, C. Adamo, J. Jaramillo, R. Gomperts, R. E. Stratmann, 
 O. Yazyev, A. J. Austin, R. Cammi, C. Pomelli, J. W. Ochterski, 
 R. L. Martin, K. Morokuma, V. G. Zakrzewski, G. A. Voth, 
 P. Salvador, J. J. Dannenberg, S. Dapprich, A. D. Daniels, 
 O. Farkas, J. B. Foresman, J. V. Ortiz, J. Cioslowski, 
 and D. J. Fox, Gaussian, Inc., Wallingford CT, 2010.
 
 ******************************************
 Gaussian 09:  AM64L-G09RevC.01 23-Sep-2011
                17-May-2024 
 ******************************************
 %nprocshared=4
 Will use up to    4 processors via shared memory.
 ------------------------------------------------
 # mpw1pw91/6-31+G** nmr scrf=(pcm,solvent=water)
 ------------------------------------------------
 1/38=1/1;
 2/12=2,17=6,18=5,40=1/2;
 3/5=1,6=6,7=111,11=2,16=1,25=1,30=1,70=2201,72=1,74=-7/1,2,8,3;
 4//1;
 5/5=2,38=5,53=1/2;
 8/6=1,10=90,11=11/1;
 10/13=100,45=16/2;
 6/7=2,8=2,9=2,10=2,28=1/1;
 99/9=1/99;
 -------
 comment
 -------
 Charge =  0 Multiplicity = 1
 Symbolic Z-Matrix:
 6                     2.3275   -0.47569   0.13886 
 6                     1.26764   0.00166  -0.87057 
 7                     0.11175  -0.95102  -0.74157 
 6                     0.42053  -1.87891   0.37615 
 6                     1.94663  -1.94475   0.37289 
 6                    -1.10898  -0.1192   -0.61561 
 6                    -0.67354   1.20485   0.0244 
 6                     0.68612   1.434    -0.65698 
 1                     3.34767  -0.34338  -0.23466 
 1                     2.23915   0.08246   1.07646 
 1                     1.6709   -0.06052  -1.88806 
 1                    -0.04875  -2.85437   0.20576 
 1                     0.07665  -1.50887   1.35056 
 1                     2.30089  -2.57191  -0.45419 
 1                     2.349    -2.35178   1.30585 
 1                    -1.44128   0.13978  -1.63234 
 1                    -1.37952   2.0181   -0.18932 
 1                     0.5153    1.90339  -1.63407 
 8                     1.46016   2.31044   0.16403 
 1                     2.38944   2.24767  -0.11196 
 8                    -0.50561   1.06527   1.43813 
 1                     0.25103   1.63837   1.66413 
 6                    -2.28583  -0.82571   0.04415 
 1                    -2.44728  -1.79923  -0.43991 
 1                    -2.09916  -1.00515   1.10887 
 8                    -3.43213   0.01802  -0.12309 
 1                    -4.16611  -0.40475   0.35168 
 
                          Input orientation:                          
 ---------------------------------------------------------------------
 Center     Atomic      Atomic             Coordinates (Angstroms)
 Number     Number       Type             X           Y           Z
 ---------------------------------------------------------------------
      1          6           0        2.327505   -0.475688    0.138863
      2          6           0        1.267642    0.001664   -0.870573
      3          7           0        0.111750   -0.951017   -0.741574
      4          6           0        0.420531   -1.878912    0.376145
      5          6           0        1.946627   -1.944748    0.372887
      6          6           0       -1.108980   -0.119195   -0.615607
      7          6           0       -0.673541    1.204848    0.024399
      8          6           0        0.686117    1.433996   -0.656983
      9          1           0        3.347674   -0.343378   -0.234661
     10          1           0        2.239147    0.082458    1.076463
     11          1           0        1.670902   -0.060523   -1.888059
     12          1           0       -0.048750   -2.854370    0.205757
     13          1           0        0.076653   -1.508868    1.350561
     14          1           0        2.300888   -2.571911   -0.454188
     15          1           0        2.349000   -2.351779    1.305846
     16          1           0       -1.441279    0.139783   -1.632337
     17          1           0       -1.379515    2.018102   -0.189315
     18          1           0        0.515298    1.903390   -1.634074
     19          8           0        1.460160    2.310436    0.164034
     20          1           0        2.389440    2.247671   -0.111961
     21          8           0       -0.505611    1.065265    1.438128
     22          1           0        0.251032    1.638368    1.664131
     23          6           0       -2.285827   -0.825712    0.044148
     24          1           0       -2.447284   -1.799228   -0.439912
     25          1           0       -2.099159   -1.005147    1.108870
     26          8           0       -3.432128    0.018021   -0.123093
     27          1           0       -4.166106   -0.404749    0.351675
 ---------------------------------------------------------------------
                    Distance matrix (angstroms):
                    1          2          3          4          5
     1  C    0.000000
     2  C    1.539524   0.000000
     3  N    2.431188   1.503439   0.000000
     4  C    2.379473   2.410077   1.485137   0.000000
     5  C    1.535569   2.407433   2.365650   1.527519   0.000000
     6  C    3.536346   2.393313   1.482558   2.533689   3.694117
     7  C    3.441450   2.452920   2.418915   3.290941   4.111773
     8  C    2.640912   1.560566   2.454657   3.480409   3.750390
     9  H    1.094427   2.202265   3.331275   3.361416   2.212789
    10  H    1.094727   2.177452   2.983144   2.764920   2.165676
    11  H    2.170692   1.096250   2.130343   3.161738   2.956045
    12  H    3.362914   3.323899   2.132123   1.095799   2.199289
    13  H    2.757174   2.938298   2.165516   1.097575   2.154679
    14  H    2.178662   2.804329   2.739017   2.169203   1.096762
    15  H    2.209531   3.383021   3.340561   2.192473   1.094528
    16  H    4.209476   2.817377   2.096474   3.402274   4.454672
    17  H    4.479809   3.396701   3.368164   4.329738   5.204178
    18  H    3.476696   2.183006   3.017788   4.284363   4.569985
    19  O    2.918117   2.537302   3.643544   4.321627   4.287990
    20  H    2.735586   2.622684   3.976920   4.598210   4.243529
    21  O    3.476949   3.099318   3.032759   3.264004   4.025964
    22  H    3.332779   3.183869   3.537192   3.749519   4.169061
    23  C    4.627561   3.761437   2.526150   2.922982   4.390214
    24  H    4.988522   4.150826   2.712769   2.982727   4.470825
    25  H    4.562521   4.033263   2.883607   2.765717   4.218164
    26  O    5.786687   4.758869   3.725671   4.323260   5.747127
    27  H    6.497485   5.584324   4.449006   4.817779   6.303773
                    6          7          8          9         10
     6  C    0.000000
     7  C    1.533722   0.000000
     8  C    2.374129   1.538005   0.000000
     9  H    4.478520   4.316745   3.228204   0.000000
    10  H    3.756823   3.293987   2.691355   1.768959   0.000000
    11  H    3.057829   3.279493   2.172311   2.371771   3.021876
    12  H    3.046294   4.111022   4.435587   4.246733   3.823292
    13  H    2.683791   3.112194   3.614157   3.817181   2.698857
    14  H    4.203459   4.831168   4.323876   2.471905   3.064699
    15  H    4.542471   4.840192   4.577114   2.721063   2.447487
    16  H    1.100560   2.113897   2.674344   5.012087   4.570166
    17  H    2.196122   1.097932   2.196982   5.284407   4.294604
    18  H    2.786827   2.156811   1.097368   3.876684   3.692487
    19  O    3.620970   2.407177   1.428761   3.280914   2.530461
    20  H    4.253781   3.238507   1.964796   2.765285   2.474487
    21  O    2.446391   1.430494   2.438374   4.430610   2.937756
    22  H    3.183687   1.931708   2.370366   4.137864   2.592067
    23  C    1.522962   2.592881   3.798726   5.660982   4.729253
    24  H    2.155096   3.519406   4.507667   5.978559   5.272833
    25  H    2.176967   2.844739   4.101880   5.648983   4.472676
    26  O    2.378742   3.006678   4.387478   6.790344   5.797107
    27  H    3.219192   3.859524   5.286061   7.536872   6.464515
                   11         12         13         14         15
    11  H    0.000000
    12  H    3.891895   0.000000
    13  H    3.889472   1.771067   0.000000
    14  H    2.959719   2.456849   3.055225   0.000000
    15  H    3.988822   2.685516   2.424058   1.774399   0.000000
    16  H    3.129087   3.779243   3.730931   4.769186   5.404352
    17  H    4.063429   5.066360   4.114749   5.889291   5.935755
    18  H    2.292789   5.132193   4.554554   4.960724   5.487445
    19  O    3.142761   5.380871   4.231905   4.992628   4.881600
    20  H    2.999763   5.663615   4.647530   4.832528   4.813185
    21  O    4.131359   4.134126   2.640617   4.968536   4.454491
    22  H    4.185728   4.733014   3.167622   5.139614   4.522290
    23  C    4.469300   3.024249   2.784731   4.933103   5.040078
    24  H    4.698902   2.698736   3.108112   4.810653   5.133938
    25  H    4.907877   2.905067   2.246399   4.925273   4.651702
    26  O    5.400203   4.450395   4.100560   6.299591   6.409310
    27  H    6.261435   4.793178   4.496427   6.867898   6.866438
                   16         17         18         19         20
    16  H    0.000000
    17  H    2.369432   0.000000
    18  H    2.634104   2.385541   0.000000
    19  O    4.044383   2.876468   2.071628   0.000000
    20  H    4.629162   3.776732   2.438804   0.971429   0.000000
    21  O    3.340621   2.078504   3.344119   2.652927   3.490298
    22  H    3.997046   2.497628   3.319372   2.040578   2.845794
    23  C    2.110934   2.993858   4.255670   4.886943   5.597158
    24  H    2.488712   3.971768   4.890020   5.702825   6.314970
    25  H    3.042678   3.367968   4.776894   4.955256   5.676158
    26  O    2.501224   2.866693   4.628159   5.410369   6.233949
    27  H    3.414308   3.732019   5.584465   6.249985   7.086993
                   21         22         23         24         25
    21  O    0.000000
    22  H    0.975722   0.000000
    23  C    2.947566   3.889947   0.000000
    24  H    3.937315   4.850255   1.099143   0.000000
    25  H    2.633327   3.580487   1.095753   1.774960   0.000000
    26  O    3.478309   4.402881   1.433130   2.091097   2.083606
    27  H    4.091521   5.040632   1.951213   2.350645   2.281686
                   26         27
    26  O    0.000000
    27  H    0.971011   0.000000
 Stoichiometry    C8H15NO3
 Framework group  C1[X(C8H15NO3)]
 Deg. of freedom    75
 Full point group                 C1      NOp   1
 Largest Abelian subgroup         C1      NOp   1
 Largest concise Abelian subgroup C1      NOp   1
                         Standard orientation:                         
 ---------------------------------------------------------------------
 Center     Atomic      Atomic             Coordinates (Angstroms)
 Number     Number       Type             X           Y           Z
 ---------------------------------------------------------------------
      1          6           0        2.327505   -0.475688    0.138863
      2          6           0        1.267642    0.001664   -0.870573
      3          7           0        0.111750   -0.951017   -0.741574
      4          6           0        0.420531   -1.878912    0.376145
      5          6           0        1.946627   -1.944748    0.372887
      6          6           0       -1.108980   -0.119195   -0.615607
      7          6           0       -0.673541    1.204848    0.024399
      8          6           0        0.686117    1.433996   -0.656983
      9          1           0        3.347674   -0.343378   -0.234661
     10          1           0        2.239147    0.082458    1.076463
     11          1           0        1.670902   -0.060523   -1.888059
     12          1           0       -0.048750   -2.854370    0.205757
     13          1           0        0.076653   -1.508868    1.350561
     14          1           0        2.300888   -2.571911   -0.454188
     15          1           0        2.349000   -2.351779    1.305846
     16          1           0       -1.441279    0.139783   -1.632337
     17          1           0       -1.379515    2.018102   -0.189315
     18          1           0        0.515298    1.903390   -1.634074
     19          8           0        1.460160    2.310436    0.164034
     20          1           0        2.389440    2.247671   -0.111961
     21          8           0       -0.505611    1.065265    1.438128
     22          1           0        0.251032    1.638368    1.664131
     23          6           0       -2.285827   -0.825712    0.044148
     24          1           0       -2.447284   -1.799228   -0.439912
     25          1           0       -2.099159   -1.005147    1.108870
     26          8           0       -3.432128    0.018021   -0.123093
     27          1           0       -4.166106   -0.404749    0.351675
 ---------------------------------------------------------------------
 Rotational constants (GHZ):      1.3223738      0.8459394      0.6198603
 Standard basis: 6-31+G(d,p) (6D, 7F)
 There are   303 symmetry adapted basis functions of A   symmetry.
 Integral buffers will be    131072 words long.
 Raffenetti 2 integral format.
 Two-electron integral symmetry is turned on.
   303 basis functions,   489 primitive gaussians,   303 cartesian basis functions
    47 alpha electrons       47 beta electrons
       nuclear repulsion energy       813.7673404745 Hartrees.
 NAtoms=   27 NActive=   27 NUniq=   27 SFac= 1.00D+00 NAtFMM=   60 NAOKFM=F Big=F
 ------------------------------------------------------------------------------
 Polarizable Continuum Model (PCM)
 =================================
 Model                : PCM.
 Atomic radii         : UFF (Universal Force Field).
 Polarization charges : Total charges.
 Charge compensation  : None.
 Solution method      : Matrix inversion.
 Cavity type          : Scaled VdW (van der Waals Surface) (Alpha=1.100).
 Cavity algorithm     : GePol (No added spheres)
                        Default sphere list used, NSphG=   27.
                        Lebedev-Laikov grids with approx.  5.0 points / Ang**2.
                        Smoothing algorithm: Karplus/York (Gamma=1.0000).
                        Polarization charges: spherical gaussians, with
                                              point-specific exponents (IZeta= 3).
                        Self-potential: point-specific (ISelfS= 7).
                        Self-field    : sphere-specific E.n sum rule (ISelfD= 2).
 Solvent              : Water, Eps=  78.355300 Eps(inf)=   1.777849
 ------------------------------------------------------------------------------
 One-electron integrals computed using PRISM.
 NBasis=   303 RedAO= T  NBF=   303
 NBsUse=   303 1.00D-06 NBFU=   303
 Harris functional with IExCor=  908 diagonalized for initial guess.
 ExpMin= 4.38D-02 ExpMax= 5.48D+03 ExpMxC= 8.25D+02 IAcc=2 IRadAn=         4 AccDes= 0.00D+00
 HarFok:  IExCor=  908 AccDes= 0.00D+00 IRadAn=         4 IDoV= 1
 ScaDFX=  1.000000  1.000000  1.000000  1.000000
 FoFCou: FMM=F IPFlag=           0 FMFlag=      100000 FMFlg1=           0
         NFxFlg=           0 DoJE=T BraDBF=F KetDBF=T FulRan=T
         Omega=  0.000000  0.000000  1.000000  0.000000  0.000000 ICntrl=     500 IOpCl=  0
         NMat0=    1 NMatS0=    1 NMatT0=    0 NMatD0=    1 NMtDS0=    0 NMtDT0=    0
         I1Cent=           4 NGrid=           0.
 Petite list used in FoFCou.
 Initial guess orbital symmetries:
       Occupied  (A) (A) (A) (A) (A) (A) (A) (A) (A) (A) (A) (A)
                 (A) (A) (A) (A) (A) (A) (A) (A) (A) (A) (A) (A)
                 (A) (A) (A) (A) (A) (A) (A) (A) (A) (A) (A) (A)
                 (A) (A) (A) (A) (A) (A) (A) (A) (A) (A) (A)
       Virtual   (A) (A) (A) (A) (A) (A) (A) (A) (A) (A) (A) (A)
                 (A) (A) (A) (A) (A) (A) (A) (A) (A) (A) (A) (A)
                 (A) (A) (A) (A) (A) (A) (A) (A) (A) (A) (A) (A)
                 (A) (A) (A) (A) (A) (A) (A) (A) (A) (A) (A) (A)
                 (A) (A) (A) (A) (A) (A) (A) (A) (A) (A) (A) (A)
                 (A) (A) (A) (A) (A) (A) (A) (A) (A) (A) (A) (A)
                 (A) (A) (A) (A) (A) (A) (A) (A) (A) (A) (A) (A)
                 (A) (A) (A) (A) (A) (A) (A) (A) (A) (A) (A) (A)
                 (A) (A) (A) (A) (A) (A) (A) (A) (A) (A) (A) (A)
                 (A) (A) (A) (A) (A) (A) (A) (A) (A) (A) (A) (A)
                 (A) (A) (A) (A) (A) (A) (A) (A) (A) (A) (A) (A)
                 (A) (A) (A) (A) (A) (A) (A) (A) (A) (A) (A) (A)
                 (A) (A) (A) (A) (A) (A) (A) (A) (A) (A) (A) (A)
                 (A) (A) (A) (A) (A) (A) (A) (A) (A) (A) (A) (A)
                 (A) (A) (A) (A) (A) (A) (A) (A) (A) (A) (A) (A)
                 (A) (A) (A) (A) (A) (A) (A) (A) (A) (A) (A) (A)
                 (A) (A) (A) (A) (A) (A) (A) (A) (A) (A) (A) (A)
                 (A) (A) (A) (A) (A) (A) (A) (A) (A) (A) (A) (A)
                 (A) (A) (A) (A) (A) (A) (A) (A) (A) (A) (A) (A)
                 (A) (A) (A) (A) (A) (A) (A) (A) (A) (A) (A) (A)
                 (A) (A) (A) (A) (A) (A) (A) (A) (A) (A) (A) (A)
                 (A) (A) (A) (A)
 The electronic state of the initial guess is 1-A.
 Requested convergence on RMS density matrix=1.00D-08 within 128 cycles.
 Requested convergence on MAX density matrix=1.00D-06.
 Requested convergence on             energy=1.00D-06.
 No special actions if energy rises.
 Error on total polarization charges =  0.01409
 SCF Done:  E(RmPW1PW91) =  -594.190133836     A.U. after   13 cycles
             Convg  =    0.5543D-08             -V/T =  2.0094
 Range of M.O.s used for correlation:     1   303
 NBasis=   303 NAE=    47 NBE=    47 NFC=     0 NFV=     0
 NROrb=    303 NOA=    47 NOB=    47 NVA=   256 NVB=   256

 **** Warning!!: The largest alpha MO coefficient is  0.83772575D+02

 NEqPCM:  Using equilibrium solvation (IEInf=0, Eps=  78.3553, EpsInf=   1.7778)
          Differentiating once with respect to magnetic field using GIAOs.
          Electric field/nuclear overlap derivatives assumed to be zero.
 FoFCou: FMM=F IPFlag=           0 FMFlag=    10101102 FMFlg1=           0
         NFxFlg=    40000000 DoJE=F BraDBF=F KetDBF=T FulRan=T
         Omega=  0.000000  0.000000  1.000000  0.000000  0.000000 ICntrl=    6100 IOpCl=  0
         NMat0=    1 NMatS0=    1 NMatT0=    0 NMatD0=    1 NMtDS0=    0 NMtDT0=    0
         I1Cent=           7 NGrid=        1787.
 Symmetry not used in FoFCou.
          There are     3 degrees of freedom in the 1st order CPHF.  IDoFFX=0.
      3 vectors produced by pass  0 Test12= 4.01D-13 3.33D-08 XBig12= 3.44D+01 1.03D+00.
 AX will form     3 AO Fock derivatives at one time.
      3 vectors produced by pass  1 Test12= 4.01D-13 3.33D-08 XBig12= 8.67D-02 3.88D-02.
      3 vectors produced by pass  2 Test12= 4.01D-13 3.33D-08 XBig12= 1.96D-04 2.88D-03.
      3 vectors produced by pass  3 Test12= 4.01D-13 3.33D-08 XBig12= 1.01D-06 1.83D-04.
      3 vectors produced by pass  4 Test12= 4.01D-13 3.33D-08 XBig12= 3.29D-09 1.07D-05.
      3 vectors produced by pass  5 Test12= 4.01D-13 3.33D-08 XBig12= 1.08D-11 4.86D-07.
 Inverted reduced A of dimension    18 with in-core refinement.
 Calculating GIAO nuclear magnetic shielding tensors.
 SCF GIAO Magnetic shielding tensor (ppm):
      1  C    Isotropic =   168.4052   Anisotropy =    19.4771
   XX=   172.1953   YX=    -0.5490   ZX=     6.7211
   XY=     7.7138   YY=   175.5123   ZY=   -12.3259
   XZ=     9.2232   YZ=   -11.3283   ZZ=   157.5079
   Eigenvalues:   148.4358   175.3898   181.3899
      2  C    Isotropic =   127.7560   Anisotropy =    53.1003
   XX=   144.9378   YX=    16.6989   ZX=     2.8513
   XY=    18.2949   YY=   146.0676   ZY=    -2.9781
   XZ=    14.0199   YZ=    -4.4909   ZZ=    92.2626
   Eigenvalues:    90.1431   129.9687   163.1562
      3  N    Isotropic =   190.3034   Anisotropy =    92.7806
   XX=   251.0571   YX=     1.1771   ZX=    -2.5608
   XY=     7.9496   YY=   190.6851   ZY=   -25.1406
   XZ=   -11.8465   YZ=   -28.6810   ZZ=   129.1681
   Eigenvalues:   118.8570   199.8962   252.1572
      4  C    Isotropic =   144.8325   Anisotropy =    48.5909
   XX=   144.1443   YX=    -2.2253   ZX=    12.4160
   XY=   -12.1551   YY=   147.5001   ZY=   -24.7661
   XZ=     8.6932   YZ=   -29.7473   ZZ=   142.8530
   Eigenvalues:   117.4662   139.8048   177.2264
      5  C    Isotropic =   166.5122   Anisotropy =    20.9157
   XX=   179.8283   YX=     1.7456   ZX=     8.3776
   XY=     1.6479   YY=   172.3152   ZY=   -18.0611
   XZ=     0.6766   YZ=    -8.8344   ZZ=   147.3931
   Eigenvalues:   140.9215   178.1591   180.4560
      6  C    Isotropic =   131.0195   Anisotropy =    41.4950
   XX=   151.7723   YX=   -14.8907   ZX=   -11.3218
   XY=    -8.8348   YY=   133.7489   ZY=     4.4230
   XZ=     3.4589   YZ=    11.9805   ZZ=   107.5373
   Eigenvalues:   105.1764   129.1993   158.6828
      7  C    Isotropic =   120.2831   Anisotropy =    31.3637
   XX=   107.1900   YX=     0.6289   ZX=     8.8875
   XY=     1.3901   YY=   112.9152   ZY=     2.4232
   XZ=    -4.4321   YZ=     3.2875   ZZ=   140.7441
   Eigenvalues:   106.9259   112.7312   141.1923
      8  C    Isotropic =   119.5499   Anisotropy =    50.4069
   XX=   129.9156   YX=    16.6947   ZX=    11.0058
   XY=    15.6586   YY=   129.6902   ZY=    20.2306
   XZ=     6.5964   YZ=    17.3029   ZZ=    99.0440
   Eigenvalues:    90.1078   115.3875   153.1545
      9  H    Isotropic =    30.0230   Anisotropy =    11.1850
   XX=    36.9686   YX=     0.7356   ZX=    -2.1045
   XY=     1.2868   YY=    27.6710   ZY=    -1.0997
   XZ=    -2.1140   YZ=    -0.7757   ZZ=    25.4295
   Eigenvalues:    24.8504    27.7390    37.4797
     10  H    Isotropic =    29.6194   Anisotropy =     6.1748
   XX=    27.4905   YX=    -1.1044   ZX=     2.5322
   XY=    -1.2972   YY=    30.9676   ZY=     2.7027
   XZ=     3.0927   YZ=     2.9618   ZZ=    30.4000
   Eigenvalues:    24.7074    30.4148    33.7359
     11  H    Isotropic =    27.8593   Anisotropy =     9.0043
   XX=    26.4964   YX=     1.2635   ZX=    -4.1457
   XY=     0.3199   YY=    25.3005   ZY=    -0.7031
   XZ=    -3.3367   YZ=    -0.9696   ZZ=    31.7810
   Eigenvalues:    24.4227    25.2931    33.8622
     12  H    Isotropic =    28.8334   Anisotropy =     9.6319
   XX=    28.2697   YX=     1.6226   ZX=     0.6849
   XY=     2.8933   YY=    34.3020   ZY=    -1.3458
   XZ=     0.7373   YZ=    -2.2803   ZZ=    23.9283
   Eigenvalues:    23.3626    27.8828    35.2547
     13  H    Isotropic =    28.2695   Anisotropy =     6.3680
   XX=    27.1778   YX=    -1.8753   ZX=    -1.1913
   XY=    -2.6399   YY=    26.7165   ZY=    -3.1991
   XZ=    -2.9660   YZ=    -2.4743   ZZ=    30.9142
   Eigenvalues:    23.1061    29.1876    32.5148
     14  H    Isotropic =    29.8095   Anisotropy =    11.3118
   XX=    29.1836   YX=    -3.3498   ZX=    -2.4631
   XY=    -3.6930   YY=    33.1565   ZY=     3.6670
   XZ=    -2.5689   YZ=     4.2403   ZZ=    27.0883
   Eigenvalues:    24.9392    27.1386    37.3507
     15  H    Isotropic =    29.7148   Anisotropy =    11.7440
   XX=    28.7548   YX=    -2.5733   ZX=     3.8509
   XY=    -3.0610   YY=    29.8227   ZY=    -4.9841
   XZ=     3.9809   YZ=    -4.4519   ZZ=    30.5670
   Eigenvalues:    25.1789    26.4215    37.5442
     16  H    Isotropic =    28.5534   Anisotropy =     8.0629
   XX=    30.0351   YX=    -0.5894   ZX=     3.3231
   XY=    -1.2964   YY=    25.0510   ZY=    -1.1005
   XZ=     3.7551   YZ=     0.6319   ZZ=    30.5741
   Eigenvalues:    24.8306    26.9009    33.9287
     17  H    Isotropic =    27.3103   Anisotropy =     7.8269
   XX=    27.5799   YX=    -3.6477   ZX=     1.1522
   XY=    -3.1432   YY=    28.3633   ZY=    -1.6179
   XZ=     2.5709   YZ=    -2.3748   ZZ=    25.9877
   Eigenvalues:    24.5431    24.8596    32.5282
     18  H    Isotropic =    27.2024   Anisotropy =     7.1273
   XX=    23.7536   YX=     0.1274   ZX=     2.6965
   XY=     1.2834   YY=    28.2916   ZY=    -2.0363
   XZ=     0.2895   YZ=    -3.7472   ZZ=    29.5619
   Eigenvalues:    22.9611    26.6921    31.9539
     19  O    Isotropic =   303.9856   Anisotropy =    50.3969
   XX=   327.8336   YX=    -3.3365   ZX=   -11.2509
   XY=     5.6024   YY=   312.3995   ZY=    11.9204
   XZ=   -39.4279   YZ=    -6.6847   ZZ=   271.7237
   Eigenvalues:   261.8137   312.5595   337.5835
     20  H    Isotropic =    30.0323   Anisotropy =    18.4537
   XX=    41.2901   YX=     3.5236   ZX=    -3.2839
   XY=     2.5605   YY=    26.2520   ZY=     2.2189
   XZ=    -3.5554   YZ=     1.9465   ZZ=    22.5549
   Eigenvalues:    20.6805    27.0817    42.3348
     21  O    Isotropic =   314.7076   Anisotropy =    28.5763
   XX=   326.2588   YX=     9.1532   ZX=    21.7845
   XY=     2.3480   YY=   324.0386   ZY=   -14.2237
   XZ=     6.8734   YZ=     8.5804   ZZ=   293.8254
   Eigenvalues:   287.7917   322.5727   333.7585
     22  H    Isotropic =    28.5922   Anisotropy =    17.0423
   XX=    31.8989   YX=    10.2375   ZX=     0.3731
   XY=     9.3845   YY=    25.3249   ZY=     3.9793
   XZ=     2.1331   YZ=     3.9258   ZZ=    28.5528
   Eigenvalues:    17.6730    28.1498    39.9537
     23  C    Isotropic =   136.1313   Anisotropy =    69.8564
   XX=   163.8184   YX=   -30.3077   ZX=     4.7905
   XY=   -28.7718   YY=   135.1333   ZY=    -3.3800
   XZ=     4.3295   YZ=    -2.1699   ZZ=   109.4423
   Eigenvalues:   109.0528   116.6389   182.7023
     24  H    Isotropic =    27.5172   Anisotropy =     5.4526
   XX=    29.6485   YX=    -1.2554   ZX=    -0.3576
   XY=     0.8643   YY=    30.7301   ZY=     2.1969
   XZ=     1.2712   YZ=     1.6675   ZZ=    22.1731
   Eigenvalues:    21.7270    29.6724    31.1523
     25  H    Isotropic =    27.1410   Anisotropy =     4.7605
   XX=    29.8923   YX=    -0.7939   ZX=     1.4378
   XY=    -0.9893   YY=    24.8854   ZY=    -3.1298
   XZ=    -0.6859   YZ=    -2.1610   ZZ=    26.6452
   Eigenvalues:    22.9403    28.1679    30.3146
     26  O    Isotropic =   316.7446   Anisotropy =    93.3987
   XX=   357.6399   YX=    13.2293   ZX=   -25.9377
   XY=    30.6777   YY=   292.7112   ZY=   -16.4070
   XZ=   -35.5930   YZ=   -14.6344   ZZ=   299.8828
   Eigenvalues:   280.2495   290.9739   379.0104
     27  H    Isotropic =    30.2361   Anisotropy =    21.3693
   XX=    40.1267   YX=     4.6878   ZX=    -7.9682
   XY=     2.6107   YY=    25.8320   ZY=    -4.1398
   XZ=    -6.8162   YZ=    -4.6452   ZZ=    24.7495
   Eigenvalues:    20.1631    26.0628    44.4822
 End of Minotr Frequency-dependent properties file   721 does not exist.
 End of Minotr Frequency-dependent properties file   722 does not exist.

 **********************************************************************

            Population analysis using the SCF density.

 **********************************************************************

 Orbital symmetries:
       Occupied  (A) (A) (A) (A) (A) (A) (A) (A) (A) (A) (A) (A)
                 (A) (A) (A) (A) (A) (A) (A) (A) (A) (A) (A) (A)
                 (A) (A) (A) (A) (A) (A) (A) (A) (A) (A) (A) (A)
                 (A) (A) (A) (A) (A) (A) (A) (A) (A) (A) (A)
       Virtual   (A) (A) (A) (A) (A) (A) (A) (A) (A) (A) (A) (A)
                 (A) (A) (A) (A) (A) (A) (A) (A) (A) (A) (A) (A)
                 (A) (A) (A) (A) (A) (A) (A) (A) (A) (A) (A) (A)
                 (A) (A) (A) (A) (A) (A) (A) (A) (A) (A) (A) (A)
                 (A) (A) (A) (A) (A) (A) (A) (A) (A) (A) (A) (A)
                 (A) (A) (A) (A) (A) (A) (A) (A) (A) (A) (A) (A)
                 (A) (A) (A) (A) (A) (A) (A) (A) (A) (A) (A) (A)
                 (A) (A) (A) (A) (A) (A) (A) (A) (A) (A) (A) (A)
                 (A) (A) (A) (A) (A) (A) (A) (A) (A) (A) (A) (A)
                 (A) (A) (A) (A) (A) (A) (A) (A) (A) (A) (A) (A)
                 (A) (A) (A) (A) (A) (A) (A) (A) (A) (A) (A) (A)
                 (A) (A) (A) (A) (A) (A) (A) (A) (A) (A) (A) (A)
                 (A) (A) (A) (A) (A) (A) (A) (A) (A) (A) (A) (A)
                 (A) (A) (A) (A) (A) (A) (A) (A) (A) (A) (A) (A)
                 (A) (A) (A) (A) (A) (A) (A) (A) (A) (A) (A) (A)
                 (A) (A) (A) (A) (A) (A) (A) (A) (A) (A) (A) (A)
                 (A) (A) (A) (A) (A) (A) (A) (A) (A) (A) (A) (A)
                 (A) (A) (A) (A) (A) (A) (A) (A) (A) (A) (A) (A)
                 (A) (A) (A) (A) (A) (A) (A) (A) (A) (A) (A) (A)
                 (A) (A) (A) (A) (A) (A) (A) (A) (A) (A) (A) (A)
                 (A) (A) (A) (A) (A) (A) (A) (A) (A) (A) (A) (A)
                 (A) (A) (A) (A)
 The electronic state is 1-A.
 Alpha  occ. eigenvalues --  -19.26848 -19.25648 -19.24905 -14.41119 -10.30648
 Alpha  occ. eigenvalues --  -10.29884 -10.29760 -10.28045 -10.27775 -10.26471
 Alpha  occ. eigenvalues --  -10.24574 -10.24536  -1.08017  -1.05803  -1.04580
 Alpha  occ. eigenvalues --   -0.96065  -0.82864  -0.78829  -0.75257  -0.71860
 Alpha  occ. eigenvalues --   -0.66598  -0.61351  -0.59895  -0.58006  -0.55199
 Alpha  occ. eigenvalues --   -0.52912  -0.52057  -0.51324  -0.48741  -0.47538
 Alpha  occ. eigenvalues --   -0.46880  -0.44668  -0.43649  -0.41174  -0.40204
 Alpha  occ. eigenvalues --   -0.39148  -0.38350  -0.37159  -0.35939  -0.35654
 Alpha  occ. eigenvalues --   -0.35151  -0.34503  -0.33647  -0.30684  -0.29902
 Alpha  occ. eigenvalues --   -0.28846  -0.22666
 Alpha virt. eigenvalues --   -0.00065   0.01284   0.01884   0.02188   0.03600
 Alpha virt. eigenvalues --    0.04055   0.04917   0.05262   0.05570   0.07110
 Alpha virt. eigenvalues --    0.07872   0.08531   0.08987   0.09195   0.09538
 Alpha virt. eigenvalues --    0.10462   0.11551   0.11914   0.12627   0.13442
 Alpha virt. eigenvalues --    0.13550   0.14054   0.14225   0.14910   0.15215
 Alpha virt. eigenvalues --    0.16016   0.16989   0.17295   0.17943   0.18116
 Alpha virt. eigenvalues --    0.18896   0.19279   0.20165   0.20426   0.21206
 Alpha virt. eigenvalues --    0.21541   0.22256   0.22626   0.23147   0.23682
 Alpha virt. eigenvalues --    0.23766   0.24365   0.25208   0.25510   0.25680
 Alpha virt. eigenvalues --    0.26241   0.26732   0.28173   0.28661   0.28861
 Alpha virt. eigenvalues --    0.29543   0.29990   0.30249   0.30794   0.32148
 Alpha virt. eigenvalues --    0.32326   0.32971   0.33863   0.34480   0.35121
 Alpha virt. eigenvalues --    0.35798   0.36860   0.37736   0.38120   0.38651
 Alpha virt. eigenvalues --    0.39421   0.39991   0.40323   0.41188   0.42464
 Alpha virt. eigenvalues --    0.42965   0.43425   0.44695   0.46897   0.47047
 Alpha virt. eigenvalues --    0.51420   0.64735   0.67336   0.68142   0.69003
 Alpha virt. eigenvalues --    0.70063   0.70202   0.71908   0.72656   0.73458
 Alpha virt. eigenvalues --    0.75240   0.75927   0.78561   0.79546   0.81204
 Alpha virt. eigenvalues --    0.83188   0.83892   0.84839   0.86528   0.88848
 Alpha virt. eigenvalues --    0.90537   0.92928   0.94313   0.94910   0.97192
 Alpha virt. eigenvalues --    0.99064   1.00295   1.01813   1.03148   1.05539
 Alpha virt. eigenvalues --    1.06422   1.07066   1.07273   1.08080   1.09094
 Alpha virt. eigenvalues --    1.11461   1.12549   1.13810   1.16600   1.17103
 Alpha virt. eigenvalues --    1.17841   1.18605   1.19576   1.24217   1.25776
 Alpha virt. eigenvalues --    1.27589   1.28791   1.30118   1.32352   1.33694
 Alpha virt. eigenvalues --    1.33957   1.35672   1.36976   1.39709   1.40372
 Alpha virt. eigenvalues --    1.43510   1.44538   1.47747   1.52134   1.52836
 Alpha virt. eigenvalues --    1.55483   1.56581   1.57997   1.60074   1.61681
 Alpha virt. eigenvalues --    1.62914   1.64363   1.68928   1.69466   1.70060
 Alpha virt. eigenvalues --    1.71619   1.74138   1.76619   1.79382   1.79892
 Alpha virt. eigenvalues --    1.80685   1.82730   1.83900   1.85494   1.87842
 Alpha virt. eigenvalues --    1.90114   1.91250   1.93186   1.93835   1.95367
 Alpha virt. eigenvalues --    1.96465   1.99153   2.01951   2.02999   2.03748
 Alpha virt. eigenvalues --    2.04154   2.07211   2.07453   2.09616   2.10914
 Alpha virt. eigenvalues --    2.11882   2.14947   2.15973   2.18112   2.20121
 Alpha virt. eigenvalues --    2.21187   2.22728   2.23977   2.25674   2.29147
 Alpha virt. eigenvalues --    2.30579   2.32329   2.35087   2.36825   2.40897
 Alpha virt. eigenvalues --    2.41210   2.43004   2.45113   2.45291   2.47016
 Alpha virt. eigenvalues --    2.49435   2.51999   2.52855   2.53910   2.57892
 Alpha virt. eigenvalues --    2.59320   2.60464   2.60937   2.62444   2.63787
 Alpha virt. eigenvalues --    2.64700   2.66611   2.67812   2.68832   2.70879
 Alpha virt. eigenvalues --    2.71521   2.72994   2.75591   2.76942   2.78963
 Alpha virt. eigenvalues --    2.79157   2.81554   2.81658   2.82557   2.84818
 Alpha virt. eigenvalues --    2.87330   2.87870   2.90017   2.90306   2.93027
 Alpha virt. eigenvalues --    2.97863   2.99305   3.00973   3.02449   3.04929
 Alpha virt. eigenvalues --    3.06470   3.09892   3.11790   3.17092   3.32648
 Alpha virt. eigenvalues --    3.36137   3.36891   3.38370   3.43904   3.45051
 Alpha virt. eigenvalues --    3.46479   3.50450   3.52158   3.53684   3.56542
 Alpha virt. eigenvalues --    3.57357   3.58002   3.58979   3.60100   4.31315
 Alpha virt. eigenvalues --    4.38768   4.42365   4.46010   4.51826   4.53671
 Alpha virt. eigenvalues --    4.61204   4.74235   4.76288   4.81879   4.88399
 Alpha virt. eigenvalues --    4.97171
          Condensed to atoms (all electrons):
              1          2          3          4          5          6
     1  C    5.801271  -0.414511   0.056238  -0.222595   0.269108   0.124097
     2  C   -0.414511   7.644360  -0.187722  -0.321428   0.067083  -0.568370
     3  N    0.056238  -0.187722   7.497477   0.329674  -0.209526  -0.650308
     4  C   -0.222595  -0.321428   0.329674   5.773686   0.000353  -0.457900
     5  C    0.269108   0.067083  -0.209526   0.000353   5.653656   0.229434
     6  C    0.124097  -0.568370  -0.650308  -0.457900   0.229434  11.333988
     7  C   -0.104639   0.433511   0.053821   0.034015  -0.072647  -2.324513
     8  C    0.024509  -0.456961  -0.038048   0.113756   0.019226   0.336643
     9  H    0.378113  -0.063489   0.011271   0.046888  -0.046191   0.004243
    10  H    0.484535  -0.147864   0.026473   0.007624  -0.057895  -0.002550
    11  H    0.023792   0.210089   0.000884   0.019551  -0.013710  -0.011567
    12  H    0.031773   0.000264  -0.054402   0.378118  -0.006989  -0.009465
    13  H   -0.004974   0.010995  -0.081552   0.380116  -0.018592   0.069604
    14  H   -0.025082  -0.029848   0.016871  -0.051772   0.411240   0.001383
    15  H   -0.064589   0.042473   0.006980  -0.042402   0.405946  -0.010176
    16  H   -0.000763  -0.029714   0.018277   0.028094  -0.001958   0.124800
    17  H   -0.001134   0.029664   0.029897   0.003688  -0.001813  -0.187047
    18  H    0.011850  -0.018555   0.016670   0.003187  -0.000282  -0.025574
    19  O    0.060202  -0.150016   0.035836   0.001483   0.007108   0.032599
    20  H    0.012443  -0.057185   0.000531  -0.000795   0.003704  -0.003809
    21  O   -0.000657   0.066612   0.124469   0.033946  -0.027655  -0.575260
    22  H    0.006298  -0.017676  -0.012428  -0.001030  -0.002773   0.116380
    23  C   -0.032134   0.002126   0.143962   0.020791  -0.080980  -1.173635
    24  H    0.001385   0.005061   0.000361  -0.000714  -0.000380  -0.081316
    25  H   -0.002908  -0.001229   0.010023   0.008487   0.002102  -0.113078
    26  O    0.002450  -0.000950   0.024077   0.002595  -0.005864  -0.039358
    27  H   -0.000254   0.000025  -0.001520   0.000976   0.000524   0.033503
              7          8          9         10         11         12
     1  C   -0.104639   0.024509   0.378113   0.484535   0.023792   0.031773
     2  C    0.433511  -0.456961  -0.063489  -0.147864   0.210089   0.000264
     3  N    0.053821  -0.038048   0.011271   0.026473   0.000884  -0.054402
     4  C    0.034015   0.113756   0.046888   0.007624   0.019551   0.378118
     5  C   -0.072647   0.019226  -0.046191  -0.057895  -0.013710  -0.006989
     6  C   -2.324513   0.336643   0.004243  -0.002550  -0.011567  -0.009465
     7  C    7.446423  -0.523808  -0.021155   0.017022   0.016721  -0.007642
     8  C   -0.523808   6.126332   0.032328  -0.009663   0.022354  -0.004689
     9  H   -0.021155   0.032328   0.517905  -0.026483  -0.005027  -0.000107
    10  H    0.017022  -0.009663  -0.026483   0.516377   0.004317  -0.000055
    11  H    0.016721   0.022354  -0.005027   0.004317   0.565417   0.000138
    12  H   -0.007642  -0.004689  -0.000107  -0.000055   0.000138   0.555962
    13  H    0.015982  -0.001843  -0.000116   0.001016  -0.000463  -0.044928
    14  H    0.006725  -0.000948  -0.004982   0.004070   0.000786  -0.006786
    15  H    0.005549  -0.004229   0.000239  -0.005533  -0.000126   0.000506
    16  H    0.023901   0.003557   0.000004   0.000013   0.001830   0.000198
    17  H    0.444280  -0.011983   0.000005  -0.000061  -0.000080   0.000011
    18  H   -0.004356   0.312603  -0.000095   0.000060  -0.007200   0.000004
    19  O   -0.164503   0.254215  -0.002299   0.004120   0.002731   0.000104
    20  H    0.029165   0.018264  -0.000138  -0.000729   0.001096   0.000000
    21  O    0.424704  -0.086662   0.000699  -0.002007   0.000188   0.001358
    22  H   -0.078833  -0.012865   0.000011  -0.000285  -0.000040  -0.000012
    23  C    0.176011  -0.023405  -0.000103  -0.000650   0.001161   0.006290
    24  H    0.006454   0.000590   0.000000   0.000000  -0.000008  -0.000738
    25  H    0.007720  -0.000514   0.000000   0.000000   0.000001  -0.000473
    26  O    0.015840   0.032267  -0.000001  -0.000004   0.000059   0.000043
    27  H   -0.009903  -0.002863   0.000000   0.000000   0.000000  -0.000002
             13         14         15         16         17         18
     1  C   -0.004974  -0.025082  -0.064589  -0.000763  -0.001134   0.011850
     2  C    0.010995  -0.029848   0.042473  -0.029714   0.029664  -0.018555
     3  N   -0.081552   0.016871   0.006980   0.018277   0.029897   0.016670
     4  C    0.380116  -0.051772  -0.042402   0.028094   0.003688   0.003187
     5  C   -0.018592   0.411240   0.405946  -0.001958  -0.001813  -0.000282
     6  C    0.069604   0.001383  -0.010176   0.124800  -0.187047  -0.025574
     7  C    0.015982   0.006725   0.005549   0.023901   0.444280  -0.004356
     8  C   -0.001843  -0.000948  -0.004229   0.003557  -0.011983   0.312603
     9  H   -0.000116  -0.004982   0.000239   0.000004   0.000005  -0.000095
    10  H    0.001016   0.004070  -0.005533   0.000013  -0.000061   0.000060
    11  H   -0.000463   0.000786  -0.000126   0.001830  -0.000080  -0.007200
    12  H   -0.044928  -0.006786   0.000506   0.000198   0.000011   0.000004
    13  H    0.554184   0.004065  -0.004383  -0.000484  -0.000194  -0.000005
    14  H    0.004065   0.523523  -0.025001   0.000007   0.000000   0.000002
    15  H   -0.004383  -0.025001   0.516165   0.000002   0.000000   0.000003
    16  H   -0.000484   0.000007   0.000002   0.566123   0.001365   0.001023
    17  H   -0.000194   0.000000   0.000000   0.001365   0.569060  -0.004141
    18  H   -0.000005   0.000002   0.000003   0.001023  -0.004141   0.564980
    19  O   -0.000495   0.000101   0.000056   0.000234   0.000276  -0.034075
    20  H    0.000001  -0.000001   0.000002   0.000003  -0.000202  -0.003372
    21  O   -0.015457  -0.000146   0.000028   0.013031  -0.046042   0.005769
    22  H    0.000426   0.000001  -0.000001  -0.000316   0.000183   0.000596
    23  C   -0.036048  -0.001408   0.001982   0.072095   0.008503   0.006365
    24  H    0.000588   0.000005   0.000000  -0.006808  -0.000056   0.000004
    25  H   -0.000924  -0.000001   0.000003   0.004910   0.000328  -0.000003
    26  O   -0.000139   0.000003   0.000001   0.008330   0.005296  -0.000101
    27  H    0.000003   0.000000   0.000000  -0.000018  -0.000047   0.000000
             19         20         21         22         23         24
     1  C    0.060202   0.012443  -0.000657   0.006298  -0.032134   0.001385
     2  C   -0.150016  -0.057185   0.066612  -0.017676   0.002126   0.005061
     3  N    0.035836   0.000531   0.124469  -0.012428   0.143962   0.000361
     4  C    0.001483  -0.000795   0.033946  -0.001030   0.020791  -0.000714
     5  C    0.007108   0.003704  -0.027655  -0.002773  -0.080980  -0.000380
     6  C    0.032599  -0.003809  -0.575260   0.116380  -1.173635  -0.081316
     7  C   -0.164503   0.029165   0.424704  -0.078833   0.176011   0.006454
     8  C    0.254215   0.018264  -0.086662  -0.012865  -0.023405   0.000590
     9  H   -0.002299  -0.000138   0.000699   0.000011  -0.000103   0.000000
    10  H    0.004120  -0.000729  -0.002007  -0.000285  -0.000650   0.000000
    11  H    0.002731   0.001096   0.000188  -0.000040   0.001161  -0.000008
    12  H    0.000104   0.000000   0.001358  -0.000012   0.006290  -0.000738
    13  H   -0.000495   0.000001  -0.015457   0.000426  -0.036048   0.000588
    14  H    0.000101  -0.000001  -0.000146   0.000001  -0.001408   0.000005
    15  H    0.000056   0.000002   0.000028  -0.000001   0.001982   0.000000
    16  H    0.000234   0.000003   0.013031  -0.000316   0.072095  -0.006808
    17  H    0.000276  -0.000202  -0.046042   0.000183   0.008503  -0.000056
    18  H   -0.034075  -0.003372   0.005769   0.000596   0.006365   0.000004
    19  O    8.302112   0.244875  -0.012371   0.024719  -0.014659   0.000011
    20  H    0.244875   0.363213  -0.000310  -0.001198   0.002127   0.000000
    21  O   -0.012371  -0.000310   8.332773   0.244897   0.103316  -0.000793
    22  H    0.024719  -0.001198   0.244897   0.354646  -0.013383  -0.000003
    23  C   -0.014659   0.002127   0.103316  -0.013383   6.021628   0.441608
    24  H    0.000011   0.000000  -0.000793  -0.000003   0.441608   0.566219
    25  H    0.000044   0.000000   0.009209  -0.000163   0.442568  -0.048453
    26  O   -0.000197   0.000000   0.012109  -0.000547   0.021687  -0.047333
    27  H   -0.000004   0.000000  -0.000380   0.000001  -0.005397  -0.003707
             25         26         27
     1  C   -0.002908   0.002450  -0.000254
     2  C   -0.001229  -0.000950   0.000025
     3  N    0.010023   0.024077  -0.001520
     4  C    0.008487   0.002595   0.000976
     5  C    0.002102  -0.005864   0.000524
     6  C   -0.113078  -0.039358   0.033503
     7  C    0.007720   0.015840  -0.009903
     8  C   -0.000514   0.032267  -0.002863
     9  H    0.000000  -0.000001   0.000000
    10  H    0.000000  -0.000004   0.000000
    11  H    0.000001   0.000059   0.000000
    12  H   -0.000473   0.000043  -0.000002
    13  H   -0.000924  -0.000139   0.000003
    14  H   -0.000001   0.000003   0.000000
    15  H    0.000003   0.000001   0.000000
    16  H    0.004910   0.008330  -0.000018
    17  H    0.000328   0.005296  -0.000047
    18  H   -0.000003  -0.000101   0.000000
    19  O    0.000044  -0.000197  -0.000004
    20  H    0.000000   0.000000   0.000000
    21  O    0.009209   0.012109  -0.000380
    22  H   -0.000163  -0.000547   0.000001
    23  C    0.442568   0.021687  -0.005397
    24  H   -0.048453  -0.047333  -0.003707
    25  H    0.565488  -0.044662  -0.005574
    26  O   -0.044662   8.364852   0.225525
    27  H   -0.005574   0.225525   0.379452
 Mulliken atomic charges:
              1
     1  C   -0.413826
     2  C   -0.046745
     3  N   -0.168286
     4  C   -0.088392
     5  C   -0.522232
     6  C   -0.172750
     7  C    0.154155
     8  C   -0.118162
     9  H    0.178480
    10  H    0.188151
    11  H    0.167105
    12  H    0.161518
    13  H    0.173617
    14  H    0.177195
    15  H    0.176506
    16  H    0.172264
    17  H    0.160243
    18  H    0.174643
    19  O   -0.592206
    20  H    0.392314
    21  O   -0.605369
    22  H    0.393394
    23  C   -0.090420
    24  H    0.168025
    25  H    0.167097
    26  O   -0.575979
    27  H    0.389660
 Sum of Mulliken atomic charges =   0.00000
 Mulliken charges with hydrogens summed into heavy atoms:
              1
     1  C   -0.047194
     2  C    0.120360
     3  N   -0.168286
     4  C    0.246743
     5  C   -0.168532
     6  C   -0.000486
     7  C    0.314398
     8  C    0.056481
    19  O   -0.199892
    21  O   -0.211975
    23  C    0.244702
    26  O   -0.186319
 Sum of Mulliken charges with hydrogens summed into heavy atoms =   0.00000
 Electronic spatial extent (au):  <R**2>=           1987.5244
 Charge=              0.0000 electrons
 Dipole moment (field-independent basis, Debye):
    X=              2.7261    Y=             -1.3213    Z=             -0.3361  Tot=              3.0480
 Quadrupole moment (field-independent basis, Debye-Ang):
   XX=            -62.0423   YY=            -73.8679   ZZ=            -75.2922
   XY=              8.5511   XZ=             -3.4827   YZ=             -5.9041
 Traceless Quadrupole moment (field-independent basis, Debye-Ang):
   XX=              8.3585   YY=             -3.4671   ZZ=             -4.8914
   XY=              8.5511   XZ=             -3.4827   YZ=             -5.9041
 Octapole moment (field-independent basis, Debye-Ang**2):
  XXX=            -11.4060  YYY=             -1.6067  ZZZ=              4.1455  XYY=             -1.6274
  XXY=            -10.0707  XXZ=             14.3446  XZZ=              4.3338  YZZ=              8.3313
  YYZ=              1.8219  XYZ=              1.2166
 Hexadecapole moment (field-independent basis, Debye-Ang**3):
 XXXX=          -1138.8224 YYYY=           -895.4798 ZZZZ=           -302.6101 XXXY=            138.0466
 XXXZ=            -90.3054 YYYX=             15.0631 YYYZ=             -4.7528 ZZZX=              5.4290
 ZZZY=             -3.1719 XXYY=           -339.9643 XXZZ=           -280.0146 YYZZ=           -191.7082
 XXYZ=            -12.6706 YYXZ=             -1.9815 ZZXY=             12.1045
 N-N= 8.137673404745D+02 E-N=-3.013889301141D+03  KE= 5.886613137082D+02
 1\1\GINC-COMPUTE-3-1\SP\RmPW1PW91\6-31+G(d,p)\C8H15N1O3\MAMICHETTI.IQU
 IR\17-May-2024\0\\# mpw1pw91/6-31+G** nmr scrf=(pcm,solvent=water)\\co
 mment\\0,1\C,0,2.327505,-0.475688,0.138863\C,0,1.267642,0.001664,-0.87
 0573\N,0,0.11175,-0.951017,-0.741574\C,0,0.420531,-1.878912,0.376145\C
 ,0,1.946627,-1.944748,0.372887\C,0,-1.10898,-0.119195,-0.615607\C,0,-0
 .673541,1.204848,0.024399\C,0,0.686117,1.433996,-0.656983\H,0,3.347674
 ,-0.343378,-0.234661\H,0,2.239147,0.082458,1.076463\H,0,1.670902,-0.06
 0523,-1.888059\H,0,-0.04875,-2.85437,0.205757\H,0,0.076653,-1.508868,1
 .350561\H,0,2.300888,-2.571911,-0.454188\H,0,2.349,-2.351779,1.305846\
 H,0,-1.441279,0.139783,-1.632337\H,0,-1.379515,2.018102,-0.189315\H,0,
 0.515298,1.90339,-1.634074\O,0,1.46016,2.310436,0.164034\H,0,2.38944,2
 .247671,-0.111961\O,0,-0.505611,1.065265,1.438128\H,0,0.251032,1.63836
 8,1.664131\C,0,-2.285827,-0.825712,0.044148\H,0,-2.447284,-1.799228,-0
 .439912\H,0,-2.099159,-1.005147,1.10887\O,0,-3.432128,0.018021,-0.1230
 93\H,0,-4.166106,-0.404749,0.351675\\Version=AM64L-G09RevC.01\State=1-
 A\HF=-594.1901338\RMSD=5.543e-09\Dipole=1.072528,-0.5198588,-0.1322196
 \Quadrupole=6.214344,-2.5777199,-3.6366241,6.3575576,-2.5892809,-4.389
 5377\PG=C01 [X(C8H15N1O3)]\\@


 GARLIC THEN HAVE POWER TO SAVE FROM DEATH
 BEAR WITH IT THOUGH IT MAKETH UNSAVORY BREATH,
 AND SCORN NOT GARLIC LIKE SOME THAT THINK
 IT ONLY MAKETH MEN WINK AND DRINK AND STINK.
   --  SIR JOHN HARRINGTON,
       "THE ENGLISHMAN'S DOCTOR", 1609
 Job cpu time:  0 days  0 hours  8 minutes 52.4 seconds.
 File lengths (MBytes):  RWF=    110 Int=      0 D2E=      0 Chk=      7 Scr=      1
 Normal termination of Gaussian 09 at Fri May 17 13:06:14 2024.
