 Entering Gaussian System, Link 0=g09
 Input=/home/mamichetti.iquir/Linux/04_Cardona_A1A3_R__S_R_S_018_OptB.gjc
 Output=/home/mamichetti.iquir/Linux/04_Cardona_A1A3_R__S_R_S_018_OptB.log
 Initial command:
 /opt/ohpc/pub/apps/software/Gaussian/09/AMD64.SSE4a-enabled/g09/l1.exe /local/mamichetti.iquir/Gau-410864.inp -scrdir=/local/mamichetti.iquir/
 Entering Link 1 = /opt/ohpc/pub/apps/software/Gaussian/09/AMD64.SSE4a-enabled/g09/l1.exe PID=    410865.
  
 Copyright (c) 1988,1990,1992,1993,1995,1998,2003,2009,2011,
            Gaussian, Inc.  All Rights Reserved.
  
 This is part of the Gaussian(R) 09 program.  It is based on
 the Gaussian(R) 03 system (copyright 2003, Gaussian, Inc.),
 the Gaussian(R) 98 system (copyright 1998, Gaussian, Inc.),
 the Gaussian(R) 94 system (copyright 1995, Gaussian, Inc.),
 the Gaussian 92(TM) system (copyright 1992, Gaussian, Inc.),
 the Gaussian 90(TM) system (copyright 1990, Gaussian, Inc.),
 the Gaussian 88(TM) system (copyright 1988, Gaussian, Inc.),
 the Gaussian 86(TM) system (copyright 1986, Carnegie Mellon
 University), and the Gaussian 82(TM) system (copyright 1983,
 Carnegie Mellon University). Gaussian is a federally registered
 trademark of Gaussian, Inc.
  
 This software contains proprietary and confidential information,
 including trade secrets, belonging to Gaussian, Inc.
  
 This software is provided under written license and may be
 used, copied, transmitted, or stored only in accord with that
 written license.
  
 The following legend is applicable only to US Government
 contracts under FAR:
  
                    RESTRICTED RIGHTS LEGEND
  
 Use, reproduction and disclosure by the US Government is
 subject to restrictions as set forth in subparagraphs (a)
 and (c) of the Commercial Computer Software - Restricted
 Rights clause in FAR 52.227-19.
  
 Gaussian, Inc.
 340 Quinnipiac St., Bldg. 40, Wallingford CT 06492
  
  
 ---------------------------------------------------------------
 Warning -- This program may not be used in any manner that
 competes with the business of Gaussian, Inc. or will provide
 assistance to any competitor of Gaussian, Inc.  The licensee
 of this program is prohibited from giving any competitor of
 Gaussian, Inc. access to this program.  By using this program,
 the user acknowledges that Gaussian, Inc. is engaged in the
 business of creating and licensing software in the field of
 computational chemistry and represents and warrants to the
 licensee that it is not a competitor of Gaussian, Inc. and that
 it will not use this program in any manner prohibited above.
 ---------------------------------------------------------------
  

 Cite this work as:
 Gaussian 09, Revision C.01,
 M. J. Frisch, G. W. Trucks, H. B. Schlegel, G. E. Scuseria, 
 M. A. Robb, J. R. Cheeseman, G. Scalmani, V. Barone, B. Mennucci, 
 G. A. Petersson, H. Nakatsuji, M. Caricato, X. Li, H. P. Hratchian, 
 A. F. Izmaylov, J. Bloino, G. Zheng, J. L. Sonnenberg, M. Hada, 
 M. Ehara, K. Toyota, R. Fukuda, J. Hasegawa, M. Ishida, T. Nakajima, 
 Y. Honda, O. Kitao, H. Nakai, T. Vreven, J. A. Montgomery, Jr., 
 J. E. Peralta, F. Ogliaro, M. Bearpark, J. J. Heyd, E. Brothers, 
 K. N. Kudin, V. N. Staroverov, T. Keith, R. Kobayashi, J. Normand, 
 K. Raghavachari, A. Rendell, J. C. Burant, S. S. Iyengar, J. Tomasi, 
 M. Cossi, N. Rega, J. M. Millam, M. Klene, J. E. Knox, J. B. Cross, 
 V. Bakken, C. Adamo, J. Jaramillo, R. Gomperts, R. E. Stratmann, 
 O. Yazyev, A. J. Austin, R. Cammi, C. Pomelli, J. W. Ochterski, 
 R. L. Martin, K. Morokuma, V. G. Zakrzewski, G. A. Voth, 
 P. Salvador, J. J. Dannenberg, S. Dapprich, A. D. Daniels, 
 O. Farkas, J. B. Foresman, J. V. Ortiz, J. Cioslowski, 
 and D. J. Fox, Gaussian, Inc., Wallingford CT, 2010.
 
 ******************************************
 Gaussian 09:  AM64L-G09RevC.01 23-Sep-2011
                17-May-2024 
 ******************************************
 %nprocshared=4
 Will use up to    4 processors via shared memory.
 ------------------------------------------------
 # mpw1pw91/6-31+G** nmr scrf=(pcm,solvent=water)
 ------------------------------------------------
 1/38=1/1;
 2/12=2,17=6,18=5,40=1/2;
 3/5=1,6=6,7=111,11=2,16=1,25=1,30=1,70=2201,72=1,74=-7/1,2,8,3;
 4//1;
 5/5=2,38=5,53=1/2;
 8/6=1,10=90,11=11/1;
 10/13=100,45=16/2;
 6/7=2,8=2,9=2,10=2,28=1/1;
 99/9=1/99;
 -------
 comment
 -------
 Charge =  0 Multiplicity = 1
 Symbolic Z-Matrix:
 6                    -1.83642   1.38556   0.08535 
 6                    -1.07491   0.46654  -0.88694 
 7                     0.38565   0.72856  -0.64571 
 6                     0.48933   1.66496   0.49863 
 6                    -0.80339   2.47403   0.41294 
 6                     1.03829  -0.59708  -0.50505 
 6                    -0.03211  -1.55392   0.0346 
 6                    -1.28154  -1.07132  -0.71873 
 1                    -2.76084   1.7775   -0.35025 
 1                    -2.10278   0.8406    0.99672 
 1                    -1.32362   0.7365   -1.92017 
 1                     1.39235   2.27891   0.40806 
 1                     0.52932   1.15668   1.47134 
 1                    -0.74475   3.20696  -0.40092 
 1                    -1.02265   3.01268   1.34024 
 1                     1.27216  -0.95809  -1.51832 
 1                     0.20259  -2.60265  -0.19395 
 1                    -1.29524  -1.54303  -1.70937 
 8                    -2.43553  -1.47602   0.01823 
 1                    -3.21187  -1.03379  -0.3633 
 8                    -0.19975  -1.39075   1.4469 
 1                    -1.14389  -1.56324   1.62011 
 6                     2.34591  -0.62012   0.26927 
 1                     2.21417  -0.24912   1.29153 
 1                     2.6815   -1.66506   0.33784 
 8                     3.31299   0.17204  -0.43213 
 1                     4.12134   0.17114   0.10595 
 
                          Input orientation:                          
 ---------------------------------------------------------------------
 Center     Atomic      Atomic             Coordinates (Angstroms)
 Number     Number       Type             X           Y           Z
 ---------------------------------------------------------------------
      1          6           0       -1.836423    1.385556    0.085349
      2          6           0       -1.074913    0.466544   -0.886938
      3          7           0        0.385647    0.728558   -0.645707
      4          6           0        0.489331    1.664964    0.498631
      5          6           0       -0.803387    2.474030    0.412938
      6          6           0        1.038289   -0.597083   -0.505050
      7          6           0       -0.032110   -1.553922    0.034596
      8          6           0       -1.281539   -1.071323   -0.718725
      9          1           0       -2.760844    1.777503   -0.350250
     10          1           0       -2.102776    0.840599    0.996715
     11          1           0       -1.323623    0.736504   -1.920165
     12          1           0        1.392352    2.278907    0.408062
     13          1           0        0.529322    1.156679    1.471342
     14          1           0       -0.744746    3.206958   -0.400923
     15          1           0       -1.022652    3.012676    1.340243
     16          1           0        1.272160   -0.958086   -1.518318
     17          1           0        0.202592   -2.602652   -0.193951
     18          1           0       -1.295241   -1.543027   -1.709369
     19          8           0       -2.435530   -1.476019    0.018234
     20          1           0       -3.211869   -1.033792   -0.363301
     21          8           0       -0.199750   -1.390748    1.446896
     22          1           0       -1.143885   -1.563240    1.620111
     23          6           0        2.345911   -0.620118    0.269268
     24          1           0        2.214167   -0.249119    1.291526
     25          1           0        2.681498   -1.665064    0.337840
     26          8           0        3.312995    0.172043   -0.432127
     27          1           0        4.121342    0.171135    0.105948
 ---------------------------------------------------------------------
                    Distance matrix (angstroms):
                    1          2          3          4          5
     1  C    0.000000
     2  C    1.539423   0.000000
     3  N    2.429750   1.503356   0.000000
     4  C    2.378656   2.408915   1.482267   0.000000
     5  C    1.535986   2.406949   2.362457   1.527433   0.000000
     6  C    3.541666   2.396406   1.484268   2.534874   3.696783
     7  C    3.449442   2.453354   2.418067   3.293699   4.118544
     8  C    2.643990   1.560777   2.454468   3.479253   3.752175
     9  H    1.094497   2.202047   3.329863   3.361086   2.213424
    10  H    1.094765   2.178203   2.983681   2.765264   2.167327
    11  H    2.169405   1.096491   2.132114   3.162185   2.955167
    12  H    3.365592   3.324016   2.127784   1.095708   2.204397
    13  H    2.751383   2.934509   2.164677   1.098235   2.152149
    14  H    2.178468   2.802693   2.734991   2.170228   1.096810
    15  H    2.210091   3.383172   3.338338   2.193338   1.094583
    16  H    4.210427   2.817262   2.095739   3.400191   4.451636
    17  H    4.487916   3.395911   3.366683   4.332948   5.210855
    18  H    3.477138   2.182501   3.019414   4.283826   4.569776
    19  O    2.924388   2.538536   3.641431   4.318723   4.292152
    20  H    2.818933   2.663041   4.015937   4.661018   4.325292
    21  O    3.498624   3.108412   3.035315   3.272830   4.045980
    22  H    3.395659   3.226465   3.567315   3.787666   4.227618
    23  C    4.642033   3.770900   2.549263   2.953150   4.417292
    24  H    4.531479   4.009480   2.837642   2.695822   4.158496
    25  H    5.457256   4.489372   3.459440   3.990055   5.411300
    26  O    5.315722   4.421235   2.987422   3.326891   4.791438
    27  H    6.080313   5.298505   3.851120   3.946800   5.445229
                    6          7          8          9         10
     6  C    0.000000
     7  C    1.533790   0.000000
     8  C    2.377428   1.536707   0.000000
     9  H    4.482860   4.323481   3.231088   0.000000
    10  H    3.766765   3.308634   2.696778   1.767811   0.000000
    11  H    3.059352   3.276454   2.171052   2.369370   3.020944
    12  H    3.038166   4.105989   4.432086   4.251527   3.825070
    13  H    2.690883   3.118782   3.611039   3.811668   2.693161
    14  H    4.202474   4.833581   4.323521   2.471955   3.065500
    15  H    4.547850   4.851773   4.580985   2.721163   2.450020
    16  H    1.100786   2.113689   2.678348   5.011282   4.577210
    17  H    2.194876   1.098705   2.196133   5.290760   4.311425
    18  H    2.791157   2.153377   1.097300   3.875708   3.695494
    19  O    3.621294   2.404738   1.427789   3.290443   2.536704
    20  H    4.274886   3.246494   1.963137   2.847275   2.567698
    21  O    2.443919   1.431545   2.441765   4.452724   2.966999
    22  H    3.195568   1.936489   2.393968   4.202076   2.662055
    23  C    1.519860   2.565550   3.786570   5.675503   4.738532
    24  H    2.175190   2.885852   4.115469   5.617238   4.462107
    25  H    2.133350   2.732760   4.144215   6.476405   5.440748
    26  O    2.402324   3.792956   4.768421   6.282971   5.640845
    27  H    3.235536   4.498008   5.604901   7.081880   6.323076
                   11         12         13         14         15
    11  H    0.000000
    12  H    3.895660   0.000000
    13  H    3.887451   1.770531   0.000000
    14  H    2.957421   2.466358   3.054876   0.000000
    15  H    3.987706   2.690655   2.422919   1.773876   0.000000
    16  H    3.125893   3.768754   3.736590   4.760680   5.404117
    17  H    4.056983   5.060392   4.124624   5.889979   5.948687
    18  H    2.289433   5.129703   4.553500   4.957563   5.488977
    19  O    3.144676   5.376255   4.222910   4.996470   4.887977
    20  H    3.020471   5.724319   4.707503   4.906330   4.905980
    21  O    4.138284   4.132836   2.649817   4.985013   4.480925
    22  H    4.225480   4.760636   3.196829   5.196025   4.586069
    23  C    4.483249   3.054977   2.811047   4.964658   5.068668
    24  H    4.878767   2.801215   2.201659   4.854278   4.595506
    25  H    5.187206   4.149908   3.725443   6.001793   6.050355
    26  O    4.902153   2.972148   3.513052   5.067242   5.477986
    27  H    5.837159   3.461410   3.967141   5.757773   6.004874
                   16         17         18         19         20
    16  H    0.000000
    17  H    2.366965   0.000000
    18  H    2.640114   2.379664   0.000000
    19  O    4.046753   2.876458   2.071077   0.000000
    20  H    4.631016   3.761455   2.396807   0.971512   0.000000
    21  O    3.338594   2.079175   3.344443   2.654630   3.532293
    22  H    4.006647   2.486805   3.332980   2.059603   2.913897
    23  C    2.112493   2.956151   4.245557   4.863925   5.608938
    24  H    3.047168   3.433976   4.795364   4.974559   5.726782
    25  H    2.435441   2.703118   4.474417   5.130484   5.968407
    26  O    2.573327   4.174957   5.080222   5.997039   6.635708
    27  H    3.468605   4.810451   5.964319   6.761167   7.446343
                   21         22         23         24         25
    21  O    0.000000
    22  H    0.975268   0.000000
    23  C    2.908792   3.859136   0.000000
    24  H    2.674781   3.620966   1.095449   0.000000
    25  H    3.099491   4.035857   1.099651   1.769976   0.000000
    26  O    4.279301   5.204485   1.433431   2.087051   2.089641
    27  H    4.786382   5.746596   1.950618   2.284628   2.344899
                   26         27
    26  O    0.000000
    27  H    0.971056   0.000000
 Stoichiometry    C8H15NO3
 Framework group  C1[X(C8H15NO3)]
 Deg. of freedom    75
 Full point group                 C1      NOp   1
 Largest Abelian subgroup         C1      NOp   1
 Largest concise Abelian subgroup C1      NOp   1
                         Standard orientation:                         
 ---------------------------------------------------------------------
 Center     Atomic      Atomic             Coordinates (Angstroms)
 Number     Number       Type             X           Y           Z
 ---------------------------------------------------------------------
      1          6           0       -1.836423    1.385556    0.085349
      2          6           0       -1.074913    0.466544   -0.886938
      3          7           0        0.385647    0.728558   -0.645707
      4          6           0        0.489331    1.664964    0.498631
      5          6           0       -0.803387    2.474030    0.412938
      6          6           0        1.038289   -0.597083   -0.505050
      7          6           0       -0.032110   -1.553922    0.034596
      8          6           0       -1.281539   -1.071323   -0.718725
      9          1           0       -2.760844    1.777503   -0.350250
     10          1           0       -2.102776    0.840599    0.996715
     11          1           0       -1.323623    0.736504   -1.920165
     12          1           0        1.392352    2.278907    0.408062
     13          1           0        0.529322    1.156679    1.471342
     14          1           0       -0.744746    3.206958   -0.400923
     15          1           0       -1.022652    3.012676    1.340243
     16          1           0        1.272160   -0.958086   -1.518318
     17          1           0        0.202592   -2.602652   -0.193951
     18          1           0       -1.295241   -1.543027   -1.709369
     19          8           0       -2.435530   -1.476019    0.018234
     20          1           0       -3.211869   -1.033792   -0.363301
     21          8           0       -0.199750   -1.390748    1.446896
     22          1           0       -1.143885   -1.563240    1.620111
     23          6           0        2.345911   -0.620118    0.269268
     24          1           0        2.214167   -0.249119    1.291526
     25          1           0        2.681498   -1.665064    0.337840
     26          8           0        3.312995    0.172043   -0.432127
     27          1           0        4.121342    0.171135    0.105948
 ---------------------------------------------------------------------
 Rotational constants (GHZ):      1.2945811      0.8635828      0.6286648
 Standard basis: 6-31+G(d,p) (6D, 7F)
 There are   303 symmetry adapted basis functions of A   symmetry.
 Integral buffers will be    131072 words long.
 Raffenetti 2 integral format.
 Two-electron integral symmetry is turned on.
   303 basis functions,   489 primitive gaussians,   303 cartesian basis functions
    47 alpha electrons       47 beta electrons
       nuclear repulsion energy       814.2778589239 Hartrees.
 NAtoms=   27 NActive=   27 NUniq=   27 SFac= 1.00D+00 NAtFMM=   60 NAOKFM=F Big=F
 ------------------------------------------------------------------------------
 Polarizable Continuum Model (PCM)
 =================================
 Model                : PCM.
 Atomic radii         : UFF (Universal Force Field).
 Polarization charges : Total charges.
 Charge compensation  : None.
 Solution method      : Matrix inversion.
 Cavity type          : Scaled VdW (van der Waals Surface) (Alpha=1.100).
 Cavity algorithm     : GePol (No added spheres)
                        Default sphere list used, NSphG=   27.
                        Lebedev-Laikov grids with approx.  5.0 points / Ang**2.
                        Smoothing algorithm: Karplus/York (Gamma=1.0000).
                        Polarization charges: spherical gaussians, with
                                              point-specific exponents (IZeta= 3).
                        Self-potential: point-specific (ISelfS= 7).
                        Self-field    : sphere-specific E.n sum rule (ISelfD= 2).
 Solvent              : Water, Eps=  78.355300 Eps(inf)=   1.777849
 ------------------------------------------------------------------------------
 One-electron integrals computed using PRISM.
 NBasis=   303 RedAO= T  NBF=   303
 NBsUse=   303 1.00D-06 NBFU=   303
 Harris functional with IExCor=  908 diagonalized for initial guess.
 ExpMin= 4.38D-02 ExpMax= 5.48D+03 ExpMxC= 8.25D+02 IAcc=2 IRadAn=         4 AccDes= 0.00D+00
 HarFok:  IExCor=  908 AccDes= 0.00D+00 IRadAn=         4 IDoV= 1
 ScaDFX=  1.000000  1.000000  1.000000  1.000000
 FoFCou: FMM=F IPFlag=           0 FMFlag=      100000 FMFlg1=           0
         NFxFlg=           0 DoJE=T BraDBF=F KetDBF=T FulRan=T
         Omega=  0.000000  0.000000  1.000000  0.000000  0.000000 ICntrl=     500 IOpCl=  0
         NMat0=    1 NMatS0=    1 NMatT0=    0 NMatD0=    1 NMtDS0=    0 NMtDT0=    0
         I1Cent=           4 NGrid=           0.
 Petite list used in FoFCou.
 Initial guess orbital symmetries:
       Occupied  (A) (A) (A) (A) (A) (A) (A) (A) (A) (A) (A) (A)
                 (A) (A) (A) (A) (A) (A) (A) (A) (A) (A) (A) (A)
                 (A) (A) (A) (A) (A) (A) (A) (A) (A) (A) (A) (A)
                 (A) (A) (A) (A) (A) (A) (A) (A) (A) (A) (A)
       Virtual   (A) (A) (A) (A) (A) (A) (A) (A) (A) (A) (A) (A)
                 (A) (A) (A) (A) (A) (A) (A) (A) (A) (A) (A) (A)
                 (A) (A) (A) (A) (A) (A) (A) (A) (A) (A) (A) (A)
                 (A) (A) (A) (A) (A) (A) (A) (A) (A) (A) (A) (A)
                 (A) (A) (A) (A) (A) (A) (A) (A) (A) (A) (A) (A)
                 (A) (A) (A) (A) (A) (A) (A) (A) (A) (A) (A) (A)
                 (A) (A) (A) (A) (A) (A) (A) (A) (A) (A) (A) (A)
                 (A) (A) (A) (A) (A) (A) (A) (A) (A) (A) (A) (A)
                 (A) (A) (A) (A) (A) (A) (A) (A) (A) (A) (A) (A)
                 (A) (A) (A) (A) (A) (A) (A) (A) (A) (A) (A) (A)
                 (A) (A) (A) (A) (A) (A) (A) (A) (A) (A) (A) (A)
                 (A) (A) (A) (A) (A) (A) (A) (A) (A) (A) (A) (A)
                 (A) (A) (A) (A) (A) (A) (A) (A) (A) (A) (A) (A)
                 (A) (A) (A) (A) (A) (A) (A) (A) (A) (A) (A) (A)
                 (A) (A) (A) (A) (A) (A) (A) (A) (A) (A) (A) (A)
                 (A) (A) (A) (A) (A) (A) (A) (A) (A) (A) (A) (A)
                 (A) (A) (A) (A) (A) (A) (A) (A) (A) (A) (A) (A)
                 (A) (A) (A) (A) (A) (A) (A) (A) (A) (A) (A) (A)
                 (A) (A) (A) (A) (A) (A) (A) (A) (A) (A) (A) (A)
                 (A) (A) (A) (A) (A) (A) (A) (A) (A) (A) (A) (A)
                 (A) (A) (A) (A) (A) (A) (A) (A) (A) (A) (A) (A)
                 (A) (A) (A) (A)
 The electronic state of the initial guess is 1-A.
 Requested convergence on RMS density matrix=1.00D-08 within 128 cycles.
 Requested convergence on MAX density matrix=1.00D-06.
 Requested convergence on             energy=1.00D-06.
 No special actions if energy rises.
 Error on total polarization charges =  0.01406
 SCF Done:  E(RmPW1PW91) =  -594.190342174     A.U. after   13 cycles
             Convg  =    0.3826D-08             -V/T =  2.0094
 Range of M.O.s used for correlation:     1   303
 NBasis=   303 NAE=    47 NBE=    47 NFC=     0 NFV=     0
 NROrb=    303 NOA=    47 NOB=    47 NVA=   256 NVB=   256

 **** Warning!!: The largest alpha MO coefficient is  0.84989486D+02

 NEqPCM:  Using equilibrium solvation (IEInf=0, Eps=  78.3553, EpsInf=   1.7778)
          Differentiating once with respect to magnetic field using GIAOs.
          Electric field/nuclear overlap derivatives assumed to be zero.
 FoFCou: FMM=F IPFlag=           0 FMFlag=    10101102 FMFlg1=           0
         NFxFlg=    40000000 DoJE=F BraDBF=F KetDBF=T FulRan=T
         Omega=  0.000000  0.000000  1.000000  0.000000  0.000000 ICntrl=    6100 IOpCl=  0
         NMat0=    1 NMatS0=    1 NMatT0=    0 NMatD0=    1 NMtDS0=    0 NMtDT0=    0
         I1Cent=           7 NGrid=        1797.
 Symmetry not used in FoFCou.
          There are     3 degrees of freedom in the 1st order CPHF.  IDoFFX=0.
      3 vectors produced by pass  0 Test12= 4.01D-13 3.33D-08 XBig12= 3.26D+01 1.04D+00.
 AX will form     3 AO Fock derivatives at one time.
      3 vectors produced by pass  1 Test12= 4.01D-13 3.33D-08 XBig12= 8.18D-02 5.03D-02.
      3 vectors produced by pass  2 Test12= 4.01D-13 3.33D-08 XBig12= 1.85D-04 2.44D-03.
      3 vectors produced by pass  3 Test12= 4.01D-13 3.33D-08 XBig12= 1.02D-06 2.01D-04.
      3 vectors produced by pass  4 Test12= 4.01D-13 3.33D-08 XBig12= 2.92D-09 9.33D-06.
      3 vectors produced by pass  5 Test12= 4.01D-13 3.33D-08 XBig12= 8.27D-12 4.61D-07.
      1 vectors produced by pass  6 Test12= 4.01D-13 3.33D-08 XBig12= 3.03D-14 3.93D-08.
 Inverted reduced A of dimension    19 with in-core refinement.
 Calculating GIAO nuclear magnetic shielding tensors.
 SCF GIAO Magnetic shielding tensor (ppm):
      1  C    Isotropic =   168.1181   Anisotropy =    20.9042
   XX=   176.4017   YX=    -1.9659   ZX=     1.9533
   XY=     7.1676   YY=   170.6886   ZY=    15.9326
   XZ=    -0.8947   YZ=    15.3032   ZZ=   157.2639
   Eigenvalues:   146.9436   175.3564   182.0542
      2  C    Isotropic =   127.6705   Anisotropy =    53.4008
   XX=   160.1861   YX=     8.8734   ZX=     3.7942
   XY=    10.8264   YY=   131.2250   ZY=     5.3465
   XZ=    -4.7776   YZ=    10.8585   ZZ=    91.6003
   Eigenvalues:    89.9242   129.8162   163.2710
      3  N    Isotropic =   191.9311   Anisotropy =    88.1983
   XX=   235.6816   YX=   -30.1774   ZX=    23.8140
   XY=   -19.7490   YY=   201.8880   ZY=    27.8618
   XZ=    33.0989   YZ=    24.7795   ZZ=   138.2238
   Eigenvalues:   118.0166   207.0468   250.7300
      4  C    Isotropic =   145.5852   Anisotropy =    45.2827
   XX=   140.6308   YX=     2.4022   ZX=    -0.0026
   XY=    -7.4464   YY=   151.6769   ZY=    26.8823
   XZ=     6.3637   YZ=    28.0644   ZZ=   144.4481
   Eigenvalues:   119.5719   141.4102   175.7737
      5  C    Isotropic =   166.8036   Anisotropy =    20.6412
   XX=   179.5602   YX=    -2.6733   ZX=     3.0094
   XY=    -3.1508   YY=   172.0621   ZY=    18.9049
   XZ=     5.7561   YZ=     8.2229   ZZ=   148.7886
   Eigenvalues:   141.8370   178.0095   180.5644
      6  C    Isotropic =   131.1293   Anisotropy =    27.2436
   XX=   139.2934   YX=    -0.7390   ZX=     5.2358
   XY=    -9.5085   YY=   143.5921   ZY=   -10.6912
   XZ=    -8.5453   YZ=   -12.7664   ZZ=   110.5026
   Eigenvalues:   106.4639   137.6324   149.2917
      7  C    Isotropic =   117.1811   Anisotropy =    24.2691
   XX=   109.6291   YX=     3.8364   ZX=    -9.6660
   XY=     3.7146   YY=   110.3625   ZY=     1.6777
   XZ=    -1.7927   YZ=    -6.0303   ZZ=   131.5516
   Eigenvalues:   105.8504   112.3323   133.3605
      8  C    Isotropic =   119.7356   Anisotropy =    49.2132
   XX=   145.1221   YX=     9.6163   ZX=   -16.1841
   XY=     8.4026   YY=   118.2110   ZY=   -10.5532
   XZ=   -11.3339   YZ=   -10.0509   ZZ=    95.8737
   Eigenvalues:    90.0122   116.6502   152.5444
      9  H    Isotropic =    29.9745   Anisotropy =    11.1880
   XX=    35.2809   YX=    -3.8064   ZX=     3.0488
   XY=    -2.9847   YY=    28.9302   ZY=    -0.1294
   XZ=     2.8169   YZ=    -0.4757   ZZ=    25.7124
   Eigenvalues:    24.7599    27.7304    37.4332
     10  H    Isotropic =    29.5563   Anisotropy =     6.3305
   XX=    27.9731   YX=     1.0900   ZX=    -3.7326
   XY=     1.2140   YY=    31.0076   ZY=    -1.0045
   XZ=    -4.4246   YZ=    -0.9001   ZZ=    29.6881
   Eigenvalues:    24.6486    30.2436    33.7766
     11  H    Isotropic =    27.8404   Anisotropy =     8.8849
   XX=    26.4948   YX=     0.2488   ZX=     3.6121
   XY=    -0.4182   YY=    24.9241   ZY=    -1.3773
   XZ=     3.0348   YZ=    -0.7848   ZZ=    32.1022
   Eigenvalues:    24.4958    25.2618    33.7636
     12  H    Isotropic =    28.5246   Anisotropy =     9.3436
   XX=    31.6565   YX=     2.8819   ZX=     0.5798
   XY=     3.8422   YY=    30.1178   ZY=     2.2151
   XZ=     0.9383   YZ=     2.6548   ZZ=    23.7995
   Eigenvalues:    22.9516    27.8686    34.7536
     13  H    Isotropic =    28.0032   Anisotropy =     6.5907
   XX=    24.7446   YX=    -1.3041   ZX=     1.9175
   XY=    -1.3566   YY=    27.7306   ZY=     1.4462
   XZ=     2.9605   YZ=     0.6322   ZZ=    31.5343
   Eigenvalues:    23.3773    28.2353    32.3970
     14  H    Isotropic =    29.7122   Anisotropy =    11.1412
   XX=    27.0283   YX=     0.3130   ZX=     0.3122
   XY=    -0.0104   YY=    35.1768   ZY=    -4.2043
   XZ=     0.3028   YZ=    -4.7482   ZZ=    26.9315
   Eigenvalues:    24.9133    27.0837    37.1397
     15  H    Isotropic =    29.6244   Anisotropy =    11.6850
   XX=    26.7734   YX=    -1.2880   ZX=    -1.2314
   XY=    -1.6075   YY=    31.6149   ZY=     6.1237
   XZ=    -1.6105   YZ=     5.7794   ZZ=    30.4850
   Eigenvalues:    25.0673    26.3916    37.4144
     16  H    Isotropic =    28.3568   Anisotropy =     8.5925
   XX=    28.3095   YX=    -2.4335   ZX=    -2.1380
   XY=    -2.4617   YY=    27.6355   ZY=     3.7042
   XZ=    -3.7098   YZ=     2.4968   ZZ=    29.1255
   Eigenvalues:    25.1771    25.8083    34.0852
     17  H    Isotropic =    27.5002   Anisotropy =     8.3477
   XX=    24.2357   YX=    -1.8242   ZX=    -0.1364
   XY=    -1.3602   YY=    31.5540   ZY=     2.1071
   XZ=    -1.4980   YZ=     3.1432   ZZ=    26.7110
   Eigenvalues:    23.8675    25.5678    33.0654
     18  H    Isotropic =    27.2018   Anisotropy =     7.0517
   XX=    25.4219   YX=     1.5321   ZX=    -1.6059
   XY=     2.7141   YY=    26.6452   ZY=     3.3343
   XZ=     1.0732   YZ=     3.3939   ZZ=    29.5384
   Eigenvalues:    22.9047    26.7978    31.9030
     19  O    Isotropic =   305.5697   Anisotropy =    52.8156
   XX=   324.1632   YX=    -8.4046   ZX=     9.0879
   XY=    -0.7205   YY=   312.6944   ZY=   -12.9641
   XZ=    45.9807   YZ=   -12.4448   ZZ=   279.8514
   Eigenvalues:   264.7377   311.1912   340.7801
     20  H    Isotropic =    30.0429   Anisotropy =    18.8276
   XX=    40.4265   YX=    -3.2583   ZX=     4.1250
   XY=    -3.8591   YY=    25.9981   ZY=    -3.8654
   XZ=     4.3493   YZ=    -3.5907   ZZ=    23.7040
   Eigenvalues:    20.8454    26.6886    42.5946
     21  O    Isotropic =   312.4882   Anisotropy =    26.5874
   XX=   327.4112   YX=     9.4655   ZX=    -9.6667
   XY=     0.5391   YY=   316.6969   ZY=    21.6409
   XZ=    -7.6120   YZ=    -4.4818   ZZ=   293.3564
   Eigenvalues:   288.1061   319.1453   330.2131
     22  H    Isotropic =    28.7757   Anisotropy =    16.9642
   XX=    38.6958   YX=     3.5953   ZX=    -1.7255
   XY=     3.2942   YY=    19.3563   ZY=    -3.8154
   XZ=    -3.2653   YZ=    -2.7131   ZZ=    28.2751
   Eigenvalues:    17.9720    28.2700    40.0852
     23  C    Isotropic =   133.7465   Anisotropy =    60.6688
   XX=   148.4263   YX=    21.1358   ZX=   -17.0871
   XY=    22.3361   YY=   130.1652   ZY=   -18.2043
   XZ=   -18.0678   YZ=   -15.8939   ZZ=   122.6478
   Eigenvalues:   108.9476   118.0995   174.1923
     24  H    Isotropic =    27.1237   Anisotropy =     4.2093
   XX=    29.1720   YX=     0.2126   ZX=    -1.3363
   XY=     1.5042   YY=    23.4641   ZY=    -2.0482
   XZ=    -0.0159   YZ=    -0.0261   ZZ=    28.7350
   Eigenvalues:    23.1798    28.2615    29.9299
     25  H    Isotropic =    27.4741   Anisotropy =     6.3942
   XX=    29.3757   YX=     0.5398   ZX=    -0.2506
   XY=    -2.3075   YY=    30.4080   ZY=    -2.8313
   XZ=    -0.5178   YZ=    -3.4624   ZZ=    22.6386
   Eigenvalues:    21.4690    29.2165    31.7369
     26  O    Isotropic =   314.0878   Anisotropy =    89.1603
   XX=   361.3570   YX=    14.7850   ZX=    21.3244
   XY=     8.5464   YY=   279.9554   ZY=     5.0503
   XZ=    33.2007   YZ=     4.2767   ZZ=   300.9508
   Eigenvalues:   278.2667   290.4686   373.5280
     27  H    Isotropic =    30.2399   Anisotropy =    21.2497
   XX=    41.2869   YX=     2.3980   ZX=     7.9484
   XY=     3.5854   YY=    22.1825   ZY=    -1.0600
   XZ=     6.0629   YZ=    -1.8827   ZZ=    27.2502
   Eigenvalues:    20.3951    25.9182    44.4063
 End of Minotr Frequency-dependent properties file   721 does not exist.
 End of Minotr Frequency-dependent properties file   722 does not exist.

 **********************************************************************

            Population analysis using the SCF density.

 **********************************************************************

 Orbital symmetries:
       Occupied  (A) (A) (A) (A) (A) (A) (A) (A) (A) (A) (A) (A)
                 (A) (A) (A) (A) (A) (A) (A) (A) (A) (A) (A) (A)
                 (A) (A) (A) (A) (A) (A) (A) (A) (A) (A) (A) (A)
                 (A) (A) (A) (A) (A) (A) (A) (A) (A) (A) (A)
       Virtual   (A) (A) (A) (A) (A) (A) (A) (A) (A) (A) (A) (A)
                 (A) (A) (A) (A) (A) (A) (A) (A) (A) (A) (A) (A)
                 (A) (A) (A) (A) (A) (A) (A) (A) (A) (A) (A) (A)
                 (A) (A) (A) (A) (A) (A) (A) (A) (A) (A) (A) (A)
                 (A) (A) (A) (A) (A) (A) (A) (A) (A) (A) (A) (A)
                 (A) (A) (A) (A) (A) (A) (A) (A) (A) (A) (A) (A)
                 (A) (A) (A) (A) (A) (A) (A) (A) (A) (A) (A) (A)
                 (A) (A) (A) (A) (A) (A) (A) (A) (A) (A) (A) (A)
                 (A) (A) (A) (A) (A) (A) (A) (A) (A) (A) (A) (A)
                 (A) (A) (A) (A) (A) (A) (A) (A) (A) (A) (A) (A)
                 (A) (A) (A) (A) (A) (A) (A) (A) (A) (A) (A) (A)
                 (A) (A) (A) (A) (A) (A) (A) (A) (A) (A) (A) (A)
                 (A) (A) (A) (A) (A) (A) (A) (A) (A) (A) (A) (A)
                 (A) (A) (A) (A) (A) (A) (A) (A) (A) (A) (A) (A)
                 (A) (A) (A) (A) (A) (A) (A) (A) (A) (A) (A) (A)
                 (A) (A) (A) (A) (A) (A) (A) (A) (A) (A) (A) (A)
                 (A) (A) (A) (A) (A) (A) (A) (A) (A) (A) (A) (A)
                 (A) (A) (A) (A) (A) (A) (A) (A) (A) (A) (A) (A)
                 (A) (A) (A) (A) (A) (A) (A) (A) (A) (A) (A) (A)
                 (A) (A) (A) (A) (A) (A) (A) (A) (A) (A) (A) (A)
                 (A) (A) (A) (A) (A) (A) (A) (A) (A) (A) (A) (A)
                 (A) (A) (A) (A)
 The electronic state is 1-A.
 Alpha  occ. eigenvalues --  -19.26787 -19.25458 -19.25080 -14.40773 -10.30643
 Alpha  occ. eigenvalues --  -10.30253 -10.29765 -10.28094 -10.27616 -10.26201
 Alpha  occ. eigenvalues --  -10.24418 -10.24382  -1.08004  -1.05602  -1.04727
 Alpha  occ. eigenvalues --   -0.95801  -0.82892  -0.78624  -0.75524  -0.71743
 Alpha  occ. eigenvalues --   -0.66318  -0.61424  -0.59883  -0.57935  -0.54549
 Alpha  occ. eigenvalues --   -0.52813  -0.52400  -0.51925  -0.49294  -0.46790
 Alpha  occ. eigenvalues --   -0.46375  -0.44635  -0.42808  -0.41347  -0.41140
 Alpha  occ. eigenvalues --   -0.38714  -0.38294  -0.37140  -0.35778  -0.35605
 Alpha  occ. eigenvalues --   -0.35021  -0.34322  -0.33669  -0.30685  -0.29692
 Alpha  occ. eigenvalues --   -0.29005  -0.22408
 Alpha virt. eigenvalues --    0.00052   0.01182   0.01846   0.02348   0.03201
 Alpha virt. eigenvalues --    0.04430   0.04987   0.05447   0.05522   0.06847
 Alpha virt. eigenvalues --    0.07975   0.08393   0.08809   0.09222   0.09747
 Alpha virt. eigenvalues --    0.10668   0.11579   0.12109   0.12382   0.13166
 Alpha virt. eigenvalues --    0.13455   0.14157   0.14521   0.14695   0.15415
 Alpha virt. eigenvalues --    0.15794   0.17343   0.17539   0.17815   0.18494
 Alpha virt. eigenvalues --    0.18884   0.19376   0.19712   0.19965   0.21171
 Alpha virt. eigenvalues --    0.21391   0.21791   0.22830   0.23183   0.23627
 Alpha virt. eigenvalues --    0.23798   0.24701   0.24975   0.25896   0.26069
 Alpha virt. eigenvalues --    0.26683   0.27149   0.27912   0.28009   0.28743
 Alpha virt. eigenvalues --    0.29478   0.29862   0.30208   0.30854   0.32072
 Alpha virt. eigenvalues --    0.32355   0.32967   0.33599   0.34536   0.35387
 Alpha virt. eigenvalues --    0.36189   0.36916   0.37373   0.38157   0.39050
 Alpha virt. eigenvalues --    0.39318   0.39809   0.40595   0.41435   0.41793
 Alpha virt. eigenvalues --    0.42825   0.43516   0.44271   0.45612   0.47313
 Alpha virt. eigenvalues --    0.51026   0.65148   0.68013   0.68384   0.69659
 Alpha virt. eigenvalues --    0.70608   0.71079   0.71749   0.72976   0.73824
 Alpha virt. eigenvalues --    0.75372   0.77270   0.79126   0.80396   0.80777
 Alpha virt. eigenvalues --    0.82654   0.83663   0.84707   0.86423   0.88840
 Alpha virt. eigenvalues --    0.89892   0.90869   0.94330   0.96403   0.97503
 Alpha virt. eigenvalues --    0.98485   1.00218   1.02418   1.03364   1.05742
 Alpha virt. eigenvalues --    1.06013   1.07038   1.07609   1.08037   1.09438
 Alpha virt. eigenvalues --    1.11529   1.12541   1.14265   1.15732   1.16785
 Alpha virt. eigenvalues --    1.17117   1.19116   1.20652   1.22438   1.26525
 Alpha virt. eigenvalues --    1.27347   1.29572   1.30208   1.32849   1.33612
 Alpha virt. eigenvalues --    1.34620   1.35584   1.37357   1.38867   1.40422
 Alpha virt. eigenvalues --    1.42706   1.47905   1.49135   1.52619   1.53198
 Alpha virt. eigenvalues --    1.53522   1.57557   1.58001   1.59634   1.61129
 Alpha virt. eigenvalues --    1.63198   1.64975   1.67800   1.68072   1.69482
 Alpha virt. eigenvalues --    1.71756   1.75509   1.77080   1.78686   1.79940
 Alpha virt. eigenvalues --    1.82568   1.83204   1.85493   1.86783   1.87066
 Alpha virt. eigenvalues --    1.88869   1.91889   1.93384   1.94486   1.96322
 Alpha virt. eigenvalues --    1.96990   2.00157   2.01615   2.02480   2.03492
 Alpha virt. eigenvalues --    2.04469   2.06731   2.08158   2.10139   2.10453
 Alpha virt. eigenvalues --    2.12031   2.15719   2.17194   2.17452   2.19992
 Alpha virt. eigenvalues --    2.21161   2.22304   2.24109   2.28764   2.29269
 Alpha virt. eigenvalues --    2.31602   2.33743   2.36271   2.37482   2.39455
 Alpha virt. eigenvalues --    2.41309   2.42927   2.43139   2.45019   2.47887
 Alpha virt. eigenvalues --    2.48981   2.51140   2.52309   2.54449   2.56761
 Alpha virt. eigenvalues --    2.58670   2.59578   2.61319   2.62861   2.63774
 Alpha virt. eigenvalues --    2.65380   2.66873   2.67551   2.69784   2.70484
 Alpha virt. eigenvalues --    2.71516   2.72971   2.74884   2.77321   2.77680
 Alpha virt. eigenvalues --    2.79749   2.80602   2.81546   2.82328   2.85935
 Alpha virt. eigenvalues --    2.87043   2.88638   2.89360   2.90882   2.94762
 Alpha virt. eigenvalues --    2.98127   2.98991   3.00879   3.02615   3.04799
 Alpha virt. eigenvalues --    3.05779   3.09549   3.12492   3.14011   3.32841
 Alpha virt. eigenvalues --    3.36484   3.36746   3.37660   3.43724   3.44498
 Alpha virt. eigenvalues --    3.46642   3.50882   3.52385   3.55208   3.56560
 Alpha virt. eigenvalues --    3.57111   3.57640   3.59211   3.59691   4.33593
 Alpha virt. eigenvalues --    4.37054   4.40178   4.45680   4.52672   4.54698
 Alpha virt. eigenvalues --    4.62924   4.74606   4.76649   4.82192   4.88300
 Alpha virt. eigenvalues --    4.96884
          Condensed to atoms (all electrons):
              1          2          3          4          5          6
     1  C    5.791396  -0.433515   0.067995  -0.217642   0.246054   0.069044
     2  C   -0.433515   7.662222  -0.138486  -0.302558   0.058183  -0.903898
     3  N    0.067995  -0.138486   7.478385   0.276138  -0.161893  -0.369646
     4  C   -0.217642  -0.302558   0.276138   5.718742   0.045445  -0.115592
     5  C    0.246054   0.058183  -0.161893   0.045445   5.625318   0.039198
     6  C    0.069044  -0.903898  -0.369646  -0.115592   0.039198   9.481339
     7  C   -0.049071   0.697994   0.011840  -0.124378   0.049794  -2.108868
     8  C    0.057553  -0.621682  -0.120386   0.154725  -0.003023   0.927938
     9  H    0.372150  -0.059572   0.011024   0.047029  -0.046061   0.005618
    10  H    0.490858  -0.154742   0.026782   0.007789  -0.058115  -0.004333
    11  H    0.031031   0.219160  -0.006110   0.010062  -0.004345  -0.016720
    12  H    0.030125  -0.003954  -0.054233   0.378206  -0.004986  -0.005361
    13  H   -0.002883   0.010605  -0.082873   0.378451  -0.011903   0.065018
    14  H   -0.020118  -0.034645   0.016692  -0.060437   0.422111   0.001085
    15  H   -0.068121   0.043334   0.006711  -0.034017   0.399662  -0.008373
    16  H    0.001343  -0.009477  -0.001821   0.016391  -0.000995   0.205784
    17  H    0.002260   0.025885   0.027158   0.002786  -0.002288  -0.106491
    18  H    0.008141  -0.024116   0.018265   0.003420   0.000741  -0.041090
    19  O    0.045492  -0.139094   0.036271  -0.003747   0.013754  -0.013035
    20  H    0.011435  -0.048672  -0.000021  -0.000037   0.002713  -0.000336
    21  O    0.017380   0.045221   0.095867   0.032946  -0.034720  -0.430801
    22  H    0.001679  -0.018481  -0.009358  -0.001402  -0.001981   0.089802
    23  C   -0.039851   0.143708   0.032125  -0.080765  -0.046798  -0.521670
    24  H   -0.005743   0.020355   0.011759   0.003341   0.009517  -0.162228
    25  H    0.002094  -0.008998   0.010933   0.000427  -0.002475  -0.123963
    26  O    0.004102  -0.004550  -0.003443  -0.000365  -0.009360  -0.042708
    27  H   -0.000288  -0.000918  -0.002387  -0.003557  -0.000635   0.026056
              7          8          9         10         11         12
     1  C   -0.049071   0.057553   0.372150   0.490858   0.031031   0.030125
     2  C    0.697994  -0.621682  -0.059572  -0.154742   0.219160  -0.003954
     3  N    0.011840  -0.120386   0.011024   0.026782  -0.006110  -0.054233
     4  C   -0.124378   0.154725   0.047029   0.007789   0.010062   0.378206
     5  C    0.049794  -0.003023  -0.046061  -0.058115  -0.004345  -0.004986
     6  C   -2.108868   0.927938   0.005618  -0.004333  -0.016720  -0.005361
     7  C    7.746791  -1.091089  -0.022601   0.015832   0.019506  -0.002828
     8  C   -1.091089   6.508801   0.033229  -0.005491   0.017634  -0.005330
     9  H   -0.022601   0.033229   0.521101  -0.026249  -0.005179  -0.000103
    10  H    0.015832  -0.005491  -0.026249   0.517128   0.004279  -0.000045
    11  H    0.019506   0.017634  -0.005179   0.004279   0.569952   0.000143
    12  H   -0.002828  -0.005330  -0.000103  -0.000045   0.000143   0.554678
    13  H    0.015575   0.001856  -0.000116   0.001058  -0.000497  -0.045085
    14  H    0.005860  -0.000455  -0.005026   0.004085   0.000791  -0.006674
    15  H    0.005873  -0.005220   0.000290  -0.005483  -0.000134   0.000535
    16  H    0.019554  -0.015185   0.000004   0.000014   0.001805   0.000247
    17  H    0.357105   0.011218   0.000005  -0.000060  -0.000077   0.000011
    18  H    0.012567   0.318127  -0.000098   0.000055  -0.007105   0.000004
    19  O   -0.110189   0.249548  -0.002264   0.002665   0.002853   0.000102
    20  H    0.022952   0.014655  -0.000079  -0.000542   0.001006   0.000000
    21  O    0.340598  -0.072332   0.000765  -0.001646   0.000253   0.001445
    22  H   -0.058717  -0.012387   0.000001  -0.000153  -0.000034  -0.000012
    23  C    0.088175  -0.215525   0.000584  -0.000501  -0.002470   0.000522
    24  H    0.038592  -0.024360   0.000000   0.000002   0.000001  -0.000278
    25  H    0.014432   0.013543   0.000000   0.000000   0.000004   0.000036
    26  O    0.038432   0.001176  -0.000002   0.000013  -0.000173   0.001246
    27  H   -0.007319   0.001234   0.000000   0.000000   0.000000  -0.000020
             13         14         15         16         17         18
     1  C   -0.002883  -0.020118  -0.068121   0.001343   0.002260   0.008141
     2  C    0.010605  -0.034645   0.043334  -0.009477   0.025885  -0.024116
     3  N   -0.082873   0.016692   0.006711  -0.001821   0.027158   0.018265
     4  C    0.378451  -0.060437  -0.034017   0.016391   0.002786   0.003420
     5  C   -0.011903   0.422111   0.399662  -0.000995  -0.002288   0.000741
     6  C    0.065018   0.001085  -0.008373   0.205784  -0.106491  -0.041090
     7  C    0.015575   0.005860   0.005873   0.019554   0.357105   0.012567
     8  C    0.001856  -0.000455  -0.005220  -0.015185   0.011218   0.318127
     9  H   -0.000116  -0.005026   0.000290   0.000004   0.000005  -0.000098
    10  H    0.001058   0.004085  -0.005483   0.000014  -0.000060   0.000055
    11  H   -0.000497   0.000791  -0.000134   0.001805  -0.000077  -0.007105
    12  H   -0.045085  -0.006674   0.000535   0.000247   0.000011   0.000004
    13  H    0.559671   0.004097  -0.004400  -0.000473  -0.000202  -0.000006
    14  H    0.004097   0.525832  -0.025551   0.000006   0.000000   0.000002
    15  H   -0.004400  -0.025551   0.519297   0.000002   0.000000   0.000003
    16  H   -0.000473   0.000006   0.000002   0.561768   0.000259   0.001225
    17  H   -0.000202   0.000000   0.000000   0.000259   0.575874  -0.004089
    18  H   -0.000006   0.000002   0.000003   0.001225  -0.004089   0.564421
    19  O   -0.000505   0.000091   0.000062   0.000179   0.001879  -0.036311
    20  H    0.000002  -0.000001   0.000001   0.000001  -0.000178  -0.003985
    21  O   -0.015702  -0.000146  -0.000027   0.013188  -0.047107   0.006074
    22  H    0.000400   0.000001   0.000001  -0.000293  -0.000439   0.000559
    23  C   -0.043293  -0.003186   0.001249   0.036988  -0.004246   0.008277
    24  H   -0.000467   0.000000   0.000008   0.005000   0.000108   0.000002
    25  H   -0.000006   0.000000   0.000000  -0.004485   0.001907   0.000006
    26  O    0.001882   0.000019  -0.000001  -0.000232  -0.000578   0.000055
    27  H    0.000024   0.000000   0.000000  -0.000049   0.000001   0.000000
             19         20         21         22         23         24
     1  C    0.045492   0.011435   0.017380   0.001679  -0.039851  -0.005743
     2  C   -0.139094  -0.048672   0.045221  -0.018481   0.143708   0.020355
     3  N    0.036271  -0.000021   0.095867  -0.009358   0.032125   0.011759
     4  C   -0.003747  -0.000037   0.032946  -0.001402  -0.080765   0.003341
     5  C    0.013754   0.002713  -0.034720  -0.001981  -0.046798   0.009517
     6  C   -0.013035  -0.000336  -0.430801   0.089802  -0.521670  -0.162228
     7  C   -0.110189   0.022952   0.340598  -0.058717   0.088175   0.038592
     8  C    0.249548   0.014655  -0.072332  -0.012387  -0.215525  -0.024360
     9  H   -0.002264  -0.000079   0.000765   0.000001   0.000584   0.000000
    10  H    0.002665  -0.000542  -0.001646  -0.000153  -0.000501   0.000002
    11  H    0.002853   0.001006   0.000253  -0.000034  -0.002470   0.000001
    12  H    0.000102   0.000000   0.001445  -0.000012   0.000522  -0.000278
    13  H   -0.000505   0.000002  -0.015702   0.000400  -0.043293  -0.000467
    14  H    0.000091  -0.000001  -0.000146   0.000001  -0.003186   0.000000
    15  H    0.000062   0.000001  -0.000027   0.000001   0.001249   0.000008
    16  H    0.000179   0.000001   0.013188  -0.000293   0.036988   0.005000
    17  H    0.001879  -0.000178  -0.047107  -0.000439  -0.004246   0.000108
    18  H   -0.036311  -0.003985   0.006074   0.000559   0.008277   0.000002
    19  O    8.295785   0.245488  -0.010217   0.023638  -0.009614   0.000000
    20  H    0.245488   0.359173  -0.000056  -0.000822   0.002002   0.000000
    21  O   -0.010217  -0.000056   8.331838   0.244550   0.074254   0.008834
    22  H    0.023638  -0.000822   0.244550   0.355445  -0.006496  -0.000035
    23  C   -0.009614   0.002002   0.074254  -0.006496   5.726596   0.468015
    24  H    0.000000   0.000000   0.008834  -0.000035   0.468015   0.569634
    25  H    0.000023   0.000000  -0.000791  -0.000074   0.465908  -0.044973
    26  O    0.000038  -0.000001  -0.000005  -0.000027   0.111748  -0.052114
    27  H    0.000000   0.000000   0.000055   0.000000   0.000862  -0.005408
             25         26         27
     1  C    0.002094   0.004102  -0.000288
     2  C   -0.008998  -0.004550  -0.000918
     3  N    0.010933  -0.003443  -0.002387
     4  C    0.000427  -0.000365  -0.003557
     5  C   -0.002475  -0.009360  -0.000635
     6  C   -0.123963  -0.042708   0.026056
     7  C    0.014432   0.038432  -0.007319
     8  C    0.013543   0.001176   0.001234
     9  H    0.000000  -0.000002   0.000000
    10  H    0.000000   0.000013   0.000000
    11  H    0.000004  -0.000173   0.000000
    12  H    0.000036   0.001246  -0.000020
    13  H   -0.000006   0.001882   0.000024
    14  H    0.000000   0.000019   0.000000
    15  H    0.000000  -0.000001   0.000000
    16  H   -0.004485  -0.000232  -0.000049
    17  H    0.001907  -0.000578   0.000001
    18  H    0.000006   0.000055   0.000000
    19  O    0.000023   0.000038   0.000000
    20  H    0.000000  -0.000001   0.000000
    21  O   -0.000791  -0.000005   0.000055
    22  H   -0.000074  -0.000027   0.000000
    23  C    0.465908   0.111748   0.000862
    24  H   -0.044973  -0.052114  -0.005408
    25  H    0.569146  -0.051760  -0.004007
    26  O   -0.051760   8.366862   0.227107
    27  H   -0.004007   0.227107   0.382730
 Mulliken atomic charges:
              1
     1  C   -0.412899
     2  C   -0.019311
     3  N   -0.177286
     4  C   -0.131401
     5  C   -0.522915
     6  C    0.064230
     7  C    0.073588
     8  C   -0.118772
     9  H    0.175549
    10  H    0.186798
    11  H    0.164364
    12  H    0.161609
    13  H    0.169775
    14  H    0.175566
    15  H    0.174299
    16  H    0.169251
    17  H    0.159297
    18  H    0.174858
    19  O   -0.592892
    20  H    0.395300
    21  O   -0.599717
    22  H    0.394634
    23  C   -0.186597
    24  H    0.160438
    25  H    0.163074
    26  O   -0.587361
    27  H    0.386520
 Sum of Mulliken atomic charges =   0.00000
 Mulliken charges with hydrogens summed into heavy atoms:
              1
     1  C   -0.050552
     2  C    0.145053
     3  N   -0.177286
     4  C    0.199983
     5  C   -0.173050
     6  C    0.233480
     7  C    0.232884
     8  C    0.056087
    19  O   -0.197592
    21  O   -0.205083
    23  C    0.136916
    26  O   -0.200841
 Sum of Mulliken charges with hydrogens summed into heavy atoms =   0.00000
 Electronic spatial extent (au):  <R**2>=           1970.9004
 Charge=              0.0000 electrons
 Dipole moment (field-independent basis, Debye):
    X=             -2.2349    Y=             -0.4582    Z=              0.2039  Tot=              2.2904
 Quadrupole moment (field-independent basis, Debye-Ang):
   XX=            -60.3592   YY=            -74.2627   ZZ=            -75.6544
   XY=             -4.9506   XZ=              9.4077   YZ=              5.8051
 Traceless Quadrupole moment (field-independent basis, Debye-Ang):
   XX=              9.7329   YY=             -4.1706   ZZ=             -5.5623
   XY=             -4.9506   XZ=              9.4077   YZ=              5.8051
 Octapole moment (field-independent basis, Debye-Ang**2):
  XXX=             11.5389  YYY=             -3.6434  ZZZ=              1.4718  XYY=              5.1827
  XXY=             -6.3018  XXZ=             18.3554  XZZ=            -11.5636  YZZ=             -3.6591
  YYZ=             -0.9501  XYZ=              3.4063
 Hexadecapole moment (field-independent basis, Debye-Ang**3):
 XXXX=           -970.2277 YYYY=           -907.6214 ZZZZ=           -314.3289 XXXY=              7.5620
 XXXZ=            111.2936 YYYX=             -7.8110 YYYZ=              3.1774 ZZZX=             -2.2706
 ZZZY=              6.5503 XXYY=           -382.1056 XXZZ=           -270.3537 YYZZ=           -205.1037
 XXYZ=              4.1040 YYXZ=             -0.9580 ZZXY=             10.6460
 N-N= 8.142778589239D+02 E-N=-3.014996451449D+03  KE= 5.886552451524D+02
 1\1\GINC-COMPUTE-3-1\SP\RmPW1PW91\6-31+G(d,p)\C8H15N1O3\MAMICHETTI.IQU
 IR\17-May-2024\0\\# mpw1pw91/6-31+G** nmr scrf=(pcm,solvent=water)\\co
 mment\\0,1\C,0,-1.836423,1.385556,0.085349\C,0,-1.074913,0.466544,-0.8
 86938\N,0,0.385647,0.728558,-0.645707\C,0,0.489331,1.664964,0.498631\C
 ,0,-0.803387,2.47403,0.412938\C,0,1.038289,-0.597083,-0.50505\C,0,-0.0
 3211,-1.553922,0.034596\C,0,-1.281539,-1.071323,-0.718725\H,0,-2.76084
 4,1.777503,-0.35025\H,0,-2.102776,0.840599,0.996715\H,0,-1.323623,0.73
 6504,-1.920165\H,0,1.392352,2.278907,0.408062\H,0,0.529322,1.156679,1.
 471342\H,0,-0.744746,3.206958,-0.400923\H,0,-1.022652,3.012676,1.34024
 3\H,0,1.27216,-0.958086,-1.518318\H,0,0.202592,-2.602652,-0.193951\H,0
 ,-1.295241,-1.543027,-1.709369\O,0,-2.43553,-1.476019,0.018234\H,0,-3.
 211869,-1.033792,-0.363301\O,0,-0.19975,-1.390748,1.446896\H,0,-1.1438
 85,-1.56324,1.620111\C,0,2.345911,-0.620118,0.269268\H,0,2.214167,-0.2
 49119,1.291526\H,0,2.681498,-1.665064,0.33784\O,0,3.312995,0.172043,-0
 .432127\H,0,4.121342,0.171135,0.105948\\Version=AM64L-G09RevC.01\State
 =1-A\HF=-594.1903422\RMSD=3.826e-09\Dipole=-0.8792586,-0.1802863,0.080
 2361\Quadrupole=7.2361479,-3.100714,-4.1354339,-3.6806496,6.994378,4.3
 159485\PG=C01 [X(C8H15N1O3)]\\@


 IT IS A QUALITY OF REVOLUTIONS NOT TO GO BY OLD LINES OR OLD LAWS,
 BUT TO BREAK UP BOTH, AND MAKE NEW ONES.
                                              -- A. LINCOLN (1848)
 Job cpu time:  0 days  0 hours  8 minutes 38.0 seconds.
 File lengths (MBytes):  RWF=    111 Int=      0 D2E=      0 Chk=      7 Scr=      1
 Normal termination of Gaussian 09 at Fri May 17 13:15:49 2024.
