 Entering Gaussian System, Link 0=g09
 Input=/home/mamichetti.iquir/Linux/04_Cardona_A1A3_R__S_R_S_029_OptB.gjc
 Output=/home/mamichetti.iquir/Linux/04_Cardona_A1A3_R__S_R_S_029_OptB.log
 Initial command:
 /opt/ohpc/pub/apps/software/Gaussian/09/AMD64.SSE4a-enabled/g09/l1.exe /local/mamichetti.iquir/Gau-409604.inp -scrdir=/local/mamichetti.iquir/
 Entering Link 1 = /opt/ohpc/pub/apps/software/Gaussian/09/AMD64.SSE4a-enabled/g09/l1.exe PID=    409605.
  
 Copyright (c) 1988,1990,1992,1993,1995,1998,2003,2009,2011,
            Gaussian, Inc.  All Rights Reserved.
  
 This is part of the Gaussian(R) 09 program.  It is based on
 the Gaussian(R) 03 system (copyright 2003, Gaussian, Inc.),
 the Gaussian(R) 98 system (copyright 1998, Gaussian, Inc.),
 the Gaussian(R) 94 system (copyright 1995, Gaussian, Inc.),
 the Gaussian 92(TM) system (copyright 1992, Gaussian, Inc.),
 the Gaussian 90(TM) system (copyright 1990, Gaussian, Inc.),
 the Gaussian 88(TM) system (copyright 1988, Gaussian, Inc.),
 the Gaussian 86(TM) system (copyright 1986, Carnegie Mellon
 University), and the Gaussian 82(TM) system (copyright 1983,
 Carnegie Mellon University). Gaussian is a federally registered
 trademark of Gaussian, Inc.
  
 This software contains proprietary and confidential information,
 including trade secrets, belonging to Gaussian, Inc.
  
 This software is provided under written license and may be
 used, copied, transmitted, or stored only in accord with that
 written license.
  
 The following legend is applicable only to US Government
 contracts under FAR:
  
                    RESTRICTED RIGHTS LEGEND
  
 Use, reproduction and disclosure by the US Government is
 subject to restrictions as set forth in subparagraphs (a)
 and (c) of the Commercial Computer Software - Restricted
 Rights clause in FAR 52.227-19.
  
 Gaussian, Inc.
 340 Quinnipiac St., Bldg. 40, Wallingford CT 06492
  
  
 ---------------------------------------------------------------
 Warning -- This program may not be used in any manner that
 competes with the business of Gaussian, Inc. or will provide
 assistance to any competitor of Gaussian, Inc.  The licensee
 of this program is prohibited from giving any competitor of
 Gaussian, Inc. access to this program.  By using this program,
 the user acknowledges that Gaussian, Inc. is engaged in the
 business of creating and licensing software in the field of
 computational chemistry and represents and warrants to the
 licensee that it is not a competitor of Gaussian, Inc. and that
 it will not use this program in any manner prohibited above.
 ---------------------------------------------------------------
  

 Cite this work as:
 Gaussian 09, Revision C.01,
 M. J. Frisch, G. W. Trucks, H. B. Schlegel, G. E. Scuseria, 
 M. A. Robb, J. R. Cheeseman, G. Scalmani, V. Barone, B. Mennucci, 
 G. A. Petersson, H. Nakatsuji, M. Caricato, X. Li, H. P. Hratchian, 
 A. F. Izmaylov, J. Bloino, G. Zheng, J. L. Sonnenberg, M. Hada, 
 M. Ehara, K. Toyota, R. Fukuda, J. Hasegawa, M. Ishida, T. Nakajima, 
 Y. Honda, O. Kitao, H. Nakai, T. Vreven, J. A. Montgomery, Jr., 
 J. E. Peralta, F. Ogliaro, M. Bearpark, J. J. Heyd, E. Brothers, 
 K. N. Kudin, V. N. Staroverov, T. Keith, R. Kobayashi, J. Normand, 
 K. Raghavachari, A. Rendell, J. C. Burant, S. S. Iyengar, J. Tomasi, 
 M. Cossi, N. Rega, J. M. Millam, M. Klene, J. E. Knox, J. B. Cross, 
 V. Bakken, C. Adamo, J. Jaramillo, R. Gomperts, R. E. Stratmann, 
 O. Yazyev, A. J. Austin, R. Cammi, C. Pomelli, J. W. Ochterski, 
 R. L. Martin, K. Morokuma, V. G. Zakrzewski, G. A. Voth, 
 P. Salvador, J. J. Dannenberg, S. Dapprich, A. D. Daniels, 
 O. Farkas, J. B. Foresman, J. V. Ortiz, J. Cioslowski, 
 and D. J. Fox, Gaussian, Inc., Wallingford CT, 2010.
 
 ******************************************
 Gaussian 09:  AM64L-G09RevC.01 23-Sep-2011
                17-May-2024 
 ******************************************
 %nprocshared=4
 Will use up to    4 processors via shared memory.
 ------------------------------------------------
 # mpw1pw91/6-31+G** nmr scrf=(pcm,solvent=water)
 ------------------------------------------------
 1/38=1/1;
 2/12=2,17=6,18=5,40=1/2;
 3/5=1,6=6,7=111,11=2,16=1,25=1,30=1,70=2201,72=1,74=-7/1,2,8,3;
 4//1;
 5/5=2,38=5,53=1/2;
 8/6=1,10=90,11=11/1;
 10/13=100,45=16/2;
 6/7=2,8=2,9=2,10=2,28=1/1;
 99/9=1/99;
 -------
 comment
 -------
 Charge =  0 Multiplicity = 1
 Symbolic Z-Matrix:
 6                    -2.16195   0.73392   0.35699 
 6                    -1.37296   0.13383  -0.84164 
 7                    -0.11797   0.93887  -1.0011 
 6                    -0.29884   2.14338  -0.16058 
 6                    -1.2026    1.74413   1.01113 
 6                     1.04632   0.04149  -0.72215 
 6                     0.49524  -1.23938  -0.07629 
 6                    -0.90038  -1.34065  -0.69962 
 1                    -3.05409   1.24723  -0.01817 
 1                    -2.50612  -0.03967   1.04887 
 1                    -1.98532   0.21521  -1.74642 
 1                    -0.80663   2.90913  -0.76351 
 1                     0.65943   2.56971   0.14004 
 1                    -1.72528   2.60109   1.44942 
 1                    -0.61381   1.26604   1.79981 
 1                     1.46254  -0.27232  -1.6932 
 1                     1.11693  -2.10976  -0.30753 
 1                    -0.79988  -1.77009  -1.70155 
 8                    -1.7735   -2.19917   0.02218 
 1                    -1.51671  -2.09937   0.95757 
 8                     0.30925  -1.15017   1.34377 
 1                     1.16899  -1.31723   1.76357 
 6                     2.20957   0.66425   0.05158 
 1                     2.57149   1.56631  -0.45883 
 1                     1.91026   0.94348   1.06465 
 8                     3.27446  -0.28056   0.2133 
 1                     3.57595  -0.52827  -0.6775 
 
                          Input orientation:                          
 ---------------------------------------------------------------------
 Center     Atomic      Atomic             Coordinates (Angstroms)
 Number     Number       Type             X           Y           Z
 ---------------------------------------------------------------------
      1          6           0       -2.161951    0.733919    0.356987
      2          6           0       -1.372958    0.133825   -0.841638
      3          7           0       -0.117973    0.938867   -1.001100
      4          6           0       -0.298839    2.143380   -0.160576
      5          6           0       -1.202601    1.744131    1.011132
      6          6           0        1.046322    0.041489   -0.722146
      7          6           0        0.495243   -1.239377   -0.076294
      8          6           0       -0.900377   -1.340654   -0.699624
      9          1           0       -3.054089    1.247228   -0.018168
     10          1           0       -2.506120   -0.039673    1.048868
     11          1           0       -1.985317    0.215210   -1.746420
     12          1           0       -0.806631    2.909129   -0.763505
     13          1           0        0.659430    2.569709    0.140040
     14          1           0       -1.725278    2.601086    1.449420
     15          1           0       -0.613805    1.266036    1.799812
     16          1           0        1.462538   -0.272322   -1.693195
     17          1           0        1.116929   -2.109763   -0.307526
     18          1           0       -0.799876   -1.770088   -1.701548
     19          8           0       -1.773502   -2.199175    0.022179
     20          1           0       -1.516709   -2.099374    0.957570
     21          8           0        0.309248   -1.150175    1.343766
     22          1           0        1.168987   -1.317232    1.763566
     23          6           0        2.209569    0.664247    0.051576
     24          1           0        2.571485    1.566305   -0.458826
     25          1           0        1.910258    0.943476    1.064652
     26          8           0        3.274455   -0.280561    0.213298
     27          1           0        3.575948   -0.528270   -0.677497
 ---------------------------------------------------------------------
                    Distance matrix (angstroms):
                    1          2          3          4          5
     1  C    0.000000
     2  C    1.555418   0.000000
     3  N    2.462570   1.499503   0.000000
     4  C    2.392831   2.378211   1.479880   0.000000
     5  C    1.539086   2.460663   2.423622   1.532673   0.000000
     6  C    3.454997   2.423988   1.496224   2.557883   3.310725
     7  C    3.338010   2.441641   2.444595   3.475732   3.600901
     8  C    2.647990   1.554860   2.428839   3.576439   3.540328
     9  H    1.095508   2.178066   3.111594   2.900822   2.175863
    10  H    1.093433   2.210921   3.295930   3.331751   2.209648
    11  H    2.173610   1.095554   2.136856   3.012798   3.248744
    12  H    2.797129   2.833574   2.100627   1.098976   2.159479
    13  H    3.373037   3.320817   2.136867   1.091057   2.215297
    14  H    2.206900   3.385329   3.369191   2.199161   1.095290
    15  H    2.182120   2.972452   2.863214   2.170727   1.094199
    16  H    4.284004   2.988334   2.108077   3.359611   4.299120
    17  H    4.390804   3.393892   3.361573   4.484999   4.687385
    18  H    3.516087   2.166276   2.879940   4.235666   4.457640
    19  O    2.977588   2.519822   3.692585   4.589751   4.105316
    20  H    2.967252   2.871409   3.876049   4.553506   3.856691
    21  O    3.260424   3.042115   3.169387   3.671555   3.282277
    22  H    4.157022   3.918436   3.793366   4.222875   3.944937
    23  C    4.382729   3.730104   2.569240   2.919752   3.705375
    24  H    4.874816   4.213926   2.814414   2.942912   4.054149
    25  H    4.138549   3.881879   2.895008   2.796616   3.214623
    26  O    5.532118   4.783623   3.803989   4.334017   4.977946
    27  H    5.965464   4.995696   3.987764   4.734860   5.554260
                    6          7          8          9         10
     6  C    0.000000
     7  C    1.536695   0.000000
     8  C    2.387564   1.531846   0.000000
     9  H    4.331600   4.334091   3.435111   0.000000
    10  H    3.970255   3.422493   2.707062   1.759247   0.000000
    11  H    3.204708   3.325406   2.166469   2.279077   2.854792
    12  H    3.414455   4.401958   4.251297   2.892838   3.855955
    13  H    2.699064   3.818756   4.292898   3.945150   4.201851
    14  H    4.353045   4.691234   4.564665   2.398434   2.782762
    15  H    3.258191   3.320671   3.622725   3.043089   2.418605
    16  H    1.102111   2.117835   2.777028   5.051205   4.829418
    17  H    2.191981   1.094319   2.194264   5.361950   4.387660
    18  H    2.765771   2.144863   1.094699   4.125462   3.670203
    19  O    3.677771   2.465383   1.421410   3.676850   2.500854
    20  H    3.738164   2.420004   1.924010   3.809901   2.286840
    21  O    2.496264   1.434964   2.382209   4.349074   3.040802
    22  H    2.835478   1.960887   3.217160   5.252181   3.955927
    23  C    1.529581   2.564966   3.775671   5.296303   4.871121
    24  H    2.172677   3.511262   4.534558   5.651820   5.534833
    25  H    2.180049   2.840576   4.028596   5.090138   4.524514
    26  O    2.437898   2.954185   4.403004   6.514460   5.845618
    27  H    2.593381   3.218363   4.549499   6.895252   6.341184
                   11         12         13         14         15
    11  H    0.000000
    12  H    3.100423   0.000000
    13  H    4.012117   1.755259   0.000000
    14  H    3.996676   2.415748   2.720715   0.000000
    15  H    3.944749   3.050825   2.464860   1.772147   0.000000
    16  H    3.482560   4.016850   3.476043   5.319274   4.344979
    17  H    4.135196   5.394189   4.723037   5.775560   4.339624
    18  H    2.312724   4.772320   4.935064   5.467370   4.638124
    19  O    3.000344   5.258033   5.354933   5.008178   4.063565
    20  H    3.590049   5.343352   5.215771   4.730723   3.584772
    21  O    4.083939   4.707837   3.925445   4.268772   2.626420
    22  H    4.961654   5.305778   4.243088   4.881462   3.138938
    23  C    4.586011   3.847248   2.457955   4.603079   3.374896
    24  H    4.924206   3.647968   2.240851   4.813974   3.916335
    25  H    4.858807   3.819350   2.250358   4.014080   2.648660
    26  O    5.634846   5.271008   3.868819   5.901628   4.475216
    27  H    5.711657   5.570467   4.332657   6.513036   5.187545
                   16         17         18         19         20
    16  H    0.000000
    17  H    2.327169   0.000000
    18  H    2.713280   2.394330   0.000000
    19  O    4.138505   2.910548   2.025660   0.000000
    20  H    4.386409   2.921750   2.773660   0.975120   0.000000
    21  O    3.365091   2.073626   3.299755   2.680455   2.093859
    22  H    3.623149   2.218161   4.011049   3.531075   2.911072
    23  C    2.116469   3.002990   4.249258   4.905599   4.726899
    24  H    2.476687   3.956274   4.903259   5.769672   5.670689
    25  H    3.047021   3.440133   4.728649   4.953089   4.584158
    26  O    2.630176   2.876136   4.741888   5.403654   5.178540
    27  H    2.358740   2.946994   4.662470   5.647839   5.574672
                   21         22         23         24         25
    21  O    0.000000
    22  H    0.971232   0.000000
    23  C    2.927986   2.817797   0.000000
    24  H    3.968163   3.901386   1.097817   0.000000
    25  H    2.650380   2.479670   1.092648   1.773731   0.000000
    26  O    3.290386   2.812652   1.432759   2.087302   2.020917
    27  H    3.891478   3.517771   1.954645   2.333240   2.824118
                   26         27
    26  O    0.000000
    27  H    0.972509   0.000000
 Stoichiometry    C8H15NO3
 Framework group  C1[X(C8H15NO3)]
 Deg. of freedom    75
 Full point group                 C1      NOp   1
 Largest Abelian subgroup         C1      NOp   1
 Largest concise Abelian subgroup C1      NOp   1
                         Standard orientation:                         
 ---------------------------------------------------------------------
 Center     Atomic      Atomic             Coordinates (Angstroms)
 Number     Number       Type             X           Y           Z
 ---------------------------------------------------------------------
      1          6           0       -2.161951    0.733919    0.356987
      2          6           0       -1.372958    0.133825   -0.841638
      3          7           0       -0.117973    0.938867   -1.001100
      4          6           0       -0.298839    2.143380   -0.160576
      5          6           0       -1.202601    1.744131    1.011132
      6          6           0        1.046322    0.041489   -0.722146
      7          6           0        0.495243   -1.239377   -0.076294
      8          6           0       -0.900377   -1.340654   -0.699624
      9          1           0       -3.054089    1.247229   -0.018168
     10          1           0       -2.506120   -0.039672    1.048868
     11          1           0       -1.985317    0.215210   -1.746420
     12          1           0       -0.806630    2.909129   -0.763505
     13          1           0        0.659431    2.569709    0.140040
     14          1           0       -1.725277    2.601086    1.449420
     15          1           0       -0.613805    1.266036    1.799812
     16          1           0        1.462538   -0.272322   -1.693195
     17          1           0        1.116929   -2.109763   -0.307526
     18          1           0       -0.799876   -1.770088   -1.701548
     19          8           0       -1.773502   -2.199175    0.022179
     20          1           0       -1.516709   -2.099374    0.957570
     21          8           0        0.309248   -1.150175    1.343766
     22          1           0        1.168987   -1.317232    1.763566
     23          6           0        2.209569    0.664247    0.051576
     24          1           0        2.571485    1.566305   -0.458826
     25          1           0        1.910258    0.943476    1.064652
     26          8           0        3.274455   -0.280562    0.213298
     27          1           0        3.575948   -0.528271   -0.677497
 ---------------------------------------------------------------------
 Rotational constants (GHZ):      1.2679689      0.9012248      0.6660649
 Standard basis: 6-31+G(d,p) (6D, 7F)
 There are   303 symmetry adapted basis functions of A   symmetry.
 Integral buffers will be    131072 words long.
 Raffenetti 2 integral format.
 Two-electron integral symmetry is turned on.
   303 basis functions,   489 primitive gaussians,   303 cartesian basis functions
    47 alpha electrons       47 beta electrons
       nuclear repulsion energy       819.2438775232 Hartrees.
 NAtoms=   27 NActive=   27 NUniq=   27 SFac= 1.00D+00 NAtFMM=   60 NAOKFM=F Big=F
 ------------------------------------------------------------------------------
 Polarizable Continuum Model (PCM)
 =================================
 Model                : PCM.
 Atomic radii         : UFF (Universal Force Field).
 Polarization charges : Total charges.
 Charge compensation  : None.
 Solution method      : Matrix inversion.
 Cavity type          : Scaled VdW (van der Waals Surface) (Alpha=1.100).
 Cavity algorithm     : GePol (No added spheres)
                        Default sphere list used, NSphG=   27.
                        Lebedev-Laikov grids with approx.  5.0 points / Ang**2.
                        Smoothing algorithm: Karplus/York (Gamma=1.0000).
                        Polarization charges: spherical gaussians, with
                                              point-specific exponents (IZeta= 3).
                        Self-potential: point-specific (ISelfS= 7).
                        Self-field    : sphere-specific E.n sum rule (ISelfD= 2).
 Solvent              : Water, Eps=  78.355300 Eps(inf)=   1.777849
 ------------------------------------------------------------------------------
 One-electron integrals computed using PRISM.
 NBasis=   303 RedAO= T  NBF=   303
 NBsUse=   303 1.00D-06 NBFU=   303
 Harris functional with IExCor=  908 diagonalized for initial guess.
 ExpMin= 4.38D-02 ExpMax= 5.48D+03 ExpMxC= 8.25D+02 IAcc=2 IRadAn=         4 AccDes= 0.00D+00
 HarFok:  IExCor=  908 AccDes= 0.00D+00 IRadAn=         4 IDoV= 1
 ScaDFX=  1.000000  1.000000  1.000000  1.000000
 FoFCou: FMM=F IPFlag=           0 FMFlag=      100000 FMFlg1=           0
         NFxFlg=           0 DoJE=T BraDBF=F KetDBF=T FulRan=T
         Omega=  0.000000  0.000000  1.000000  0.000000  0.000000 ICntrl=     500 IOpCl=  0
         NMat0=    1 NMatS0=    1 NMatT0=    0 NMatD0=    1 NMtDS0=    0 NMtDT0=    0
         I1Cent=           4 NGrid=           0.
 Petite list used in FoFCou.
 Initial guess orbital symmetries:
       Occupied  (A) (A) (A) (A) (A) (A) (A) (A) (A) (A) (A) (A)
                 (A) (A) (A) (A) (A) (A) (A) (A) (A) (A) (A) (A)
                 (A) (A) (A) (A) (A) (A) (A) (A) (A) (A) (A) (A)
                 (A) (A) (A) (A) (A) (A) (A) (A) (A) (A) (A)
       Virtual   (A) (A) (A) (A) (A) (A) (A) (A) (A) (A) (A) (A)
                 (A) (A) (A) (A) (A) (A) (A) (A) (A) (A) (A) (A)
                 (A) (A) (A) (A) (A) (A) (A) (A) (A) (A) (A) (A)
                 (A) (A) (A) (A) (A) (A) (A) (A) (A) (A) (A) (A)
                 (A) (A) (A) (A) (A) (A) (A) (A) (A) (A) (A) (A)
                 (A) (A) (A) (A) (A) (A) (A) (A) (A) (A) (A) (A)
                 (A) (A) (A) (A) (A) (A) (A) (A) (A) (A) (A) (A)
                 (A) (A) (A) (A) (A) (A) (A) (A) (A) (A) (A) (A)
                 (A) (A) (A) (A) (A) (A) (A) (A) (A) (A) (A) (A)
                 (A) (A) (A) (A) (A) (A) (A) (A) (A) (A) (A) (A)
                 (A) (A) (A) (A) (A) (A) (A) (A) (A) (A) (A) (A)
                 (A) (A) (A) (A) (A) (A) (A) (A) (A) (A) (A) (A)
                 (A) (A) (A) (A) (A) (A) (A) (A) (A) (A) (A) (A)
                 (A) (A) (A) (A) (A) (A) (A) (A) (A) (A) (A) (A)
                 (A) (A) (A) (A) (A) (A) (A) (A) (A) (A) (A) (A)
                 (A) (A) (A) (A) (A) (A) (A) (A) (A) (A) (A) (A)
                 (A) (A) (A) (A) (A) (A) (A) (A) (A) (A) (A) (A)
                 (A) (A) (A) (A) (A) (A) (A) (A) (A) (A) (A) (A)
                 (A) (A) (A) (A) (A) (A) (A) (A) (A) (A) (A) (A)
                 (A) (A) (A) (A) (A) (A) (A) (A) (A) (A) (A) (A)
                 (A) (A) (A) (A) (A) (A) (A) (A) (A) (A) (A) (A)
                 (A) (A) (A) (A)
 The electronic state of the initial guess is 1-A.
 Requested convergence on RMS density matrix=1.00D-08 within 128 cycles.
 Requested convergence on MAX density matrix=1.00D-06.
 Requested convergence on             energy=1.00D-06.
 No special actions if energy rises.
 Error on total polarization charges =  0.01435
 SCF Done:  E(RmPW1PW91) =  -594.188479225     A.U. after   13 cycles
             Convg  =    0.6460D-08             -V/T =  2.0094
 Range of M.O.s used for correlation:     1   303
 NBasis=   303 NAE=    47 NBE=    47 NFC=     0 NFV=     0
 NROrb=    303 NOA=    47 NOB=    47 NVA=   256 NVB=   256

 **** Warning!!: The largest alpha MO coefficient is  0.75602458D+02

 NEqPCM:  Using equilibrium solvation (IEInf=0, Eps=  78.3553, EpsInf=   1.7778)
          Differentiating once with respect to magnetic field using GIAOs.
          Electric field/nuclear overlap derivatives assumed to be zero.
 FoFCou: FMM=F IPFlag=           0 FMFlag=    10101102 FMFlg1=           0
         NFxFlg=    40000000 DoJE=F BraDBF=F KetDBF=T FulRan=T
         Omega=  0.000000  0.000000  1.000000  0.000000  0.000000 ICntrl=    6100 IOpCl=  0
         NMat0=    1 NMatS0=    1 NMatT0=    0 NMatD0=    1 NMtDS0=    0 NMtDT0=    0
         I1Cent=           7 NGrid=        1775.
 Symmetry not used in FoFCou.
          There are     3 degrees of freedom in the 1st order CPHF.  IDoFFX=0.
      3 vectors produced by pass  0 Test12= 4.01D-13 3.33D-08 XBig12= 2.36D+01 7.93D-01.
 AX will form     3 AO Fock derivatives at one time.
      3 vectors produced by pass  1 Test12= 4.01D-13 3.33D-08 XBig12= 5.87D-02 3.42D-02.
      3 vectors produced by pass  2 Test12= 4.01D-13 3.33D-08 XBig12= 1.56D-04 2.74D-03.
      3 vectors produced by pass  3 Test12= 4.01D-13 3.33D-08 XBig12= 7.34D-07 1.62D-04.
      3 vectors produced by pass  4 Test12= 4.01D-13 3.33D-08 XBig12= 1.91D-09 5.01D-06.
      3 vectors produced by pass  5 Test12= 4.01D-13 3.33D-08 XBig12= 6.81D-12 3.83D-07.
 Inverted reduced A of dimension    18 with in-core refinement.
 Calculating GIAO nuclear magnetic shielding tensors.
 SCF GIAO Magnetic shielding tensor (ppm):
      1  C    Isotropic =   169.1090   Anisotropy =    26.5220
   XX=   174.3422   YX=    13.0628   ZX=    -7.2563
   XY=     8.8746   YY=   163.4155   ZY=    17.9949
   XZ=    -6.1401   YZ=    21.1358   ZZ=   169.5693
   Eigenvalues:   141.7342   178.8025   186.7904
      2  C    Isotropic =   125.8339   Anisotropy =    64.5841
   XX=   139.6127   YX=    27.8330   ZX=   -16.3043
   XY=    28.2750   YY=   138.0169   ZY=     2.1568
   XZ=   -21.3772   YZ=     3.8121   ZZ=    99.8722
   Eigenvalues:    87.9754   120.6364   168.8900
      3  N    Isotropic =   196.7369   Anisotropy =    79.0649
   XX=   239.8663   YX=    20.8507   ZX=     1.9015
   XY=    15.9921   YY=   207.9142   ZY=    23.3826
   XZ=     8.5841   YZ=     6.9189   ZZ=   142.4304
   Eigenvalues:   139.0809   201.6831   249.4469
      4  C    Isotropic =   144.4000   Anisotropy =    49.5355
   XX=   123.5658   YX=     0.5761   ZX=   -15.9851
   XY=    10.5256   YY=   162.8383   ZY=    21.5612
   XZ=   -24.6521   YZ=    18.5032   ZZ=   146.7958
   Eigenvalues:   107.4697   148.3066   177.4236
      5  C    Isotropic =   168.9374   Anisotropy =    19.0183
   XX=   166.4991   YX=     9.7255   ZX=   -12.2283
   XY=    10.2970   YY=   168.7563   ZY=     4.0687
   XZ=   -12.2416   YZ=    14.1154   ZZ=   171.5570
   Eigenvalues:   147.8184   177.3777   181.6163
      6  C    Isotropic =   127.8431   Anisotropy =    46.1816
   XX=   147.6061   YX=   -19.4165   ZX=     9.9032
   XY=    -9.9697   YY=   131.3063   ZY=    -9.1644
   XZ=     3.2070   YZ=   -12.7595   ZZ=   104.6168
   Eigenvalues:   100.6542   124.2443   158.6308
      7  C    Isotropic =   121.2519   Anisotropy =    27.6958
   XX=   111.9662   YX=     6.5856   ZX=    -7.1988
   XY=    13.4135   YY=   112.2292   ZY=    -0.3962
   XZ=     3.4061   YZ=     0.1854   ZZ=   139.5601
   Eigenvalues:   102.0538   121.9860   139.7158
      8  C    Isotropic =   121.4617   Anisotropy =    53.3754
   XX=   136.2106   YX=    15.3243   ZX=   -14.1067
   XY=    14.5111   YY=   132.4207   ZY=   -22.3277
   XZ=    -8.2268   YZ=   -17.2213   ZZ=    95.7540
   Eigenvalues:    86.7029   120.6369   157.0454
      9  H    Isotropic =    30.1004   Anisotropy =    12.6731
   XX=    36.6566   YX=    -4.0097   ZX=     2.1348
   XY=    -4.5352   YY=    27.1008   ZY=     1.0087
   XZ=     2.3926   YZ=     1.0233   ZZ=    26.5437
   Eigenvalues:    24.0899    27.6621    38.5491
     10  H    Isotropic =    29.6185   Anisotropy =     7.0805
   XX=    29.5882   YX=     1.6048   ZX=    -3.9633
   XY=     1.5810   YY=    31.4803   ZY=    -1.4998
   XZ=    -3.4852   YZ=    -1.8140   ZZ=    27.7871
   Eigenvalues:    24.8392    29.6775    34.3389
     11  H    Isotropic =    27.9287   Anisotropy =     9.3755
   XX=    28.2500   YX=     0.2179   ZX=     4.5206
   XY=    -0.5456   YY=    24.3504   ZY=     0.5679
   XZ=     3.8565   YZ=     0.8255   ZZ=    31.1858
   Eigenvalues:    24.0867    25.5204    34.1791
     12  H    Isotropic =    28.9128   Anisotropy =    12.3982
   XX=    24.0210   YX=    -3.2215   ZX=    -0.3267
   XY=    -3.0916   YY=    35.2245   ZY=    -4.0416
   XZ=    -0.8585   YZ=    -3.0415   ZZ=    27.4928
   Eigenvalues:    22.6561    26.9040    37.1783
     13  H    Isotropic =    28.7689   Anisotropy =     7.5329
   XX=    30.4155   YX=     1.4406   ZX=    -0.6374
   XY=     3.0569   YY=    31.9410   ZY=     2.3474
   XZ=     0.2119   YZ=     1.6538   ZZ=    23.9502
   Eigenvalues:    23.3967    29.1191    33.7908
     14  H    Isotropic =    30.2085   Anisotropy =    12.3939
   XX=    28.6110   YX=    -3.1275   ZX=    -2.8264
   XY=    -3.2860   YY=    32.9707   ZY=     5.3021
   XZ=    -2.9256   YZ=     5.2019   ZZ=    29.0437
   Eigenvalues:    25.2381    26.9162    38.4711
     15  H    Isotropic =    29.7942   Anisotropy =     7.2364
   XX=    28.3268   YX=    -1.0239   ZX=     2.9937
   XY=    -1.8036   YY=    28.0463   ZY=    -0.7968
   XZ=     2.9329   YZ=    -0.1809   ZZ=    33.0096
   Eigenvalues:    26.2256    28.5386    34.6184
     16  H    Isotropic =    28.4477   Anisotropy =     8.1914
   XX=    30.0306   YX=    -1.7066   ZX=    -3.7856
   XY=    -2.6170   YY=    25.4210   ZY=     1.0728
   XZ=    -3.3326   YZ=    -0.3646   ZZ=    29.8915
   Eigenvalues:    24.3117    27.1227    33.9086
     17  H    Isotropic =    27.5582   Anisotropy =     7.5070
   XX=    26.9569   YX=    -3.3648   ZX=    -1.4698
   XY=    -2.3818   YY=    28.8613   ZY=     1.9652
   XZ=    -2.1235   YZ=     2.9564   ZZ=    26.8565
   Eigenvalues:    24.8815    25.2302    32.5629
     18  H    Isotropic =    27.2230   Anisotropy =     7.0691
   XX=    23.7204   YX=     0.5393   ZX=    -2.1704
   XY=     1.5266   YY=    28.2822   ZY=     2.2881
   XZ=     0.7780   YZ=     3.4685   ZZ=    29.6665
   Eigenvalues:    23.1757    26.5576    31.9358
     19  O    Isotropic =   310.8336   Anisotropy =    34.4058
   XX=   294.7936   YX=    -1.2221   ZX=     7.3172
   XY=    18.7979   YY=   328.6653   ZY=    -4.1243
   XZ=    18.4242   YZ=    14.3182   ZZ=   309.0421
   Eigenvalues:   286.5782   312.1519   333.7708
     20  H    Isotropic =    28.4795   Anisotropy =    14.3917
   XX=    25.3568   YX=     4.4598   ZX=     2.9504
   XY=     3.6574   YY=    22.5979   ZY=    -0.7893
   XZ=     2.4540   YZ=    -1.8877   ZZ=    37.4838
   Eigenvalues:    19.2963    28.0682    38.0739
     21  O    Isotropic =   313.9224   Anisotropy =    47.1949
   XX=   332.8677   YX=   -17.3845   ZX=    27.8290
   XY=   -15.9546   YY=   304.5548   ZY=    27.4968
   XZ=    11.5344   YZ=    -2.5103   ZZ=   304.3447
   Eigenvalues:   279.5340   316.8475   345.3857
     22  H    Isotropic =    29.6328   Anisotropy =    20.5191
   XX=    36.4459   YX=    -3.1422   ZX=     8.2134
   XY=    -2.6880   YY=    21.4345   ZY=    -4.8024
   XZ=     7.8905   YZ=    -3.7047   ZZ=    31.0180
   Eigenvalues:    19.8173    25.7689    43.3122
     23  C    Isotropic =   135.6331   Anisotropy =    67.1526
   XX=   154.6268   YX=   -28.5830   ZX=     7.3279
   XY=   -30.3543   YY=   145.6562   ZY=    -0.2062
   XZ=     6.3065   YZ=    -1.6202   ZZ=   106.6164
   Eigenvalues:   105.2395   121.2583   180.4015
     24  H    Isotropic =    27.5455   Anisotropy =     5.7915
   XX=    29.7966   YX=    -0.6118   ZX=     0.4020
   XY=     1.2338   YY=    30.7110   ZY=    -2.7091
   XZ=    -0.4540   YZ=    -2.1368   ZZ=    22.1290
   Eigenvalues:    21.4918    29.7382    31.4065
     25  H    Isotropic =    27.8138   Anisotropy =     4.6096
   XX=    30.1826   YX=    -1.5689   ZX=    -0.2150
   XY=    -1.6400   YY=    26.9868   ZY=     3.1332
   XZ=     1.5403   YZ=     1.8624   ZZ=    26.2719
   Eigenvalues:    23.7266    28.8279    30.8868
     26  O    Isotropic =   311.3950   Anisotropy =    60.6267
   XX=   306.3043   YX=    -4.2075   ZX=    -9.6255
   XY=   -15.1314   YY=   291.2632   ZY=    10.9391
   XZ=   -22.3075   YZ=    29.6539   ZZ=   336.6176
   Eigenvalues:   282.8874   299.4849   351.8128
     27  H    Isotropic =    30.7076   Anisotropy =    18.0065
   XX=    31.2621   YX=    -5.0181   ZX=    -6.4367
   XY=    -5.3020   YY=    24.7878   ZY=     4.8401
   XZ=    -6.1059   YZ=     3.6466   ZZ=    36.0730
   Eigenvalues:    21.8854    27.5255    42.7119
 End of Minotr Frequency-dependent properties file   721 does not exist.
 End of Minotr Frequency-dependent properties file   722 does not exist.

 **********************************************************************

            Population analysis using the SCF density.

 **********************************************************************

 Orbital symmetries:
       Occupied  (A) (A) (A) (A) (A) (A) (A) (A) (A) (A) (A) (A)
                 (A) (A) (A) (A) (A) (A) (A) (A) (A) (A) (A) (A)
                 (A) (A) (A) (A) (A) (A) (A) (A) (A) (A) (A) (A)
                 (A) (A) (A) (A) (A) (A) (A) (A) (A) (A) (A)
       Virtual   (A) (A) (A) (A) (A) (A) (A) (A) (A) (A) (A) (A)
                 (A) (A) (A) (A) (A) (A) (A) (A) (A) (A) (A) (A)
                 (A) (A) (A) (A) (A) (A) (A) (A) (A) (A) (A) (A)
                 (A) (A) (A) (A) (A) (A) (A) (A) (A) (A) (A) (A)
                 (A) (A) (A) (A) (A) (A) (A) (A) (A) (A) (A) (A)
                 (A) (A) (A) (A) (A) (A) (A) (A) (A) (A) (A) (A)
                 (A) (A) (A) (A) (A) (A) (A) (A) (A) (A) (A) (A)
                 (A) (A) (A) (A) (A) (A) (A) (A) (A) (A) (A) (A)
                 (A) (A) (A) (A) (A) (A) (A) (A) (A) (A) (A) (A)
                 (A) (A) (A) (A) (A) (A) (A) (A) (A) (A) (A) (A)
                 (A) (A) (A) (A) (A) (A) (A) (A) (A) (A) (A) (A)
                 (A) (A) (A) (A) (A) (A) (A) (A) (A) (A) (A) (A)
                 (A) (A) (A) (A) (A) (A) (A) (A) (A) (A) (A) (A)
                 (A) (A) (A) (A) (A) (A) (A) (A) (A) (A) (A) (A)
                 (A) (A) (A) (A) (A) (A) (A) (A) (A) (A) (A) (A)
                 (A) (A) (A) (A) (A) (A) (A) (A) (A) (A) (A) (A)
                 (A) (A) (A) (A) (A) (A) (A) (A) (A) (A) (A) (A)
                 (A) (A) (A) (A) (A) (A) (A) (A) (A) (A) (A) (A)
                 (A) (A) (A) (A) (A) (A) (A) (A) (A) (A) (A) (A)
                 (A) (A) (A) (A) (A) (A) (A) (A) (A) (A) (A) (A)
                 (A) (A) (A) (A) (A) (A) (A) (A) (A) (A) (A) (A)
                 (A) (A) (A) (A)
 The electronic state is 1-A.
 Alpha  occ. eigenvalues --  -19.26454 -19.26189 -19.25478 -14.41227 -10.30421
 Alpha  occ. eigenvalues --  -10.30288 -10.30176 -10.28328 -10.27380 -10.26692
 Alpha  occ. eigenvalues --  -10.24059 -10.23742  -1.07969  -1.06240  -1.04879
 Alpha  occ. eigenvalues --   -0.95872  -0.82223  -0.78702  -0.75441  -0.71587
 Alpha  occ. eigenvalues --   -0.67337  -0.62267  -0.59619  -0.57791  -0.55864
 Alpha  occ. eigenvalues --   -0.52897  -0.52221  -0.50077  -0.49141  -0.47203
 Alpha  occ. eigenvalues --   -0.45610  -0.44502  -0.44117  -0.42031  -0.41210
 Alpha  occ. eigenvalues --   -0.39811  -0.38087  -0.36849  -0.36182  -0.35335
 Alpha  occ. eigenvalues --   -0.34954  -0.34113  -0.32814  -0.31804  -0.29642
 Alpha  occ. eigenvalues --   -0.29283  -0.22641
 Alpha virt. eigenvalues --   -0.00308   0.01529   0.01783   0.02246   0.03866
 Alpha virt. eigenvalues --    0.04222   0.04825   0.04911   0.05029   0.07080
 Alpha virt. eigenvalues --    0.07904   0.08080   0.08793   0.08910   0.09845
 Alpha virt. eigenvalues --    0.09935   0.11511   0.12212   0.12868   0.13512
 Alpha virt. eigenvalues --    0.13677   0.14169   0.14305   0.14440   0.15151
 Alpha virt. eigenvalues --    0.15479   0.16158   0.17092   0.17442   0.18495
 Alpha virt. eigenvalues --    0.18721   0.19397   0.20104   0.20199   0.20955
 Alpha virt. eigenvalues --    0.21095   0.21834   0.22359   0.22625   0.22792
 Alpha virt. eigenvalues --    0.23511   0.24669   0.24765   0.25562   0.25589
 Alpha virt. eigenvalues --    0.25798   0.26767   0.27812   0.28256   0.28620
 Alpha virt. eigenvalues --    0.29649   0.30125   0.30920   0.31161   0.31883
 Alpha virt. eigenvalues --    0.32500   0.33225   0.33672   0.34742   0.35157
 Alpha virt. eigenvalues --    0.35304   0.36263   0.36875   0.37112   0.38492
 Alpha virt. eigenvalues --    0.39973   0.40201   0.41231   0.42202   0.42662
 Alpha virt. eigenvalues --    0.43344   0.44524   0.44902   0.45311   0.47419
 Alpha virt. eigenvalues --    0.47643   0.64206   0.66980   0.67633   0.69062
 Alpha virt. eigenvalues --    0.70335   0.71062   0.71898   0.73464   0.73974
 Alpha virt. eigenvalues --    0.76721   0.78628   0.79189   0.79843   0.82611
 Alpha virt. eigenvalues --    0.83585   0.83977   0.84577   0.86853   0.87394
 Alpha virt. eigenvalues --    0.91883   0.92686   0.93732   0.96234   0.96402
 Alpha virt. eigenvalues --    0.98415   1.00182   1.02813   1.03188   1.05656
 Alpha virt. eigenvalues --    1.06328   1.06787   1.08245   1.09464   1.10304
 Alpha virt. eigenvalues --    1.10573   1.11680   1.13261   1.14693   1.16144
 Alpha virt. eigenvalues --    1.17087   1.18501   1.20898   1.24350   1.24873
 Alpha virt. eigenvalues --    1.28590   1.29638   1.30863   1.31607   1.33956
 Alpha virt. eigenvalues --    1.36216   1.36686   1.37479   1.38958   1.41697
 Alpha virt. eigenvalues --    1.42671   1.43312   1.46819   1.48254   1.51561
 Alpha virt. eigenvalues --    1.54594   1.56319   1.57831   1.59606   1.63242
 Alpha virt. eigenvalues --    1.65193   1.65952   1.68480   1.68983   1.70349
 Alpha virt. eigenvalues --    1.73044   1.75314   1.76291   1.77810   1.79029
 Alpha virt. eigenvalues --    1.81218   1.81992   1.83393   1.85620   1.86225
 Alpha virt. eigenvalues --    1.86735   1.88257   1.90345   1.92247   1.92978
 Alpha virt. eigenvalues --    1.95566   1.96984   2.02422   2.02552   2.03151
 Alpha virt. eigenvalues --    2.05535   2.07103   2.09758   2.10333   2.11810
 Alpha virt. eigenvalues --    2.13008   2.16123   2.16831   2.17385   2.20576
 Alpha virt. eigenvalues --    2.23681   2.25784   2.27335   2.28691   2.30148
 Alpha virt. eigenvalues --    2.32831   2.33919   2.36537   2.37086   2.38517
 Alpha virt. eigenvalues --    2.41414   2.41927   2.44116   2.47840   2.48753
 Alpha virt. eigenvalues --    2.50839   2.50844   2.53697   2.54207   2.55136
 Alpha virt. eigenvalues --    2.58641   2.59984   2.61367   2.62099   2.63460
 Alpha virt. eigenvalues --    2.64857   2.65202   2.67510   2.67664   2.69942
 Alpha virt. eigenvalues --    2.70990   2.71340   2.71891   2.75653   2.76685
 Alpha virt. eigenvalues --    2.78385   2.80114   2.81947   2.82760   2.85677
 Alpha virt. eigenvalues --    2.86435   2.88074   2.88839   2.91413   2.94850
 Alpha virt. eigenvalues --    2.97454   2.99590   3.01478   3.02925   3.05717
 Alpha virt. eigenvalues --    3.07558   3.08658   3.12423   3.16140   3.33117
 Alpha virt. eigenvalues --    3.36532   3.38307   3.39002   3.43109   3.45459
 Alpha virt. eigenvalues --    3.47416   3.48985   3.51016   3.53896   3.56466
 Alpha virt. eigenvalues --    3.58403   3.60083   3.60836   3.61932   4.31124
 Alpha virt. eigenvalues --    4.34835   4.37671   4.44959   4.50754   4.58683
 Alpha virt. eigenvalues --    4.59813   4.70608   4.75150   4.83415   4.94621
 Alpha virt. eigenvalues --    5.01979
          Condensed to atoms (all electrons):
              1          2          3          4          5          6
     1  C    5.817427  -0.281673   0.061516   0.049338   0.070916  -0.040253
     2  C   -0.281673   7.623377  -0.480374  -0.282043   0.006725   0.415448
     3  N    0.061516  -0.480374   7.616783   0.186778  -0.180233  -0.646814
     4  C    0.049338  -0.282043   0.186778   5.757346   0.086137  -0.261370
     5  C    0.070916   0.006725  -0.180233   0.086137   5.472488   0.172708
     6  C   -0.040253   0.415448  -0.646814  -0.261370   0.172708  10.167519
     7  C    0.021746  -0.064415   0.009722   0.146375  -0.153955  -2.185820
     8  C   -0.117817  -0.742480   0.118504  -0.114036   0.210617   0.191258
     9  H    0.403802  -0.081337   0.012605  -0.010301  -0.024614   0.019734
    10  H    0.467827  -0.144923   0.025259   0.038000  -0.057755  -0.010354
    11  H   -0.020542   0.265568  -0.002227   0.003975   0.013008  -0.046766
    12  H   -0.005326  -0.009523  -0.021427   0.399801  -0.047321  -0.040644
    13  H    0.017421   0.021149  -0.045663   0.349040  -0.016108   0.011840
    14  H   -0.010375   0.005812   0.022079  -0.036449   0.362636  -0.018880
    15  H   -0.077969   0.008589   0.011895  -0.078709   0.456879   0.009937
    16  H    0.008460  -0.038064   0.016141   0.016117  -0.005250   0.171784
    17  H   -0.001998   0.005592   0.026121  -0.005279   0.002807  -0.088912
    18  H    0.030796  -0.057927   0.024278   0.012420  -0.011107  -0.058067
    19  O   -0.017801  -0.162500   0.009001   0.005249   0.003900   0.040315
    20  H    0.026971  -0.037441   0.003340   0.002680  -0.009706   0.014849
    21  O    0.071808  -0.076011   0.112401   0.013391  -0.041684  -0.299642
    22  H   -0.005940   0.006015  -0.002669  -0.000539   0.002323  -0.062188
    23  C    0.016124  -0.091011   0.168062  -0.022462  -0.055880  -0.876842
    24  H   -0.000297   0.003340  -0.003282  -0.019062   0.005186  -0.002009
    25  H    0.000693  -0.002905   0.019702   0.014579  -0.005086  -0.130987
    26  O    0.001120  -0.017866   0.026278  -0.006209   0.005232  -0.036484
    27  H    0.000011   0.001034   0.002270   0.002658  -0.000025  -0.007320
              7          8          9         10         11         12
     1  C    0.021746  -0.117817   0.403802   0.467827  -0.020542  -0.005326
     2  C   -0.064415  -0.742480  -0.081337  -0.144923   0.265568  -0.009523
     3  N    0.009722   0.118504   0.012605   0.025259  -0.002227  -0.021427
     4  C    0.146375  -0.114036  -0.010301   0.038000   0.003975   0.399801
     5  C   -0.153955   0.210617  -0.024614  -0.057755   0.013008  -0.047321
     6  C   -2.185820   0.191258   0.019734  -0.010354  -0.046766  -0.040644
     7  C    7.830206  -0.805496  -0.021395   0.008889   0.047636   0.010140
     8  C   -0.805496   6.933568   0.038161  -0.005021   0.008157   0.006626
     9  H   -0.021395   0.038161   0.528929  -0.026022  -0.008055   0.001247
    10  H    0.008889  -0.005021  -0.026022   0.527667   0.004315   0.000009
    11  H    0.047636   0.008157  -0.008055   0.004315   0.566936   0.001650
    12  H    0.010140   0.006626   0.001247   0.000009   0.001650   0.554418
    13  H   -0.010096   0.000256  -0.000136  -0.000146  -0.000152  -0.027612
    14  H    0.006529  -0.004176  -0.006067   0.001484  -0.000014  -0.003474
    15  H    0.000139   0.007923   0.003904  -0.006306  -0.000094   0.004284
    16  H    0.015963   0.013737   0.000003   0.000018   0.000940   0.000199
    17  H    0.393870  -0.025107   0.000004  -0.000031  -0.000078   0.000004
    18  H    0.023235   0.357353  -0.000089   0.000183  -0.007307   0.000006
    19  O   -0.152563   0.416594  -0.000410   0.011209   0.002651  -0.000039
    20  H   -0.052662   0.019439   0.000030   0.000216  -0.000036   0.000001
    21  O    0.249845  -0.153778   0.000434   0.000265   0.000789   0.000467
    22  H    0.061219   0.018289  -0.000001   0.000052   0.000009   0.000001
    23  C    0.356019  -0.075855  -0.001439   0.000296   0.008089   0.013884
    24  H    0.008123   0.000743   0.000000   0.000000  -0.000002  -0.000107
    25  H   -0.015868  -0.006909   0.000001   0.000009   0.000005   0.000236
    26  O   -0.044721   0.047067  -0.000001  -0.000003   0.000072   0.000025
    27  H   -0.025884  -0.001052   0.000000   0.000000   0.000000   0.000000
             13         14         15         16         17         18
     1  C    0.017421  -0.010375  -0.077969   0.008460  -0.001998   0.030796
     2  C    0.021149   0.005812   0.008589  -0.038064   0.005592  -0.057927
     3  N   -0.045663   0.022079   0.011895   0.016141   0.026121   0.024278
     4  C    0.349040  -0.036449  -0.078709   0.016117  -0.005279   0.012420
     5  C   -0.016108   0.362636   0.456879  -0.005250   0.002807  -0.011107
     6  C    0.011840  -0.018880   0.009937   0.171784  -0.088912  -0.058067
     7  C   -0.010096   0.006529   0.000139   0.015963   0.393870   0.023235
     8  C    0.000256  -0.004176   0.007923   0.013737  -0.025107   0.357353
     9  H   -0.000136  -0.006067   0.003904   0.000003   0.000004  -0.000089
    10  H   -0.000146   0.001484  -0.006306   0.000018  -0.000031   0.000183
    11  H   -0.000152  -0.000014  -0.000094   0.000940  -0.000078  -0.007307
    12  H   -0.027612  -0.003474   0.004284   0.000199   0.000004   0.000006
    13  H    0.540648   0.001281  -0.005451  -0.000055  -0.000013   0.000008
    14  H    0.001281   0.531713  -0.025419   0.000006   0.000000   0.000002
    15  H   -0.005451  -0.025419   0.512483   0.000018   0.000022   0.000002
    16  H   -0.000055   0.000006   0.000018   0.586826  -0.000285   0.000546
    17  H   -0.000013   0.000000   0.000022  -0.000285   0.547413  -0.005483
    18  H    0.000008   0.000002   0.000002   0.000546  -0.005483   0.543931
    19  O    0.000052   0.000142  -0.000348  -0.000867   0.001830  -0.053400
    20  H    0.000000  -0.000001   0.000025  -0.000021  -0.000118   0.006281
    21  O   -0.000170   0.000726  -0.004450   0.012515  -0.034390   0.007837
    22  H    0.000001  -0.000002   0.000115   0.000059  -0.008816  -0.000186
    23  C    0.008106   0.007093   0.000819   0.031255   0.013545   0.007346
    24  H    0.000408  -0.000003  -0.000005  -0.007735  -0.000102   0.000005
    25  H   -0.003197   0.000041   0.000893   0.005108   0.000242   0.000001
    26  O    0.000631   0.000008  -0.000187  -0.002516   0.004091  -0.000078
    27  H   -0.000016   0.000000   0.000000   0.004936   0.000194   0.000006
             19         20         21         22         23         24
     1  C   -0.017801   0.026971   0.071808  -0.005940   0.016124  -0.000297
     2  C   -0.162500  -0.037441  -0.076011   0.006015  -0.091011   0.003340
     3  N    0.009001   0.003340   0.112401  -0.002669   0.168062  -0.003282
     4  C    0.005249   0.002680   0.013391  -0.000539  -0.022462  -0.019062
     5  C    0.003900  -0.009706  -0.041684   0.002323  -0.055880   0.005186
     6  C    0.040315   0.014849  -0.299642  -0.062188  -0.876842  -0.002009
     7  C   -0.152563  -0.052662   0.249845   0.061219   0.356019   0.008123
     8  C    0.416594   0.019439  -0.153778   0.018289  -0.075855   0.000743
     9  H   -0.000410   0.000030   0.000434  -0.000001  -0.001439   0.000000
    10  H    0.011209   0.000216   0.000265   0.000052   0.000296   0.000000
    11  H    0.002651  -0.000036   0.000789   0.000009   0.008089  -0.000002
    12  H   -0.000039   0.000001   0.000467   0.000001   0.013884  -0.000107
    13  H    0.000052   0.000000  -0.000170   0.000001   0.008106   0.000408
    14  H    0.000142  -0.000001   0.000726  -0.000002   0.007093  -0.000003
    15  H   -0.000348   0.000025  -0.004450   0.000115   0.000819  -0.000005
    16  H   -0.000867  -0.000021   0.012515   0.000059   0.031255  -0.007735
    17  H    0.001830  -0.000118  -0.034390  -0.008816   0.013545  -0.000102
    18  H   -0.053400   0.006281   0.007837  -0.000186   0.007346   0.000005
    19  O    8.188885   0.256050  -0.005373  -0.000481  -0.006213   0.000036
    20  H    0.256050   0.358003   0.027743  -0.000609   0.001135   0.000000
    21  O   -0.005373   0.027743   8.430186   0.233170   0.101211  -0.001492
    22  H   -0.000481  -0.000609   0.233170   0.348132   0.004111   0.000065
    23  C   -0.006213   0.001135   0.101211   0.004111   5.590552   0.367769
    24  H    0.000036   0.000000  -0.001492   0.000065   0.367769   0.555581
    25  H   -0.000033  -0.000004   0.008950  -0.000250   0.486711  -0.037738
    26  O    0.000290  -0.000059  -0.006884   0.003827   0.136652  -0.039408
    27  H    0.000007   0.000000   0.000358   0.000044   0.015834  -0.006703
             25         26         27
     1  C    0.000693   0.001120   0.000011
     2  C   -0.002905  -0.017866   0.001034
     3  N    0.019702   0.026278   0.002270
     4  C    0.014579  -0.006209   0.002658
     5  C   -0.005086   0.005232  -0.000025
     6  C   -0.130987  -0.036484  -0.007320
     7  C   -0.015868  -0.044721  -0.025884
     8  C   -0.006909   0.047067  -0.001052
     9  H    0.000001  -0.000001   0.000000
    10  H    0.000009  -0.000003   0.000000
    11  H    0.000005   0.000072   0.000000
    12  H    0.000236   0.000025   0.000000
    13  H   -0.003197   0.000631  -0.000016
    14  H    0.000041   0.000008   0.000000
    15  H    0.000893  -0.000187   0.000000
    16  H    0.005108  -0.002516   0.004936
    17  H    0.000242   0.004091   0.000194
    18  H    0.000001  -0.000078   0.000006
    19  O   -0.000033   0.000290   0.000007
    20  H   -0.000004  -0.000059   0.000000
    21  O    0.008950  -0.006884   0.000358
    22  H   -0.000250   0.003827   0.000044
    23  C    0.486711   0.136652   0.015834
    24  H   -0.037738  -0.039408  -0.006703
    25  H    0.528785  -0.051944   0.006175
    26  O   -0.051944   8.274258   0.259516
    27  H    0.006175   0.259516   0.368271
 Mulliken atomic charges:
              1
     1  C   -0.485986
     2  C    0.207843
     3  N   -0.090046
     4  C   -0.247423
     5  C   -0.262836
     6  C   -0.402040
     7  C    0.343220
     8  C   -0.336569
     9  H    0.171016
    10  H    0.164861
    11  H    0.161470
    12  H    0.162475
    13  H    0.157971
    14  H    0.165309
    15  H    0.181009
    16  H    0.170162
    17  H    0.174874
    18  H    0.179407
    19  O   -0.536184
    20  H    0.383895
    21  O   -0.648222
    22  H    0.404250
    23  C   -0.204912
    24  H    0.176689
    25  H    0.182789
    26  O   -0.552706
    27  H    0.379684
 Sum of Mulliken atomic charges =   0.00000
 Mulliken charges with hydrogens summed into heavy atoms:
              1
     1  C   -0.150109
     2  C    0.369313
     3  N   -0.090046
     4  C    0.073023
     5  C    0.083482
     6  C   -0.231878
     7  C    0.518094
     8  C   -0.157162
    19  O   -0.152288
    21  O   -0.243971
    23  C    0.154566
    26  O   -0.173021
 Sum of Mulliken charges with hydrogens summed into heavy atoms =   0.00000
 Electronic spatial extent (au):  <R**2>=           1911.0432
 Charge=              0.0000 electrons
 Dipole moment (field-independent basis, Debye):
    X=              2.5951    Y=              1.2616    Z=             -0.3248  Tot=              2.9037
 Quadrupole moment (field-independent basis, Debye-Ang):
   XX=            -76.2162   YY=            -75.3806   ZZ=            -71.6076
   XY=             -6.8818   XZ=             -5.3631   YZ=              1.7532
 Traceless Quadrupole moment (field-independent basis, Debye-Ang):
   XX=             -1.8147   YY=             -0.9791   ZZ=              2.7939
   XY=             -6.8818   XZ=             -5.3631   YZ=              1.7532
 Octapole moment (field-independent basis, Debye-Ang**2):
  XXX=             10.6757  YYY=              7.8295  ZZZ=             12.0072  XYY=             21.3499
  XXY=              8.3215  XXZ=            -19.7201  XZZ=              8.1741  YZZ=            -16.7841
  YYZ=              8.1651  XYZ=              4.5793
 Hexadecapole moment (field-independent basis, Debye-Ang**3):
 XXXX=          -1308.7485 YYYY=           -899.0388 ZZZZ=           -348.8208 XXXY=            -38.5942
 XXXZ=            -91.2907 YYYX=            -41.5349 YYYZ=            -15.2909 ZZZX=             11.4142
 ZZZY=             -2.6380 XXYY=           -362.1549 XXZZ=           -236.9176 YYZZ=           -193.9339
 XXYZ=             -4.8729 YYXZ=             -6.5477 ZZXY=              1.4473
 N-N= 8.192438775232D+02 E-N=-3.024322828137D+03  KE= 5.886481187384D+02
 1\1\GINC-COMPUTE-3-1\SP\RmPW1PW91\6-31+G(d,p)\C8H15N1O3\MAMICHETTI.IQU
 IR\17-May-2024\0\\# mpw1pw91/6-31+G** nmr scrf=(pcm,solvent=water)\\co
 mment\\0,1\C,0,-2.161951,0.733919,0.356987\C,0,-1.372958,0.133825,-0.8
 41638\N,0,-0.117973,0.938867,-1.0011\C,0,-0.298839,2.14338,-0.160576\C
 ,0,-1.202601,1.744131,1.011132\C,0,1.046322,0.041489,-0.722146\C,0,0.4
 95243,-1.239377,-0.076294\C,0,-0.900377,-1.340654,-0.699624\H,0,-3.054
 089,1.247228,-0.018168\H,0,-2.50612,-0.039673,1.048868\H,0,-1.985317,0
 .21521,-1.74642\H,0,-0.806631,2.909129,-0.763505\H,0,0.65943,2.569709,
 0.14004\H,0,-1.725278,2.601086,1.44942\H,0,-0.613805,1.266036,1.799812
 \H,0,1.462538,-0.272322,-1.693195\H,0,1.116929,-2.109763,-0.307526\H,0
 ,-0.799876,-1.770088,-1.701548\O,0,-1.773502,-2.199175,0.022179\H,0,-1
 .516709,-2.099374,0.95757\O,0,0.309248,-1.150175,1.343766\H,0,1.168987
 ,-1.317232,1.763566\C,0,2.209569,0.664247,0.051576\H,0,2.571485,1.5663
 05,-0.458826\H,0,1.910258,0.943476,1.064652\O,0,3.274455,-0.280561,0.2
 13298\H,0,3.575948,-0.52827,-0.677497\\Version=AM64L-G09RevC.01\State=
 1-A\HF=-594.1884792\RMSD=6.460e-09\Dipole=1.0209917,0.496333,-0.127776
 1\Quadrupole=-1.3492072,-0.7279615,2.0771686,-5.1164634,-3.9873231,1.3
 034409\PG=C01 [X(C8H15N1O3)]\\@


 IF IT HAPPENS, IT MUST BE POSSIBLE.

 -- THE UNNAMED LAW FROM PAUL DICKSON'S 
    "THE OFFICIAL RULES"
 Job cpu time:  0 days  0 hours  9 minutes 10.0 seconds.
 File lengths (MBytes):  RWF=    110 Int=      0 D2E=      0 Chk=      7 Scr=      1
 Normal termination of Gaussian 09 at Fri May 17 13:05:00 2024.
