 Entering Gaussian System, Link 0=g09
 Input=/home/mamichetti.iquir/Linux/04_Cardona_A1A3_R__S_R_S_023_OptB.gjc
 Output=/home/mamichetti.iquir/Linux/04_Cardona_A1A3_R__S_R_S_023_OptB.log
 Initial command:
 /opt/ohpc/pub/apps/software/Gaussian/09/AMD64.SSE4a-enabled/g09/l1.exe /local/mamichetti.iquir/Gau-408683.inp -scrdir=/local/mamichetti.iquir/
 Entering Link 1 = /opt/ohpc/pub/apps/software/Gaussian/09/AMD64.SSE4a-enabled/g09/l1.exe PID=    408684.
  
 Copyright (c) 1988,1990,1992,1993,1995,1998,2003,2009,2011,
            Gaussian, Inc.  All Rights Reserved.
  
 This is part of the Gaussian(R) 09 program.  It is based on
 the Gaussian(R) 03 system (copyright 2003, Gaussian, Inc.),
 the Gaussian(R) 98 system (copyright 1998, Gaussian, Inc.),
 the Gaussian(R) 94 system (copyright 1995, Gaussian, Inc.),
 the Gaussian 92(TM) system (copyright 1992, Gaussian, Inc.),
 the Gaussian 90(TM) system (copyright 1990, Gaussian, Inc.),
 the Gaussian 88(TM) system (copyright 1988, Gaussian, Inc.),
 the Gaussian 86(TM) system (copyright 1986, Carnegie Mellon
 University), and the Gaussian 82(TM) system (copyright 1983,
 Carnegie Mellon University). Gaussian is a federally registered
 trademark of Gaussian, Inc.
  
 This software contains proprietary and confidential information,
 including trade secrets, belonging to Gaussian, Inc.
  
 This software is provided under written license and may be
 used, copied, transmitted, or stored only in accord with that
 written license.
  
 The following legend is applicable only to US Government
 contracts under FAR:
  
                    RESTRICTED RIGHTS LEGEND
  
 Use, reproduction and disclosure by the US Government is
 subject to restrictions as set forth in subparagraphs (a)
 and (c) of the Commercial Computer Software - Restricted
 Rights clause in FAR 52.227-19.
  
 Gaussian, Inc.
 340 Quinnipiac St., Bldg. 40, Wallingford CT 06492
  
  
 ---------------------------------------------------------------
 Warning -- This program may not be used in any manner that
 competes with the business of Gaussian, Inc. or will provide
 assistance to any competitor of Gaussian, Inc.  The licensee
 of this program is prohibited from giving any competitor of
 Gaussian, Inc. access to this program.  By using this program,
 the user acknowledges that Gaussian, Inc. is engaged in the
 business of creating and licensing software in the field of
 computational chemistry and represents and warrants to the
 licensee that it is not a competitor of Gaussian, Inc. and that
 it will not use this program in any manner prohibited above.
 ---------------------------------------------------------------
  

 Cite this work as:
 Gaussian 09, Revision C.01,
 M. J. Frisch, G. W. Trucks, H. B. Schlegel, G. E. Scuseria, 
 M. A. Robb, J. R. Cheeseman, G. Scalmani, V. Barone, B. Mennucci, 
 G. A. Petersson, H. Nakatsuji, M. Caricato, X. Li, H. P. Hratchian, 
 A. F. Izmaylov, J. Bloino, G. Zheng, J. L. Sonnenberg, M. Hada, 
 M. Ehara, K. Toyota, R. Fukuda, J. Hasegawa, M. Ishida, T. Nakajima, 
 Y. Honda, O. Kitao, H. Nakai, T. Vreven, J. A. Montgomery, Jr., 
 J. E. Peralta, F. Ogliaro, M. Bearpark, J. J. Heyd, E. Brothers, 
 K. N. Kudin, V. N. Staroverov, T. Keith, R. Kobayashi, J. Normand, 
 K. Raghavachari, A. Rendell, J. C. Burant, S. S. Iyengar, J. Tomasi, 
 M. Cossi, N. Rega, J. M. Millam, M. Klene, J. E. Knox, J. B. Cross, 
 V. Bakken, C. Adamo, J. Jaramillo, R. Gomperts, R. E. Stratmann, 
 O. Yazyev, A. J. Austin, R. Cammi, C. Pomelli, J. W. Ochterski, 
 R. L. Martin, K. Morokuma, V. G. Zakrzewski, G. A. Voth, 
 P. Salvador, J. J. Dannenberg, S. Dapprich, A. D. Daniels, 
 O. Farkas, J. B. Foresman, J. V. Ortiz, J. Cioslowski, 
 and D. J. Fox, Gaussian, Inc., Wallingford CT, 2010.
 
 ******************************************
 Gaussian 09:  AM64L-G09RevC.01 23-Sep-2011
                17-May-2024 
 ******************************************
 %nprocshared=4
 Will use up to    4 processors via shared memory.
 ------------------------------------------------
 # mpw1pw91/6-31+G** nmr scrf=(pcm,solvent=water)
 ------------------------------------------------
 1/38=1/1;
 2/12=2,17=6,18=5,40=1/2;
 3/5=1,6=6,7=111,11=2,16=1,25=1,30=1,70=2201,72=1,74=-7/1,2,8,3;
 4//1;
 5/5=2,38=5,53=1/2;
 8/6=1,10=90,11=11/1;
 10/13=100,45=16/2;
 6/7=2,8=2,9=2,10=2,28=1/1;
 99/9=1/99;
 -------
 comment
 -------
 Charge =  0 Multiplicity = 1
 Symbolic Z-Matrix:
 6                    -2.13046   0.76081   0.40727 
 6                    -1.38661   0.15401  -0.81825 
 7                    -0.12394   0.93805  -1.0098 
 6                    -0.27241   2.15024  -0.17547 
 6                    -1.14197   1.76522   1.02636 
 6                     1.03326   0.02515  -0.75052 
 6                     0.47452  -1.25246  -0.1025 
 6                    -0.9353   -1.32746  -0.69756 
 1                    -3.03166   1.27941   0.06226 
 1                    -2.45584  -0.00938   1.11192 
 1                    -2.02436   0.25197  -1.70354 
 1                    -0.79475   2.91257  -0.77021 
 1                     0.69691   2.57472   0.09079 
 1                    -1.64275   2.62854   1.47755 
 1                    -0.53214   1.28526   1.79798 
 1                     1.43763  -0.28752  -1.72481 
 1                     1.07684  -2.1308   -0.35393 
 1                    -0.86178  -1.7508   -1.70441 
 8                    -1.80703  -2.17752   0.03565 
 1                    -1.53178  -2.08763   0.96671 
 8                     0.32029  -1.17189   1.32169 
 1                     1.18978  -1.3435    1.7193 
 6                     2.2022    0.63396   0.01619 
 1                     2.58095   1.52204  -0.50677 
 1                     1.89806   0.93618   1.02548 
 8                     3.21751  -0.37638   0.0873 
 1                     3.95693   0.00214   0.58993 
 
                          Input orientation:                          
 ---------------------------------------------------------------------
 Center     Atomic      Atomic             Coordinates (Angstroms)
 Number     Number       Type             X           Y           Z
 ---------------------------------------------------------------------
      1          6           0       -2.130463    0.760809    0.407273
      2          6           0       -1.386608    0.154009   -0.818247
      3          7           0       -0.123938    0.938045   -1.009802
      4          6           0       -0.272407    2.150237   -0.175465
      5          6           0       -1.141969    1.765219    1.026365
      6          6           0        1.033255    0.025150   -0.750519
      7          6           0        0.474520   -1.252458   -0.102498
      8          6           0       -0.935296   -1.327462   -0.697555
      9          1           0       -3.031665    1.279407    0.062259
     10          1           0       -2.455844   -0.009375    1.111924
     11          1           0       -2.024359    0.251972   -1.703540
     12          1           0       -0.794746    2.912569   -0.770211
     13          1           0        0.696910    2.574716    0.090791
     14          1           0       -1.642748    2.628536    1.477554
     15          1           0       -0.532140    1.285257    1.797981
     16          1           0        1.437633   -0.287515   -1.724813
     17          1           0        1.076839   -2.130804   -0.353928
     18          1           0       -0.861778   -1.750800   -1.704414
     19          8           0       -1.807026   -2.177519    0.035650
     20          1           0       -1.531778   -2.087627    0.966709
     21          8           0        0.320287   -1.171885    1.321689
     22          1           0        1.189775   -1.343498    1.719299
     23          6           0        2.202198    0.633959    0.016186
     24          1           0        2.580946    1.522040   -0.506771
     25          1           0        1.898064    0.936183    1.025484
     26          8           0        3.217507   -0.376381    0.087301
     27          1           0        3.956933    0.002141    0.589933
 ---------------------------------------------------------------------
                    Distance matrix (angstroms):
                    1          2          3          4          5
     1  C    0.000000
     2  C    1.556736   0.000000
     3  N    2.462855   1.498580   0.000000
     4  C    2.392168   2.374771   1.479044   0.000000
     5  C    1.539232   2.461390   2.422102   1.532570   0.000000
     6  C    3.448302   2.424238   1.496563   2.559577   3.304052
     7  C    3.331523   2.440132   2.445333   3.484474   3.604683
     8  C    2.647630   1.553385   2.426586   3.578602   3.546729
     9  H    1.095511   2.178996   3.117807   2.903164   2.176342
    10  H    1.093430   2.212582   3.291977   3.329969   2.209699
    11  H    2.173869   1.095476   2.136251   3.001293   3.243595
    12  H    2.792970   2.821748   2.099079   1.098959   2.159783
    13  H    3.374086   3.320726   2.136302   1.091169   2.216317
    14  H    2.207209   3.385202   3.369196   2.199790   1.095293
    15  H    2.182602   2.975649   2.858466   2.170286   1.094370
    16  H    4.286733   2.998857   2.109915   3.356687   4.293838
    17  H    4.384933   3.391833   3.360040   4.492174   4.691195
    18  H    3.518091   2.165418   2.873462   4.231209   4.460723
    19  O    2.979343   2.518316   3.692221   4.596640   4.119345
    20  H    2.963947   2.869159   3.878569   4.566187   3.872975
    21  O    3.252328   3.041515   3.175687   3.691782   3.294236
    22  H    4.144092   3.914003   3.792001   4.234890   3.947317
    23  C    4.352125   3.715664   2.560474   2.908522   3.672011
    24  H    4.859251   4.208326   2.812559   2.940411   4.033576
    25  H    4.079457   3.847104   2.868952   2.761730   3.151048
    26  O    5.476894   4.722203   3.754545   4.316520   4.947052
    27  H    6.137209   5.528062   4.482028   4.804942   5.412737
                    6          7          8          9         10
     6  C    0.000000
     7  C    1.537660   0.000000
     8  C    2.389049   1.532090   0.000000
     9  H    4.330975   4.327912   3.430429   0.000000
    10  H    3.955211   3.406921   2.706221   1.759069   0.000000
    11  H    3.210717   3.327317   2.166258   2.277792   2.860301
    12  H    3.417479   4.405034   4.242982   2.892063   3.852199
    13  H    2.705775   3.838500   4.302625   3.947266   4.202392
    14  H    4.347749   4.694838   4.569629   2.398395   2.784490
    15  H    3.245487   3.326437   3.635455   3.043089   2.418136
    16  H    1.100241   2.119105   2.787031   5.061966   4.825308
    17  H    2.192561   1.094302   2.193656   5.355610   4.373675
    18  H    2.766779   2.144801   1.094708   4.124524   3.674965
    19  O    3.679267   2.465821   1.421302   3.667531   2.506029
    20  H    3.740601   2.421971   1.924426   3.795340   2.279060
    21  O    2.497051   1.434778   2.382864   4.339421   3.017007
    22  H    2.828020   1.959291   3.218286   5.238890   3.929291
    23  C    1.524766   2.560767   3.768351   5.273713   4.828237
    24  H    2.166896   3.506894   4.529903   5.646598   5.507691
    25  H    2.175330   2.844112   4.015082   5.034663   4.456239
    26  O    2.373631   2.885743   4.332012   6.464860   5.776803
    27  H    3.216401   3.765724   5.230619   7.123928   6.433997
                   11         12         13         14         15
    11  H    0.000000
    12  H    3.076008   0.000000
    13  H    4.002508   1.755137   0.000000
    14  H    3.989115   2.419138   2.720296   0.000000
    15  H    3.943988   3.051674   2.467340   1.772152   0.000000
    16  H    3.503839   4.016879   3.469504   5.314815   4.331708
    17  H    4.137210   5.395529   4.741734   5.779429   4.346148
    18  H    2.315748   4.756494   4.935824   5.469316   4.646835
    19  O    2.995737   5.251963   5.371822   5.020382   4.089250
    20  H    3.584214   5.344349   5.241348   4.745047   3.614780
    21  O    4.083717   4.722511   3.961562   4.280304   2.644056
    22  H    4.959033   5.315081   4.271692   4.884535   3.143491
    23  C    4.578991   3.846057   2.457233   4.571383   3.328000
    24  H    4.924852   3.660364   2.239375   4.795985   3.880625
    25  H    4.827123   3.792341   2.236339   3.950415   2.573810
    26  O    5.574863   5.258393   3.881030   5.880851   4.443796
    27  H    6.410795   5.735768   4.182707   6.248380   4.822607
                   16         17         18         19         20
    16  H    0.000000
    17  H    2.325341   0.000000
    18  H    2.725603   2.393000   0.000000
    19  O    4.147187   2.910435   2.025686   0.000000
    20  H    4.393415   2.924180   2.774392   0.975045   0.000000
    21  O    3.363294   2.073545   3.299958   2.681540   2.096363
    22  H    3.610878   2.220557   4.012054   3.537101   2.920098
    23  C    2.112996   3.007878   4.246821   4.896801   4.717319
    24  H    2.462779   3.953349   4.898794   5.765003   5.667040
    25  H    3.045253   3.461733   4.721117   4.939899   4.572822
    26  O    2.541575   2.802703   4.662600   5.337855   5.124200
    27  H    3.433485   3.706112   5.617544   6.187194   5.885154
                   21         22         23         24         25
    21  O    0.000000
    22  H    0.971367   0.000000
    23  C    2.916676   2.799273   0.000000
    24  H    3.963720   3.886136   1.098008   0.000000
    25  H    2.649730   2.485960   1.096594   1.776897   0.000000
    26  O    3.248142   2.776766   1.434119   2.088572   2.084212
    27  H    3.890887   3.277709   1.951275   2.325122   2.302408
                   26         27
    26  O    0.000000
    27  H    0.970911   0.000000
 Stoichiometry    C8H15NO3
 Framework group  C1[X(C8H15NO3)]
 Deg. of freedom    75
 Full point group                 C1      NOp   1
 Largest Abelian subgroup         C1      NOp   1
 Largest concise Abelian subgroup C1      NOp   1
                         Standard orientation:                         
 ---------------------------------------------------------------------
 Center     Atomic      Atomic             Coordinates (Angstroms)
 Number     Number       Type             X           Y           Z
 ---------------------------------------------------------------------
      1          6           0       -2.130463    0.760808    0.407273
      2          6           0       -1.386608    0.154009   -0.818247
      3          7           0       -0.123938    0.938045   -1.009802
      4          6           0       -0.272407    2.150237   -0.175465
      5          6           0       -1.141969    1.765219    1.026365
      6          6           0        1.033255    0.025150   -0.750519
      7          6           0        0.474520   -1.252458   -0.102498
      8          6           0       -0.935296   -1.327462   -0.697555
      9          1           0       -3.031665    1.279406    0.062259
     10          1           0       -2.455844   -0.009376    1.111924
     11          1           0       -2.024359    0.251971   -1.703540
     12          1           0       -0.794747    2.912569   -0.770211
     13          1           0        0.696909    2.574716    0.090791
     14          1           0       -1.642749    2.628536    1.477554
     15          1           0       -0.532140    1.285257    1.797981
     16          1           0        1.437633   -0.287515   -1.724813
     17          1           0        1.076839   -2.130804   -0.353928
     18          1           0       -0.861778   -1.750800   -1.704414
     19          8           0       -1.807026   -2.177520    0.035650
     20          1           0       -1.531778   -2.087627    0.966709
     21          8           0        0.320287   -1.171885    1.321689
     22          1           0        1.189775   -1.343498    1.719299
     23          6           0        2.202198    0.633959    0.016186
     24          1           0        2.580946    1.522040   -0.506771
     25          1           0        1.898064    0.936183    1.025484
     26          8           0        3.217507   -0.376381    0.087301
     27          1           0        3.956933    0.002142    0.589933
 ---------------------------------------------------------------------
 Rotational constants (GHZ):      1.2642258      0.9098285      0.6690107
 Standard basis: 6-31+G(d,p) (6D, 7F)
 There are   303 symmetry adapted basis functions of A   symmetry.
 Integral buffers will be    131072 words long.
 Raffenetti 2 integral format.
 Two-electron integral symmetry is turned on.
   303 basis functions,   489 primitive gaussians,   303 cartesian basis functions
    47 alpha electrons       47 beta electrons
       nuclear repulsion energy       819.9010154988 Hartrees.
 NAtoms=   27 NActive=   27 NUniq=   27 SFac= 1.00D+00 NAtFMM=   60 NAOKFM=F Big=F
 ------------------------------------------------------------------------------
 Polarizable Continuum Model (PCM)
 =================================
 Model                : PCM.
 Atomic radii         : UFF (Universal Force Field).
 Polarization charges : Total charges.
 Charge compensation  : None.
 Solution method      : Matrix inversion.
 Cavity type          : Scaled VdW (van der Waals Surface) (Alpha=1.100).
 Cavity algorithm     : GePol (No added spheres)
                        Default sphere list used, NSphG=   27.
                        Lebedev-Laikov grids with approx.  5.0 points / Ang**2.
                        Smoothing algorithm: Karplus/York (Gamma=1.0000).
                        Polarization charges: spherical gaussians, with
                                              point-specific exponents (IZeta= 3).
                        Self-potential: point-specific (ISelfS= 7).
                        Self-field    : sphere-specific E.n sum rule (ISelfD= 2).
 Solvent              : Water, Eps=  78.355300 Eps(inf)=   1.777849
 ------------------------------------------------------------------------------
 One-electron integrals computed using PRISM.
 NBasis=   303 RedAO= T  NBF=   303
 NBsUse=   303 1.00D-06 NBFU=   303
 Harris functional with IExCor=  908 diagonalized for initial guess.
 ExpMin= 4.38D-02 ExpMax= 5.48D+03 ExpMxC= 8.25D+02 IAcc=2 IRadAn=         4 AccDes= 0.00D+00
 HarFok:  IExCor=  908 AccDes= 0.00D+00 IRadAn=         4 IDoV= 1
 ScaDFX=  1.000000  1.000000  1.000000  1.000000
 FoFCou: FMM=F IPFlag=           0 FMFlag=      100000 FMFlg1=           0
         NFxFlg=           0 DoJE=T BraDBF=F KetDBF=T FulRan=T
         Omega=  0.000000  0.000000  1.000000  0.000000  0.000000 ICntrl=     500 IOpCl=  0
         NMat0=    1 NMatS0=    1 NMatT0=    0 NMatD0=    1 NMtDS0=    0 NMtDT0=    0
         I1Cent=           4 NGrid=           0.
 Petite list used in FoFCou.
 Initial guess orbital symmetries:
       Occupied  (A) (A) (A) (A) (A) (A) (A) (A) (A) (A) (A) (A)
                 (A) (A) (A) (A) (A) (A) (A) (A) (A) (A) (A) (A)
                 (A) (A) (A) (A) (A) (A) (A) (A) (A) (A) (A) (A)
                 (A) (A) (A) (A) (A) (A) (A) (A) (A) (A) (A)
       Virtual   (A) (A) (A) (A) (A) (A) (A) (A) (A) (A) (A) (A)
                 (A) (A) (A) (A) (A) (A) (A) (A) (A) (A) (A) (A)
                 (A) (A) (A) (A) (A) (A) (A) (A) (A) (A) (A) (A)
                 (A) (A) (A) (A) (A) (A) (A) (A) (A) (A) (A) (A)
                 (A) (A) (A) (A) (A) (A) (A) (A) (A) (A) (A) (A)
                 (A) (A) (A) (A) (A) (A) (A) (A) (A) (A) (A) (A)
                 (A) (A) (A) (A) (A) (A) (A) (A) (A) (A) (A) (A)
                 (A) (A) (A) (A) (A) (A) (A) (A) (A) (A) (A) (A)
                 (A) (A) (A) (A) (A) (A) (A) (A) (A) (A) (A) (A)
                 (A) (A) (A) (A) (A) (A) (A) (A) (A) (A) (A) (A)
                 (A) (A) (A) (A) (A) (A) (A) (A) (A) (A) (A) (A)
                 (A) (A) (A) (A) (A) (A) (A) (A) (A) (A) (A) (A)
                 (A) (A) (A) (A) (A) (A) (A) (A) (A) (A) (A) (A)
                 (A) (A) (A) (A) (A) (A) (A) (A) (A) (A) (A) (A)
                 (A) (A) (A) (A) (A) (A) (A) (A) (A) (A) (A) (A)
                 (A) (A) (A) (A) (A) (A) (A) (A) (A) (A) (A) (A)
                 (A) (A) (A) (A) (A) (A) (A) (A) (A) (A) (A) (A)
                 (A) (A) (A) (A) (A) (A) (A) (A) (A) (A) (A) (A)
                 (A) (A) (A) (A) (A) (A) (A) (A) (A) (A) (A) (A)
                 (A) (A) (A) (A) (A) (A) (A) (A) (A) (A) (A) (A)
                 (A) (A) (A) (A) (A) (A) (A) (A) (A) (A) (A) (A)
                 (A) (A) (A) (A)
 The electronic state of the initial guess is 1-A.
 Requested convergence on RMS density matrix=1.00D-08 within 128 cycles.
 Requested convergence on MAX density matrix=1.00D-06.
 Requested convergence on             energy=1.00D-06.
 No special actions if energy rises.
 Error on total polarization charges =  0.01424
 SCF Done:  E(RmPW1PW91) =  -594.188507143     A.U. after   13 cycles
             Convg  =    0.7587D-08             -V/T =  2.0094
 Range of M.O.s used for correlation:     1   303
 NBasis=   303 NAE=    47 NBE=    47 NFC=     0 NFV=     0
 NROrb=    303 NOA=    47 NOB=    47 NVA=   256 NVB=   256

 **** Warning!!: The largest alpha MO coefficient is  0.77069628D+02

 NEqPCM:  Using equilibrium solvation (IEInf=0, Eps=  78.3553, EpsInf=   1.7778)
          Differentiating once with respect to magnetic field using GIAOs.
          Electric field/nuclear overlap derivatives assumed to be zero.
 FoFCou: FMM=F IPFlag=           0 FMFlag=    10101102 FMFlg1=           0
         NFxFlg=    40000000 DoJE=F BraDBF=F KetDBF=T FulRan=T
         Omega=  0.000000  0.000000  1.000000  0.000000  0.000000 ICntrl=    6100 IOpCl=  0
         NMat0=    1 NMatS0=    1 NMatT0=    0 NMatD0=    1 NMtDS0=    0 NMtDT0=    0
         I1Cent=           7 NGrid=        1763.
 Symmetry not used in FoFCou.
          There are     3 degrees of freedom in the 1st order CPHF.  IDoFFX=0.
      3 vectors produced by pass  0 Test12= 4.01D-13 3.33D-08 XBig12= 2.42D+01 8.96D-01.
 AX will form     3 AO Fock derivatives at one time.
      3 vectors produced by pass  1 Test12= 4.01D-13 3.33D-08 XBig12= 6.15D-02 3.11D-02.
      3 vectors produced by pass  2 Test12= 4.01D-13 3.33D-08 XBig12= 1.10D-04 1.68D-03.
      3 vectors produced by pass  3 Test12= 4.01D-13 3.33D-08 XBig12= 4.46D-07 1.30D-04.
      3 vectors produced by pass  4 Test12= 4.01D-13 3.33D-08 XBig12= 1.83D-09 8.76D-06.
      3 vectors produced by pass  5 Test12= 4.01D-13 3.33D-08 XBig12= 6.76D-12 4.07D-07.
 Inverted reduced A of dimension    18 with in-core refinement.
 Calculating GIAO nuclear magnetic shielding tensors.
 SCF GIAO Magnetic shielding tensor (ppm):
      1  C    Isotropic =   168.9673   Anisotropy =    26.3814
   XX=   174.0629   YX=    13.5078   ZX=    -7.2000
   XY=     9.3374   YY=   163.0483   ZY=    17.7168
   XZ=    -6.1586   YZ=    20.7526   ZZ=   169.7909
   Eigenvalues:   141.6288   178.7183   186.5550
      2  C    Isotropic =   126.1297   Anisotropy =    64.1660
   XX=   139.3944   YX=    28.2168   ZX=   -16.9634
   XY=    28.2551   YY=   137.1437   ZY=     1.6668
   XZ=   -22.2658   YZ=     3.8322   ZZ=   101.8511
   Eigenvalues:    88.6012   120.8808   168.9071
      3  N    Isotropic =   197.3591   Anisotropy =    79.5722
   XX=   240.5846   YX=    21.8050   ZX=     0.5530
   XY=    16.2454   YY=   209.6263   ZY=    22.5029
   XZ=     7.2217   YZ=     3.4598   ZZ=   141.8664
   Eigenvalues:   139.4632   202.2069   250.4072
      4  C    Isotropic =   144.2355   Anisotropy =    49.6136
   XX=   122.4915   YX=     1.3258   ZX=   -14.9799
   XY=    11.3638   YY=   163.0122   ZY=    21.2463
   XZ=   -23.9594   YZ=    18.7352   ZZ=   147.2029
   Eigenvalues:   107.3129   148.0824   177.3113
      5  C    Isotropic =   168.8485   Anisotropy =    19.0635
   XX=   165.9349   YX=     9.8665   ZX=   -12.0328
   XY=    10.2407   YY=   168.3131   ZY=     3.4304
   XZ=   -11.8498   YZ=    13.8348   ZZ=   172.2973
   Eigenvalues:   148.0930   176.8949   181.5575
      6  C    Isotropic =   130.1451   Anisotropy =    46.2705
   XX=   147.7162   YX=   -19.0320   ZX=     8.8723
   XY=   -12.0258   YY=   136.6335   ZY=   -10.3611
   XZ=     1.5791   YZ=   -13.6005   ZZ=   106.0856
   Eigenvalues:   101.9469   127.4963   160.9921
      7  C    Isotropic =   121.2330   Anisotropy =    27.7670
   XX=   112.1128   YX=     6.6478   ZX=    -6.7385
   XY=    13.3130   YY=   111.9900   ZY=    -0.9319
   XZ=     3.8175   YZ=    -0.6330   ZZ=   139.5961
   Eigenvalues:   102.0648   121.8898   139.7443
      8  C    Isotropic =   121.3206   Anisotropy =    53.4645
   XX=   136.2049   YX=    15.0175   ZX=   -15.1477
   XY=    14.1177   YY=   132.2109   ZY=   -22.2155
   XZ=    -8.9857   YZ=   -17.0793   ZZ=    95.5459
   Eigenvalues:    86.3743   120.6239   156.9636
      9  H    Isotropic =    30.1094   Anisotropy =    12.6573
   XX=    36.7300   YX=    -4.0227   ZX=     1.8257
   XY=    -4.5844   YY=    27.1789   ZY=     1.1131
   XZ=     2.0453   YZ=     1.1626   ZZ=    26.4192
   Eigenvalues:    24.1076    27.6729    38.5476
     10  H    Isotropic =    29.6377   Anisotropy =     7.0470
   XX=    29.3535   YX=     1.5720   ZX=    -3.9803
   XY=     1.5233   YY=    31.4643   ZY=    -1.5136
   XZ=    -3.5691   YZ=    -1.8270   ZZ=    28.0953
   Eigenvalues:    24.8849    29.6924    34.3357
     11  H    Isotropic =    27.9428   Anisotropy =     9.4510
   XX=    28.4963   YX=     0.1838   ZX=     4.6236
   XY=    -0.6036   YY=    24.3039   ZY=     0.4640
   XZ=     3.9447   YZ=     0.7764   ZZ=    31.0283
   Eigenvalues:    24.0556    25.5293    34.2435
     12  H    Isotropic =    28.9191   Anisotropy =    12.4384
   XX=    23.9445   YX=    -3.1815   ZX=    -0.1672
   XY=    -3.1410   YY=    35.2365   ZY=    -4.0530
   XZ=    -0.7234   YZ=    -3.0153   ZZ=    27.5763
   Eigenvalues:    22.6894    26.8565    37.2114
     13  H    Isotropic =    28.8385   Anisotropy =     7.7042
   XX=    30.4118   YX=     1.6400   ZX=    -0.6735
   XY=     3.1595   YY=    32.1052   ZY=     2.0843
   XZ=     0.0188   YZ=     1.5295   ZZ=    23.9985
   Eigenvalues:    23.5078    29.0331    33.9746
     14  H    Isotropic =    30.2100   Anisotropy =    12.3594
   XX=    28.4034   YX=    -2.9352   ZX=    -2.7271
   XY=    -3.1011   YY=    33.0474   ZY=     5.3820
   XZ=    -2.8303   YZ=     5.3128   ZZ=    29.1791
   Eigenvalues:    25.2561    26.9242    38.4496
     15  H    Isotropic =    29.8463   Anisotropy =     7.2737
   XX=    28.5942   YX=    -0.9467   ZX=     3.1671
   XY=    -1.8296   YY=    28.0620   ZY=    -0.7543
   XZ=     3.0874   YZ=    -0.1254   ZZ=    32.8827
   Eigenvalues:    26.3036    28.5398    34.6954
     16  H    Isotropic =    28.2196   Anisotropy =     8.4408
   XX=    29.4971   YX=    -1.8405   ZX=    -3.8579
   XY=    -2.4574   YY=    25.0984   ZY=     1.3962
   XZ=    -3.3978   YZ=    -0.1535   ZZ=    30.0632
   Eigenvalues:    24.0636    26.7483    33.8468
     17  H    Isotropic =    27.5403   Anisotropy =     7.5260
   XX=    26.7388   YX=    -3.2709   ZX=    -1.2982
   XY=    -2.2510   YY=    28.9740   ZY=     2.0733
   XZ=    -2.0534   YZ=     3.1913   ZZ=    26.9081
   Eigenvalues:    24.8619    25.2014    32.5576
     18  H    Isotropic =    27.1845   Anisotropy =     7.0996
   XX=    23.6940   YX=     0.7163   ZX=    -1.9594
   XY=     1.6787   YY=    28.1816   ZY=     2.2777
   XZ=     0.9706   YZ=     3.4774   ZZ=    29.6779
   Eigenvalues:    23.1285    26.5074    31.9176
     19  O    Isotropic =   310.7747   Anisotropy =    34.5465
   XX=   295.6769   YX=     0.0651   ZX=     7.0842
   XY=    19.1398   YY=   328.1481   ZY=    -4.2361
   XZ=    18.5889   YZ=    14.2601   ZZ=   308.4991
   Eigenvalues:   286.9400   311.5784   333.8057
     20  H    Isotropic =    28.4870   Anisotropy =    14.3678
   XX=    25.5717   YX=     4.3638   ZX=     3.1917
   XY=     3.5829   YY=    22.5323   ZY=    -1.0131
   XZ=     2.6416   YZ=    -2.1022   ZZ=    37.3568
   Eigenvalues:    19.3131    28.0823    38.0655
     21  O    Isotropic =   314.2028   Anisotropy =    49.8148
   XX=   334.5911   YX=   -16.9144   ZX=    29.9249
   XY=   -14.8696   YY=   302.6307   ZY=    28.0804
   XZ=    11.9938   YZ=    -4.0343   ZZ=   305.3867
   Eigenvalues:   279.6287   315.5671   347.4127
     22  H    Isotropic =    29.6219   Anisotropy =    20.5112
   XX=    36.8960   YX=    -3.2792   ZX=     7.9250
   XY=    -2.8231   YY=    21.4643   ZY=    -4.8685
   XZ=     7.7687   YZ=    -3.7236   ZZ=    30.5053
   Eigenvalues:    19.7480    25.8217    43.2960
     23  C    Isotropic =   135.9291   Anisotropy =    67.1260
   XX=   151.8523   YX=   -31.2804   ZX=     4.1817
   XY=   -32.6608   YY=   144.3365   ZY=    -2.9410
   XZ=     3.2606   YZ=    -4.4043   ZZ=   111.5984
   Eigenvalues:   111.1883   115.9192   180.6798
     24  H    Isotropic =    27.5683   Anisotropy =     5.5703
   XX=    29.6867   YX=    -0.5645   ZX=     0.4899
   XY=     0.9497   YY=    30.4132   ZY=    -3.0276
   XZ=    -1.1448   YZ=    -2.2890   ZZ=    22.6048
   Eigenvalues:    21.7775    29.6455    31.2818
     25  H    Isotropic =    27.6489   Anisotropy =     5.3431
   XX=    30.0389   YX=    -1.9783   ZX=    -0.5490
   XY=    -2.3423   YY=    26.8365   ZY=     2.8371
   XZ=     1.5389   YZ=     1.7696   ZZ=    26.0712
   Eigenvalues:    23.6025    28.1332    31.2109
     26  O    Isotropic =   316.9878   Anisotropy =    82.2897
   XX=   350.9815   YX=     6.1628   ZX=    27.1072
   XY=    22.7233   YY=   293.0315   ZY=    14.3506
   XZ=    37.5533   YZ=     4.7305   ZZ=   306.9505
   Eigenvalues:   287.8897   291.2262   371.8476
     27  H    Isotropic =    30.1819   Anisotropy =    21.5163
   XX=    39.3778   YX=     3.4846   ZX=     9.3946
   XY=     1.4692   YY=    25.9384   ZY=     2.9450
   XZ=     8.6678   YZ=     3.8677   ZZ=    25.2294
   Eigenvalues:    20.0886    25.9310    44.5260
 End of Minotr Frequency-dependent properties file   721 does not exist.
 End of Minotr Frequency-dependent properties file   722 does not exist.

 **********************************************************************

            Population analysis using the SCF density.

 **********************************************************************

 Orbital symmetries:
       Occupied  (A) (A) (A) (A) (A) (A) (A) (A) (A) (A) (A) (A)
                 (A) (A) (A) (A) (A) (A) (A) (A) (A) (A) (A) (A)
                 (A) (A) (A) (A) (A) (A) (A) (A) (A) (A) (A) (A)
                 (A) (A) (A) (A) (A) (A) (A) (A) (A) (A) (A)
       Virtual   (A) (A) (A) (A) (A) (A) (A) (A) (A) (A) (A) (A)
                 (A) (A) (A) (A) (A) (A) (A) (A) (A) (A) (A) (A)
                 (A) (A) (A) (A) (A) (A) (A) (A) (A) (A) (A) (A)
                 (A) (A) (A) (A) (A) (A) (A) (A) (A) (A) (A) (A)
                 (A) (A) (A) (A) (A) (A) (A) (A) (A) (A) (A) (A)
                 (A) (A) (A) (A) (A) (A) (A) (A) (A) (A) (A) (A)
                 (A) (A) (A) (A) (A) (A) (A) (A) (A) (A) (A) (A)
                 (A) (A) (A) (A) (A) (A) (A) (A) (A) (A) (A) (A)
                 (A) (A) (A) (A) (A) (A) (A) (A) (A) (A) (A) (A)
                 (A) (A) (A) (A) (A) (A) (A) (A) (A) (A) (A) (A)
                 (A) (A) (A) (A) (A) (A) (A) (A) (A) (A) (A) (A)
                 (A) (A) (A) (A) (A) (A) (A) (A) (A) (A) (A) (A)
                 (A) (A) (A) (A) (A) (A) (A) (A) (A) (A) (A) (A)
                 (A) (A) (A) (A) (A) (A) (A) (A) (A) (A) (A) (A)
                 (A) (A) (A) (A) (A) (A) (A) (A) (A) (A) (A) (A)
                 (A) (A) (A) (A) (A) (A) (A) (A) (A) (A) (A) (A)
                 (A) (A) (A) (A) (A) (A) (A) (A) (A) (A) (A) (A)
                 (A) (A) (A) (A) (A) (A) (A) (A) (A) (A) (A) (A)
                 (A) (A) (A) (A) (A) (A) (A) (A) (A) (A) (A) (A)
                 (A) (A) (A) (A) (A) (A) (A) (A) (A) (A) (A) (A)
                 (A) (A) (A) (A) (A) (A) (A) (A) (A) (A) (A) (A)
                 (A) (A) (A) (A)
 The electronic state is 1-A.
 Alpha  occ. eigenvalues --  -19.26365 -19.26079 -19.25456 -14.41161 -10.30325
 Alpha  occ. eigenvalues --  -10.30240 -10.30145 -10.28215 -10.27332 -10.26674
 Alpha  occ. eigenvalues --  -10.24039 -10.23736  -1.07908  -1.06159  -1.04831
 Alpha  occ. eigenvalues --   -0.95859  -0.82234  -0.78699  -0.75595  -0.71527
 Alpha  occ. eigenvalues --   -0.66901  -0.62035  -0.59071  -0.58080  -0.55473
 Alpha  occ. eigenvalues --   -0.53301  -0.51947  -0.51086  -0.48290  -0.47958
 Alpha  occ. eigenvalues --   -0.45438  -0.44441  -0.43046  -0.42823  -0.40636
 Alpha  occ. eigenvalues --   -0.40107  -0.38155  -0.36705  -0.36253  -0.35557
 Alpha  occ. eigenvalues --   -0.34861  -0.33906  -0.32671  -0.30885  -0.30104
 Alpha  occ. eigenvalues --   -0.29256  -0.22606
 Alpha virt. eigenvalues --   -0.00247   0.01387   0.01868   0.02191   0.03734
 Alpha virt. eigenvalues --    0.04386   0.04666   0.04892   0.05092   0.07478
 Alpha virt. eigenvalues --    0.07825   0.08275   0.08654   0.08970   0.09842
 Alpha virt. eigenvalues --    0.09985   0.11538   0.12235   0.12984   0.13507
 Alpha virt. eigenvalues --    0.13844   0.14193   0.14418   0.14734   0.15223
 Alpha virt. eigenvalues --    0.15606   0.16179   0.17252   0.17686   0.18563
 Alpha virt. eigenvalues --    0.18714   0.19201   0.19958   0.20182   0.20985
 Alpha virt. eigenvalues --    0.21594   0.21736   0.22465   0.22757   0.22825
 Alpha virt. eigenvalues --    0.23518   0.24436   0.24741   0.25110   0.25663
 Alpha virt. eigenvalues --    0.25771   0.26701   0.27369   0.27966   0.29106
 Alpha virt. eigenvalues --    0.29962   0.30220   0.30485   0.31118   0.31769
 Alpha virt. eigenvalues --    0.32298   0.33294   0.34521   0.34734   0.35306
 Alpha virt. eigenvalues --    0.35742   0.36723   0.37036   0.37703   0.39227
 Alpha virt. eigenvalues --    0.39842   0.40719   0.41428   0.41827   0.43346
 Alpha virt. eigenvalues --    0.43769   0.44524   0.44883   0.45423   0.47331
 Alpha virt. eigenvalues --    0.48552   0.64433   0.66743   0.67748   0.68988
 Alpha virt. eigenvalues --    0.69915   0.71028   0.71919   0.73648   0.74012
 Alpha virt. eigenvalues --    0.77202   0.78333   0.79172   0.80348   0.82409
 Alpha virt. eigenvalues --    0.83430   0.84285   0.84403   0.86645   0.87351
 Alpha virt. eigenvalues --    0.90800   0.92709   0.94245   0.96306   0.96591
 Alpha virt. eigenvalues --    0.98418   1.00051   1.02129   1.02888   1.05064
 Alpha virt. eigenvalues --    1.06615   1.07750   1.08612   1.09251   1.10192
 Alpha virt. eigenvalues --    1.10801   1.12641   1.12958   1.14696   1.16763
 Alpha virt. eigenvalues --    1.17587   1.18947   1.21537   1.24352   1.26361
 Alpha virt. eigenvalues --    1.28114   1.29680   1.30091   1.31813   1.32781
 Alpha virt. eigenvalues --    1.35354   1.36756   1.37451   1.40228   1.40466
 Alpha virt. eigenvalues --    1.43033   1.43470   1.46779   1.48787   1.53620
 Alpha virt. eigenvalues --    1.54746   1.56440   1.59430   1.60094   1.62151
 Alpha virt. eigenvalues --    1.65343   1.66781   1.67240   1.67854   1.70463
 Alpha virt. eigenvalues --    1.73911   1.75858   1.76966   1.77698   1.79409
 Alpha virt. eigenvalues --    1.81387   1.82149   1.83570   1.85963   1.86513
 Alpha virt. eigenvalues --    1.88717   1.89636   1.90734   1.91957   1.95393
 Alpha virt. eigenvalues --    1.95714   1.96672   1.99405   2.02681   2.03153
 Alpha virt. eigenvalues --    2.04579   2.06937   2.09797   2.10773   2.11578
 Alpha virt. eigenvalues --    2.12588   2.15894   2.16555   2.17188   2.20586
 Alpha virt. eigenvalues --    2.23417   2.24770   2.26780   2.28267   2.30109
 Alpha virt. eigenvalues --    2.33055   2.34586   2.36310   2.37291   2.38467
 Alpha virt. eigenvalues --    2.40392   2.42049   2.45267   2.46735   2.50112
 Alpha virt. eigenvalues --    2.50686   2.52376   2.53886   2.54384   2.58045
 Alpha virt. eigenvalues --    2.58984   2.61188   2.61545   2.62928   2.64250
 Alpha virt. eigenvalues --    2.64877   2.66391   2.67319   2.68449   2.70172
 Alpha virt. eigenvalues --    2.70687   2.71639   2.72822   2.74204   2.75865
 Alpha virt. eigenvalues --    2.78298   2.79312   2.82136   2.82921   2.84900
 Alpha virt. eigenvalues --    2.85857   2.87825   2.90143   2.91641   2.92913
 Alpha virt. eigenvalues --    2.97141   2.99445   3.00440   3.03561   3.05557
 Alpha virt. eigenvalues --    3.07971   3.09074   3.12048   3.17971   3.33218
 Alpha virt. eigenvalues --    3.37052   3.38230   3.39244   3.44299   3.45995
 Alpha virt. eigenvalues --    3.47586   3.49159   3.53436   3.53642   3.56669
 Alpha virt. eigenvalues --    3.57223   3.59075   3.60402   3.61719   4.32197
 Alpha virt. eigenvalues --    4.35236   4.41547   4.44508   4.50909   4.58962
 Alpha virt. eigenvalues --    4.60253   4.70356   4.74782   4.84429   4.94778
 Alpha virt. eigenvalues --    5.03148
          Condensed to atoms (all electrons):
              1          2          3          4          5          6
     1  C    5.879419  -0.277711   0.033788   0.110299   0.012033   0.056773
     2  C   -0.277711   7.630193  -0.461219  -0.300100   0.030341   0.445741
     3  N    0.033788  -0.461219   7.668457   0.165586  -0.175840  -0.978272
     4  C    0.110299  -0.300100   0.165586   5.830078   0.018117  -0.146080
     5  C    0.012033   0.030341  -0.175840   0.018117   5.535026   0.070686
     6  C    0.056773   0.445741  -0.978272  -0.146080   0.070686  11.028534
     7  C   -0.033095  -0.112081   0.162553   0.135965  -0.094479  -2.245151
     8  C   -0.155054  -0.745535   0.121771  -0.145094   0.234662  -0.030365
     9  H    0.404651  -0.081467   0.012513  -0.009987  -0.026300   0.019678
    10  H    0.465126  -0.144667   0.026115   0.037921  -0.056327  -0.013466
    11  H   -0.024736   0.270857  -0.002347   0.003819   0.012655  -0.051741
    12  H   -0.005973  -0.008659  -0.019252   0.399588  -0.048442  -0.046671
    13  H    0.016118   0.022548  -0.045887   0.348564  -0.015024   0.012523
    14  H   -0.013093   0.007882   0.022441  -0.037325   0.364266  -0.022233
    15  H   -0.077689   0.007762   0.013169  -0.078455   0.455579   0.006471
    16  H    0.004272  -0.033068   0.030537   0.014610  -0.003833   0.089632
    17  H   -0.001842   0.005031   0.025874  -0.005546   0.002557  -0.105739
    18  H    0.031273  -0.058073   0.025167   0.012474  -0.010710  -0.057024
    19  O   -0.017412  -0.161525   0.005642   0.007114   0.001566   0.041871
    20  H    0.026974  -0.037955   0.003441   0.002618  -0.009055   0.016913
    21  O    0.067617  -0.072628   0.122577   0.009467  -0.040235  -0.330106
    22  H   -0.006706   0.006374  -0.002515  -0.000600   0.002829  -0.065237
    23  C   -0.016185  -0.124035   0.286089  -0.121209  -0.001071  -1.028156
    24  H   -0.002534   0.006383   0.000789  -0.019637   0.008090  -0.044628
    25  H    0.005752  -0.005908   0.020087   0.022864  -0.016198  -0.154748
    26  O   -0.002743  -0.010625   0.036831  -0.008288   0.008942  -0.126691
    27  H    0.000008  -0.000158  -0.002613   0.000725  -0.000301   0.055181
              7          8          9         10         11         12
     1  C   -0.033095  -0.155054   0.404651   0.465126  -0.024736  -0.005973
     2  C   -0.112081  -0.745535  -0.081467  -0.144667   0.270857  -0.008659
     3  N    0.162553   0.121771   0.012513   0.026115  -0.002347  -0.019252
     4  C    0.135965  -0.145094  -0.009987   0.037921   0.003819   0.399588
     5  C   -0.094479   0.234662  -0.026300  -0.056327   0.012655  -0.048442
     6  C   -2.245151  -0.030365   0.019678  -0.013466  -0.051741  -0.046671
     7  C    7.574591  -0.633357  -0.020545   0.011017   0.051915   0.011357
     8  C   -0.633357   6.918983   0.037753  -0.004109   0.006723   0.006532
     9  H   -0.020545   0.037753   0.529340  -0.026114  -0.008044   0.001250
    10  H    0.011017  -0.004109  -0.026114   0.529051   0.004342   0.000011
    11  H    0.051915   0.006723  -0.008044   0.004342   0.567015   0.001724
    12  H    0.011357   0.006532   0.001250   0.000011   0.001724   0.554142
    13  H   -0.011017   0.000923  -0.000136  -0.000145  -0.000151  -0.027404
    14  H    0.007354  -0.003876  -0.006038   0.001521  -0.000009  -0.003362
    15  H    0.000881   0.007631   0.003904  -0.006332  -0.000094   0.004294
    16  H    0.050969   0.007239   0.000003   0.000019   0.000895   0.000211
    17  H    0.406556  -0.025715   0.000004  -0.000032  -0.000081   0.000004
    18  H    0.016949   0.363246  -0.000090   0.000185  -0.007245   0.000006
    19  O   -0.141662   0.408895  -0.000424   0.010948   0.002459  -0.000044
    20  H   -0.056787   0.021802   0.000030   0.000347  -0.000031   0.000001
    21  O    0.268907  -0.147391   0.000454   0.000292   0.000765   0.000479
    22  H    0.062378   0.018341  -0.000001   0.000057   0.000009   0.000001
    23  C    0.295761   0.031480  -0.001088   0.000521   0.009667   0.017399
    24  H   -0.002514   0.001722   0.000000   0.000000  -0.000003  -0.000117
    25  H    0.016731  -0.008170   0.000001   0.000011   0.000004   0.000266
    26  O    0.007148   0.038096  -0.000002   0.000004   0.000083   0.000057
    27  H   -0.014173  -0.001972   0.000000   0.000000   0.000000   0.000000
             13         14         15         16         17         18
     1  C    0.016118  -0.013093  -0.077689   0.004272  -0.001842   0.031273
     2  C    0.022548   0.007882   0.007762  -0.033068   0.005031  -0.058073
     3  N   -0.045887   0.022441   0.013169   0.030537   0.025874   0.025167
     4  C    0.348564  -0.037325  -0.078455   0.014610  -0.005546   0.012474
     5  C   -0.015024   0.364266   0.455579  -0.003833   0.002557  -0.010710
     6  C    0.012523  -0.022233   0.006471   0.089632  -0.105739  -0.057024
     7  C   -0.011017   0.007354   0.000881   0.050969   0.406556   0.016949
     8  C    0.000923  -0.003876   0.007631   0.007239  -0.025715   0.363246
     9  H   -0.000136  -0.006038   0.003904   0.000003   0.000004  -0.000090
    10  H   -0.000145   0.001521  -0.006332   0.000019  -0.000032   0.000185
    11  H   -0.000151  -0.000009  -0.000094   0.000895  -0.000081  -0.007245
    12  H   -0.027404  -0.003362   0.004294   0.000211   0.000004   0.000006
    13  H    0.540988   0.001290  -0.005443  -0.000046  -0.000011   0.000008
    14  H    0.001290   0.531928  -0.025396   0.000007   0.000000   0.000002
    15  H   -0.005443  -0.025396   0.513757   0.000023   0.000023   0.000003
    16  H   -0.000046   0.000007   0.000023   0.577407  -0.000539   0.000546
    17  H   -0.000011   0.000000   0.000023  -0.000539   0.545348  -0.005488
    18  H    0.000008   0.000002   0.000003   0.000546  -0.005488   0.544041
    19  O    0.000048   0.000126  -0.000323  -0.000915   0.001573  -0.053294
    20  H    0.000000  -0.000001   0.000023  -0.000021  -0.000103   0.006281
    21  O   -0.000128   0.000748  -0.003923   0.012584  -0.034297   0.007815
    22  H    0.000002  -0.000002   0.000120   0.000062  -0.008699  -0.000184
    23  C    0.006795   0.008588   0.003291   0.064395   0.020933   0.004995
    24  H    0.000551  -0.000004   0.000005  -0.007489  -0.000069   0.000005
    25  H   -0.003586   0.000051   0.001148   0.005271   0.000162   0.000002
    26  O    0.000491   0.000012  -0.000157   0.012496   0.004203  -0.000054
    27  H    0.000005   0.000000   0.000001  -0.000220  -0.000013   0.000000
             19         20         21         22         23         24
     1  C   -0.017412   0.026974   0.067617  -0.006706  -0.016185  -0.002534
     2  C   -0.161525  -0.037955  -0.072628   0.006374  -0.124035   0.006383
     3  N    0.005642   0.003441   0.122577  -0.002515   0.286089   0.000789
     4  C    0.007114   0.002618   0.009467  -0.000600  -0.121209  -0.019637
     5  C    0.001566  -0.009055  -0.040235   0.002829  -0.001071   0.008090
     6  C    0.041871   0.016913  -0.330106  -0.065237  -1.028156  -0.044628
     7  C   -0.141662  -0.056787   0.268907   0.062378   0.295761  -0.002514
     8  C    0.408895   0.021802  -0.147391   0.018341   0.031480   0.001722
     9  H   -0.000424   0.000030   0.000454  -0.000001  -0.001088   0.000000
    10  H    0.010948   0.000347   0.000292   0.000057   0.000521   0.000000
    11  H    0.002459  -0.000031   0.000765   0.000009   0.009667  -0.000003
    12  H   -0.000044   0.000001   0.000479   0.000001   0.017399  -0.000117
    13  H    0.000048   0.000000  -0.000128   0.000002   0.006795   0.000551
    14  H    0.000126  -0.000001   0.000748  -0.000002   0.008588  -0.000004
    15  H   -0.000323   0.000023  -0.003923   0.000120   0.003291   0.000005
    16  H   -0.000915  -0.000021   0.012584   0.000062   0.064395  -0.007489
    17  H    0.001573  -0.000103  -0.034297  -0.008699   0.020933  -0.000069
    18  H   -0.053294   0.006281   0.007815  -0.000184   0.004995   0.000005
    19  O    8.187242   0.256663  -0.006194  -0.000639  -0.006513   0.000019
    20  H    0.256663   0.357832   0.027527  -0.000566   0.000242   0.000000
    21  O   -0.006194   0.027527   8.432586   0.233460   0.093172  -0.000892
    22  H   -0.000639  -0.000566   0.233460   0.348412   0.004070   0.000069
    23  C   -0.006513   0.000242   0.093172   0.004070   5.621895   0.424609
    24  H    0.000019   0.000000  -0.000892   0.000069   0.424609   0.557802
    25  H   -0.000007  -0.000004   0.009113  -0.000647   0.463685  -0.047991
    26  O   -0.000365  -0.000058   0.001510   0.006251   0.089573  -0.045186
    27  H   -0.000001   0.000000  -0.000286  -0.000300  -0.020581  -0.004406
             25         26         27
     1  C    0.005752  -0.002743   0.000008
     2  C   -0.005908  -0.010625  -0.000158
     3  N    0.020087   0.036831  -0.002613
     4  C    0.022864  -0.008288   0.000725
     5  C   -0.016198   0.008942  -0.000301
     6  C   -0.154748  -0.126691   0.055181
     7  C    0.016731   0.007148  -0.014173
     8  C   -0.008170   0.038096  -0.001972
     9  H    0.000001  -0.000002   0.000000
    10  H    0.000011   0.000004   0.000000
    11  H    0.000004   0.000083   0.000000
    12  H    0.000266   0.000057   0.000000
    13  H   -0.003586   0.000491   0.000005
    14  H    0.000051   0.000012   0.000000
    15  H    0.001148  -0.000157   0.000001
    16  H    0.005271   0.012496  -0.000220
    17  H    0.000162   0.004203  -0.000013
    18  H    0.000002  -0.000054   0.000000
    19  O   -0.000007  -0.000365  -0.000001
    20  H   -0.000004  -0.000058   0.000000
    21  O    0.009113   0.001510  -0.000286
    22  H   -0.000647   0.006251  -0.000300
    23  C    0.463685   0.089573  -0.020581
    24  H   -0.047991  -0.045186  -0.004406
    25  H    0.566599  -0.044303  -0.005588
    26  O   -0.044303   8.395724   0.226522
    27  H   -0.005588   0.226522   0.373859
 Mulliken atomic charges:
              1
     1  C   -0.479329
     2  C    0.202301
     3  N   -0.095482
     4  C   -0.247489
     5  C   -0.259533
     6  C   -0.397696
     7  C    0.283827
     8  C   -0.325162
     9  H    0.170656
    10  H    0.163705
    11  H    0.161549
    12  H    0.162600
    13  H    0.158125
    14  H    0.165123
    15  H    0.179726
    16  H    0.174957
    17  H    0.175907
    18  H    0.179167
    19  O   -0.534847
    20  H    0.383889
    21  O   -0.652993
    22  H    0.403661
    23  C   -0.128326
    24  H    0.175426
    25  H    0.175401
    26  O   -0.589472
    27  H    0.394310
 Sum of Mulliken atomic charges =   0.00000
 Mulliken charges with hydrogens summed into heavy atoms:
              1
     1  C   -0.144969
     2  C    0.363850
     3  N   -0.095482
     4  C    0.073235
     5  C    0.085316
     6  C   -0.222739
     7  C    0.459734
     8  C   -0.145995
    19  O   -0.150958
    21  O   -0.249332
    23  C    0.222502
    26  O   -0.195163
 Sum of Mulliken charges with hydrogens summed into heavy atoms =   0.00000
 Electronic spatial extent (au):  <R**2>=           1904.0736
 Charge=              0.0000 electrons
 Dipole moment (field-independent basis, Debye):
    X=              3.6474    Y=              2.5100    Z=              2.3588  Tot=              5.0167
 Quadrupole moment (field-independent basis, Debye-Ang):
   XX=            -68.9511   YY=            -76.0996   ZZ=            -72.2994
   XY=             -2.1179   XZ=              5.6636   YZ=              0.9031
 Traceless Quadrupole moment (field-independent basis, Debye-Ang):
   XX=              3.4990   YY=             -3.6496   ZZ=              0.1506
   XY=             -2.1179   XZ=              5.6636   YZ=              0.9031
 Octapole moment (field-independent basis, Debye-Ang**2):
  XXX=             54.9097  YYY=              7.8822  ZZZ=             13.7607  XYY=             18.5498
  XXY=             26.5650  XXZ=             24.1442  XZZ=              6.9293  YZZ=            -16.0562
  YYZ=              8.5535  XYZ=              0.8873
 Hexadecapole moment (field-independent basis, Debye-Ang**3):
 XXXX=          -1078.6534 YYYY=           -901.7023 ZZZZ=           -351.5630 XXXY=             27.3279
 XXXZ=             84.5741 YYYX=            -38.1900 YYYZ=            -15.6817 ZZZX=             19.7861
 ZZZY=             -3.2371 XXYY=           -372.0878 XXZZ=           -236.8971 YYZZ=           -195.4126
 XXYZ=            -17.2975 YYXZ=             -2.9045 ZZXY=              4.6715
 N-N= 8.199010154988D+02 E-N=-3.025921784956D+03  KE= 5.886515003706D+02
 1\1\GINC-COMPUTE-3-1\SP\RmPW1PW91\6-31+G(d,p)\C8H15N1O3\MAMICHETTI.IQU
 IR\17-May-2024\0\\# mpw1pw91/6-31+G** nmr scrf=(pcm,solvent=water)\\co
 mment\\0,1\C,0,-2.130463,0.760809,0.407273\C,0,-1.386608,0.154009,-0.8
 18247\N,0,-0.123938,0.938045,-1.009802\C,0,-0.272407,2.150237,-0.17546
 5\C,0,-1.141969,1.765219,1.026365\C,0,1.033255,0.02515,-0.750519\C,0,0
 .47452,-1.252458,-0.102498\C,0,-0.935296,-1.327462,-0.697555\H,0,-3.03
 1665,1.279407,0.062259\H,0,-2.455844,-0.009375,1.111924\H,0,-2.024359,
 0.251972,-1.70354\H,0,-0.794746,2.912569,-0.770211\H,0,0.69691,2.57471
 6,0.090791\H,0,-1.642748,2.628536,1.477554\H,0,-0.53214,1.285257,1.797
 981\H,0,1.437633,-0.287515,-1.724813\H,0,1.076839,-2.130804,-0.353928\
 H,0,-0.861778,-1.7508,-1.704414\O,0,-1.807026,-2.177519,0.03565\H,0,-1
 .531778,-2.087627,0.966709\O,0,0.320287,-1.171885,1.321689\H,0,1.18977
 5,-1.343498,1.719299\C,0,2.202198,0.633959,0.016186\H,0,2.580946,1.522
 04,-0.506771\H,0,1.898064,0.936183,1.025484\O,0,3.217507,-0.376381,0.0
 87301\H,0,3.956933,0.002141,0.589933\\Version=AM64L-G09RevC.01\State=1
 -A\HF=-594.1885071\RMSD=7.587e-09\Dipole=1.4349791,0.9875239,0.9280186
 \Quadrupole=2.6014019,-2.713364,0.1119621,-1.5745997,4.2107427,0.67140
 58\PG=C01 [X(C8H15N1O3)]\\@


 BUT 'GLORY' DOESN'T MEAN 'A NICE KNOCK DOWN ARGUMENT', ALICE OBJECTED.
 WHEN I USE A WORD, HUMPTY DUMPTY SAID, IN A RATHER SCORNFUL TONE,
 IT MEANS JUST WHAT I CHOOSE IT TO MEAN....
 NEITHER MORE NOR LESS....
 THE QUESTION IS, SAID ALICE,
 WHETHER YOU CAN MAKE WORDS MEAN SO MANY DIFFERENT THINGS...
 THE QUESTION IS, SAID HUMPTY DUMPTY,
 WHICH IS TO BE MASTER....
 THAT IS ALL.....

 ALICE THROUGH THE LOOKING GLASS
 Job cpu time:  0 days  0 hours  9 minutes  0.9 seconds.
 File lengths (MBytes):  RWF=    109 Int=      0 D2E=      0 Chk=      7 Scr=      1
 Normal termination of Gaussian 09 at Fri May 17 12:56:15 2024.
