 Entering Gaussian System, Link 0=g09
 Input=/home/mamichetti.iquir/Linux/04_Cardona_A1A3_R__S_R_S_021_OptB.gjc
 Output=/home/mamichetti.iquir/Linux/04_Cardona_A1A3_R__S_R_S_021_OptB.log
 Initial command:
 /opt/ohpc/pub/apps/software/Gaussian/09/AMD64.SSE4a-enabled/g09/l1.exe /local/mamichetti.iquir/Gau-408081.inp -scrdir=/local/mamichetti.iquir/
 Entering Link 1 = /opt/ohpc/pub/apps/software/Gaussian/09/AMD64.SSE4a-enabled/g09/l1.exe PID=    408082.
  
 Copyright (c) 1988,1990,1992,1993,1995,1998,2003,2009,2011,
            Gaussian, Inc.  All Rights Reserved.
  
 This is part of the Gaussian(R) 09 program.  It is based on
 the Gaussian(R) 03 system (copyright 2003, Gaussian, Inc.),
 the Gaussian(R) 98 system (copyright 1998, Gaussian, Inc.),
 the Gaussian(R) 94 system (copyright 1995, Gaussian, Inc.),
 the Gaussian 92(TM) system (copyright 1992, Gaussian, Inc.),
 the Gaussian 90(TM) system (copyright 1990, Gaussian, Inc.),
 the Gaussian 88(TM) system (copyright 1988, Gaussian, Inc.),
 the Gaussian 86(TM) system (copyright 1986, Carnegie Mellon
 University), and the Gaussian 82(TM) system (copyright 1983,
 Carnegie Mellon University). Gaussian is a federally registered
 trademark of Gaussian, Inc.
  
 This software contains proprietary and confidential information,
 including trade secrets, belonging to Gaussian, Inc.
  
 This software is provided under written license and may be
 used, copied, transmitted, or stored only in accord with that
 written license.
  
 The following legend is applicable only to US Government
 contracts under FAR:
  
                    RESTRICTED RIGHTS LEGEND
  
 Use, reproduction and disclosure by the US Government is
 subject to restrictions as set forth in subparagraphs (a)
 and (c) of the Commercial Computer Software - Restricted
 Rights clause in FAR 52.227-19.
  
 Gaussian, Inc.
 340 Quinnipiac St., Bldg. 40, Wallingford CT 06492
  
  
 ---------------------------------------------------------------
 Warning -- This program may not be used in any manner that
 competes with the business of Gaussian, Inc. or will provide
 assistance to any competitor of Gaussian, Inc.  The licensee
 of this program is prohibited from giving any competitor of
 Gaussian, Inc. access to this program.  By using this program,
 the user acknowledges that Gaussian, Inc. is engaged in the
 business of creating and licensing software in the field of
 computational chemistry and represents and warrants to the
 licensee that it is not a competitor of Gaussian, Inc. and that
 it will not use this program in any manner prohibited above.
 ---------------------------------------------------------------
  

 Cite this work as:
 Gaussian 09, Revision C.01,
 M. J. Frisch, G. W. Trucks, H. B. Schlegel, G. E. Scuseria, 
 M. A. Robb, J. R. Cheeseman, G. Scalmani, V. Barone, B. Mennucci, 
 G. A. Petersson, H. Nakatsuji, M. Caricato, X. Li, H. P. Hratchian, 
 A. F. Izmaylov, J. Bloino, G. Zheng, J. L. Sonnenberg, M. Hada, 
 M. Ehara, K. Toyota, R. Fukuda, J. Hasegawa, M. Ishida, T. Nakajima, 
 Y. Honda, O. Kitao, H. Nakai, T. Vreven, J. A. Montgomery, Jr., 
 J. E. Peralta, F. Ogliaro, M. Bearpark, J. J. Heyd, E. Brothers, 
 K. N. Kudin, V. N. Staroverov, T. Keith, R. Kobayashi, J. Normand, 
 K. Raghavachari, A. Rendell, J. C. Burant, S. S. Iyengar, J. Tomasi, 
 M. Cossi, N. Rega, J. M. Millam, M. Klene, J. E. Knox, J. B. Cross, 
 V. Bakken, C. Adamo, J. Jaramillo, R. Gomperts, R. E. Stratmann, 
 O. Yazyev, A. J. Austin, R. Cammi, C. Pomelli, J. W. Ochterski, 
 R. L. Martin, K. Morokuma, V. G. Zakrzewski, G. A. Voth, 
 P. Salvador, J. J. Dannenberg, S. Dapprich, A. D. Daniels, 
 O. Farkas, J. B. Foresman, J. V. Ortiz, J. Cioslowski, 
 and D. J. Fox, Gaussian, Inc., Wallingford CT, 2010.
 
 ******************************************
 Gaussian 09:  AM64L-G09RevC.01 23-Sep-2011
                17-May-2024 
 ******************************************
 %nprocshared=4
 Will use up to    4 processors via shared memory.
 ------------------------------------------------
 # mpw1pw91/6-31+G** nmr scrf=(pcm,solvent=water)
 ------------------------------------------------
 1/38=1/1;
 2/12=2,17=6,18=5,40=1/2;
 3/5=1,6=6,7=111,11=2,16=1,25=1,30=1,70=2201,72=1,74=-7/1,2,8,3;
 4//1;
 5/5=2,38=5,53=1/2;
 8/6=1,10=90,11=11/1;
 10/13=100,45=16/2;
 6/7=2,8=2,9=2,10=2,28=1/1;
 99/9=1/99;
 -------
 comment
 -------
 Charge =  0 Multiplicity = 1
 Symbolic Z-Matrix:
 6                    -1.92791   1.45838  -0.31269 
 6                    -1.01385   0.48702  -1.06706 
 7                     0.37735   0.82815  -0.63695 
 6                     0.28264   1.67017   0.59075 
 6                    -1.19256   1.67983   1.01611 
 6                     1.09335  -0.46758  -0.56253 
 6                     0.07342  -1.50754  -0.07731 
 6                    -1.23253  -1.04488  -0.76787 
 1                    -2.00053   2.40033  -0.86943 
 1                    -2.93811   1.06018  -0.1893 
 1                    -1.10872   0.62807  -2.15007 
 1                     0.60388   2.69105   0.34167 
 1                     0.94127   1.31806   1.38758 
 1                    -1.47715   2.61128   1.51641 
 1                    -1.39977   0.85136   1.70159 
 1                     1.33379  -0.74702  -1.59997 
 1                     0.34786  -2.52902  -0.35746 
 1                    -1.33781  -1.57279  -1.7207 
 8                    -2.37979  -1.37267   0.00738 
 1                    -2.04984  -1.41999   0.92685 
 8                    -0.14664  -1.44423   1.34453 
 1                     0.37179  -2.15155   1.75912 
 6                     2.41048  -0.48541   0.2062 
 1                     2.25568  -0.3039    1.27553 
 1                     2.84091  -1.4875    0.10764 
 8                     3.38911   0.41683  -0.32083 
 1                     3.11557   1.31498  -0.07298 
 
                          Input orientation:                          
 ---------------------------------------------------------------------
 Center     Atomic      Atomic             Coordinates (Angstroms)
 Number     Number       Type             X           Y           Z
 ---------------------------------------------------------------------
      1          6           0       -1.927911    1.458375   -0.312689
      2          6           0       -1.013845    0.487021   -1.067057
      3          7           0        0.377352    0.828148   -0.636947
      4          6           0        0.282643    1.670173    0.590748
      5          6           0       -1.192559    1.679834    1.016106
      6          6           0        1.093353   -0.467578   -0.562530
      7          6           0        0.073416   -1.507541   -0.077314
      8          6           0       -1.232532   -1.044883   -0.767872
      9          1           0       -2.000525    2.400325   -0.869425
     10          1           0       -2.938111    1.060177   -0.189299
     11          1           0       -1.108725    0.628065   -2.150073
     12          1           0        0.603883    2.691048    0.341665
     13          1           0        0.941266    1.318064    1.387576
     14          1           0       -1.477147    2.611282    1.516408
     15          1           0       -1.399765    0.851362    1.701594
     16          1           0        1.333785   -0.747017   -1.599974
     17          1           0        0.347860   -2.529021   -0.357461
     18          1           0       -1.337805   -1.572789   -1.720696
     19          8           0       -2.379786   -1.372670    0.007380
     20          1           0       -2.049839   -1.419992    0.926846
     21          8           0       -0.146642   -1.444225    1.344528
     22          1           0        0.371792   -2.151548    1.759118
     23          6           0        2.410477   -0.485405    0.206200
     24          1           0        2.255680   -0.303899    1.275525
     25          1           0        2.840910   -1.487501    0.107641
     26          8           0        3.389108    0.416826   -0.320833
     27          1           0        3.115572    1.314984   -0.072980
 ---------------------------------------------------------------------
                    Distance matrix (angstroms):
                    1          2          3          4          5
     1  C    0.000000
     2  C    1.532356   0.000000
     3  N    2.411756   1.495591   0.000000
     4  C    2.397416   2.414342   1.491714   0.000000
     5  C    1.534758   2.407137   2.433634   1.535332   0.000000
     6  C    3.591622   2.367718   1.482262   2.560719   3.511248
     7  C    3.585717   2.477903   2.420952   3.253913   3.599669
     8  C    2.637621   1.576092   2.473280   3.393101   3.257032
     9  H    1.096585   2.161788   2.860085   2.806792   2.174200
    10  H    1.092836   2.191293   3.353583   3.369544   2.209961
    11  H    2.176341   1.096275   2.130260   3.245611   3.337355
    12  H    2.890959   3.075594   2.116458   1.098828   2.169016
    13  H    3.338078   3.246277   2.157941   1.092108   2.195923
    14  H    2.208615   3.376600   3.354947   2.199862   1.094937
    15  H    2.169041   2.819061   2.937253   2.175989   1.095077
    16  H    4.142405   2.705220   2.079262   3.427385   4.372173
    17  H    4.591347   3.384417   3.368912   4.305413   4.687647
    18  H    3.393916   2.185180   3.143370   4.299468   4.253321
    19  O    2.884693   2.545321   3.586163   4.085063   3.427071
    20  H    3.136289   2.947140   3.659349   3.886200   3.217424
    21  O    3.787397   3.208971   3.060146   3.232947   3.310823
    22  H    4.755267   4.107226   3.823578   3.997323   4.204610
    23  C    4.782169   3.780579   2.563185   3.053207   4.280897
    24  H    4.809414   4.099151   2.909845   2.873805   3.986583
    25  H    5.621078   4.487515   3.462046   4.092558   5.208281
    26  O    5.418079   4.466293   3.056107   3.471597   4.937030
    27  H    5.051212   4.327331   2.837766   2.931242   4.458612
                    6          7          8          9         10
     6  C    0.000000
     7  C    1.535327   0.000000
     8  C    2.405242   1.548038   0.000000
     9  H    4.229791   4.494451   3.531230   0.000000
    10  H    4.327359   3.959168   2.770383   1.771337   0.000000
    11  H    2.927435   3.202280   2.173606   2.361413   2.716249
    12  H    3.321757   4.252657   4.308210   2.886901   3.935401
    13  H    2.648502   3.298956   3.867153   3.862574   4.195546
    14  H    4.517614   4.680694   4.318022   2.451658   2.729428
    15  H    3.616835   3.301394   3.118008   3.061101   2.446546
    16  H    1.100992   2.117881   2.714240   4.642961   4.848201
    17  H    2.201672   1.094177   2.206523   5.484111   4.869109
    18  H    2.910905   2.167142   1.094368   4.116976   3.440736
    19  O    3.634100   2.458366   1.422903   3.892058   2.503828
    20  H    3.606243   2.350365   1.918532   4.221829   2.861127
    21  O    2.475540   1.440163   2.408498   4.808226   4.051784
    22  H    2.957441   1.968821   3.191276   5.766860   5.006692
    23  C    1.525149   2.566514   3.812263   5.379716   5.581455
    24  H    2.180881   2.835702   4.110006   5.479865   5.566137
    25  H    2.131508   2.773740   4.189912   6.285646   6.322651
    26  O    2.472060   3.841393   4.867853   5.769174   6.361203
    27  H    2.739810   4.149865   4.995784   5.290249   6.060160
                   11         12         13         14         15
    11  H    0.000000
    12  H    3.660285   0.000000
    13  H    4.146507   1.758648   0.000000
    14  H    4.184730   2.391039   2.745493   0.000000
    15  H    3.869096   3.041128   2.407664   1.771327   0.000000
    16  H    2.856451   4.015347   3.652956   5.375067   4.574654
    17  H    3.911814   5.272897   4.265835   5.767560   4.326764
    18  H    2.254019   5.118964   4.817940   5.291948   4.194331
    19  O    3.205174   5.052507   4.491590   4.354744   2.962621
    20  H    3.814140   4.928015   4.081168   4.114211   2.486339
    21  O    4.175192   4.320822   2.969114   4.271642   2.639609
    22  H    5.019956   5.051116   3.535612   5.114883   3.487003
    23  C    4.379112   3.656773   2.608971   5.140013   4.305937
    24  H    4.891063   3.545453   2.090695   4.742394   3.857258
    25  H    5.017221   4.745453   3.621888   6.118028   5.098460
    26  O    4.860169   3.656292   3.118144   5.645488   5.216545
    27  H    4.757190   2.893798   2.619321   5.029872   4.873636
                   16         17         18         19         20
    16  H    0.000000
    17  H    2.385671   0.000000
    18  H    2.798904   2.369442   0.000000
    19  O    4.094586   2.985014   2.027811   0.000000
    20  H    4.276286   2.937405   2.745873   0.978019   0.000000
    21  O    3.368658   2.077999   3.291048   2.603847   1.948642
    22  H    3.765851   2.150108   3.920050   3.353568   2.663109
    23  C    2.118955   2.957781   4.352580   4.875796   4.613806
    24  H    3.052006   3.355233   4.847737   4.923211   4.461472
    25  H    2.394930   2.741602   4.561990   5.222921   4.959343
    26  O    2.686091   4.234211   5.316191   6.048980   5.874755
    27  H    3.123832   4.745264   5.557586   6.117916   5.929689
                   21         22         23         24         25
    21  O    0.000000
    22  H    0.970033   0.000000
    23  C    2.958713   3.056767   0.000000
    24  H    2.660123   2.682667   1.095611   0.000000
    25  H    3.233764   3.043826   1.095072   1.762771   0.000000
    26  O    4.328795   4.475147   1.431609   2.086256   2.027455
    27  H    4.501622   4.785578   1.953587   2.275667   2.821699
                   26         27
    26  O    0.000000
    27  H    0.971051   0.000000
 Stoichiometry    C8H15NO3
 Framework group  C1[X(C8H15NO3)]
 Deg. of freedom    75
 Full point group                 C1      NOp   1
 Largest Abelian subgroup         C1      NOp   1
 Largest concise Abelian subgroup C1      NOp   1
                         Standard orientation:                         
 ---------------------------------------------------------------------
 Center     Atomic      Atomic             Coordinates (Angstroms)
 Number     Number       Type             X           Y           Z
 ---------------------------------------------------------------------
      1          6           0       -1.927911    1.458375   -0.312689
      2          6           0       -1.013845    0.487021   -1.067057
      3          7           0        0.377352    0.828148   -0.636947
      4          6           0        0.282643    1.670173    0.590748
      5          6           0       -1.192559    1.679834    1.016106
      6          6           0        1.093353   -0.467578   -0.562530
      7          6           0        0.073416   -1.507541   -0.077314
      8          6           0       -1.232532   -1.044883   -0.767872
      9          1           0       -2.000525    2.400325   -0.869425
     10          1           0       -2.938111    1.060177   -0.189299
     11          1           0       -1.108725    0.628065   -2.150073
     12          1           0        0.603883    2.691048    0.341665
     13          1           0        0.941266    1.318064    1.387576
     14          1           0       -1.477147    2.611282    1.516408
     15          1           0       -1.399765    0.851362    1.701594
     16          1           0        1.333785   -0.747017   -1.599974
     17          1           0        0.347860   -2.529021   -0.357461
     18          1           0       -1.337805   -1.572789   -1.720696
     19          8           0       -2.379786   -1.372670    0.007380
     20          1           0       -2.049839   -1.419992    0.926846
     21          8           0       -0.146642   -1.444225    1.344528
     22          1           0        0.371792   -2.151548    1.759118
     23          6           0        2.410477   -0.485405    0.206200
     24          1           0        2.255680   -0.303899    1.275525
     25          1           0        2.840910   -1.487501    0.107641
     26          8           0        3.389108    0.416826   -0.320833
     27          1           0        3.115572    1.314984   -0.072980
 ---------------------------------------------------------------------
 Rotational constants (GHZ):      1.3867966      0.8312788      0.6595577
 Standard basis: 6-31+G(d,p) (6D, 7F)
 There are   303 symmetry adapted basis functions of A   symmetry.
 Integral buffers will be    131072 words long.
 Raffenetti 2 integral format.
 Two-electron integral symmetry is turned on.
   303 basis functions,   489 primitive gaussians,   303 cartesian basis functions
    47 alpha electrons       47 beta electrons
       nuclear repulsion energy       818.4249800013 Hartrees.
 NAtoms=   27 NActive=   27 NUniq=   27 SFac= 1.00D+00 NAtFMM=   60 NAOKFM=F Big=F
 ------------------------------------------------------------------------------
 Polarizable Continuum Model (PCM)
 =================================
 Model                : PCM.
 Atomic radii         : UFF (Universal Force Field).
 Polarization charges : Total charges.
 Charge compensation  : None.
 Solution method      : Matrix inversion.
 Cavity type          : Scaled VdW (van der Waals Surface) (Alpha=1.100).
 Cavity algorithm     : GePol (No added spheres)
                        Default sphere list used, NSphG=   27.
                        Lebedev-Laikov grids with approx.  5.0 points / Ang**2.
                        Smoothing algorithm: Karplus/York (Gamma=1.0000).
                        Polarization charges: spherical gaussians, with
                                              point-specific exponents (IZeta= 3).
                        Self-potential: point-specific (ISelfS= 7).
                        Self-field    : sphere-specific E.n sum rule (ISelfD= 2).
 Solvent              : Water, Eps=  78.355300 Eps(inf)=   1.777849
 ------------------------------------------------------------------------------
 One-electron integrals computed using PRISM.
 NBasis=   303 RedAO= T  NBF=   303
 NBsUse=   303 1.00D-06 NBFU=   303
 Harris functional with IExCor=  908 diagonalized for initial guess.
 ExpMin= 4.38D-02 ExpMax= 5.48D+03 ExpMxC= 8.25D+02 IAcc=2 IRadAn=         4 AccDes= 0.00D+00
 HarFok:  IExCor=  908 AccDes= 0.00D+00 IRadAn=         4 IDoV= 1
 ScaDFX=  1.000000  1.000000  1.000000  1.000000
 FoFCou: FMM=F IPFlag=           0 FMFlag=      100000 FMFlg1=           0
         NFxFlg=           0 DoJE=T BraDBF=F KetDBF=T FulRan=T
         Omega=  0.000000  0.000000  1.000000  0.000000  0.000000 ICntrl=     500 IOpCl=  0
         NMat0=    1 NMatS0=    1 NMatT0=    0 NMatD0=    1 NMtDS0=    0 NMtDT0=    0
         I1Cent=           4 NGrid=           0.
 Petite list used in FoFCou.
 Initial guess orbital symmetries:
       Occupied  (A) (A) (A) (A) (A) (A) (A) (A) (A) (A) (A) (A)
                 (A) (A) (A) (A) (A) (A) (A) (A) (A) (A) (A) (A)
                 (A) (A) (A) (A) (A) (A) (A) (A) (A) (A) (A) (A)
                 (A) (A) (A) (A) (A) (A) (A) (A) (A) (A) (A)
       Virtual   (A) (A) (A) (A) (A) (A) (A) (A) (A) (A) (A) (A)
                 (A) (A) (A) (A) (A) (A) (A) (A) (A) (A) (A) (A)
                 (A) (A) (A) (A) (A) (A) (A) (A) (A) (A) (A) (A)
                 (A) (A) (A) (A) (A) (A) (A) (A) (A) (A) (A) (A)
                 (A) (A) (A) (A) (A) (A) (A) (A) (A) (A) (A) (A)
                 (A) (A) (A) (A) (A) (A) (A) (A) (A) (A) (A) (A)
                 (A) (A) (A) (A) (A) (A) (A) (A) (A) (A) (A) (A)
                 (A) (A) (A) (A) (A) (A) (A) (A) (A) (A) (A) (A)
                 (A) (A) (A) (A) (A) (A) (A) (A) (A) (A) (A) (A)
                 (A) (A) (A) (A) (A) (A) (A) (A) (A) (A) (A) (A)
                 (A) (A) (A) (A) (A) (A) (A) (A) (A) (A) (A) (A)
                 (A) (A) (A) (A) (A) (A) (A) (A) (A) (A) (A) (A)
                 (A) (A) (A) (A) (A) (A) (A) (A) (A) (A) (A) (A)
                 (A) (A) (A) (A) (A) (A) (A) (A) (A) (A) (A) (A)
                 (A) (A) (A) (A) (A) (A) (A) (A) (A) (A) (A) (A)
                 (A) (A) (A) (A) (A) (A) (A) (A) (A) (A) (A) (A)
                 (A) (A) (A) (A) (A) (A) (A) (A) (A) (A) (A) (A)
                 (A) (A) (A) (A) (A) (A) (A) (A) (A) (A) (A) (A)
                 (A) (A) (A) (A) (A) (A) (A) (A) (A) (A) (A) (A)
                 (A) (A) (A) (A) (A) (A) (A) (A) (A) (A) (A) (A)
                 (A) (A) (A) (A) (A) (A) (A) (A) (A) (A) (A) (A)
                 (A) (A) (A) (A)
 The electronic state of the initial guess is 1-A.
 Requested convergence on RMS density matrix=1.00D-08 within 128 cycles.
 Requested convergence on MAX density matrix=1.00D-06.
 Requested convergence on             energy=1.00D-06.
 No special actions if energy rises.
 Error on total polarization charges =  0.01427
 SCF Done:  E(RmPW1PW91) =  -594.188973528     A.U. after   13 cycles
             Convg  =    0.5029D-08             -V/T =  2.0094
 Range of M.O.s used for correlation:     1   303
 NBasis=   303 NAE=    47 NBE=    47 NFC=     0 NFV=     0
 NROrb=    303 NOA=    47 NOB=    47 NVA=   256 NVB=   256

 **** Warning!!: The largest alpha MO coefficient is  0.86888733D+02

 NEqPCM:  Using equilibrium solvation (IEInf=0, Eps=  78.3553, EpsInf=   1.7778)
          Differentiating once with respect to magnetic field using GIAOs.
          Electric field/nuclear overlap derivatives assumed to be zero.
 FoFCou: FMM=F IPFlag=           0 FMFlag=    10101102 FMFlg1=           0
         NFxFlg=    40000000 DoJE=F BraDBF=F KetDBF=T FulRan=T
         Omega=  0.000000  0.000000  1.000000  0.000000  0.000000 ICntrl=    6100 IOpCl=  0
         NMat0=    1 NMatS0=    1 NMatT0=    0 NMatD0=    1 NMtDS0=    0 NMtDT0=    0
         I1Cent=           7 NGrid=        1790.
 Symmetry not used in FoFCou.
          There are     3 degrees of freedom in the 1st order CPHF.  IDoFFX=0.
      3 vectors produced by pass  0 Test12= 4.01D-13 3.33D-08 XBig12= 2.41D+01 8.18D-01.
 AX will form     3 AO Fock derivatives at one time.
      3 vectors produced by pass  1 Test12= 4.01D-13 3.33D-08 XBig12= 6.19D-02 4.13D-02.
      3 vectors produced by pass  2 Test12= 4.01D-13 3.33D-08 XBig12= 1.09D-04 2.01D-03.
      3 vectors produced by pass  3 Test12= 4.01D-13 3.33D-08 XBig12= 4.51D-07 1.64D-04.
      3 vectors produced by pass  4 Test12= 4.01D-13 3.33D-08 XBig12= 1.61D-09 5.02D-06.
      3 vectors produced by pass  5 Test12= 4.01D-13 3.33D-08 XBig12= 5.59D-12 3.85D-07.
      1 vectors produced by pass  6 Test12= 4.01D-13 3.33D-08 XBig12= 2.22D-14 3.48D-08.
 Inverted reduced A of dimension    19 with in-core refinement.
 Calculating GIAO nuclear magnetic shielding tensors.
 SCF GIAO Magnetic shielding tensor (ppm):
      1  C    Isotropic =   167.3993   Anisotropy =    24.4540
   XX=   171.2094   YX=    -4.3225   ZX=     4.9882
   XY=   -13.0042   YY=   157.6111   ZY=    15.0689
   XZ=     9.5498   YZ=    17.1402   ZZ=   173.3774
   Eigenvalues:   143.0941   175.4019   183.7019
      2  C    Isotropic =   125.8318   Anisotropy =    52.6591
   XX=   156.4591   YX=     9.1441   ZX=     8.2005
   XY=    11.6332   YY=   123.4128   ZY=    14.7631
   XZ=     6.5486   YZ=     3.4527   ZZ=    97.6234
   Eigenvalues:    94.4682   122.0893   160.9379
      3  N    Isotropic =   196.2239   Anisotropy =    94.4304
   XX=   245.7725   YX=   -29.1965   ZX=    29.8438
   XY=   -14.2231   YY=   168.0342   ZY=    20.6625
   XZ=    33.4137   YZ=    35.2147   ZZ=   174.8649
   Eigenvalues:   131.0892   198.4050   259.1775
      4  C    Isotropic =   149.0681   Anisotropy =    48.9057
   XX=   146.6829   YX=     1.5434   ZX=    -6.3547
   XY=     7.4545   YY=   141.9017   ZY=    29.1345
   XZ=   -12.6957   YZ=    29.9481   ZZ=   158.6198
   Eigenvalues:   116.6249   148.9076   181.6719
      5  C    Isotropic =   168.1040   Anisotropy =    19.1006
   XX=   179.3836   YX=    -1.4215   ZX=     0.6554
   XY=     0.1149   YY=   153.3734   ZY=    11.1985
   XZ=    -1.6111   YZ=    19.8654   ZZ=   171.5549
   Eigenvalues:   144.4643   179.0099   180.8377
      6  C    Isotropic =   128.3044   Anisotropy =    25.3041
   XX=   142.7265   YX=     2.2471   ZX=     7.6548
   XY=    -8.3258   YY=   139.7694   ZY=    -5.6438
   XZ=    -8.0042   YZ=   -11.4833   ZZ=   102.4172
   Eigenvalues:   100.5315   139.2078   145.1738
      7  C    Isotropic =   120.7621   Anisotropy =    27.8613
   XX=   120.6759   YX=    10.9684   ZX=   -10.3701
   XY=    10.9203   YY=   105.0594   ZY=    -0.5320
   XZ=     0.2159   YZ=    -6.0202   ZZ=   136.5509
   Eigenvalues:    99.4137   123.5362   139.3362
      8  C    Isotropic =   120.4793   Anisotropy =    46.0780
   XX=   140.9956   YX=     6.6634   ZX=   -16.9612
   XY=     7.6602   YY=   124.3641   ZY=   -15.2000
   XZ=   -15.2180   YZ=   -13.1480   ZZ=    96.0781
   Eigenvalues:    87.2578   122.9821   151.1980
      9  H    Isotropic =    29.7488   Anisotropy =    12.3421
   XX=    26.7018   YX=    -4.1327   ZX=     2.2562
   XY=    -4.8312   YY=    33.3960   ZY=    -3.9072
   XZ=     2.2975   YZ=    -3.9625   ZZ=    29.1485
   Eigenvalues:    24.4294    26.8401    37.9768
     10  H    Isotropic =    29.3493   Anisotropy =     9.1193
   XX=    35.3289   YX=     0.2769   ZX=     0.6867
   XY=     0.3331   YY=    28.1152   ZY=     0.1651
   XZ=     1.2485   YZ=     0.0313   ZZ=    24.6038
   Eigenvalues:    24.5158    28.1032    35.4288
     11  H    Isotropic =    28.0646   Anisotropy =     9.5065
   XX=    24.9839   YX=     0.5524   ZX=     2.0576
   XY=    -0.1481   YY=    25.4289   ZY=    -1.0925
   XZ=     2.2155   YZ=    -1.2132   ZZ=    33.7809
   Eigenvalues:    24.2896    25.5018    34.4022
     12  H    Isotropic =    28.8255   Anisotropy =    12.0119
   XX=    26.9564   YX=     3.6192   ZX=    -1.6333
   XY=     4.2900   YY=    35.0128   ZY=     1.7474
   XZ=    -1.3597   YZ=     2.8401   ZZ=    24.5074
   Eigenvalues:    22.5291    27.1140    36.8335
     13  H    Isotropic =    28.2136   Anisotropy =     6.5868
   XX=    29.0948   YX=    -1.3659   ZX=     2.6766
   XY=    -1.0598   YY=    26.3999   ZY=     3.1579
   XZ=     3.8127   YZ=     2.3452   ZZ=    29.1459
   Eigenvalues:    23.2656    28.7703    32.6048
     14  H    Isotropic =    30.0171   Anisotropy =    12.4865
   XX=    27.5510   YX=    -2.7057   ZX=    -1.3634
   XY=    -2.9373   YY=    32.4957   ZY=     5.6246
   XZ=    -2.1457   YZ=     6.2840   ZZ=    30.0045
   Eigenvalues:    25.0585    26.6512    38.3414
     15  H    Isotropic =    29.8448   Anisotropy =     6.7685
   XX=    27.4087   YX=     0.1709   ZX=    -1.7104
   XY=     0.4723   YY=    29.7865   ZY=    -2.9509
   XZ=    -2.2313   YZ=    -2.0227   ZZ=    32.3393
   Eigenvalues:    26.5981    28.5793    34.3572
     16  H    Isotropic =    28.4566   Anisotropy =     9.0021
   XX=    28.5512   YX=    -2.4085   ZX=    -2.4587
   XY=    -2.5466   YY=    27.2995   ZY=     3.5445
   XZ=    -4.3679   YZ=     2.1134   ZZ=    29.5191
   Eigenvalues:    25.3233    25.5885    34.4580
     17  H    Isotropic =    27.6833   Anisotropy =     8.1684
   XX=    24.6032   YX=    -1.5943   ZX=    -0.5575
   XY=    -1.7205   YY=    30.9049   ZY=     2.4530
   XZ=    -1.4173   YZ=     3.6156   ZZ=    27.5419
   Eigenvalues:    24.1666    25.7544    33.1289
     18  H    Isotropic =    27.4618   Anisotropy =     7.8469
   XX=    24.7880   YX=     1.7301   ZX=    -1.3431
   XY=     2.4225   YY=    27.8229   ZY=     3.7300
   XZ=     1.4420   YZ=     3.3491   ZZ=    29.7744
   Eigenvalues:    23.2239    26.4684    32.6930
     19  O    Isotropic =   316.5119   Anisotropy =    31.6767
   XX=   306.9415   YX=     0.3643   ZX=    15.7785
   XY=    12.6500   YY=   320.7784   ZY=   -10.9347
   XZ=    22.9329   YZ=   -12.2121   ZZ=   321.8158
   Eigenvalues:   289.0586   322.8473   337.6297
     20  H    Isotropic =    28.2554   Anisotropy =    15.8028
   XX=    28.5546   YX=     1.3966   ZX=     4.2936
   XY=     0.3205   YY=    19.3259   ZY=    -2.7558
   XZ=     3.5718   YZ=    -3.4320   ZZ=    36.8856
   Eigenvalues:    18.5508    27.4247    38.7905
     21  O    Isotropic =   315.5155   Anisotropy =    47.0365
   XX=   305.6010   YX=   -19.5773   ZX=    29.9629
   XY=   -24.0914   YY=   324.4392   ZY=     2.1406
   XZ=     7.8697   YZ=   -12.8587   ZZ=   316.5063
   Eigenvalues:   285.1649   314.5085   346.8732
     22  H    Isotropic =    29.8976   Anisotropy =    22.3491
   XX=    26.7266   YX=    -7.4606   ZX=     3.2411
   XY=    -7.6234   YY=    32.5329   ZY=    -9.8083
   XZ=     4.6512   YZ=    -9.0868   ZZ=    30.4331
   Eigenvalues:    20.4835    24.4122    44.7969
     23  C    Isotropic =   133.0884   Anisotropy =    62.0086
   XX=   147.0356   YX=    26.3821   ZX=    -7.5272
   XY=    27.8152   YY=   134.2837   ZY=   -20.3238
   XZ=    -7.3706   YZ=   -18.8335   ZZ=   117.9460
   Eigenvalues:   102.2169   122.6209   174.4275
     24  H    Isotropic =    27.2679   Anisotropy =     4.4458
   XX=    29.1378   YX=     1.8178   ZX=    -0.8264
   XY=     1.8076   YY=    24.1543   ZY=    -3.3769
   XZ=     0.6499   YZ=    -0.9199   ZZ=    28.5118
   Eigenvalues:    22.8381    28.7339    30.2318
     25  H    Isotropic =    27.6813   Anisotropy =     6.2210
   XX=    29.9659   YX=     0.2212   ZX=     0.3077
   XY=    -2.5317   YY=    30.6979   ZY=    -1.4195
   XZ=     0.0099   YZ=    -2.3369   ZZ=    22.3800
   Eigenvalues:    21.9745    29.2407    31.8286
     26  O    Isotropic =   316.5048   Anisotropy =    38.9655
   XX=   308.0721   YX=   -17.0959   ZX=    -0.8049
   XY=     3.6256   YY=   339.7477   ZY=     4.4080
   XZ=    -9.2957   YZ=     8.6745   ZZ=   301.6948
   Eigenvalues:   298.7316   308.3011   342.4818
     27  H    Isotropic =    30.1539   Anisotropy =    15.5245
   XX=    29.2528   YX=    -0.3190   ZX=    -3.0049
   XY=    -0.7556   YY=    39.8455   ZY=     3.5699
   XZ=    -2.4448   YZ=     3.0071   ZZ=    21.3634
   Eigenvalues:    20.0600    29.8981    40.5035
 End of Minotr Frequency-dependent properties file   721 does not exist.
 End of Minotr Frequency-dependent properties file   722 does not exist.

 **********************************************************************

            Population analysis using the SCF density.

 **********************************************************************

 Orbital symmetries:
       Occupied  (A) (A) (A) (A) (A) (A) (A) (A) (A) (A) (A) (A)
                 (A) (A) (A) (A) (A) (A) (A) (A) (A) (A) (A) (A)
                 (A) (A) (A) (A) (A) (A) (A) (A) (A) (A) (A) (A)
                 (A) (A) (A) (A) (A) (A) (A) (A) (A) (A) (A)
       Virtual   (A) (A) (A) (A) (A) (A) (A) (A) (A) (A) (A) (A)
                 (A) (A) (A) (A) (A) (A) (A) (A) (A) (A) (A) (A)
                 (A) (A) (A) (A) (A) (A) (A) (A) (A) (A) (A) (A)
                 (A) (A) (A) (A) (A) (A) (A) (A) (A) (A) (A) (A)
                 (A) (A) (A) (A) (A) (A) (A) (A) (A) (A) (A) (A)
                 (A) (A) (A) (A) (A) (A) (A) (A) (A) (A) (A) (A)
                 (A) (A) (A) (A) (A) (A) (A) (A) (A) (A) (A) (A)
                 (A) (A) (A) (A) (A) (A) (A) (A) (A) (A) (A) (A)
                 (A) (A) (A) (A) (A) (A) (A) (A) (A) (A) (A) (A)
                 (A) (A) (A) (A) (A) (A) (A) (A) (A) (A) (A) (A)
                 (A) (A) (A) (A) (A) (A) (A) (A) (A) (A) (A) (A)
                 (A) (A) (A) (A) (A) (A) (A) (A) (A) (A) (A) (A)
                 (A) (A) (A) (A) (A) (A) (A) (A) (A) (A) (A) (A)
                 (A) (A) (A) (A) (A) (A) (A) (A) (A) (A) (A) (A)
                 (A) (A) (A) (A) (A) (A) (A) (A) (A) (A) (A) (A)
                 (A) (A) (A) (A) (A) (A) (A) (A) (A) (A) (A) (A)
                 (A) (A) (A) (A) (A) (A) (A) (A) (A) (A) (A) (A)
                 (A) (A) (A) (A) (A) (A) (A) (A) (A) (A) (A) (A)
                 (A) (A) (A) (A) (A) (A) (A) (A) (A) (A) (A) (A)
                 (A) (A) (A) (A) (A) (A) (A) (A) (A) (A) (A) (A)
                 (A) (A) (A) (A) (A) (A) (A) (A) (A) (A) (A) (A)
                 (A) (A) (A) (A)
 The electronic state is 1-A.
 Alpha  occ. eigenvalues --  -19.26916 -19.25766 -19.24967 -14.40932 -10.30795
 Alpha  occ. eigenvalues --  -10.30083 -10.29996 -10.28050 -10.27300 -10.26664
 Alpha  occ. eigenvalues --  -10.24165 -10.24074  -1.08155  -1.05828  -1.04559
 Alpha  occ. eigenvalues --   -0.95855  -0.82610  -0.78199  -0.75562  -0.71991
 Alpha  occ. eigenvalues --   -0.66644  -0.62066  -0.59634  -0.57467  -0.56072
 Alpha  occ. eigenvalues --   -0.53417  -0.51460  -0.50515  -0.48899  -0.47955
 Alpha  occ. eigenvalues --   -0.45273  -0.44927  -0.43994  -0.42308  -0.40551
 Alpha  occ. eigenvalues --   -0.38734  -0.37653  -0.37057  -0.35618  -0.35280
 Alpha  occ. eigenvalues --   -0.34782  -0.34286  -0.33771  -0.32439  -0.29281
 Alpha  occ. eigenvalues --   -0.29225  -0.22408
 Alpha virt. eigenvalues --   -0.00137   0.01326   0.01848   0.02006   0.04030
 Alpha virt. eigenvalues --    0.04250   0.04575   0.05005   0.05277   0.07472
 Alpha virt. eigenvalues --    0.07878   0.08223   0.08445   0.08799   0.09800
 Alpha virt. eigenvalues --    0.10815   0.11392   0.12004   0.12220   0.12664
 Alpha virt. eigenvalues --    0.12905   0.14212   0.14511   0.15253   0.15421
 Alpha virt. eigenvalues --    0.15655   0.16392   0.16978   0.17930   0.18418
 Alpha virt. eigenvalues --    0.19169   0.19583   0.20012   0.20446   0.21057
 Alpha virt. eigenvalues --    0.21352   0.21676   0.22194   0.22786   0.23413
 Alpha virt. eigenvalues --    0.23546   0.24421   0.25294   0.25614   0.25835
 Alpha virt. eigenvalues --    0.26021   0.26952   0.28028   0.28411   0.28706
 Alpha virt. eigenvalues --    0.29464   0.29987   0.30281   0.30896   0.31615
 Alpha virt. eigenvalues --    0.31719   0.32191   0.33297   0.34447   0.34871
 Alpha virt. eigenvalues --    0.35980   0.36576   0.37505   0.37836   0.39190
 Alpha virt. eigenvalues --    0.39815   0.40393   0.40761   0.41465   0.42670
 Alpha virt. eigenvalues --    0.43451   0.43878   0.45346   0.45430   0.46307
 Alpha virt. eigenvalues --    0.50653   0.64068   0.66472   0.67576   0.68957
 Alpha virt. eigenvalues --    0.70244   0.70979   0.72318   0.73917   0.75177
 Alpha virt. eigenvalues --    0.76959   0.78480   0.79888   0.81369   0.82740
 Alpha virt. eigenvalues --    0.83548   0.84878   0.86402   0.87765   0.88614
 Alpha virt. eigenvalues --    0.89337   0.91053   0.93728   0.95056   0.96686
 Alpha virt. eigenvalues --    0.97529   0.99982   1.02708   1.03722   1.04726
 Alpha virt. eigenvalues --    1.05449   1.07448   1.08289   1.09237   1.09414
 Alpha virt. eigenvalues --    1.10990   1.11500   1.14545   1.15632   1.16668
 Alpha virt. eigenvalues --    1.17507   1.19407   1.20413   1.23121   1.25512
 Alpha virt. eigenvalues --    1.27040   1.29280   1.30927   1.32273   1.33954
 Alpha virt. eigenvalues --    1.34682   1.37103   1.38862   1.40300   1.40881
 Alpha virt. eigenvalues --    1.43702   1.43888   1.45729   1.50324   1.51084
 Alpha virt. eigenvalues --    1.54969   1.56575   1.59274   1.59824   1.62798
 Alpha virt. eigenvalues --    1.64245   1.66036   1.68140   1.69299   1.70948
 Alpha virt. eigenvalues --    1.72696   1.73586   1.75935   1.77663   1.78632
 Alpha virt. eigenvalues --    1.81186   1.82614   1.84090   1.86375   1.86795
 Alpha virt. eigenvalues --    1.87942   1.89100   1.89490   1.91824   1.93030
 Alpha virt. eigenvalues --    1.96453   1.97252   2.01227   2.03133   2.04326
 Alpha virt. eigenvalues --    2.05407   2.07089   2.07284   2.10677   2.11775
 Alpha virt. eigenvalues --    2.13540   2.16410   2.16887   2.19038   2.20009
 Alpha virt. eigenvalues --    2.23015   2.24269   2.25966   2.29442   2.30113
 Alpha virt. eigenvalues --    2.32382   2.36391   2.38327   2.39113   2.39853
 Alpha virt. eigenvalues --    2.40517   2.42909   2.44677   2.46088   2.48405
 Alpha virt. eigenvalues --    2.50645   2.51929   2.52277   2.54662   2.55520
 Alpha virt. eigenvalues --    2.56923   2.57949   2.59558   2.60422   2.63061
 Alpha virt. eigenvalues --    2.64193   2.65359   2.66337   2.68160   2.69606
 Alpha virt. eigenvalues --    2.71319   2.71698   2.74855   2.75441   2.77943
 Alpha virt. eigenvalues --    2.80041   2.80323   2.82057   2.83553   2.84485
 Alpha virt. eigenvalues --    2.86671   2.89209   2.90778   2.92735   2.94330
 Alpha virt. eigenvalues --    2.96566   2.98627   3.00808   3.02514   3.03314
 Alpha virt. eigenvalues --    3.06979   3.10895   3.12273   3.15524   3.33554
 Alpha virt. eigenvalues --    3.35684   3.37496   3.40423   3.42184   3.43841
 Alpha virt. eigenvalues --    3.46672   3.50887   3.54531   3.55039   3.56247
 Alpha virt. eigenvalues --    3.58293   3.59364   3.60916   3.61941   4.32572
 Alpha virt. eigenvalues --    4.33569   4.37936   4.44901   4.54967   4.56469
 Alpha virt. eigenvalues --    4.62123   4.69415   4.77800   4.83181   4.93352
 Alpha virt. eigenvalues --    5.01180
          Condensed to atoms (all electrons):
              1          2          3          4          5          6
     1  C    5.844980  -0.248240   0.014366  -0.065461   0.152127   0.079651
     2  C   -0.248240   7.832419  -0.432779  -0.077337  -0.206042  -0.259665
     3  N    0.014366  -0.432779   7.597419   0.089720  -0.046276  -0.487359
     4  C   -0.065461  -0.077337   0.089720   5.677139   0.064891   0.114093
     5  C    0.152127  -0.206042  -0.046276   0.064891   5.549538  -0.168279
     6  C    0.079651  -0.259665  -0.487359   0.114093  -0.168279  10.859806
     7  C   -0.022122   0.422522   0.030513  -0.104081   0.056767  -2.812508
     8  C    0.024816  -0.965997   0.085500   0.044086   0.082694   0.586489
     9  H    0.381181  -0.051559   0.009057  -0.004754  -0.024482   0.005801
    10  H    0.429280  -0.102013   0.011884   0.031659  -0.045820   0.002452
    11  H    0.007878   0.236514  -0.010943  -0.010036   0.026296  -0.024001
    12  H   -0.008686  -0.032569  -0.032694   0.384209  -0.012153  -0.012616
    13  H    0.043675   0.014670  -0.066542   0.399474  -0.050586   0.041834
    14  H   -0.001320   0.000157   0.015678  -0.014814   0.336268  -0.003824
    15  H   -0.082414   0.016624   0.016914  -0.078669   0.457711  -0.010270
    16  H    0.004649  -0.010751  -0.003749   0.008239   0.001207   0.147851
    17  H    0.000933  -0.011530   0.027351  -0.002590   0.001628  -0.026992
    18  H    0.011832  -0.042713   0.018732  -0.000849   0.001689  -0.075760
    19  O   -0.014787  -0.212660   0.044800  -0.031358   0.043638  -0.010592
    20  H    0.008807  -0.001195  -0.002082   0.001564  -0.006042   0.017066
    21  O    0.030247   0.007718   0.047099   0.019866  -0.025224  -0.155799
    22  H   -0.003839   0.002577   0.002135  -0.002764   0.003975  -0.080188
    23  C   -0.051014   0.022910   0.213154  -0.170023   0.079191  -1.289432
    24  H   -0.000673   0.016734   0.013126  -0.005563  -0.002020  -0.208869
    25  H   -0.000479  -0.003504   0.012414  -0.001384   0.001901  -0.129753
    26  O   -0.006997   0.045992   0.015556  -0.016699   0.003042  -0.180648
    27  H   -0.000933  -0.002438   0.008146  -0.006560   0.008384  -0.038936
              7          8          9         10         11         12
     1  C   -0.022122   0.024816   0.381181   0.429280   0.007878  -0.008686
     2  C    0.422522  -0.965997  -0.051559  -0.102013   0.236514  -0.032569
     3  N    0.030513   0.085500   0.009057   0.011884  -0.010943  -0.032694
     4  C   -0.104081   0.044086  -0.004754   0.031659  -0.010036   0.384209
     5  C    0.056767   0.082694  -0.024482  -0.045820   0.026296  -0.012153
     6  C   -2.812508   0.586489   0.005801   0.002452  -0.024001  -0.012616
     7  C    8.095000  -0.945820  -0.009429  -0.006588   0.032181  -0.005417
     8  C   -0.945820   6.665919   0.023606   0.018249   0.004997   0.012766
     9  H   -0.009429   0.023606   0.528394  -0.024491  -0.006412   0.001281
    10  H   -0.006588   0.018249  -0.024491   0.505932   0.001400  -0.000073
    11  H    0.032181   0.004997  -0.006412   0.001400   0.568752   0.000460
    12  H   -0.005417   0.012766   0.001281  -0.000073   0.000460   0.565809
    13  H    0.010522  -0.019650  -0.000120  -0.000133  -0.000220  -0.038345
    14  H    0.002432   0.000345  -0.005344   0.000566  -0.000085  -0.004089
    15  H    0.010723  -0.002195   0.004124  -0.005351  -0.000038   0.004192
    16  H    0.070402  -0.008325   0.000006   0.000001   0.002679   0.000158
    17  H    0.339704   0.021186   0.000003  -0.000006  -0.000004   0.000008
    18  H    0.051468   0.361430  -0.000063   0.000019  -0.006531   0.000004
    19  O   -0.102698   0.409574   0.000445  -0.002775   0.008629   0.000232
    20  H   -0.064037   0.012945  -0.000007  -0.000121  -0.000199  -0.000002
    21  O    0.151188  -0.100304   0.000165   0.000231  -0.000200   0.001034
    22  H    0.088517  -0.004336   0.000000  -0.000001   0.000008  -0.000001
    23  C    0.467057  -0.126990  -0.000893  -0.000443   0.009181   0.017294
    24  H    0.062115  -0.020935   0.000000   0.000000   0.000003   0.000224
    25  H    0.019837  -0.001185   0.000000   0.000000   0.000004  -0.000011
    26  O    0.046393  -0.027548   0.000005   0.000002  -0.000238  -0.000884
    27  H   -0.002695   0.000947   0.000000   0.000000   0.000004  -0.000389
             13         14         15         16         17         18
     1  C    0.043675  -0.001320  -0.082414   0.004649   0.000933   0.011832
     2  C    0.014670   0.000157   0.016624  -0.010751  -0.011530  -0.042713
     3  N   -0.066542   0.015678   0.016914  -0.003749   0.027351   0.018732
     4  C    0.399474  -0.014814  -0.078669   0.008239  -0.002590  -0.000849
     5  C   -0.050586   0.336268   0.457711   0.001207   0.001628   0.001689
     6  C    0.041834  -0.003824  -0.010270   0.147851  -0.026992  -0.075760
     7  C    0.010522   0.002432   0.010723   0.070402   0.339704   0.051468
     8  C   -0.019650   0.000345  -0.002195  -0.008325   0.021186   0.361430
     9  H   -0.000120  -0.005344   0.004124   0.000006   0.000003  -0.000063
    10  H   -0.000133   0.000566  -0.005351   0.000001  -0.000006   0.000019
    11  H   -0.000220  -0.000085  -0.000038   0.002679  -0.000004  -0.006531
    12  H   -0.038345  -0.004089   0.004192   0.000158   0.000008   0.000004
    13  H    0.553400   0.001328  -0.007064  -0.000113  -0.000108   0.000013
    14  H    0.001328   0.525155  -0.024146   0.000004   0.000000   0.000003
    15  H   -0.007064  -0.024146   0.514424   0.000009   0.000036   0.000005
    16  H   -0.000113   0.000004   0.000009   0.564593  -0.001518   0.001104
    17  H   -0.000108   0.000000   0.000036  -0.001518   0.539349  -0.005981
    18  H    0.000013   0.000003   0.000005   0.001104  -0.005981   0.547540
    19  O    0.000307   0.000319   0.001724  -0.000346   0.003045  -0.058786
    20  H    0.000007   0.000034  -0.000383  -0.000032   0.000172   0.006066
    21  O   -0.003691   0.000253   0.000197   0.011538  -0.039896   0.006945
    22  H    0.000004  -0.000003   0.000107  -0.000032  -0.009547  -0.000110
    23  C   -0.032152   0.002097   0.002861   0.039534  -0.014880   0.012794
    24  H    0.002082   0.000005   0.000044   0.005145  -0.000003   0.000002
    25  H   -0.000011   0.000000  -0.000003  -0.005744   0.001087   0.000008
    26  O    0.000576  -0.000020   0.000006   0.001518  -0.000893   0.000068
    27  H   -0.000566   0.000000  -0.000002  -0.000520   0.000002   0.000000
             19         20         21         22         23         24
     1  C   -0.014787   0.008807   0.030247  -0.003839  -0.051014  -0.000673
     2  C   -0.212660  -0.001195   0.007718   0.002577   0.022910   0.016734
     3  N    0.044800  -0.002082   0.047099   0.002135   0.213154   0.013126
     4  C   -0.031358   0.001564   0.019866  -0.002764  -0.170023  -0.005563
     5  C    0.043638  -0.006042  -0.025224   0.003975   0.079191  -0.002020
     6  C   -0.010592   0.017066  -0.155799  -0.080188  -1.289432  -0.208869
     7  C   -0.102698  -0.064037   0.151188   0.088517   0.467057   0.062115
     8  C    0.409574   0.012945  -0.100304  -0.004336  -0.126990  -0.020935
     9  H    0.000445  -0.000007   0.000165   0.000000  -0.000893   0.000000
    10  H   -0.002775  -0.000121   0.000231  -0.000001  -0.000443   0.000000
    11  H    0.008629  -0.000199  -0.000200   0.000008   0.009181   0.000003
    12  H    0.000232  -0.000002   0.001034  -0.000001   0.017294   0.000224
    13  H    0.000307   0.000007  -0.003691   0.000004  -0.032152   0.002082
    14  H    0.000319   0.000034   0.000253  -0.000003   0.002097   0.000005
    15  H    0.001724  -0.000383   0.000197   0.000107   0.002861   0.000044
    16  H   -0.000346  -0.000032   0.011538  -0.000032   0.039534   0.005145
    17  H    0.003045   0.000172  -0.039896  -0.009547  -0.014880  -0.000003
    18  H   -0.058786   0.006066   0.006945  -0.000110   0.012794   0.000002
    19  O    8.223703   0.252186  -0.006313  -0.000814   0.006283  -0.000113
    20  H    0.252186   0.353512   0.033112  -0.001019   0.001029   0.000000
    21  O   -0.006313   0.033112   8.460814   0.230196   0.007894   0.011849
    22  H   -0.000814  -0.001019   0.230196   0.343336   0.015611  -0.000648
    23  C    0.006283   0.001029   0.007894   0.015611   5.868703   0.480786
    24  H   -0.000113   0.000000   0.011849  -0.000648   0.480786   0.567519
    25  H    0.000067  -0.000002  -0.003587   0.000252   0.489178  -0.033407
    26  O    0.000036  -0.000005  -0.000075   0.000245   0.269694  -0.042855
    27  H    0.000006   0.000000  -0.000276   0.000001   0.035260  -0.008935
             25         26         27
     1  C   -0.000479  -0.006997  -0.000933
     2  C   -0.003504   0.045992  -0.002438
     3  N    0.012414   0.015556   0.008146
     4  C   -0.001384  -0.016699  -0.006560
     5  C    0.001901   0.003042   0.008384
     6  C   -0.129753  -0.180648  -0.038936
     7  C    0.019837   0.046393  -0.002695
     8  C   -0.001185  -0.027548   0.000947
     9  H    0.000000   0.000005   0.000000
    10  H    0.000000   0.000002   0.000000
    11  H    0.000004  -0.000238   0.000004
    12  H   -0.000011  -0.000884  -0.000389
    13  H   -0.000011   0.000576  -0.000566
    14  H    0.000000  -0.000020   0.000000
    15  H   -0.000003   0.000006  -0.000002
    16  H   -0.005744   0.001518  -0.000520
    17  H    0.001087  -0.000893   0.000002
    18  H    0.000008   0.000068   0.000000
    19  O    0.000067   0.000036   0.000006
    20  H   -0.000002  -0.000005   0.000000
    21  O   -0.003587  -0.000075  -0.000276
    22  H    0.000252   0.000245   0.000001
    23  C    0.489178   0.269694   0.035260
    24  H   -0.033407  -0.042855  -0.008935
    25  H    0.527292  -0.056618   0.005984
    26  O   -0.056618   8.237595   0.255380
    27  H    0.005984   0.255380   0.366926
 Mulliken atomic charges:
              1
     1  C   -0.527456
     2  C    0.042154
     3  N   -0.191140
     4  C   -0.241999
     5  C   -0.284022
     6  C    0.120448
     7  C    0.118055
     8  C   -0.132267
     9  H    0.173485
    10  H    0.186138
    11  H    0.159922
    12  H    0.160257
    13  H    0.151411
    14  H    0.169001
    15  H    0.180834
    16  H    0.172492
    17  H    0.179442
    18  H    0.171071
    19  O   -0.553750
    20  H    0.388625
    21  O   -0.684981
    22  H    0.416338
    23  C   -0.354685
    24  H    0.164385
    25  H    0.177664
    26  O   -0.542629
    27  H    0.381208
 Sum of Mulliken atomic charges =   0.00000
 Mulliken charges with hydrogens summed into heavy atoms:
              1
     1  C   -0.167833
     2  C    0.202076
     3  N   -0.191140
     4  C    0.069668
     5  C    0.065813
     6  C    0.292940
     7  C    0.297497
     8  C    0.038804
    19  O   -0.165125
    21  O   -0.268643
    23  C   -0.012637
    26  O   -0.161421
 Sum of Mulliken charges with hydrogens summed into heavy atoms =   0.00000
 Electronic spatial extent (au):  <R**2>=           1929.7283
 Charge=              0.0000 electrons
 Dipole moment (field-independent basis, Debye):
    X=              0.7643    Y=             -1.4392    Z=              2.3001  Tot=              2.8189
 Quadrupole moment (field-independent basis, Debye-Ang):
   XX=            -91.1688   YY=            -64.4377   ZZ=            -70.7084
   XY=             -7.0057   XZ=              5.2978   YZ=             -0.1250
 Traceless Quadrupole moment (field-independent basis, Debye-Ang):
   XX=            -15.7305   YY=             11.0006   ZZ=              4.7299
   XY=             -7.0057   XZ=              5.2978   YZ=             -0.1250
 Octapole moment (field-independent basis, Debye-Ang**2):
  XXX=            -22.2196  YYY=            -16.7471  ZZZ=              8.2313  XYY=             22.3192
  XXY=             11.0228  XXZ=             19.3297  XZZ=             -3.7826  YZZ=            -15.1803
  YYZ=             13.5120  XYZ=              2.7149
 Hexadecapole moment (field-independent basis, Debye-Ang**3):
 XXXX=          -1642.7184 YYYY=           -721.4055 ZZZZ=           -349.0238 XXXY=            -21.8880
 XXXZ=             27.0514 YYYX=             -6.3054 YYYZ=            -29.2836 ZZZX=              9.7961
 ZZZY=            -18.8587 XXYY=           -338.3896 XXZZ=           -280.7408 YYZZ=           -168.9176
 XXYZ=             -6.0757 YYXZ=              4.2309 ZZXY=              1.1023
 N-N= 8.184249800013D+02 E-N=-3.022693796122D+03  KE= 5.886477455603D+02
 1\1\GINC-COMPUTE-3-1\SP\RmPW1PW91\6-31+G(d,p)\C8H15N1O3\MAMICHETTI.IQU
 IR\17-May-2024\0\\# mpw1pw91/6-31+G** nmr scrf=(pcm,solvent=water)\\co
 mment\\0,1\C,0,-1.927911,1.458375,-0.312689\C,0,-1.013845,0.487021,-1.
 067057\N,0,0.377352,0.828148,-0.636947\C,0,0.282643,1.670173,0.590748\
 C,0,-1.192559,1.679834,1.016106\C,0,1.093353,-0.467578,-0.56253\C,0,0.
 073416,-1.507541,-0.077314\C,0,-1.232532,-1.044883,-0.767872\H,0,-2.00
 0525,2.400325,-0.869425\H,0,-2.938111,1.060177,-0.189299\H,0,-1.108725
 ,0.628065,-2.150073\H,0,0.603883,2.691048,0.341665\H,0,0.941266,1.3180
 64,1.387576\H,0,-1.477147,2.611282,1.516408\H,0,-1.399765,0.851362,1.7
 01594\H,0,1.333785,-0.747017,-1.599974\H,0,0.34786,-2.529021,-0.357461
 \H,0,-1.337805,-1.572789,-1.720696\O,0,-2.379786,-1.37267,0.00738\H,0,
 -2.049839,-1.419992,0.926846\O,0,-0.146642,-1.444225,1.344528\H,0,0.37
 1792,-2.151548,1.759118\C,0,2.410477,-0.485405,0.2062\H,0,2.25568,-0.3
 03899,1.275525\H,0,2.84091,-1.487501,0.107641\O,0,3.389108,0.416826,-0
 .320833\H,0,3.115572,1.314984,-0.07298\\Version=AM64L-G09RevC.01\State
 =1-A\HF=-594.1889735\RMSD=5.029e-09\Dipole=0.3006965,-0.5662406,0.9049
 211\Quadrupole=-11.6952121,8.1786432,3.5165689,-5.208579,3.9387786,-0.
 0929525\PG=C01 [X(C8H15N1O3)]\\@


 THE ONLY TROUBLE WITH A SURE THING IS THE UNCERTAINTY.
     -- FROM A TEABAG (BELONGING TO W.H.?)
 Job cpu time:  0 days  0 hours  9 minutes 16.9 seconds.
 File lengths (MBytes):  RWF=    111 Int=      0 D2E=      0 Chk=      7 Scr=      1
 Normal termination of Gaussian 09 at Fri May 17 12:50:55 2024.
