 Entering Gaussian System, Link 0=g09
 Input=/home/mamichetti.iquir/Linux/04_Cardona_A1A3_R__S_R_S_034_OptB.gjc
 Output=/home/mamichetti.iquir/Linux/04_Cardona_A1A3_R__S_R_S_034_OptB.log
 Initial command:
 /opt/ohpc/pub/apps/software/Gaussian/09/AMD64.SSE4a-enabled/g09/l1.exe /local/mamichetti.iquir/Gau-410316.inp -scrdir=/local/mamichetti.iquir/
 Entering Link 1 = /opt/ohpc/pub/apps/software/Gaussian/09/AMD64.SSE4a-enabled/g09/l1.exe PID=    410317.
  
 Copyright (c) 1988,1990,1992,1993,1995,1998,2003,2009,2011,
            Gaussian, Inc.  All Rights Reserved.
  
 This is part of the Gaussian(R) 09 program.  It is based on
 the Gaussian(R) 03 system (copyright 2003, Gaussian, Inc.),
 the Gaussian(R) 98 system (copyright 1998, Gaussian, Inc.),
 the Gaussian(R) 94 system (copyright 1995, Gaussian, Inc.),
 the Gaussian 92(TM) system (copyright 1992, Gaussian, Inc.),
 the Gaussian 90(TM) system (copyright 1990, Gaussian, Inc.),
 the Gaussian 88(TM) system (copyright 1988, Gaussian, Inc.),
 the Gaussian 86(TM) system (copyright 1986, Carnegie Mellon
 University), and the Gaussian 82(TM) system (copyright 1983,
 Carnegie Mellon University). Gaussian is a federally registered
 trademark of Gaussian, Inc.
  
 This software contains proprietary and confidential information,
 including trade secrets, belonging to Gaussian, Inc.
  
 This software is provided under written license and may be
 used, copied, transmitted, or stored only in accord with that
 written license.
  
 The following legend is applicable only to US Government
 contracts under FAR:
  
                    RESTRICTED RIGHTS LEGEND
  
 Use, reproduction and disclosure by the US Government is
 subject to restrictions as set forth in subparagraphs (a)
 and (c) of the Commercial Computer Software - Restricted
 Rights clause in FAR 52.227-19.
  
 Gaussian, Inc.
 340 Quinnipiac St., Bldg. 40, Wallingford CT 06492
  
  
 ---------------------------------------------------------------
 Warning -- This program may not be used in any manner that
 competes with the business of Gaussian, Inc. or will provide
 assistance to any competitor of Gaussian, Inc.  The licensee
 of this program is prohibited from giving any competitor of
 Gaussian, Inc. access to this program.  By using this program,
 the user acknowledges that Gaussian, Inc. is engaged in the
 business of creating and licensing software in the field of
 computational chemistry and represents and warrants to the
 licensee that it is not a competitor of Gaussian, Inc. and that
 it will not use this program in any manner prohibited above.
 ---------------------------------------------------------------
  

 Cite this work as:
 Gaussian 09, Revision C.01,
 M. J. Frisch, G. W. Trucks, H. B. Schlegel, G. E. Scuseria, 
 M. A. Robb, J. R. Cheeseman, G. Scalmani, V. Barone, B. Mennucci, 
 G. A. Petersson, H. Nakatsuji, M. Caricato, X. Li, H. P. Hratchian, 
 A. F. Izmaylov, J. Bloino, G. Zheng, J. L. Sonnenberg, M. Hada, 
 M. Ehara, K. Toyota, R. Fukuda, J. Hasegawa, M. Ishida, T. Nakajima, 
 Y. Honda, O. Kitao, H. Nakai, T. Vreven, J. A. Montgomery, Jr., 
 J. E. Peralta, F. Ogliaro, M. Bearpark, J. J. Heyd, E. Brothers, 
 K. N. Kudin, V. N. Staroverov, T. Keith, R. Kobayashi, J. Normand, 
 K. Raghavachari, A. Rendell, J. C. Burant, S. S. Iyengar, J. Tomasi, 
 M. Cossi, N. Rega, J. M. Millam, M. Klene, J. E. Knox, J. B. Cross, 
 V. Bakken, C. Adamo, J. Jaramillo, R. Gomperts, R. E. Stratmann, 
 O. Yazyev, A. J. Austin, R. Cammi, C. Pomelli, J. W. Ochterski, 
 R. L. Martin, K. Morokuma, V. G. Zakrzewski, G. A. Voth, 
 P. Salvador, J. J. Dannenberg, S. Dapprich, A. D. Daniels, 
 O. Farkas, J. B. Foresman, J. V. Ortiz, J. Cioslowski, 
 and D. J. Fox, Gaussian, Inc., Wallingford CT, 2010.
 
 ******************************************
 Gaussian 09:  AM64L-G09RevC.01 23-Sep-2011
                17-May-2024 
 ******************************************
 %nprocshared=4
 Will use up to    4 processors via shared memory.
 ------------------------------------------------
 # mpw1pw91/6-31+G** nmr scrf=(pcm,solvent=water)
 ------------------------------------------------
 1/38=1/1;
 2/12=2,17=6,18=5,40=1/2;
 3/5=1,6=6,7=111,11=2,16=1,25=1,30=1,70=2201,72=1,74=-7/1,2,8,3;
 4//1;
 5/5=2,38=5,53=1/2;
 8/6=1,10=90,11=11/1;
 10/13=100,45=16/2;
 6/7=2,8=2,9=2,10=2,28=1/1;
 99/9=1/99;
 -------
 comment
 -------
 Charge =  0 Multiplicity = 1
 Symbolic Z-Matrix:
 6                    -2.29596  -0.90372   0.27595 
 6                    -1.04165  -0.94912  -0.6086 
 7                    -0.61916   0.47797  -0.80053 
 6                    -1.50598   1.34018   0.00235 
 6                    -2.80504   0.53402   0.08153 
 6                     0.85365   0.59814  -0.69074 
 6                     1.33974  -0.88835  -0.75098 
 6                     0.19701  -1.70242  -0.11284 
 1                    -3.02814  -1.66675  -0.00429 
 1                    -2.03288  -1.06631   1.3273 
 1                    -1.29577  -1.38106  -1.58701 
 1                    -1.64526   2.31733  -0.47488 
 1                    -1.12908   1.5251    1.0188 
 1                    -3.36234   0.61811  -0.85922 
 1                    -3.45669   0.87252   0.89318 
 1                     1.24533   1.12424  -1.57603 
 1                     1.429    -1.17763  -1.80294 
 1                     0.20996  -2.74134  -0.45073 
 8                     0.37367  -1.78282   1.31058 
 1                     0.1155   -0.94096   1.72234 
 8                     2.59642  -1.15518  -0.14547 
 1                     2.39097  -1.31241   0.7966 
 6                     1.41475   1.37426   0.50829 
 1                     0.9902    1.04066   1.45996 
 1                     2.49693   1.19877   0.54955 
 8                     1.14612   2.77961   0.43038 
 1                     1.53756   3.09318  -0.40261 
 
                          Input orientation:                          
 ---------------------------------------------------------------------
 Center     Atomic      Atomic             Coordinates (Angstroms)
 Number     Number       Type             X           Y           Z
 ---------------------------------------------------------------------
      1          6           0       -2.295962   -0.903723    0.275945
      2          6           0       -1.041655   -0.949117   -0.608598
      3          7           0       -0.619157    0.477968   -0.800531
      4          6           0       -1.505980    1.340184    0.002350
      5          6           0       -2.805043    0.534022    0.081527
      6          6           0        0.853653    0.598136   -0.690741
      7          6           0        1.339736   -0.888346   -0.750980
      8          6           0        0.197010   -1.702422   -0.112841
      9          1           0       -3.028136   -1.666747   -0.004287
     10          1           0       -2.032879   -1.066312    1.327300
     11          1           0       -1.295769   -1.381059   -1.587010
     12          1           0       -1.645257    2.317334   -0.474881
     13          1           0       -1.129078    1.525096    1.018799
     14          1           0       -3.362339    0.618107   -0.859215
     15          1           0       -3.456689    0.872524    0.893176
     16          1           0        1.245331    1.124237   -1.576025
     17          1           0        1.429000   -1.177632   -1.802938
     18          1           0        0.209959   -2.741341   -0.450733
     19          8           0        0.373674   -1.782821    1.310581
     20          1           0        0.115502   -0.940956    1.722337
     21          8           0        2.596424   -1.155183   -0.145466
     22          1           0        2.390966   -1.312407    0.796598
     23          6           0        1.414753    1.374255    0.508290
     24          1           0        0.990201    1.040662    1.459959
     25          1           0        2.496930    1.198769    0.549548
     26          8           0        1.146116    2.779609    0.430382
     27          1           0        1.537562    3.093183   -0.402606
 ---------------------------------------------------------------------
                    Distance matrix (angstroms):
                    1          2          3          4          5
     1  C    0.000000
     2  C    1.535501   0.000000
     3  N    2.424777   1.500638   0.000000
     4  C    2.394586   2.414488   1.474615   0.000000
     5  C    1.537554   2.405309   2.357810   1.530925   0.000000
     6  C    3.620792   2.448047   1.481777   2.568828   3.739862
     7  C    3.777977   2.386418   2.388835   3.692147   4.460425
     8  C    2.646504   1.532167   2.427580   3.488681   3.748571
     9  H    1.093990   2.196882   3.322196   3.370258   2.213712
    10  H    1.095899   2.178064   2.985142   2.797202   2.170082
    11  H    2.167680   1.099290   2.128928   3.158388   2.954566
    12  H    3.370811   3.324442   2.131243   1.096344   2.198839
    13  H    2.795105   2.962734   2.160199   1.099735   2.160918
    14  H    2.177548   2.811507   2.747386   2.170198   1.096652
    15  H    2.209822   3.377290   3.328048   2.194890   1.094532
    16  H    4.481425   3.234968   2.120229   3.179247   4.416035
    17  H    4.274590   2.753689   2.817939   4.267619   4.940454
    18  H    3.191323   2.191695   3.342715   4.450683   4.483474
    19  O    2.995036   2.526156   3.248642   3.872690   4.120992
    20  H    2.812222   2.602371   2.986291   3.284990   3.660246
    21  O    4.916936   3.673224   3.665550   4.804001   5.663990
    22  H    4.733434   3.726854   3.849299   4.780508   5.560498
    23  C    4.360341   3.560820   2.579367   2.964425   4.323748
    24  H    3.997673   3.516616   2.831338   2.906072   4.069476
    25  H    5.240911   4.298407   3.471637   4.042612   5.363940
    26  O    5.043678   4.446259   3.151014   3.047748   4.558072
    27  H    5.579569   4.799477   3.413082   3.535554   5.063784
                    6          7          8          9         10
     6  C    0.000000
     7  C    1.565099   0.000000
     8  C    2.461243   1.541351   0.000000
     9  H    4.546339   4.499085   3.227170   0.000000
    10  H    3.895503   3.965533   2.729661   1.767536   0.000000
    11  H    3.056227   2.808487   2.122460   2.363837   3.022515
    12  H    3.040853   4.388940   4.436604   4.243432   3.853202
    13  H    2.777230   3.879673   3.668241   3.852400   2.761779
    14  H    4.219404   4.938687   4.314035   2.462347   3.063589
    15  H    4.600340   5.367458   4.581695   2.727085   2.444337
    16  H    1.101781   2.177178   3.351102   5.340643   4.896372
    17  H    2.172869   1.094655   2.156300   4.831194   4.668553
    18  H    3.409406   2.190921   1.092562   3.440832   3.316240
    19  O    3.147162   2.446098   1.436595   3.648926   2.511008
    20  H    2.955777   2.760220   1.988555   3.659298   2.187992
    21  O    2.531542   1.420251   2.461244   5.649540   4.858743
    22  H    2.868045   1.918309   2.406789   5.489412   4.462355
    23  C    1.534558   2.590512   3.366696   5.408298   4.302710
    24  H    2.199997   2.954911   3.259963   5.061730   3.687269
    25  H    2.144630   2.717815   3.761024   6.248541   5.123930
    26  O    2.470076   3.858367   4.613512   6.114196   5.069673
    27  H    2.603078   4.001634   4.987872   6.607661   5.748219
                   11         12         13         14         15
    11  H    0.000000
    12  H    3.877768   0.000000
    13  H    3.906887   1.767813   0.000000
    14  H    2.965984   2.446110   3.055654   0.000000
    15  H    3.987422   2.690788   2.420621   1.773275   0.000000
    16  H    3.568448   3.315343   3.540002   4.690480   5.316889
    17  H    2.740871   4.840411   4.670193   5.203097   5.944925
    18  H    2.325663   5.388191   4.706913   4.920779   5.320754
    19  O    3.368158   4.906651   3.644958   4.942698   4.679398
    20  H    3.624521   4.306332   2.850501   4.603310   4.091059
    21  O    4.156710   5.491698   4.734847   6.257863   6.467654
    22  H    4.390708   5.575193   4.526755   6.290399   6.243262
    23  C    4.396472   3.349580   2.598932   5.026175   4.912313
    24  H    4.513802   3.509863   2.218252   4.949922   4.486016
    25  H    5.060134   4.411163   3.670779   6.054157   5.972445
    26  O    5.229133   2.970684   2.663934   5.163460   5.003695
    27  H    5.426732   3.276813   3.404447   5.508496   5.617199
                   16         17         18         19         20
    16  H    0.000000
    17  H    2.320307   0.000000
    18  H    4.157039   2.399939   0.000000
    19  O    4.188468   3.342748   2.011912   0.000000
    20  H    4.052250   3.769464   2.823569   0.972076   0.000000
    21  O    3.011263   2.027461   2.881718   2.730315   3.112805
    22  H    3.588740   2.775091   2.890411   2.134229   2.484493
    23  C    2.106082   3.442979   4.394244   3.419743   2.919275
    24  H    3.047831   3.969870   4.308488   2.893869   2.181914
    25  H    2.467816   3.510263   4.664254   3.738618   3.409554
    26  O    2.603031   4.552746   5.668654   4.710327   4.071108
    27  H    2.310640   4.495840   5.983855   5.297647   4.776182
                   21         22         23         24         25
    21  O    0.000000
    22  H    0.976943   0.000000
    23  C    2.867368   2.873024   0.000000
    24  H    3.158968   2.817645   1.094168   0.000000
    25  H    2.456427   2.525523   1.097089   1.767506   0.000000
    26  O    4.232917   4.292827   1.432918   2.026888   2.082776
    27  H    4.385878   4.644956   1.949238   2.825172   2.327185
                   26         27
    26  O    0.000000
    27  H    0.972331   0.000000
 Stoichiometry    C8H15NO3
 Framework group  C1[X(C8H15NO3)]
 Deg. of freedom    75
 Full point group                 C1      NOp   1
 Largest Abelian subgroup         C1      NOp   1
 Largest concise Abelian subgroup C1      NOp   1
                         Standard orientation:                         
 ---------------------------------------------------------------------
 Center     Atomic      Atomic             Coordinates (Angstroms)
 Number     Number       Type             X           Y           Z
 ---------------------------------------------------------------------
      1          6           0       -2.295962   -0.903723    0.275945
      2          6           0       -1.041655   -0.949117   -0.608598
      3          7           0       -0.619157    0.477968   -0.800531
      4          6           0       -1.505980    1.340184    0.002350
      5          6           0       -2.805043    0.534022    0.081527
      6          6           0        0.853653    0.598136   -0.690741
      7          6           0        1.339736   -0.888346   -0.750980
      8          6           0        0.197010   -1.702422   -0.112841
      9          1           0       -3.028136   -1.666748   -0.004287
     10          1           0       -2.032879   -1.066312    1.327300
     11          1           0       -1.295769   -1.381059   -1.587010
     12          1           0       -1.645257    2.317334   -0.474881
     13          1           0       -1.129078    1.525096    1.018799
     14          1           0       -3.362339    0.618106   -0.859215
     15          1           0       -3.456689    0.872523    0.893176
     16          1           0        1.245331    1.124237   -1.576025
     17          1           0        1.429000   -1.177632   -1.802938
     18          1           0        0.209960   -2.741341   -0.450733
     19          8           0        0.373674   -1.782821    1.310581
     20          1           0        0.115502   -0.940956    1.722337
     21          8           0        2.596424   -1.155183   -0.145466
     22          1           0        2.390966   -1.312407    0.796598
     23          6           0        1.414753    1.374255    0.508290
     24          1           0        0.990201    1.040662    1.459959
     25          1           0        2.496930    1.198769    0.549548
     26          8           0        1.146116    2.779609    0.430382
     27          1           0        1.537562    3.093183   -0.402606
 ---------------------------------------------------------------------
 Rotational constants (GHZ):      1.1597435      0.9517996      0.6268847
 Standard basis: 6-31+G(d,p) (6D, 7F)
 There are   303 symmetry adapted basis functions of A   symmetry.
 Integral buffers will be    131072 words long.
 Raffenetti 2 integral format.
 Two-electron integral symmetry is turned on.
   303 basis functions,   489 primitive gaussians,   303 cartesian basis functions
    47 alpha electrons       47 beta electrons
       nuclear repulsion energy       813.1663956667 Hartrees.
 NAtoms=   27 NActive=   27 NUniq=   27 SFac= 1.00D+00 NAtFMM=   60 NAOKFM=F Big=F
 ------------------------------------------------------------------------------
 Polarizable Continuum Model (PCM)
 =================================
 Model                : PCM.
 Atomic radii         : UFF (Universal Force Field).
 Polarization charges : Total charges.
 Charge compensation  : None.
 Solution method      : Matrix inversion.
 Cavity type          : Scaled VdW (van der Waals Surface) (Alpha=1.100).
 Cavity algorithm     : GePol (No added spheres)
                        Default sphere list used, NSphG=   27.
                        Lebedev-Laikov grids with approx.  5.0 points / Ang**2.
                        Smoothing algorithm: Karplus/York (Gamma=1.0000).
                        Polarization charges: spherical gaussians, with
                                              point-specific exponents (IZeta= 3).
                        Self-potential: point-specific (ISelfS= 7).
                        Self-field    : sphere-specific E.n sum rule (ISelfD= 2).
 Solvent              : Water, Eps=  78.355300 Eps(inf)=   1.777849
 ------------------------------------------------------------------------------
 One-electron integrals computed using PRISM.
 NBasis=   303 RedAO= T  NBF=   303
 NBsUse=   303 1.00D-06 NBFU=   303
 Harris functional with IExCor=  908 diagonalized for initial guess.
 ExpMin= 4.38D-02 ExpMax= 5.48D+03 ExpMxC= 8.25D+02 IAcc=2 IRadAn=         4 AccDes= 0.00D+00
 HarFok:  IExCor=  908 AccDes= 0.00D+00 IRadAn=         4 IDoV= 1
 ScaDFX=  1.000000  1.000000  1.000000  1.000000
 FoFCou: FMM=F IPFlag=           0 FMFlag=      100000 FMFlg1=           0
         NFxFlg=           0 DoJE=T BraDBF=F KetDBF=T FulRan=T
         Omega=  0.000000  0.000000  1.000000  0.000000  0.000000 ICntrl=     500 IOpCl=  0
         NMat0=    1 NMatS0=    1 NMatT0=    0 NMatD0=    1 NMtDS0=    0 NMtDT0=    0
         I1Cent=           4 NGrid=           0.
 Petite list used in FoFCou.
 Initial guess orbital symmetries:
       Occupied  (A) (A) (A) (A) (A) (A) (A) (A) (A) (A) (A) (A)
                 (A) (A) (A) (A) (A) (A) (A) (A) (A) (A) (A) (A)
                 (A) (A) (A) (A) (A) (A) (A) (A) (A) (A) (A) (A)
                 (A) (A) (A) (A) (A) (A) (A) (A) (A) (A) (A)
       Virtual   (A) (A) (A) (A) (A) (A) (A) (A) (A) (A) (A) (A)
                 (A) (A) (A) (A) (A) (A) (A) (A) (A) (A) (A) (A)
                 (A) (A) (A) (A) (A) (A) (A) (A) (A) (A) (A) (A)
                 (A) (A) (A) (A) (A) (A) (A) (A) (A) (A) (A) (A)
                 (A) (A) (A) (A) (A) (A) (A) (A) (A) (A) (A) (A)
                 (A) (A) (A) (A) (A) (A) (A) (A) (A) (A) (A) (A)
                 (A) (A) (A) (A) (A) (A) (A) (A) (A) (A) (A) (A)
                 (A) (A) (A) (A) (A) (A) (A) (A) (A) (A) (A) (A)
                 (A) (A) (A) (A) (A) (A) (A) (A) (A) (A) (A) (A)
                 (A) (A) (A) (A) (A) (A) (A) (A) (A) (A) (A) (A)
                 (A) (A) (A) (A) (A) (A) (A) (A) (A) (A) (A) (A)
                 (A) (A) (A) (A) (A) (A) (A) (A) (A) (A) (A) (A)
                 (A) (A) (A) (A) (A) (A) (A) (A) (A) (A) (A) (A)
                 (A) (A) (A) (A) (A) (A) (A) (A) (A) (A) (A) (A)
                 (A) (A) (A) (A) (A) (A) (A) (A) (A) (A) (A) (A)
                 (A) (A) (A) (A) (A) (A) (A) (A) (A) (A) (A) (A)
                 (A) (A) (A) (A) (A) (A) (A) (A) (A) (A) (A) (A)
                 (A) (A) (A) (A) (A) (A) (A) (A) (A) (A) (A) (A)
                 (A) (A) (A) (A) (A) (A) (A) (A) (A) (A) (A) (A)
                 (A) (A) (A) (A) (A) (A) (A) (A) (A) (A) (A) (A)
                 (A) (A) (A) (A) (A) (A) (A) (A) (A) (A) (A) (A)
                 (A) (A) (A) (A)
 The electronic state of the initial guess is 1-A.
 Requested convergence on RMS density matrix=1.00D-08 within 128 cycles.
 Requested convergence on MAX density matrix=1.00D-06.
 Requested convergence on             energy=1.00D-06.
 No special actions if energy rises.
 Error on total polarization charges =  0.01401
 SCF Done:  E(RmPW1PW91) =  -594.187106740     A.U. after   14 cycles
             Convg  =    0.3547D-08             -V/T =  2.0094
 Range of M.O.s used for correlation:     1   303
 NBasis=   303 NAE=    47 NBE=    47 NFC=     0 NFV=     0
 NROrb=    303 NOA=    47 NOB=    47 NVA=   256 NVB=   256

 **** Warning!!: The largest alpha MO coefficient is  0.65710565D+02

 NEqPCM:  Using equilibrium solvation (IEInf=0, Eps=  78.3553, EpsInf=   1.7778)
          Differentiating once with respect to magnetic field using GIAOs.
          Electric field/nuclear overlap derivatives assumed to be zero.
 FoFCou: FMM=F IPFlag=           0 FMFlag=    10101102 FMFlg1=           0
         NFxFlg=    40000000 DoJE=F BraDBF=F KetDBF=T FulRan=T
         Omega=  0.000000  0.000000  1.000000  0.000000  0.000000 ICntrl=    6100 IOpCl=  0
         NMat0=    1 NMatS0=    1 NMatT0=    0 NMatD0=    1 NMtDS0=    0 NMtDT0=    0
         I1Cent=           7 NGrid=        1788.
 Symmetry not used in FoFCou.
          There are     3 degrees of freedom in the 1st order CPHF.  IDoFFX=0.
      3 vectors produced by pass  0 Test12= 4.01D-13 3.33D-08 XBig12= 3.50D+01 1.24D+00.
 AX will form     3 AO Fock derivatives at one time.
      3 vectors produced by pass  1 Test12= 4.01D-13 3.33D-08 XBig12= 8.40D-02 3.83D-02.
      3 vectors produced by pass  2 Test12= 4.01D-13 3.33D-08 XBig12= 1.60D-04 2.84D-03.
      3 vectors produced by pass  3 Test12= 4.01D-13 3.33D-08 XBig12= 7.16D-07 1.98D-04.
      3 vectors produced by pass  4 Test12= 4.01D-13 3.33D-08 XBig12= 2.10D-09 9.54D-06.
      3 vectors produced by pass  5 Test12= 4.01D-13 3.33D-08 XBig12= 7.98D-12 5.09D-07.
 Inverted reduced A of dimension    18 with in-core refinement.
 Calculating GIAO nuclear magnetic shielding tensors.
 SCF GIAO Magnetic shielding tensor (ppm):
      1  C    Isotropic =   169.6543   Anisotropy =    19.5755
   XX=   172.4577   YX=    -8.3931   ZX=    -9.6725
   XY=     2.9677   YY=   181.9469   ZY=    -1.7619
   XZ=   -11.0519   YZ=    -5.3971   ZZ=   154.5582
   Eigenvalues:   149.2279   177.0302   182.7046
      2  C    Isotropic =   130.3473   Anisotropy =    47.7589
   XX=   133.1790   YX=     2.8468   ZX=   -10.1302
   XY=     3.2216   YY=   157.3338   ZY=   -15.0707
   XZ=    -7.0419   YZ=   -15.8815   ZZ=   100.5291
   Eigenvalues:    95.0669   133.7885   162.1866
      3  N    Isotropic =   203.1473   Anisotropy =    93.4670
   XX=   250.8774   YX=    24.9372   ZX=   -23.5599
   XY=     7.0290   YY=   241.4977   ZY=    10.1769
   XZ=   -29.5135   YZ=    -2.7841   ZZ=   117.0669
   Eigenvalues:   111.6537   232.3297   265.4586
      4  C    Isotropic =   145.5649   Anisotropy =    35.8282
   XX=   153.4327   YX=    -2.5142   ZX=   -19.0500
   XY=   -11.0017   YY=   152.2135   ZY=     8.3055
   XZ=   -11.2619   YZ=    16.1152   ZZ=   131.0485
   Eigenvalues:   121.1725   146.0719   169.4504
      5  C    Isotropic =   165.5327   Anisotropy =    23.0511
   XX=   176.8956   YX=     0.4242   ZX=   -13.5360
   XY=     3.7874   YY=   178.3328   ZY=     0.1009
   XZ=    -3.9913   YZ=    -1.7864   ZZ=   141.3698
   Eigenvalues:   139.3226   176.3755   180.9001
      6  C    Isotropic =   129.2710   Anisotropy =    26.0779
   XX=   144.5149   YX=     6.7066   ZX=     6.0808
   XY=    -7.4306   YY=   126.6936   ZY=     1.1469
   XZ=     9.9140   YZ=     5.3718   ZZ=   116.6043
   Eigenvalues:   113.6675   127.4892   146.6562
      7  C    Isotropic =   117.2092   Anisotropy =    52.2759
   XX=   149.1424   YX=    -6.6377   ZX=    14.4771
   XY=    -5.5723   YY=   121.4754   ZY=    -7.2413
   XZ=     4.7037   YZ=    -5.6809   ZZ=    81.0097
   Eigenvalues:    78.9455   120.6222   152.0598
      8  C    Isotropic =   120.4513   Anisotropy =    31.9079
   XX=   119.0657   YX=     2.9570   ZX=     7.8762
   XY=    -0.8719   YY=   101.1159   ZY=    -1.0658
   XZ=    -1.5975   YZ=    -3.5614   ZZ=   141.1722
   Eigenvalues:   100.8995   118.7311   141.7232
      9  H    Isotropic =    29.7642   Anisotropy =    11.7750
   XX=    32.1856   YX=     4.6401   ZX=     0.5613
   XY=     5.9712   YY=    32.2423   ZY=     1.0656
   XZ=     0.7228   YZ=     0.7536   ZZ=    24.8648
   Eigenvalues:    24.7543    26.9241    37.6142
     10  H    Isotropic =    29.9337   Anisotropy =     7.0346
   XX=    29.8162   YX=    -1.1822   ZX=    -0.6268
   XY=    -1.7863   YY=    27.1185   ZY=    -3.6557
   XZ=    -0.9084   YZ=    -3.6060   ZZ=    32.8663
   Eigenvalues:    24.8050    30.3726    34.6234
     11  H    Isotropic =    27.8747   Anisotropy =     9.5826
   XX=    25.8962   YX=     2.2227   ZX=     1.8000
   XY=     1.8832   YY=    28.2411   ZY=     4.7826
   XZ=     2.4272   YZ=     3.8571   ZZ=    29.4866
   Eigenvalues:    24.4396    24.9214    34.2631
     12  H    Isotropic =    28.5042   Anisotropy =     9.6030
   XX=    27.6043   YX=    -2.2087   ZX=     0.1585
   XY=    -1.7457   YY=    33.9938   ZY=    -2.3659
   XZ=    -0.2860   YZ=    -1.7397   ZZ=    23.9144
   Eigenvalues:    23.4609    27.1454    34.9061
     13  H    Isotropic =    28.4161   Anisotropy =     7.5647
   XX=    28.8693   YX=     0.1517   ZX=    -1.0029
   XY=     0.4186   YY=    26.8656   ZY=     4.9729
   XZ=     0.0834   YZ=     5.2123   ZZ=    29.5134
   Eigenvalues:    22.8847    28.9044    33.4592
     14  H    Isotropic =    29.6120   Anisotropy =    11.0608
   XX=    32.4279   YX=    -1.4379   ZX=     5.0508
   XY=    -1.7102   YY=    27.4006   ZY=    -1.9235
   XZ=     5.6716   YZ=    -2.1505   ZZ=    29.0074
   Eigenvalues:    24.8378    27.0123    36.9858
     15  H    Isotropic =    29.5541   Anisotropy =    11.5071
   XX=    32.5507   YX=    -2.7948   ZX=    -5.1333
   XY=    -3.2010   YY=    27.8367   ZY=     2.0956
   XZ=    -4.8820   YZ=     1.8310   ZZ=    28.2750
   Eigenvalues:    24.9679    26.4690    37.2255
     16  H    Isotropic =    28.1390   Anisotropy =     7.3787
   XX=    28.5533   YX=     1.4722   ZX=    -2.8525
   XY=     2.4219   YY=    26.1612   ZY=    -1.6098
   XZ=    -2.6129   YZ=    -2.4412   ZZ=    29.7024
   Eigenvalues:    24.9892    26.3696    33.0581
     17  H    Isotropic =    27.0960   Anisotropy =     6.5744
   XX=    26.2406   YX=    -1.9731   ZX=     0.3184
   XY=    -2.2112   YY=    25.2309   ZY=     2.6705
   XZ=    -2.7632   YZ=     1.8135   ZZ=    29.8164
   Eigenvalues:    23.3893    26.4197    31.4789
     18  H    Isotropic =    27.8432   Anisotropy =     8.8455
   XX=    23.8481   YX=     0.5858   ZX=     0.1930
   XY=    -0.4878   YY=    31.5382   ZY=     2.7301
   XZ=     0.2107   YZ=     4.2861   ZZ=    28.1433
   Eigenvalues:    23.8359    25.9535    33.7402
     19  O    Isotropic =   304.6964   Anisotropy =    89.3155
   XX=   281.7343   YX=   -21.6370   ZX=    -4.8107
   XY=   -15.8863   YY=   351.7556   ZY=    45.3924
   XZ=    -2.1223   YZ=     5.4208   ZZ=   280.5993
   Eigenvalues:   271.5079   278.3412   364.2401
     20  H    Isotropic =    31.2511   Anisotropy =    14.6812
   XX=    25.1833   YX=    -4.1265   ZX=    -0.9531
   XY=    -4.0870   YY=    35.3771   ZY=     6.8521
   XZ=    -0.7785   YZ=     4.6752   ZZ=    33.1929
   Eigenvalues:    23.5653    29.1493    41.0386
     21  O    Isotropic =   304.4379   Anisotropy =    25.8403
   XX=   301.7436   YX=    -2.0397   ZX=   -16.1864
   XY=   -27.3211   YY=   308.5074   ZY=   -18.4616
   XZ=   -19.4487   YZ=   -12.7931   ZZ=   303.0629
   Eigenvalues:   272.0028   319.6462   321.6648
     22  H    Isotropic =    28.8373   Anisotropy =    13.5856
   XX=    28.8905   YX=    -0.8975   ZX=    -1.4383
   XY=     1.0730   YY=    20.9187   ZY=    -4.2574
   XZ=    -0.5868   YZ=    -4.2777   ZZ=    36.7026
   Eigenvalues:    19.8358    28.7817    37.8943
     23  C    Isotropic =   131.7753   Anisotropy =    62.2361
   XX=   109.2743   YX=    -5.0632   ZX=    10.6352
   XY=   -11.1023   YY=   172.1211   ZY=     0.9588
   XZ=     8.3688   YZ=    -3.9196   ZZ=   113.9306
   Eigenvalues:   101.3887   120.6713   173.2661
     24  H    Isotropic =    27.9532   Anisotropy =     3.9801
   XX=    24.7576   YX=     0.2235   ZX=     1.6194
   XY=     1.3937   YY=    30.4944   ZY=    -0.9773
   XZ=     0.7114   YZ=     0.7063   ZZ=    28.6075
   Eigenvalues:    24.3246    28.9283    30.6066
     25  H    Isotropic =    27.5694   Anisotropy =     7.0621
   XX=    29.3126   YX=    -0.2559   ZX=     2.2952
   XY=    -2.7870   YY=    31.4892   ZY=     0.9954
   XZ=     2.9741   YZ=     1.2153   ZZ=    21.9065
   Eigenvalues:    20.8462    29.5845    32.2775
     26  O    Isotropic =   304.1445   Anisotropy =    92.4169
   XX=   261.2968   YX=    23.1282   ZX=   -33.9229
   XY=    18.8607   YY=   304.9357   ZY=   -12.9384
   XZ=   -21.8868   YZ=   -28.1857   ZZ=   346.2008
   Eigenvalues:   248.8863   297.7914   365.7557
     27  H    Isotropic =    31.0546   Anisotropy =    17.5552
   XX=    26.2321   YX=     3.5443   ZX=    -5.8858
   XY=     3.5190   YY=    32.5419   ZY=    -6.9730
   XZ=    -6.9148   YZ=    -5.2210   ZZ=    34.3897
   Eigenvalues:    22.7173    27.6884    42.7580
 End of Minotr Frequency-dependent properties file   721 does not exist.
 End of Minotr Frequency-dependent properties file   722 does not exist.

 **********************************************************************

            Population analysis using the SCF density.

 **********************************************************************

 Orbital symmetries:
       Occupied  (A) (A) (A) (A) (A) (A) (A) (A) (A) (A) (A) (A)
                 (A) (A) (A) (A) (A) (A) (A) (A) (A) (A) (A) (A)
                 (A) (A) (A) (A) (A) (A) (A) (A) (A) (A) (A) (A)
                 (A) (A) (A) (A) (A) (A) (A) (A) (A) (A) (A)
       Virtual   (A) (A) (A) (A) (A) (A) (A) (A) (A) (A) (A) (A)
                 (A) (A) (A) (A) (A) (A) (A) (A) (A) (A) (A) (A)
                 (A) (A) (A) (A) (A) (A) (A) (A) (A) (A) (A) (A)
                 (A) (A) (A) (A) (A) (A) (A) (A) (A) (A) (A) (A)
                 (A) (A) (A) (A) (A) (A) (A) (A) (A) (A) (A) (A)
                 (A) (A) (A) (A) (A) (A) (A) (A) (A) (A) (A) (A)
                 (A) (A) (A) (A) (A) (A) (A) (A) (A) (A) (A) (A)
                 (A) (A) (A) (A) (A) (A) (A) (A) (A) (A) (A) (A)
                 (A) (A) (A) (A) (A) (A) (A) (A) (A) (A) (A) (A)
                 (A) (A) (A) (A) (A) (A) (A) (A) (A) (A) (A) (A)
                 (A) (A) (A) (A) (A) (A) (A) (A) (A) (A) (A) (A)
                 (A) (A) (A) (A) (A) (A) (A) (A) (A) (A) (A) (A)
                 (A) (A) (A) (A) (A) (A) (A) (A) (A) (A) (A) (A)
                 (A) (A) (A) (A) (A) (A) (A) (A) (A) (A) (A) (A)
                 (A) (A) (A) (A) (A) (A) (A) (A) (A) (A) (A) (A)
                 (A) (A) (A) (A) (A) (A) (A) (A) (A) (A) (A) (A)
                 (A) (A) (A) (A) (A) (A) (A) (A) (A) (A) (A) (A)
                 (A) (A) (A) (A) (A) (A) (A) (A) (A) (A) (A) (A)
                 (A) (A) (A) (A) (A) (A) (A) (A) (A) (A) (A) (A)
                 (A) (A) (A) (A) (A) (A) (A) (A) (A) (A) (A) (A)
                 (A) (A) (A) (A) (A) (A) (A) (A) (A) (A) (A) (A)
                 (A) (A) (A) (A)
 The electronic state is 1-A.
 Alpha  occ. eigenvalues --  -19.27211 -19.25855 -19.25648 -14.41069 -10.30840
 Alpha  occ. eigenvalues --  -10.30807 -10.29847 -10.28398 -10.28147 -10.26808
 Alpha  occ. eigenvalues --  -10.24935 -10.24630  -1.08415  -1.05819  -1.05379
 Alpha  occ. eigenvalues --   -0.96158  -0.82929  -0.79521  -0.75130  -0.71808
 Alpha  occ. eigenvalues --   -0.67937  -0.62079  -0.60567  -0.58289  -0.56024
 Alpha  occ. eigenvalues --   -0.53987  -0.51198  -0.49978  -0.48895  -0.47853
 Alpha  occ. eigenvalues --   -0.46943  -0.45354  -0.42980  -0.41484  -0.41081
 Alpha  occ. eigenvalues --   -0.39800  -0.39376  -0.37140  -0.36884  -0.35774
 Alpha  occ. eigenvalues --   -0.35413  -0.34761  -0.34028  -0.32107  -0.30665
 Alpha  occ. eigenvalues --   -0.28345  -0.22146
 Alpha virt. eigenvalues --   -0.00024   0.01426   0.01647   0.02169   0.03844
 Alpha virt. eigenvalues --    0.04450   0.04608   0.04915   0.05309   0.07540
 Alpha virt. eigenvalues --    0.07708   0.08179   0.08816   0.09077   0.09307
 Alpha virt. eigenvalues --    0.10673   0.11150   0.11846   0.12240   0.12737
 Alpha virt. eigenvalues --    0.13087   0.13441   0.13839   0.14688   0.15432
 Alpha virt. eigenvalues --    0.15607   0.16715   0.17027   0.17200   0.18384
 Alpha virt. eigenvalues --    0.18581   0.19225   0.19805   0.20213   0.20858
 Alpha virt. eigenvalues --    0.21638   0.21890   0.22230   0.22708   0.23242
 Alpha virt. eigenvalues --    0.23501   0.24011   0.24470   0.25829   0.26502
 Alpha virt. eigenvalues --    0.26702   0.27338   0.27937   0.28105   0.28623
 Alpha virt. eigenvalues --    0.28990   0.29757   0.30241   0.31598   0.31924
 Alpha virt. eigenvalues --    0.33175   0.33348   0.33855   0.34099   0.34641
 Alpha virt. eigenvalues --    0.35061   0.35713   0.36485   0.37047   0.38234
 Alpha virt. eigenvalues --    0.38483   0.38702   0.39849   0.40320   0.41605
 Alpha virt. eigenvalues --    0.43389   0.44326   0.44839   0.45428   0.47103
 Alpha virt. eigenvalues --    0.48408   0.63463   0.65102   0.67835   0.68715
 Alpha virt. eigenvalues --    0.69100   0.70311   0.71818   0.73387   0.74599
 Alpha virt. eigenvalues --    0.75457   0.76082   0.76589   0.78304   0.80882
 Alpha virt. eigenvalues --    0.82858   0.83708   0.85624   0.87502   0.88841
 Alpha virt. eigenvalues --    0.89974   0.92600   0.93189   0.94888   0.97824
 Alpha virt. eigenvalues --    0.98518   0.99294   1.01277   1.02874   1.04503
 Alpha virt. eigenvalues --    1.05889   1.06909   1.07513   1.08018   1.09402
 Alpha virt. eigenvalues --    1.10927   1.13568   1.14494   1.14729   1.15916
 Alpha virt. eigenvalues --    1.17370   1.17837   1.22386   1.24092   1.26680
 Alpha virt. eigenvalues --    1.28352   1.28704   1.29392   1.30567   1.32547
 Alpha virt. eigenvalues --    1.33573   1.36270   1.36952   1.39342   1.41988
 Alpha virt. eigenvalues --    1.44270   1.45269   1.47446   1.48967   1.50837
 Alpha virt. eigenvalues --    1.52128   1.54176   1.55842   1.60323   1.60873
 Alpha virt. eigenvalues --    1.62365   1.63466   1.64783   1.67101   1.71131
 Alpha virt. eigenvalues --    1.72548   1.73017   1.74597   1.77399   1.78995
 Alpha virt. eigenvalues --    1.80323   1.82962   1.83585   1.84594   1.86784
 Alpha virt. eigenvalues --    1.87441   1.89062   1.91351   1.92647   1.94346
 Alpha virt. eigenvalues --    1.97329   1.98763   2.00737   2.02530   2.04540
 Alpha virt. eigenvalues --    2.05672   2.06973   2.08123   2.09680   2.10799
 Alpha virt. eigenvalues --    2.12838   2.13357   2.16868   2.18634   2.20246
 Alpha virt. eigenvalues --    2.22044   2.22892   2.24504   2.28318   2.29797
 Alpha virt. eigenvalues --    2.30272   2.33469   2.34515   2.35890   2.38881
 Alpha virt. eigenvalues --    2.41999   2.42332   2.44320   2.46605   2.47791
 Alpha virt. eigenvalues --    2.50021   2.50828   2.51418   2.52955   2.54986
 Alpha virt. eigenvalues --    2.55365   2.58094   2.59896   2.61725   2.63139
 Alpha virt. eigenvalues --    2.65145   2.66333   2.67056   2.68055   2.68570
 Alpha virt. eigenvalues --    2.69147   2.71273   2.73009   2.75486   2.77229
 Alpha virt. eigenvalues --    2.78315   2.78819   2.82461   2.83784   2.85462
 Alpha virt. eigenvalues --    2.87628   2.88696   2.90022   2.90997   2.94331
 Alpha virt. eigenvalues --    2.96467   2.98203   3.00798   3.02346   3.03066
 Alpha virt. eigenvalues --    3.08123   3.09619   3.12561   3.16721   3.32469
 Alpha virt. eigenvalues --    3.35197   3.36300   3.37197   3.44212   3.45453
 Alpha virt. eigenvalues --    3.47319   3.49717   3.51323   3.52207   3.56160
 Alpha virt. eigenvalues --    3.57998   3.59501   3.60900   3.62151   4.27514
 Alpha virt. eigenvalues --    4.31774   4.37444   4.45033   4.49967   4.54232
 Alpha virt. eigenvalues --    4.56038   4.66956   4.78251   4.80219   4.91809
 Alpha virt. eigenvalues --    4.97996
          Condensed to atoms (all electrons):
              1          2          3          4          5          6
     1  C    5.857855  -0.581941   0.163656  -0.154360   0.088413  -0.148322
     2  C   -0.581941   9.474503  -0.696097  -0.310706   0.232141  -0.141574
     3  N    0.163656  -0.696097   7.571525   0.294859  -0.252124  -0.165316
     4  C   -0.154360  -0.310706   0.294859   5.826114  -0.230871  -0.258216
     5  C    0.088413   0.232141  -0.252124  -0.230871   6.008175   0.340355
     6  C   -0.148322  -0.141574  -0.165316  -0.258216   0.340355   8.164909
     7  C   -0.040275   0.949363  -0.339032   0.014452  -0.163871  -1.072310
     8  C    0.255485  -2.185794   0.376237   0.175861  -0.135777  -0.140315
     9  H    0.392607  -0.087026   0.015063   0.028660  -0.029705   0.003129
    10  H    0.469502  -0.152758   0.030697   0.033342  -0.081531  -0.005827
    11  H    0.063357   0.100949   0.008508   0.032547  -0.036838   0.016526
    12  H    0.032970  -0.008143  -0.045937   0.401208  -0.039349  -0.015989
    13  H   -0.007011   0.046852  -0.087625   0.388071  -0.014457   0.009511
    14  H   -0.025045  -0.038236   0.017239  -0.032015   0.396359   0.000204
    15  H   -0.063020   0.046539   0.002759  -0.026535   0.383850  -0.003352
    16  H    0.009796  -0.058520  -0.026216   0.008773  -0.010840   0.284754
    17  H    0.003230  -0.044717   0.016502  -0.002226   0.005804   0.010524
    18  H    0.008258  -0.079538   0.014799   0.001541  -0.002294   0.045423
    19  O    0.015080  -0.083064   0.022641   0.005862  -0.009494   0.191846
    20  H    0.007451  -0.091868   0.012294   0.015063  -0.014381   0.058711
    21  O    0.003244   0.041075   0.005784  -0.009812   0.000853  -0.231823
    22  H    0.000307   0.008471   0.000721  -0.000396   0.001724  -0.005206
    23  C    0.108373  -0.443779   0.255405   0.031847  -0.103563  -0.510193
    24  H   -0.001055  -0.015444  -0.006048  -0.005781  -0.002452  -0.036992
    25  H    0.001292   0.014706   0.012341  -0.005493   0.000111  -0.118480
    26  O   -0.010092   0.080516  -0.034022  -0.022996   0.019859  -0.079391
    27  H    0.000673  -0.008513  -0.006832  -0.012003  -0.003189  -0.014262
              7          8          9         10         11         12
     1  C   -0.040275   0.255485   0.392607   0.469502   0.063357   0.032970
     2  C    0.949363  -2.185794  -0.087026  -0.152758   0.100949  -0.008143
     3  N   -0.339032   0.376237   0.015063   0.030697   0.008508  -0.045937
     4  C    0.014452   0.175861   0.028660   0.033342   0.032547   0.401208
     5  C   -0.163871  -0.135777  -0.029705  -0.081531  -0.036838  -0.039349
     6  C   -1.072310  -0.140315   0.003129  -0.005827   0.016526  -0.015989
     7  C    7.110609  -0.703068  -0.005002  -0.003816  -0.058119  -0.001178
     8  C   -0.703068   7.365486   0.024355   0.019789   0.120306   0.002401
     9  H   -0.005002   0.024355   0.508697  -0.023582  -0.003928  -0.000092
    10  H   -0.003816   0.019789  -0.023582   0.532527   0.004033  -0.000066
    11  H   -0.058119   0.120306  -0.003928   0.004033   0.563570   0.000200
    12  H   -0.001178   0.002401  -0.000092  -0.000066   0.000200   0.548956
    13  H    0.006045  -0.013873  -0.000180   0.000695  -0.000618  -0.043956
    14  H   -0.001868   0.011307  -0.004815   0.004058   0.000641  -0.006150
    15  H    0.002890  -0.001331   0.000358  -0.005294  -0.000121   0.000529
    16  H   -0.015208   0.067450   0.000004   0.000007   0.000748   0.001356
    17  H    0.321894   0.005858   0.000004  -0.000009   0.000405   0.000002
    18  H   -0.059692   0.418503   0.000298   0.000025  -0.002637   0.000004
    19  O   -0.254606   0.246436  -0.000334   0.009460   0.006588   0.000111
    20  H   -0.048848   0.078874   0.000061   0.001983   0.000088   0.000006
    21  O    0.434086  -0.130733   0.000017  -0.000068  -0.000490   0.000026
    22  H    0.018419  -0.063089   0.000000  -0.000003  -0.000015   0.000000
    23  C   -0.098617   0.266587   0.001561   0.000731   0.012700   0.012130
    24  H    0.030096   0.018114   0.000002  -0.000084  -0.000023   0.000198
    25  H    0.021933  -0.013404   0.000000   0.000003   0.000010  -0.000012
    26  O    0.071698  -0.060634  -0.000007  -0.000012  -0.000100  -0.001462
    27  H    0.020204   0.004799   0.000000   0.000000   0.000001   0.000294
             13         14         15         16         17         18
     1  C   -0.007011  -0.025045  -0.063020   0.009796   0.003230   0.008258
     2  C    0.046852  -0.038236   0.046539  -0.058520  -0.044717  -0.079538
     3  N   -0.087625   0.017239   0.002759  -0.026216   0.016502   0.014799
     4  C    0.388071  -0.032015  -0.026535   0.008773  -0.002226   0.001541
     5  C   -0.014457   0.396359   0.383850  -0.010840   0.005804  -0.002294
     6  C    0.009511   0.000204  -0.003352   0.284754   0.010524   0.045423
     7  C    0.006045  -0.001868   0.002890  -0.015208   0.321894  -0.059692
     8  C   -0.013873   0.011307  -0.001331   0.067450   0.005858   0.418503
     9  H   -0.000180  -0.004815   0.000358   0.000004   0.000004   0.000298
    10  H    0.000695   0.004058  -0.005294   0.000007  -0.000009   0.000025
    11  H   -0.000618   0.000641  -0.000121   0.000748   0.000405  -0.002637
    12  H   -0.043956  -0.006150   0.000529   0.001356   0.000002   0.000004
    13  H    0.583978   0.003950  -0.004106  -0.000841  -0.000016  -0.000021
    14  H    0.003950   0.518489  -0.024464   0.000007  -0.000001   0.000000
    15  H   -0.004106  -0.024464   0.515816   0.000001   0.000000   0.000001
    16  H   -0.000841   0.000007   0.000001   0.581040  -0.008860  -0.000112
    17  H   -0.000016  -0.000001   0.000000  -0.008860   0.530157  -0.004322
    18  H   -0.000021   0.000000   0.000001  -0.000112  -0.004322   0.527427
    19  O   -0.001851   0.000106   0.000073  -0.000373   0.010583  -0.051502
    20  H   -0.000468   0.000000   0.000021  -0.000034  -0.000308   0.005864
    21  O    0.000078  -0.000005  -0.000007   0.004713  -0.057282  -0.001113
    22  H   -0.000002   0.000000   0.000000  -0.000167   0.006221  -0.000175
    23  C   -0.019777   0.000740  -0.001274   0.010180   0.018121   0.000413
    24  H   -0.000171  -0.000002   0.000007   0.004528  -0.000247  -0.000031
    25  H   -0.000044   0.000000   0.000000  -0.001904  -0.000082   0.000000
    26  O   -0.000856  -0.000047  -0.000017  -0.014677  -0.000558  -0.000005
    27  H   -0.000082   0.000000   0.000000   0.006782  -0.000015   0.000000
             19         20         21         22         23         24
     1  C    0.015080   0.007451   0.003244   0.000307   0.108373  -0.001055
     2  C   -0.083064  -0.091868   0.041075   0.008471  -0.443779  -0.015444
     3  N    0.022641   0.012294   0.005784   0.000721   0.255405  -0.006048
     4  C    0.005862   0.015063  -0.009812  -0.000396   0.031847  -0.005781
     5  C   -0.009494  -0.014381   0.000853   0.001724  -0.103563  -0.002452
     6  C    0.191846   0.058711  -0.231823  -0.005206  -0.510193  -0.036992
     7  C   -0.254606  -0.048848   0.434086   0.018419  -0.098617   0.030096
     8  C    0.246436   0.078874  -0.130733  -0.063089   0.266587   0.018114
     9  H   -0.000334   0.000061   0.000017   0.000000   0.001561   0.000002
    10  H    0.009460   0.001983  -0.000068  -0.000003   0.000731  -0.000084
    11  H    0.006588   0.000088  -0.000490  -0.000015   0.012700  -0.000023
    12  H    0.000111   0.000006   0.000026   0.000000   0.012130   0.000198
    13  H   -0.001851  -0.000468   0.000078  -0.000002  -0.019777  -0.000171
    14  H    0.000106   0.000000  -0.000005   0.000000   0.000740  -0.000002
    15  H    0.000073   0.000021  -0.000007   0.000000  -0.001274   0.000007
    16  H   -0.000373  -0.000034   0.004713  -0.000167   0.010180   0.004528
    17  H    0.010583  -0.000308  -0.057282   0.006221   0.018121  -0.000247
    18  H   -0.051502   0.005864  -0.001113  -0.000175   0.000413  -0.000031
    19  O    8.255901   0.245138  -0.029001   0.036492  -0.024727  -0.000701
    20  H    0.245138   0.355099  -0.001981  -0.003594  -0.013140  -0.000296
    21  O   -0.029001  -0.001981   8.200955   0.245710   0.036138  -0.006891
    22  H    0.036492  -0.003594   0.245710   0.357408   0.010209  -0.000522
    23  C   -0.024727  -0.013140   0.036138   0.010209   5.577193   0.398901
    24  H   -0.000701  -0.000296  -0.006891  -0.000522   0.398901   0.554477
    25  H   -0.002064   0.000136   0.004797  -0.001147   0.440109  -0.033777
    26  O   -0.001473  -0.000243  -0.003807   0.000311   0.155699  -0.058746
    27  H    0.000029  -0.000001  -0.000233  -0.000005   0.016322   0.006523
             25         26         27
     1  C    0.001292  -0.010092   0.000673
     2  C    0.014706   0.080516  -0.008513
     3  N    0.012341  -0.034022  -0.006832
     4  C   -0.005493  -0.022996  -0.012003
     5  C    0.000111   0.019859  -0.003189
     6  C   -0.118480  -0.079391  -0.014262
     7  C    0.021933   0.071698   0.020204
     8  C   -0.013404  -0.060634   0.004799
     9  H    0.000000  -0.000007   0.000000
    10  H    0.000003  -0.000012   0.000000
    11  H    0.000010  -0.000100   0.000001
    12  H   -0.000012  -0.001462   0.000294
    13  H   -0.000044  -0.000856  -0.000082
    14  H    0.000000  -0.000047   0.000000
    15  H    0.000000  -0.000017   0.000000
    16  H   -0.001904  -0.014677   0.006782
    17  H   -0.000082  -0.000558  -0.000015
    18  H    0.000000  -0.000005   0.000000
    19  O   -0.002064  -0.001473   0.000029
    20  H    0.000136  -0.000243  -0.000001
    21  O    0.004797  -0.003807  -0.000233
    22  H   -0.001147   0.000311  -0.000005
    23  C    0.440109   0.155699   0.016322
    24  H   -0.033777  -0.058746   0.006523
    25  H    0.545494  -0.041287  -0.006749
    26  O   -0.041287   8.300921   0.247448
    27  H   -0.006749   0.247448   0.376650
 Mulliken atomic charges:
              1
     1  C   -0.450430
     2  C    0.032602
     3  N   -0.161780
     4  C   -0.186791
     5  C   -0.346908
     6  C   -0.178324
     7  C   -0.136179
     8  C   -0.009829
     9  H    0.179855
    10  H    0.166199
    11  H    0.171710
    12  H    0.161941
    13  H    0.156776
    14  H    0.179550
    15  H    0.176678
    16  H    0.157614
    17  H    0.189337
    18  H    0.178887
    19  O   -0.587154
    20  H    0.394374
    21  O   -0.504231
    22  H    0.388328
    23  C   -0.138291
    24  H    0.156419
    25  H    0.183509
    26  O   -0.546019
    27  H    0.372158
 Sum of Mulliken atomic charges =   0.00000
 Mulliken charges with hydrogens summed into heavy atoms:
              1
     1  C   -0.104376
     2  C    0.204312
     3  N   -0.161780
     4  C    0.131925
     5  C    0.009319
     6  C   -0.020711
     7  C    0.053158
     8  C    0.169058
    19  O   -0.192779
    21  O   -0.115903
    23  C    0.201637
    26  O   -0.173862
 Sum of Mulliken charges with hydrogens summed into heavy atoms =   0.00000
 Electronic spatial extent (au):  <R**2>=           1964.7485
 Charge=              0.0000 electrons
 Dipole moment (field-independent basis, Debye):
    X=             -1.9658    Y=             -0.0048    Z=             -0.4258  Tot=              2.0114
 Quadrupole moment (field-independent basis, Debye-Ang):
   XX=            -75.7660   YY=            -79.9215   ZZ=            -71.6336
   XY=              5.6030   XZ=             -1.5912   YZ=             -1.0060
 Traceless Quadrupole moment (field-independent basis, Debye-Ang):
   XX=              0.0077   YY=             -4.1478   ZZ=              4.1401
   XY=              5.6030   XZ=             -1.5912   YZ=             -1.0060
 Octapole moment (field-independent basis, Debye-Ang**2):
  XXX=            -18.1432  YYY=             -4.8688  ZZZ=              9.0683  XYY=              0.3266
  XXY=             15.6009  XXZ=              6.7150  XZZ=              9.2930  YZZ=             -0.0820
  YYZ=            -28.5351  XYZ=            -12.0614
 Hexadecapole moment (field-independent basis, Debye-Ang**3):
 XXXX=          -1331.6269 YYYY=           -991.8063 ZZZZ=           -286.6317 XXXY=             49.3652
 XXXZ=             25.8612 YYYX=             20.7195 YYYZ=            -43.2396 ZZZX=             -6.9379
 ZZZY=              5.7889 XXYY=           -366.8605 XXZZ=           -248.7153 YYZZ=           -223.9628
 XXYZ=            -22.1707 YYXZ=            -22.2621 ZZXY=             -1.5824
 N-N= 8.131663956667D+02 E-N=-3.011733432653D+03  KE= 5.886400293032D+02
 1\1\GINC-COMPUTE-3-1\SP\RmPW1PW91\6-31+G(d,p)\C8H15N1O3\MAMICHETTI.IQU
 IR\17-May-2024\0\\# mpw1pw91/6-31+G** nmr scrf=(pcm,solvent=water)\\co
 mment\\0,1\C,0,-2.295962,-0.903723,0.275945\C,0,-1.041655,-0.949117,-0
 .608598\N,0,-0.619157,0.477968,-0.800531\C,0,-1.50598,1.340184,0.00235
 \C,0,-2.805043,0.534022,0.081527\C,0,0.853653,0.598136,-0.690741\C,0,1
 .339736,-0.888346,-0.75098\C,0,0.19701,-1.702422,-0.112841\H,0,-3.0281
 36,-1.666747,-0.004287\H,0,-2.032879,-1.066312,1.3273\H,0,-1.295769,-1
 .381059,-1.58701\H,0,-1.645257,2.317334,-0.474881\H,0,-1.129078,1.5250
 96,1.018799\H,0,-3.362339,0.618107,-0.859215\H,0,-3.456689,0.872524,0.
 893176\H,0,1.245331,1.124237,-1.576025\H,0,1.429,-1.177632,-1.802938\H
 ,0,0.209959,-2.741341,-0.450733\O,0,0.373674,-1.782821,1.310581\H,0,0.
 115502,-0.940956,1.722337\O,0,2.596424,-1.155183,-0.145466\H,0,2.39096
 6,-1.312407,0.796598\C,0,1.414753,1.374255,0.50829\H,0,0.990201,1.0406
 62,1.459959\H,0,2.49693,1.198769,0.549548\O,0,1.146116,2.779609,0.4303
 82\H,0,1.537562,3.093183,-0.402606\\Version=AM64L-G09RevC.01\State=1-A
 \HF=-594.1871067\RMSD=3.547e-09\Dipole=-0.7734126,-0.0019029,-0.167520
 3\Quadrupole=0.0057172,-3.0837827,3.0780654,4.1656954,-1.1830284,-0.74
 7941\PG=C01 [X(C8H15N1O3)]\\@


 ASKING FOR EFFICIENCY AND ADAPTABILITY IN THE SAME PROGRAM IS LIKE
 ASKING FOR A BEAUTIFUL AND MODEST WIFE ...
 WE'LL PROBABLY HAVE TO SETTLE FOR ONE OR THE OTHER.

             -- THE PSYCHOLOGY OF COMPUTER PROGRAMMING
                GERALD M. WEINBERG
 Job cpu time:  0 days  0 hours  9 minutes  8.0 seconds.
 File lengths (MBytes):  RWF=    110 Int=      0 D2E=      0 Chk=      7 Scr=      1
 Normal termination of Gaussian 09 at Fri May 17 13:10:32 2024.
