 Entering Gaussian System, Link 0=g09
 Input=/home/mamichetti.iquir/Linux/04_Cardona_A1A3_R__S_R_S_006_OptB.gjc
 Output=/home/mamichetti.iquir/Linux/04_Cardona_A1A3_R__S_R_S_006_OptB.log
 Initial command:
 /opt/ohpc/pub/apps/software/Gaussian/09/AMD64.SSE4a-enabled/g09/l1.exe /local/mamichetti.iquir/Gau-409099.inp -scrdir=/local/mamichetti.iquir/
 Entering Link 1 = /opt/ohpc/pub/apps/software/Gaussian/09/AMD64.SSE4a-enabled/g09/l1.exe PID=    409100.
  
 Copyright (c) 1988,1990,1992,1993,1995,1998,2003,2009,2011,
            Gaussian, Inc.  All Rights Reserved.
  
 This is part of the Gaussian(R) 09 program.  It is based on
 the Gaussian(R) 03 system (copyright 2003, Gaussian, Inc.),
 the Gaussian(R) 98 system (copyright 1998, Gaussian, Inc.),
 the Gaussian(R) 94 system (copyright 1995, Gaussian, Inc.),
 the Gaussian 92(TM) system (copyright 1992, Gaussian, Inc.),
 the Gaussian 90(TM) system (copyright 1990, Gaussian, Inc.),
 the Gaussian 88(TM) system (copyright 1988, Gaussian, Inc.),
 the Gaussian 86(TM) system (copyright 1986, Carnegie Mellon
 University), and the Gaussian 82(TM) system (copyright 1983,
 Carnegie Mellon University). Gaussian is a federally registered
 trademark of Gaussian, Inc.
  
 This software contains proprietary and confidential information,
 including trade secrets, belonging to Gaussian, Inc.
  
 This software is provided under written license and may be
 used, copied, transmitted, or stored only in accord with that
 written license.
  
 The following legend is applicable only to US Government
 contracts under FAR:
  
                    RESTRICTED RIGHTS LEGEND
  
 Use, reproduction and disclosure by the US Government is
 subject to restrictions as set forth in subparagraphs (a)
 and (c) of the Commercial Computer Software - Restricted
 Rights clause in FAR 52.227-19.
  
 Gaussian, Inc.
 340 Quinnipiac St., Bldg. 40, Wallingford CT 06492
  
  
 ---------------------------------------------------------------
 Warning -- This program may not be used in any manner that
 competes with the business of Gaussian, Inc. or will provide
 assistance to any competitor of Gaussian, Inc.  The licensee
 of this program is prohibited from giving any competitor of
 Gaussian, Inc. access to this program.  By using this program,
 the user acknowledges that Gaussian, Inc. is engaged in the
 business of creating and licensing software in the field of
 computational chemistry and represents and warrants to the
 licensee that it is not a competitor of Gaussian, Inc. and that
 it will not use this program in any manner prohibited above.
 ---------------------------------------------------------------
  

 Cite this work as:
 Gaussian 09, Revision C.01,
 M. J. Frisch, G. W. Trucks, H. B. Schlegel, G. E. Scuseria, 
 M. A. Robb, J. R. Cheeseman, G. Scalmani, V. Barone, B. Mennucci, 
 G. A. Petersson, H. Nakatsuji, M. Caricato, X. Li, H. P. Hratchian, 
 A. F. Izmaylov, J. Bloino, G. Zheng, J. L. Sonnenberg, M. Hada, 
 M. Ehara, K. Toyota, R. Fukuda, J. Hasegawa, M. Ishida, T. Nakajima, 
 Y. Honda, O. Kitao, H. Nakai, T. Vreven, J. A. Montgomery, Jr., 
 J. E. Peralta, F. Ogliaro, M. Bearpark, J. J. Heyd, E. Brothers, 
 K. N. Kudin, V. N. Staroverov, T. Keith, R. Kobayashi, J. Normand, 
 K. Raghavachari, A. Rendell, J. C. Burant, S. S. Iyengar, J. Tomasi, 
 M. Cossi, N. Rega, J. M. Millam, M. Klene, J. E. Knox, J. B. Cross, 
 V. Bakken, C. Adamo, J. Jaramillo, R. Gomperts, R. E. Stratmann, 
 O. Yazyev, A. J. Austin, R. Cammi, C. Pomelli, J. W. Ochterski, 
 R. L. Martin, K. Morokuma, V. G. Zakrzewski, G. A. Voth, 
 P. Salvador, J. J. Dannenberg, S. Dapprich, A. D. Daniels, 
 O. Farkas, J. B. Foresman, J. V. Ortiz, J. Cioslowski, 
 and D. J. Fox, Gaussian, Inc., Wallingford CT, 2010.
 
 ******************************************
 Gaussian 09:  AM64L-G09RevC.01 23-Sep-2011
                17-May-2024 
 ******************************************
 %nprocshared=4
 Will use up to    4 processors via shared memory.
 ------------------------------------------------
 # mpw1pw91/6-31+G** nmr scrf=(pcm,solvent=water)
 ------------------------------------------------
 1/38=1/1;
 2/12=2,17=6,18=5,40=1/2;
 3/5=1,6=6,7=111,11=2,16=1,25=1,30=1,70=2201,72=1,74=-7/1,2,8,3;
 4//1;
 5/5=2,38=5,53=1/2;
 8/6=1,10=90,11=11/1;
 10/13=100,45=16/2;
 6/7=2,8=2,9=2,10=2,28=1/1;
 99/9=1/99;
 -------
 comment
 -------
 Charge =  0 Multiplicity = 1
 Symbolic Z-Matrix:
 6                    -2.47611  -0.6598    0.27122 
 6                    -1.24488  -0.73346  -0.64409 
 7                    -0.74432   0.67236  -0.77905 
 6                    -1.53628   1.53601   0.11865 
 6                    -2.88708   0.82075   0.19637 
 6                     0.73316   0.69755  -0.70425 
 6                     1.13348  -0.80943  -0.80713 
 6                    -0.04563  -1.57031  -0.18221 
 1                    -3.26958  -1.34548  -0.04025 
 1                    -2.19414  -0.911     1.29937 
 1                    -1.53367  -1.10912  -1.63639 
 1                    -1.619     2.55325  -0.28289 
 1                    -1.11238   1.61779   1.13031 
 1                    -3.47414   1.013    -0.70957 
 1                    -3.47956   1.14499   1.05764 
 1                     1.14386   1.22933  -1.57434 
 1                     1.21597  -1.08621  -1.86203 
 1                    -0.09969  -2.60629  -0.53167 
 8                     0.17622  -1.55229   1.23697 
 1                    -0.32819  -2.28361   1.62831 
 8                     2.37884  -1.14888  -0.19033 
 1                     2.14459  -1.38658   0.72918 
 6                     1.34598   1.39881   0.52252 
 1                     0.96291   2.42036   0.60223 
 1                     1.09361   0.87214   1.45227 
 8                     2.76515   1.51322   0.37194 
 1                     3.06202   0.59385   0.21599 
 
                          Input orientation:                          
 ---------------------------------------------------------------------
 Center     Atomic      Atomic             Coordinates (Angstroms)
 Number     Number       Type             X           Y           Z
 ---------------------------------------------------------------------
      1          6           0       -2.476114   -0.659802    0.271220
      2          6           0       -1.244877   -0.733462   -0.644085
      3          7           0       -0.744315    0.672357   -0.779048
      4          6           0       -1.536281    1.536012    0.118648
      5          6           0       -2.887077    0.820751    0.196373
      6          6           0        0.733159    0.697547   -0.704245
      7          6           0        1.133484   -0.809431   -0.807134
      8          6           0       -0.045625   -1.570312   -0.182211
      9          1           0       -3.269581   -1.345477   -0.040254
     10          1           0       -2.194138   -0.911000    1.299368
     11          1           0       -1.533667   -1.109119   -1.636388
     12          1           0       -1.618999    2.553252   -0.282888
     13          1           0       -1.112379    1.617791    1.130314
     14          1           0       -3.474138    1.012995   -0.709574
     15          1           0       -3.479557    1.144988    1.057639
     16          1           0        1.143859    1.229334   -1.574335
     17          1           0        1.215968   -1.086205   -1.862025
     18          1           0       -0.099686   -2.606294   -0.531665
     19          8           0        0.176221   -1.552293    1.236967
     20          1           0       -0.328189   -2.283609    1.628312
     21          8           0        2.378843   -1.148880   -0.190331
     22          1           0        2.144588   -1.386578    0.729176
     23          6           0        1.345975    1.398810    0.522522
     24          1           0        0.962908    2.420357    0.602227
     25          1           0        1.093606    0.872141    1.452266
     26          8           0        2.765153    1.513224    0.371944
     27          1           0        3.062020    0.593848    0.215989
 ---------------------------------------------------------------------
                    Distance matrix (angstroms):
                    1          2          3          4          5
     1  C    0.000000
     2  C    1.535954   0.000000
     3  N    2.424219   1.498367   0.000000
     4  C    2.393358   2.411885   1.476133   0.000000
     5  C    1.538353   2.412212   2.359003   1.530454   0.000000
     6  C    3.618475   2.442137   1.479581   2.555491   3.732613
     7  C    3.770203   2.385154   2.392198   3.672304   4.453025
     8  C    2.634749   1.533575   2.423623   3.458586   3.732875
     9  H    1.093963   2.199682   3.315786   3.366386   2.212430
    10  H    1.095308   2.170167   2.988113   2.795486   2.166962
    11  H    2.174640   1.099629   2.128794   3.174410   2.985821
    12  H    3.371261   3.327600   2.132841   1.096745   2.199835
    13  H    2.790205   2.948633   2.162170   1.099931   2.158025
    14  H    2.180885   2.832668   2.751871   2.171356   1.096512
    15  H    2.209665   3.379088   3.328415   2.193382   1.094505
    16  H    4.480972   3.228621   2.123183   3.184869   4.421628
    17  H    4.285327   2.768314   2.847471   4.286486   4.970761
    18  H    3.175038   2.198090   3.350567   4.432314   4.477078
    19  O    2.960420   2.495668   3.140186   3.704177   4.012227
    20  H    3.015299   2.899493   3.834877   4.281130   4.270294
    21  O    4.901309   3.675570   3.663005   4.757343   5.635504
    22  H    4.699874   3.714953   3.854830   4.739522   5.520311
    23  C    4.348494   3.552474   2.567320   2.913647   4.284770
    24  H    4.628587   4.046503   2.806784   2.694784   4.188776
    25  H    4.060126   3.527202   2.897694   3.022510   4.174416
    26  O    5.674775   4.707468   3.787903   4.308946   5.697197
    27  H    5.678522   4.588120   3.935028   4.694840   5.953455
                    6          7          8          9         10
     6  C    0.000000
     7  C    1.562635   0.000000
     8  C    2.454019   1.536153   0.000000
     9  H    4.542770   4.501381   3.234903   0.000000
    10  H    3.894991   3.939636   2.691817   1.771986   0.000000
    11  H    3.044903   2.809123   2.131103   2.370001   3.015649
    12  H    3.025530   4.377058   4.414683   4.240682   3.851670
    13  H    2.760157   3.832625   3.608973   3.847689   2.755643
    14  H    4.219109   4.955899   4.325077   2.460127   3.062026
    15  H    4.588182   5.345772   4.549942   2.729812   2.436765
    16  H    1.099331   2.178364   3.345280   5.334933   4.897083
    17  H    2.180672   1.093710   2.155864   4.848322   4.653378
    18  H    3.411566   2.196658   1.094669   3.446647   3.257826
    19  O    3.023287   2.376246   1.436526   3.680709   2.456370
    20  H    3.931230   3.200170   1.966374   3.509415   2.339663
    21  O    2.526198   1.430591   2.460836   5.653837   4.815386
    22  H    2.896620   1.927609   2.379373   5.468724   4.401799
    23  C    1.540218   2.586400   3.353936   5.399184   4.297803
    24  H    2.174334   3.528020   4.190217   5.701601   4.642293
    25  H    2.193387   2.816765   3.151974   5.116918   3.743291
    26  O    2.439777   3.073645   4.209009   6.690298   5.597459
    27  H    2.506228   2.595231   3.807835   6.626901   5.573641
                   11         12         13         14         15
    11  H    0.000000
    12  H    3.905407   0.000000
    13  H    3.907450   1.768867   0.000000
    14  H    3.021222   2.448672   3.054320   0.000000
    15  H    4.015628   2.691077   2.415027   1.772144   0.000000
    16  H    3.555469   3.324752   3.543534   4.703245   5.320750
    17  H    2.758973   4.876101   4.656918   5.266107   5.962434
    18  H    2.349095   5.384340   4.650873   4.951548   5.293537
    19  O    3.372875   4.731625   3.423638   4.867735   4.546669
    20  H    3.672992   5.358554   4.010471   5.121553   4.691702
    21  O    4.171378   5.449504   4.646203   6.261047   6.414056
    22  H    4.382058   5.541762   4.449155   6.276785   6.176384
    23  C    4.386677   3.282148   2.541824   4.990030   4.861742
    24  H    4.868417   2.732642   2.286877   4.836204   4.644293
    25  H    4.513063   3.632509   2.350748   5.055460   4.598260
    26  O    5.421248   4.553158   3.952381   6.352060   6.293026
    27  H    5.239440   5.099027   4.394321   6.614659   6.618486
                   16         17         18         19         20
    16  H    0.000000
    17  H    2.334456   0.000000
    18  H    4.164806   2.410700   0.000000
    19  O    4.071510   3.301827   2.077282   0.000000
    20  H    4.976409   4.000081   2.195869   0.970775   0.000000
    21  O    3.016049   2.037343   2.895457   2.655460   3.452983
    22  H    3.626378   2.768913   2.848542   2.039554   2.779881
    23  C    2.113382   3.446486   4.386582   3.253885   4.193543
    24  H    2.487710   4.293315   5.261372   4.099234   4.984684
    25  H    3.048020   3.851573   4.178449   2.601121   3.465725
    26  O    2.548959   3.761333   5.098455   4.104659   5.056003
    27  H    2.699712   3.247865   4.560294   3.738469   4.665612
                   21         22         23         24         25
    21  O    0.000000
    22  H    0.978197   0.000000
    23  C    2.840018   2.904974   0.000000
    24  H    3.920775   3.988137   1.093916   0.000000
    25  H    2.904218   2.594077   1.097950   1.771051   0.000000
    26  O    2.748124   2.986899   1.431723   2.030765   2.090969
    27  H    1.915445   2.242126   1.920088   2.809197   2.341043
                   26         27
    26  O    0.000000
    27  H    0.978624   0.000000
 Stoichiometry    C8H15NO3
 Framework group  C1[X(C8H15NO3)]
 Deg. of freedom    75
 Full point group                 C1      NOp   1
 Largest Abelian subgroup         C1      NOp   1
 Largest concise Abelian subgroup C1      NOp   1
                         Standard orientation:                         
 ---------------------------------------------------------------------
 Center     Atomic      Atomic             Coordinates (Angstroms)
 Number     Number       Type             X           Y           Z
 ---------------------------------------------------------------------
      1          6           0       -2.476114   -0.659802    0.271220
      2          6           0       -1.244877   -0.733462   -0.644085
      3          7           0       -0.744315    0.672357   -0.779048
      4          6           0       -1.536281    1.536012    0.118648
      5          6           0       -2.887077    0.820751    0.196373
      6          6           0        0.733159    0.697547   -0.704245
      7          6           0        1.133484   -0.809431   -0.807134
      8          6           0       -0.045625   -1.570312   -0.182211
      9          1           0       -3.269581   -1.345477   -0.040254
     10          1           0       -2.194138   -0.911000    1.299368
     11          1           0       -1.533667   -1.109119   -1.636388
     12          1           0       -1.618999    2.553252   -0.282888
     13          1           0       -1.112379    1.617791    1.130314
     14          1           0       -3.474138    1.012995   -0.709574
     15          1           0       -3.479557    1.144988    1.057639
     16          1           0        1.143859    1.229334   -1.574335
     17          1           0        1.215968   -1.086205   -1.862025
     18          1           0       -0.099687   -2.606294   -0.531665
     19          8           0        0.176221   -1.552293    1.236967
     20          1           0       -0.328189   -2.283609    1.628312
     21          8           0        2.378843   -1.148880   -0.190331
     22          1           0        2.144588   -1.386578    0.729176
     23          6           0        1.345975    1.398810    0.522522
     24          1           0        0.962908    2.420357    0.602227
     25          1           0        1.093606    0.872141    1.452266
     26          8           0        2.765153    1.513223    0.371944
     27          1           0        3.062020    0.593847    0.215989
 ---------------------------------------------------------------------
 Rotational constants (GHZ):      1.5050715      0.8029384      0.6262228
 Standard basis: 6-31+G(d,p) (6D, 7F)
 There are   303 symmetry adapted basis functions of A   symmetry.
 Integral buffers will be    131072 words long.
 Raffenetti 2 integral format.
 Two-electron integral symmetry is turned on.
   303 basis functions,   489 primitive gaussians,   303 cartesian basis functions
    47 alpha electrons       47 beta electrons
       nuclear repulsion energy       817.2804771460 Hartrees.
 NAtoms=   27 NActive=   27 NUniq=   27 SFac= 1.00D+00 NAtFMM=   60 NAOKFM=F Big=F
 ------------------------------------------------------------------------------
 Polarizable Continuum Model (PCM)
 =================================
 Model                : PCM.
 Atomic radii         : UFF (Universal Force Field).
 Polarization charges : Total charges.
 Charge compensation  : None.
 Solution method      : Matrix inversion.
 Cavity type          : Scaled VdW (van der Waals Surface) (Alpha=1.100).
 Cavity algorithm     : GePol (No added spheres)
                        Default sphere list used, NSphG=   27.
                        Lebedev-Laikov grids with approx.  5.0 points / Ang**2.
                        Smoothing algorithm: Karplus/York (Gamma=1.0000).
                        Polarization charges: spherical gaussians, with
                                              point-specific exponents (IZeta= 3).
                        Self-potential: point-specific (ISelfS= 7).
                        Self-field    : sphere-specific E.n sum rule (ISelfD= 2).
 Solvent              : Water, Eps=  78.355300 Eps(inf)=   1.777849
 ------------------------------------------------------------------------------
 One-electron integrals computed using PRISM.
 NBasis=   303 RedAO= T  NBF=   303
 NBsUse=   303 1.00D-06 NBFU=   303
 Harris functional with IExCor=  908 diagonalized for initial guess.
 ExpMin= 4.38D-02 ExpMax= 5.48D+03 ExpMxC= 8.25D+02 IAcc=2 IRadAn=         4 AccDes= 0.00D+00
 HarFok:  IExCor=  908 AccDes= 0.00D+00 IRadAn=         4 IDoV= 1
 ScaDFX=  1.000000  1.000000  1.000000  1.000000
 FoFCou: FMM=F IPFlag=           0 FMFlag=      100000 FMFlg1=           0
         NFxFlg=           0 DoJE=T BraDBF=F KetDBF=T FulRan=T
         Omega=  0.000000  0.000000  1.000000  0.000000  0.000000 ICntrl=     500 IOpCl=  0
         NMat0=    1 NMatS0=    1 NMatT0=    0 NMatD0=    1 NMtDS0=    0 NMtDT0=    0
         I1Cent=           4 NGrid=           0.
 Petite list used in FoFCou.
 Initial guess orbital symmetries:
       Occupied  (A) (A) (A) (A) (A) (A) (A) (A) (A) (A) (A) (A)
                 (A) (A) (A) (A) (A) (A) (A) (A) (A) (A) (A) (A)
                 (A) (A) (A) (A) (A) (A) (A) (A) (A) (A) (A) (A)
                 (A) (A) (A) (A) (A) (A) (A) (A) (A) (A) (A)
       Virtual   (A) (A) (A) (A) (A) (A) (A) (A) (A) (A) (A) (A)
                 (A) (A) (A) (A) (A) (A) (A) (A) (A) (A) (A) (A)
                 (A) (A) (A) (A) (A) (A) (A) (A) (A) (A) (A) (A)
                 (A) (A) (A) (A) (A) (A) (A) (A) (A) (A) (A) (A)
                 (A) (A) (A) (A) (A) (A) (A) (A) (A) (A) (A) (A)
                 (A) (A) (A) (A) (A) (A) (A) (A) (A) (A) (A) (A)
                 (A) (A) (A) (A) (A) (A) (A) (A) (A) (A) (A) (A)
                 (A) (A) (A) (A) (A) (A) (A) (A) (A) (A) (A) (A)
                 (A) (A) (A) (A) (A) (A) (A) (A) (A) (A) (A) (A)
                 (A) (A) (A) (A) (A) (A) (A) (A) (A) (A) (A) (A)
                 (A) (A) (A) (A) (A) (A) (A) (A) (A) (A) (A) (A)
                 (A) (A) (A) (A) (A) (A) (A) (A) (A) (A) (A) (A)
                 (A) (A) (A) (A) (A) (A) (A) (A) (A) (A) (A) (A)
                 (A) (A) (A) (A) (A) (A) (A) (A) (A) (A) (A) (A)
                 (A) (A) (A) (A) (A) (A) (A) (A) (A) (A) (A) (A)
                 (A) (A) (A) (A) (A) (A) (A) (A) (A) (A) (A) (A)
                 (A) (A) (A) (A) (A) (A) (A) (A) (A) (A) (A) (A)
                 (A) (A) (A) (A) (A) (A) (A) (A) (A) (A) (A) (A)
                 (A) (A) (A) (A) (A) (A) (A) (A) (A) (A) (A) (A)
                 (A) (A) (A) (A) (A) (A) (A) (A) (A) (A) (A) (A)
                 (A) (A) (A) (A) (A) (A) (A) (A) (A) (A) (A) (A)
                 (A) (A) (A) (A)
 The electronic state of the initial guess is 1-A.
 Requested convergence on RMS density matrix=1.00D-08 within 128 cycles.
 Requested convergence on MAX density matrix=1.00D-06.
 Requested convergence on             energy=1.00D-06.
 No special actions if energy rises.
 Error on total polarization charges =  0.01424
 SCF Done:  E(RmPW1PW91) =  -594.193740231     A.U. after   13 cycles
             Convg  =    0.8525D-08             -V/T =  2.0094
 Range of M.O.s used for correlation:     1   303
 NBasis=   303 NAE=    47 NBE=    47 NFC=     0 NFV=     0
 NROrb=    303 NOA=    47 NOB=    47 NVA=   256 NVB=   256

 **** Warning!!: The largest alpha MO coefficient is  0.64054112D+02

 NEqPCM:  Using equilibrium solvation (IEInf=0, Eps=  78.3553, EpsInf=   1.7778)
          Differentiating once with respect to magnetic field using GIAOs.
          Electric field/nuclear overlap derivatives assumed to be zero.
 FoFCou: FMM=F IPFlag=           0 FMFlag=    10101102 FMFlg1=           0
         NFxFlg=    40000000 DoJE=F BraDBF=F KetDBF=T FulRan=T
         Omega=  0.000000  0.000000  1.000000  0.000000  0.000000 ICntrl=    6100 IOpCl=  0
         NMat0=    1 NMatS0=    1 NMatT0=    0 NMatD0=    1 NMtDS0=    0 NMtDT0=    0
         I1Cent=           7 NGrid=        1786.
 Symmetry not used in FoFCou.
          There are     3 degrees of freedom in the 1st order CPHF.  IDoFFX=0.
      3 vectors produced by pass  0 Test12= 4.01D-13 3.33D-08 XBig12= 3.21D+01 1.28D+00.
 AX will form     3 AO Fock derivatives at one time.
      3 vectors produced by pass  1 Test12= 4.01D-13 3.33D-08 XBig12= 7.73D-02 4.21D-02.
      3 vectors produced by pass  2 Test12= 4.01D-13 3.33D-08 XBig12= 1.20D-04 2.04D-03.
      3 vectors produced by pass  3 Test12= 4.01D-13 3.33D-08 XBig12= 4.12D-07 1.29D-04.
      3 vectors produced by pass  4 Test12= 4.01D-13 3.33D-08 XBig12= 1.50D-09 6.54D-06.
      3 vectors produced by pass  5 Test12= 4.01D-13 3.33D-08 XBig12= 4.92D-12 3.69D-07.
 Inverted reduced A of dimension    18 with in-core refinement.
 Calculating GIAO nuclear magnetic shielding tensors.
 SCF GIAO Magnetic shielding tensor (ppm):
      1  C    Isotropic =   169.9652   Anisotropy =    18.5227
   XX=   173.2833   YX=    -6.1458   ZX=   -11.8297
   XY=     3.5056   YY=   181.9491   ZY=     1.1700
   XZ=   -12.9406   YZ=    -2.0858   ZZ=   154.6631
   Eigenvalues:   148.4491   179.1327   182.3137
      2  C    Isotropic =   128.1448   Anisotropy =    47.9193
   XX=   131.3491   YX=     3.9697   ZX=   -10.7176
   XY=     4.9926   YY=   156.5693   ZY=   -11.1158
   XZ=    -4.9849   YZ=   -12.7738   ZZ=    96.5159
   Eigenvalues:    92.9809   131.3624   160.0910
      3  N    Isotropic =   201.4932   Anisotropy =    88.0040
   XX=   249.8006   YX=    19.9917   ZX=   -29.2525
   XY=     4.4635   YY=   234.6503   ZY=    15.8554
   XZ=   -30.5931   YZ=     5.9629   ZZ=   120.0287
   Eigenvalues:   112.0165   232.3006   260.1625
      4  C    Isotropic =   147.3194   Anisotropy =    39.7729
   XX=   154.6705   YX=    -3.7782   ZX=   -19.6763
   XY=   -11.5042   YY=   152.4772   ZY=    11.6973
   XZ=   -14.5743   YZ=    16.3281   ZZ=   134.8106
   Eigenvalues:   122.2601   145.8636   173.8347
      5  C    Isotropic =   165.2078   Anisotropy =    23.5435
   XX=   176.9664   YX=     1.1475   ZX=   -15.1161
   XY=     4.0352   YY=   178.1670   ZY=     4.0782
   XZ=    -4.6162   YZ=     0.8663   ZZ=   140.4899
   Eigenvalues:   137.7642   176.9557   180.9035
      6  C    Isotropic =   133.4464   Anisotropy =    47.4324
   XX=   164.7565   YX=    -3.8504   ZX=     2.3359
   XY=     8.9177   YY=   116.7020   ZY=    -1.7153
   XZ=     3.2704   YZ=     4.3887   ZZ=   118.8808
   Eigenvalues:   116.0408   119.2305   165.0681
      7  C    Isotropic =   115.3821   Anisotropy =    57.4409
   XX=   148.3432   YX=    -8.8386   ZX=    18.2654
   XY=   -10.0065   YY=   119.8301   ZY=    -6.5261
   XZ=     7.3329   YZ=    -3.8713   ZZ=    77.9729
   Eigenvalues:    75.4350   117.0352   153.6760
      8  C    Isotropic =   121.2868   Anisotropy =    31.3448
   XX=   120.2312   YX=    -3.0450   ZX=     7.4647
   XY=    -8.4233   YY=   102.0170   ZY=    -0.7656
   XZ=    -1.0505   YZ=    -1.5415   ZZ=   141.6123
   Eigenvalues:   100.3610   121.3161   142.1834
      9  H    Isotropic =    29.8931   Anisotropy =    11.6658
   XX=    33.1636   YX=     4.5401   ZX=     0.7575
   XY=     5.7622   YY=    31.4199   ZY=     1.3142
   XZ=     0.9488   YZ=     0.9784   ZZ=    25.0957
   Eigenvalues:    24.8938    27.1152    37.6702
     10  H    Isotropic =    29.7158   Anisotropy =     6.9024
   XX=    29.5710   YX=    -1.5469   ZX=    -0.7279
   XY=    -2.0757   YY=    27.5478   ZY=    -3.8986
   XZ=    -0.9972   YZ=    -3.9597   ZZ=    32.0285
   Eigenvalues:    24.4795    30.3504    34.3173
     11  H    Isotropic =    28.0530   Anisotropy =     9.2183
   XX=    26.6277   YX=     2.3284   ZX=     2.2658
   XY=     2.0009   YY=    27.6393   ZY=     4.4078
   XZ=     2.7174   YZ=     3.2692   ZZ=    29.8921
   Eigenvalues:    24.6723    25.2882    34.1986
     12  H    Isotropic =    28.7872   Anisotropy =    10.3626
   XX=    27.0261   YX=    -2.5786   ZX=    -0.2989
   XY=    -1.3898   YY=    35.1168   ZY=    -1.5682
   XZ=    -1.0207   YZ=    -1.1211   ZZ=    24.2186
   Eigenvalues:    23.7824    26.8835    35.6956
     13  H    Isotropic =    28.7943   Anisotropy =     7.4028
   XX=    29.6685   YX=    -0.5680   ZX=    -0.6347
   XY=    -0.3936   YY=    26.3435   ZY=     4.9138
   XZ=     0.9896   YZ=     5.0396   ZZ=    30.3709
   Eigenvalues:    22.9517    29.7017    33.7295
     14  H    Isotropic =    29.6463   Anisotropy =    11.1512
   XX=    32.5954   YX=    -2.3109   ZX=     4.6840
   XY=    -2.6597   YY=    28.1125   ZY=    -2.2874
   XZ=     5.1376   YZ=    -2.5385   ZZ=    28.2309
   Eigenvalues:    24.8378    27.0206    37.0804
     15  H    Isotropic =    29.6189   Anisotropy =    11.5224
   XX=    31.7896   YX=    -2.7342   ZX=    -5.3026
   XY=    -3.1757   YY=    28.0628   ZY=     2.5748
   XZ=    -5.0231   YZ=     2.1793   ZZ=    29.0043
   Eigenvalues:    25.0447    26.5115    37.3005
     16  H    Isotropic =    28.0877   Anisotropy =     7.1371
   XX=    28.4367   YX=     1.5372   ZX=    -1.7153
   XY=     1.4467   YY=    26.6165   ZY=    -3.2800
   XZ=    -2.0282   YZ=    -3.5190   ZZ=    29.2100
   Eigenvalues:    24.2666    27.1508    32.8458
     17  H    Isotropic =    26.8788   Anisotropy =     6.1489
   XX=    25.9247   YX=    -1.8075   ZX=     0.8691
   XY=    -2.0582   YY=    25.1476   ZY=     2.7826
   XZ=    -2.3648   YZ=     1.7969   ZZ=    29.5642
   Eigenvalues:    23.2497    26.4087    30.9781
     18  H    Isotropic =    27.6829   Anisotropy =     8.7853
   XX=    23.7333   YX=     0.7842   ZX=     0.9035
   XY=    -0.2152   YY=    30.8457   ZY=     2.8038
   XZ=     0.7119   YZ=     4.4811   ZZ=    28.4696
   Eigenvalues:    23.5779    25.9310    33.5398
     19  O    Isotropic =   305.2172   Anisotropy =    46.1636
   XX=   297.7005   YX=    21.4061   ZX=   -25.1389
   XY=    23.7934   YY=   321.4032   ZY=    12.2097
   XZ=    -3.6106   YZ=    -8.2985   ZZ=   296.5479
   Eigenvalues:   275.4186   304.2401   335.9929
     20  H    Isotropic =    29.6178   Anisotropy =    21.3511
   XX=    26.2484   YX=     7.0099   ZX=    -3.0955
   XY=     6.2837   YY=    32.9794   ZY=   -10.3039
   XZ=    -3.5384   YZ=    -8.5214   ZZ=    29.6257
   Eigenvalues:    20.7259    24.2756    43.8519
     21  O    Isotropic =   309.1727   Anisotropy =    28.7995
   XX=   309.5237   YX=    -5.1594   ZX=    -9.4083
   XY=   -10.8033   YY=   309.6404   ZY=   -24.1357
   XZ=   -21.8661   YZ=    -9.9076   ZZ=   308.3540
   Eigenvalues:   281.6287   317.5171   328.3723
     22  H    Isotropic =    27.7081   Anisotropy =    15.0157
   XX=    27.7771   YX=    -0.2213   ZX=    -2.4446
   XY=     1.6578   YY=    20.5381   ZY=    -6.3708
   XZ=    -2.5160   YZ=    -5.7985   ZZ=    34.8091
   Eigenvalues:    18.2924    27.1133    37.7186
     23  C    Isotropic =   131.5295   Anisotropy =    60.8011
   XX=   171.5989   YX=     4.5923   ZX=    -1.6812
   XY=     4.8874   YY=   109.1852   ZY=     4.3722
   XZ=    -3.9169   YZ=     3.6732   ZZ=   113.8045
   Eigenvalues:   106.3916   116.1334   172.0636
     24  H    Isotropic =    27.7779   Anisotropy =     5.4605
   XX=    31.0494   YX=    -1.6966   ZX=     0.2594
   XY=     0.2377   YY=    29.1630   ZY=     2.7068
   XZ=     0.1260   YZ=     3.2164   ZZ=    23.1211
   Eigenvalues:    21.8890    30.0264    31.4182
     25  H    Isotropic =    27.3608   Anisotropy =     4.3601
   XX=    29.2226   YX=     2.6661   ZX=    -1.3317
   XY=     1.9332   YY=    25.1553   ZY=     0.7051
   XZ=     0.3872   YZ=     0.6780   ZZ=    27.7045
   Eigenvalues:    23.9384    27.8765    30.2676
     26  O    Isotropic =   312.3023   Anisotropy =    33.4630
   XX=   299.5797   YX=     2.4072   ZX=    -2.4551
   XY=   -11.6967   YY=   332.4256   ZY=     6.2329
   XZ=     4.5766   YZ=     7.6981   ZZ=   304.9016
   Eigenvalues:   298.1897   304.1063   334.6110
     27  H    Isotropic =    27.5731   Anisotropy =    21.1149
   XX=    27.9222   YX=    -2.9277   ZX=     0.1701
   XY=    -1.9309   YY=    40.3545   ZY=     4.6629
   XZ=    -0.1490   YZ=     5.0445   ZZ=    14.4424
   Eigenvalues:    13.5492    27.5203    41.6497
 End of Minotr Frequency-dependent properties file   721 does not exist.
 End of Minotr Frequency-dependent properties file   722 does not exist.

 **********************************************************************

            Population analysis using the SCF density.

 **********************************************************************

 Orbital symmetries:
       Occupied  (A) (A) (A) (A) (A) (A) (A) (A) (A) (A) (A) (A)
                 (A) (A) (A) (A) (A) (A) (A) (A) (A) (A) (A) (A)
                 (A) (A) (A) (A) (A) (A) (A) (A) (A) (A) (A) (A)
                 (A) (A) (A) (A) (A) (A) (A) (A) (A) (A) (A)
       Virtual   (A) (A) (A) (A) (A) (A) (A) (A) (A) (A) (A) (A)
                 (A) (A) (A) (A) (A) (A) (A) (A) (A) (A) (A) (A)
                 (A) (A) (A) (A) (A) (A) (A) (A) (A) (A) (A) (A)
                 (A) (A) (A) (A) (A) (A) (A) (A) (A) (A) (A) (A)
                 (A) (A) (A) (A) (A) (A) (A) (A) (A) (A) (A) (A)
                 (A) (A) (A) (A) (A) (A) (A) (A) (A) (A) (A) (A)
                 (A) (A) (A) (A) (A) (A) (A) (A) (A) (A) (A) (A)
                 (A) (A) (A) (A) (A) (A) (A) (A) (A) (A) (A) (A)
                 (A) (A) (A) (A) (A) (A) (A) (A) (A) (A) (A) (A)
                 (A) (A) (A) (A) (A) (A) (A) (A) (A) (A) (A) (A)
                 (A) (A) (A) (A) (A) (A) (A) (A) (A) (A) (A) (A)
                 (A) (A) (A) (A) (A) (A) (A) (A) (A) (A) (A) (A)
                 (A) (A) (A) (A) (A) (A) (A) (A) (A) (A) (A) (A)
                 (A) (A) (A) (A) (A) (A) (A) (A) (A) (A) (A) (A)
                 (A) (A) (A) (A) (A) (A) (A) (A) (A) (A) (A) (A)
                 (A) (A) (A) (A) (A) (A) (A) (A) (A) (A) (A) (A)
                 (A) (A) (A) (A) (A) (A) (A) (A) (A) (A) (A) (A)
                 (A) (A) (A) (A) (A) (A) (A) (A) (A) (A) (A) (A)
                 (A) (A) (A) (A) (A) (A) (A) (A) (A) (A) (A) (A)
                 (A) (A) (A) (A) (A) (A) (A) (A) (A) (A) (A) (A)
                 (A) (A) (A) (A) (A) (A) (A) (A) (A) (A) (A) (A)
                 (A) (A) (A) (A)
 The electronic state is 1-A.
 Alpha  occ. eigenvalues --  -19.26955 -19.26826 -19.24380 -14.40989 -10.31048
 Alpha  occ. eigenvalues --  -10.30898 -10.29067 -10.27996 -10.27846 -10.26879
 Alpha  occ. eigenvalues --  -10.24667 -10.24629  -1.08835  -1.05991  -1.04324
 Alpha  occ. eigenvalues --   -0.96151  -0.82776  -0.79542  -0.74521  -0.71518
 Alpha  occ. eigenvalues --   -0.67659  -0.61651  -0.60026  -0.58423  -0.56059
 Alpha  occ. eigenvalues --   -0.53210  -0.52035  -0.50979  -0.49537  -0.46576
 Alpha  occ. eigenvalues --   -0.46103  -0.44588  -0.42904  -0.41841  -0.41044
 Alpha  occ. eigenvalues --   -0.39545  -0.39292  -0.37482  -0.36673  -0.36241
 Alpha  occ. eigenvalues --   -0.35193  -0.34738  -0.33507  -0.31347  -0.29669
 Alpha  occ. eigenvalues --   -0.29313  -0.22050
 Alpha virt. eigenvalues --   -0.00095   0.01639   0.02001   0.02173   0.04031
 Alpha virt. eigenvalues --    0.04492   0.04614   0.05029   0.05591   0.07475
 Alpha virt. eigenvalues --    0.07737   0.08367   0.08888   0.09186   0.09740
 Alpha virt. eigenvalues --    0.10418   0.11787   0.12005   0.12810   0.13098
 Alpha virt. eigenvalues --    0.13397   0.13970   0.14070   0.14674   0.15363
 Alpha virt. eigenvalues --    0.15502   0.16653   0.17223   0.17604   0.18227
 Alpha virt. eigenvalues --    0.18541   0.19673   0.19965   0.20404   0.20904
 Alpha virt. eigenvalues --    0.21778   0.22028   0.22602   0.22644   0.23093
 Alpha virt. eigenvalues --    0.23727   0.24272   0.25294   0.25313   0.26406
 Alpha virt. eigenvalues --    0.27110   0.27488   0.27870   0.28675   0.29093
 Alpha virt. eigenvalues --    0.29200   0.29685   0.30281   0.31153   0.31433
 Alpha virt. eigenvalues --    0.32091   0.32681   0.33293   0.33726   0.35243
 Alpha virt. eigenvalues --    0.35632   0.35937   0.36404   0.37072   0.38140
 Alpha virt. eigenvalues --    0.38620   0.39620   0.40269   0.40631   0.41593
 Alpha virt. eigenvalues --    0.41894   0.43193   0.45319   0.47473   0.49551
 Alpha virt. eigenvalues --    0.51630   0.64680   0.67288   0.67845   0.68265
 Alpha virt. eigenvalues --    0.69455   0.70771   0.71452   0.72110   0.73788
 Alpha virt. eigenvalues --    0.75014   0.76036   0.77948   0.79094   0.79626
 Alpha virt. eigenvalues --    0.82398   0.83305   0.84215   0.88182   0.89004
 Alpha virt. eigenvalues --    0.91624   0.92441   0.93743   0.95495   0.97491
 Alpha virt. eigenvalues --    0.98760   0.99210   1.00930   1.02222   1.05084
 Alpha virt. eigenvalues --    1.06194   1.08051   1.09325   1.10158   1.10885
 Alpha virt. eigenvalues --    1.13062   1.14131   1.14396   1.15272   1.16185
 Alpha virt. eigenvalues --    1.17170   1.18591   1.20943   1.23474   1.25132
 Alpha virt. eigenvalues --    1.26797   1.28460   1.30707   1.31431   1.32354
 Alpha virt. eigenvalues --    1.32670   1.36677   1.40488   1.40997   1.42034
 Alpha virt. eigenvalues --    1.43789   1.44558   1.48311   1.49520   1.50960
 Alpha virt. eigenvalues --    1.53950   1.54216   1.57836   1.60932   1.61960
 Alpha virt. eigenvalues --    1.63988   1.64623   1.66779   1.67204   1.70451
 Alpha virt. eigenvalues --    1.71534   1.73793   1.75149   1.78877   1.79262
 Alpha virt. eigenvalues --    1.80140   1.82774   1.83987   1.84113   1.86526
 Alpha virt. eigenvalues --    1.88475   1.90159   1.92103   1.93372   1.94073
 Alpha virt. eigenvalues --    1.97234   1.98333   1.99888   2.02484   2.04455
 Alpha virt. eigenvalues --    2.05484   2.07186   2.08944   2.09981   2.11978
 Alpha virt. eigenvalues --    2.13401   2.14449   2.16376   2.19307   2.20821
 Alpha virt. eigenvalues --    2.23908   2.24847   2.25753   2.26590   2.30770
 Alpha virt. eigenvalues --    2.31523   2.32960   2.34884   2.36671   2.38656
 Alpha virt. eigenvalues --    2.42845   2.44313   2.45226   2.46879   2.48800
 Alpha virt. eigenvalues --    2.49558   2.50788   2.52251   2.53797   2.54249
 Alpha virt. eigenvalues --    2.55913   2.58952   2.60702   2.61328   2.62366
 Alpha virt. eigenvalues --    2.64413   2.66892   2.67342   2.67911   2.70041
 Alpha virt. eigenvalues --    2.70696   2.72592   2.73754   2.76113   2.77027
 Alpha virt. eigenvalues --    2.79436   2.81515   2.82347   2.83331   2.85006
 Alpha virt. eigenvalues --    2.86656   2.87889   2.88515   2.89869   2.95114
 Alpha virt. eigenvalues --    2.98183   2.99977   3.01973   3.04298   3.06547
 Alpha virt. eigenvalues --    3.07701   3.10550   3.12912   3.15511   3.32346
 Alpha virt. eigenvalues --    3.36218   3.36659   3.37745   3.45582   3.46829
 Alpha virt. eigenvalues --    3.47510   3.50323   3.51339   3.52369   3.56195
 Alpha virt. eigenvalues --    3.57348   3.58690   3.62287   3.65094   4.31546
 Alpha virt. eigenvalues --    4.33949   4.39842   4.45353   4.49675   4.54481
 Alpha virt. eigenvalues --    4.62467   4.68691   4.77425   4.83948   4.91702
 Alpha virt. eigenvalues --    4.99294
          Condensed to atoms (all electrons):
              1          2          3          4          5          6
     1  C    5.983670  -0.765765   0.158087  -0.189975   0.140756  -0.102784
     2  C   -0.765765   9.570007  -0.558178  -0.406613   0.295201   0.025863
     3  N    0.158087  -0.558178   7.460138   0.275780  -0.248080  -0.217675
     4  C   -0.189975  -0.406613   0.275780   5.601128   0.061511  -0.161057
     5  C    0.140756   0.295201  -0.248080   0.061511   5.612496   0.200045
     6  C   -0.102784   0.025863  -0.217675  -0.161057   0.200045   7.259597
     7  C   -0.085866   0.822502  -0.372406  -0.035813  -0.092024  -0.196228
     8  C    0.291860  -2.266046   0.380322   0.241840  -0.123973  -0.216619
     9  H    0.390254  -0.073302   0.014588   0.033161  -0.042790  -0.001017
    10  H    0.476758  -0.195620   0.025942   0.013923  -0.048836   0.001407
    11  H    0.079732   0.065725   0.010117   0.031757  -0.037174   0.010335
    12  H    0.038120  -0.007325  -0.046008   0.402624  -0.036540  -0.021082
    13  H   -0.019736   0.037412  -0.090394   0.382128  -0.002780   0.033985
    14  H   -0.034175  -0.041973   0.017459  -0.037081   0.411733   0.000723
    15  H   -0.065925   0.046219   0.003680  -0.021892   0.381640  -0.002844
    16  H    0.008020  -0.061015  -0.007306   0.019928  -0.009827   0.262567
    17  H    0.007038  -0.042889   0.018776  -0.001134   0.003961  -0.026008
    18  H    0.010099  -0.070829   0.016878   0.004453  -0.005020   0.016228
    19  O    0.043018  -0.100478   0.043136   0.016997  -0.020817   0.008071
    20  H    0.005573  -0.070258  -0.000476  -0.001898  -0.000656   0.010258
    21  O    0.007807  -0.002614   0.025835  -0.013261   0.004619  -0.213299
    22  H    0.000476   0.018083   0.000999   0.000403   0.000730  -0.007728
    23  C    0.100951  -0.284804   0.166407  -0.018697  -0.047489  -0.233745
    24  H   -0.003284   0.035996  -0.017644  -0.002083   0.006230  -0.056622
    25  H    0.007758  -0.034078   0.024161   0.003319  -0.009491  -0.087006
    26  O    0.001831  -0.000210   0.026291  -0.000940  -0.003975  -0.056634
    27  H    0.000019   0.008757   0.001195   0.000215   0.000443  -0.033911
              7          8          9         10         11         12
     1  C   -0.085866   0.291860   0.390254   0.476758   0.079732   0.038120
     2  C    0.822502  -2.266046  -0.073302  -0.195620   0.065725  -0.007325
     3  N   -0.372406   0.380322   0.014588   0.025942   0.010117  -0.046008
     4  C   -0.035813   0.241840   0.033161   0.013923   0.031757   0.402624
     5  C   -0.092024  -0.123973  -0.042790  -0.048836  -0.037174  -0.036540
     6  C   -0.196228  -0.216619  -0.001017   0.001407   0.010335  -0.021082
     7  C    6.989753  -0.933556  -0.005686  -0.000040  -0.052886  -0.007058
     8  C   -0.933556   7.564145   0.026318   0.036147   0.136957   0.001719
     9  H   -0.005686   0.026318   0.514958  -0.024812  -0.004321  -0.000100
    10  H   -0.000040   0.036147  -0.024812   0.526684   0.004145  -0.000033
    11  H   -0.052886   0.136957  -0.004321   0.004145   0.571500   0.000209
    12  H   -0.007058   0.001719  -0.000100  -0.000033   0.000209   0.550521
    13  H    0.017118  -0.020444  -0.000171   0.001338  -0.000532  -0.046434
    14  H    0.000663   0.010989  -0.005072   0.004074   0.000667  -0.005955
    15  H    0.003500  -0.001840   0.000530  -0.005648  -0.000125   0.000515
    16  H   -0.054292   0.076765   0.000004   0.000006   0.000763   0.001288
    17  H    0.324102   0.011006   0.000004  -0.000009   0.000499   0.000005
    18  H   -0.023158   0.386407   0.000257   0.000217  -0.001550   0.000005
    19  O   -0.137248   0.130586  -0.001166   0.011343   0.006434   0.000257
    20  H   -0.003183   0.078064   0.000104   0.000349   0.000128   0.000000
    21  O    0.278087  -0.087901   0.000033  -0.000225  -0.000565   0.000069
    22  H    0.005744  -0.062210   0.000000   0.000005  -0.000021   0.000000
    23  C   -0.304051   0.196123   0.001619   0.000051   0.012214   0.011376
    24  H    0.038557  -0.038609   0.000000  -0.000003  -0.000008  -0.000981
    25  H   -0.050223   0.064500   0.000002  -0.000036  -0.000001   0.000308
    26  O   -0.043062   0.005616   0.000000  -0.000002   0.000053  -0.000032
    27  H    0.015228  -0.014077   0.000000   0.000000   0.000001  -0.000002
             13         14         15         16         17         18
     1  C   -0.019736  -0.034175  -0.065925   0.008020   0.007038   0.010099
     2  C    0.037412  -0.041973   0.046219  -0.061015  -0.042889  -0.070829
     3  N   -0.090394   0.017459   0.003680  -0.007306   0.018776   0.016878
     4  C    0.382128  -0.037081  -0.021892   0.019928  -0.001134   0.004453
     5  C   -0.002780   0.411733   0.381640  -0.009827   0.003961  -0.005020
     6  C    0.033985   0.000723  -0.002844   0.262567  -0.026008   0.016228
     7  C    0.017118   0.000663   0.003500  -0.054292   0.324102  -0.023158
     8  C   -0.020444   0.010989  -0.001840   0.076765   0.011006   0.386407
     9  H   -0.000171  -0.005072   0.000530   0.000004   0.000004   0.000257
    10  H    0.001338   0.004074  -0.005648   0.000006  -0.000009   0.000217
    11  H   -0.000532   0.000667  -0.000125   0.000763   0.000499  -0.001550
    12  H   -0.046434  -0.005955   0.000515   0.001288   0.000005   0.000005
    13  H    0.587286   0.004150  -0.004312  -0.000795  -0.000015  -0.000022
    14  H    0.004150   0.519596  -0.024923   0.000007  -0.000001  -0.000001
    15  H   -0.004312  -0.024923   0.516889   0.000001   0.000000   0.000002
    16  H   -0.000795   0.000007   0.000001   0.574773  -0.006514  -0.000074
    17  H   -0.000015  -0.000001   0.000000  -0.006514   0.525685  -0.005024
    18  H   -0.000022  -0.000001   0.000002  -0.000074  -0.005024   0.540827
    19  O   -0.000300   0.000130   0.000154  -0.000374   0.008523  -0.041643
    20  H   -0.000016   0.000000   0.000003   0.000009  -0.000144  -0.008237
    21  O   -0.000053  -0.000006  -0.000010   0.004958  -0.043043   0.000814
    22  H   -0.000005   0.000000   0.000000  -0.000052   0.004912   0.000034
    23  C   -0.029846   0.000408  -0.001648   0.016298   0.029335   0.000286
    24  H   -0.000947  -0.000004   0.000007  -0.006108  -0.000111   0.000005
    25  H   -0.001274  -0.000001   0.000003   0.004880  -0.000114  -0.000050
    26  O    0.000532   0.000004  -0.000002   0.007637  -0.000517  -0.000043
    27  H   -0.000020   0.000000   0.000000  -0.000836  -0.000548   0.000013
             19         20         21         22         23         24
     1  C    0.043018   0.005573   0.007807   0.000476   0.100951  -0.003284
     2  C   -0.100478  -0.070258  -0.002614   0.018083  -0.284804   0.035996
     3  N    0.043136  -0.000476   0.025835   0.000999   0.166407  -0.017644
     4  C    0.016997  -0.001898  -0.013261   0.000403  -0.018697  -0.002083
     5  C   -0.020817  -0.000656   0.004619   0.000730  -0.047489   0.006230
     6  C    0.008071   0.010258  -0.213299  -0.007728  -0.233745  -0.056622
     7  C   -0.137248  -0.003183   0.278087   0.005744  -0.304051   0.038557
     8  C    0.130586   0.078064  -0.087901  -0.062210   0.196123  -0.038609
     9  H   -0.001166   0.000104   0.000033   0.000000   0.001619   0.000000
    10  H    0.011343   0.000349  -0.000225   0.000005   0.000051  -0.000003
    11  H    0.006434   0.000128  -0.000565  -0.000021   0.012214  -0.000008
    12  H    0.000257   0.000000   0.000069   0.000000   0.011376  -0.000981
    13  H   -0.000300  -0.000016  -0.000053  -0.000005  -0.029846  -0.000947
    14  H    0.000130   0.000000  -0.000006   0.000000   0.000408  -0.000004
    15  H    0.000154   0.000003  -0.000010   0.000000  -0.001648   0.000007
    16  H   -0.000374   0.000009   0.004958  -0.000052   0.016298  -0.006108
    17  H    0.008523  -0.000144  -0.043043   0.004912   0.029335  -0.000111
    18  H   -0.041643  -0.008237   0.000814   0.000034   0.000286   0.000005
    19  O    8.419741   0.235644  -0.010592   0.033502   0.031053  -0.000280
    20  H    0.235644   0.342775   0.000447  -0.001273  -0.002308  -0.000009
    21  O   -0.010592   0.000447   8.320967   0.251913   0.077608  -0.000590
    22  H    0.033502  -0.001273   0.251913   0.333954   0.011538  -0.000018
    23  C    0.031053  -0.002308   0.077608   0.011538   5.400891   0.425513
    24  H   -0.000280  -0.000009  -0.000590  -0.000018   0.425513   0.543293
    25  H   -0.001432   0.000374  -0.006491   0.000582   0.431060  -0.037988
    26  O    0.000099  -0.000056  -0.019314   0.000441   0.176460  -0.059141
    27  H   -0.001439  -0.000012   0.031383  -0.005402  -0.000798   0.006257
             25         26         27
     1  C    0.007758   0.001831   0.000019
     2  C   -0.034078  -0.000210   0.008757
     3  N    0.024161   0.026291   0.001195
     4  C    0.003319  -0.000940   0.000215
     5  C   -0.009491  -0.003975   0.000443
     6  C   -0.087006  -0.056634  -0.033911
     7  C   -0.050223  -0.043062   0.015228
     8  C    0.064500   0.005616  -0.014077
     9  H    0.000002   0.000000   0.000000
    10  H   -0.000036  -0.000002   0.000000
    11  H   -0.000001   0.000053   0.000001
    12  H    0.000308  -0.000032  -0.000002
    13  H   -0.001274   0.000532  -0.000020
    14  H   -0.000001   0.000004   0.000000
    15  H    0.000003  -0.000002   0.000000
    16  H    0.004880   0.007637  -0.000836
    17  H   -0.000114  -0.000517  -0.000548
    18  H   -0.000050  -0.000043   0.000013
    19  O   -0.001432   0.000099  -0.001439
    20  H    0.000374  -0.000056  -0.000012
    21  O   -0.006491  -0.019314   0.031383
    22  H    0.000582   0.000441  -0.005402
    23  C    0.431060   0.176460  -0.000798
    24  H   -0.037988  -0.059141   0.006257
    25  H    0.556780  -0.038069  -0.004587
    26  O   -0.038069   8.334047   0.242086
    27  H   -0.004587   0.242086   0.345184
 Mulliken atomic charges:
              1
     1  C   -0.484315
     2  C    0.056235
     3  N   -0.111625
     4  C   -0.198722
     5  C   -0.389891
     6  C   -0.194819
     7  C   -0.098472
     8  C    0.125913
     9  H    0.176606
    10  H    0.172876
    11  H    0.165946
    12  H    0.164536
    13  H    0.154147
    14  H    0.178591
    15  H    0.176027
    16  H    0.169289
    17  H    0.192227
    18  H    0.179128
    19  O   -0.672916
    20  H    0.414798
    21  O   -0.606575
    22  H    0.413392
    23  C   -0.165807
    24  H    0.168571
    25  H    0.177114
    26  O   -0.573100
    27  H    0.410848
 Sum of Mulliken atomic charges =   0.00000
 Mulliken charges with hydrogens summed into heavy atoms:
              1
     1  C   -0.134833
     2  C    0.222180
     3  N   -0.111625
     4  C    0.119961
     5  C   -0.035273
     6  C   -0.025530
     7  C    0.093755
     8  C    0.305041
    19  O   -0.258119
    21  O   -0.193183
    23  C    0.179877
    26  O   -0.162253
 Sum of Mulliken charges with hydrogens summed into heavy atoms =   0.00000
 Electronic spatial extent (au):  <R**2>=           1968.2035
 Charge=              0.0000 electrons
 Dipole moment (field-independent basis, Debye):
    X=             -5.1580    Y=             -4.3081    Z=              1.1644  Tot=              6.8206
 Quadrupole moment (field-independent basis, Debye-Ang):
   XX=            -83.3262   YY=            -69.3461   ZZ=            -72.1537
   XY=             -3.5087   XZ=             -2.0004   YZ=             -1.8433
 Traceless Quadrupole moment (field-independent basis, Debye-Ang):
   XX=             -8.3842   YY=              5.5959   ZZ=              2.7883
   XY=             -3.5087   XZ=             -2.0004   YZ=             -1.8433
 Octapole moment (field-independent basis, Debye-Ang**2):
  XXX=            -34.0712  YYY=            -30.1988  ZZZ=              8.6369  XYY=            -20.9600
  XXY=            -21.9969  XXZ=              5.0446  XZZ=              5.6692  YZZ=            -13.7759
  YYZ=             10.9719  XYZ=             -6.4423
 Hexadecapole moment (field-independent basis, Debye-Ang**3):
 XXXX=          -1586.8836 YYYY=           -693.9191 ZZZZ=           -287.1005 XXXY=            -57.4769
 XXXZ=              8.4999 YYYX=            -12.4948 YYYZ=            -35.4304 ZZZX=            -11.3049
 ZZZY=            -11.8749 XXYY=           -434.3567 XXZZ=           -295.9247 YYZZ=           -155.8941
 XXYZ=            -22.4418 YYXZ=             -5.9775 ZZXY=             -0.1506
 N-N= 8.172804771460D+02 E-N=-3.020265446229D+03  KE= 5.886576998304D+02
 1\1\GINC-COMPUTE-3-1\SP\RmPW1PW91\6-31+G(d,p)\C8H15N1O3\MAMICHETTI.IQU
 IR\17-May-2024\0\\# mpw1pw91/6-31+G** nmr scrf=(pcm,solvent=water)\\co
 mment\\0,1\C,0,-2.476114,-0.659802,0.27122\C,0,-1.244877,-0.733462,-0.
 644085\N,0,-0.744315,0.672357,-0.779048\C,0,-1.536281,1.536012,0.11864
 8\C,0,-2.887077,0.820751,0.196373\C,0,0.733159,0.697547,-0.704245\C,0,
 1.133484,-0.809431,-0.807134\C,0,-0.045625,-1.570312,-0.182211\H,0,-3.
 269581,-1.345477,-0.040254\H,0,-2.194138,-0.911,1.299368\H,0,-1.533667
 ,-1.109119,-1.636388\H,0,-1.618999,2.553252,-0.282888\H,0,-1.112379,1.
 617791,1.130314\H,0,-3.474138,1.012995,-0.709574\H,0,-3.479557,1.14498
 8,1.057639\H,0,1.143859,1.229334,-1.574335\H,0,1.215968,-1.086205,-1.8
 62025\H,0,-0.099686,-2.606294,-0.531665\O,0,0.176221,-1.552293,1.23696
 7\H,0,-0.328189,-2.283609,1.628312\O,0,2.378843,-1.14888,-0.190331\H,0
 ,2.144588,-1.386578,0.729176\C,0,1.345975,1.39881,0.522522\H,0,0.96290
 8,2.420357,0.602227\H,0,1.093606,0.872141,1.452266\O,0,2.765153,1.5132
 24,0.371944\H,0,3.06202,0.593848,0.215989\\Version=AM64L-G09RevC.01\St
 ate=1-A\HF=-594.1937402\RMSD=8.525e-09\Dipole=-2.0293287,-1.6949367,0.
 4580913\Quadrupole=-6.2334257,4.16041,2.0730158,-2.6086178,-1.4872151,
 -1.3704525\PG=C01 [X(C8H15N1O3)]\\@


 At the touch of love, everyone becomves a poet.
                                -- Plato
 Job cpu time:  0 days  0 hours  8 minutes 57.0 seconds.
 File lengths (MBytes):  RWF=    110 Int=      0 D2E=      0 Chk=      7 Scr=      1
 Normal termination of Gaussian 09 at Fri May 17 12:59:38 2024.
