 Entering Gaussian System, Link 0=g09
 Input=/home/mamichetti.iquir/Linux/04_Cardona_A1A3_R__S_R_S_022_OptB.gjc
 Output=/home/mamichetti.iquir/Linux/04_Cardona_A1A3_R__S_R_S_022_OptB.log
 Initial command:
 /opt/ohpc/pub/apps/software/Gaussian/09/AMD64.SSE4a-enabled/g09/l1.exe /local/mamichetti.iquir/Gau-408373.inp -scrdir=/local/mamichetti.iquir/
 Entering Link 1 = /opt/ohpc/pub/apps/software/Gaussian/09/AMD64.SSE4a-enabled/g09/l1.exe PID=    408374.
  
 Copyright (c) 1988,1990,1992,1993,1995,1998,2003,2009,2011,
            Gaussian, Inc.  All Rights Reserved.
  
 This is part of the Gaussian(R) 09 program.  It is based on
 the Gaussian(R) 03 system (copyright 2003, Gaussian, Inc.),
 the Gaussian(R) 98 system (copyright 1998, Gaussian, Inc.),
 the Gaussian(R) 94 system (copyright 1995, Gaussian, Inc.),
 the Gaussian 92(TM) system (copyright 1992, Gaussian, Inc.),
 the Gaussian 90(TM) system (copyright 1990, Gaussian, Inc.),
 the Gaussian 88(TM) system (copyright 1988, Gaussian, Inc.),
 the Gaussian 86(TM) system (copyright 1986, Carnegie Mellon
 University), and the Gaussian 82(TM) system (copyright 1983,
 Carnegie Mellon University). Gaussian is a federally registered
 trademark of Gaussian, Inc.
  
 This software contains proprietary and confidential information,
 including trade secrets, belonging to Gaussian, Inc.
  
 This software is provided under written license and may be
 used, copied, transmitted, or stored only in accord with that
 written license.
  
 The following legend is applicable only to US Government
 contracts under FAR:
  
                    RESTRICTED RIGHTS LEGEND
  
 Use, reproduction and disclosure by the US Government is
 subject to restrictions as set forth in subparagraphs (a)
 and (c) of the Commercial Computer Software - Restricted
 Rights clause in FAR 52.227-19.
  
 Gaussian, Inc.
 340 Quinnipiac St., Bldg. 40, Wallingford CT 06492
  
  
 ---------------------------------------------------------------
 Warning -- This program may not be used in any manner that
 competes with the business of Gaussian, Inc. or will provide
 assistance to any competitor of Gaussian, Inc.  The licensee
 of this program is prohibited from giving any competitor of
 Gaussian, Inc. access to this program.  By using this program,
 the user acknowledges that Gaussian, Inc. is engaged in the
 business of creating and licensing software in the field of
 computational chemistry and represents and warrants to the
 licensee that it is not a competitor of Gaussian, Inc. and that
 it will not use this program in any manner prohibited above.
 ---------------------------------------------------------------
  

 Cite this work as:
 Gaussian 09, Revision C.01,
 M. J. Frisch, G. W. Trucks, H. B. Schlegel, G. E. Scuseria, 
 M. A. Robb, J. R. Cheeseman, G. Scalmani, V. Barone, B. Mennucci, 
 G. A. Petersson, H. Nakatsuji, M. Caricato, X. Li, H. P. Hratchian, 
 A. F. Izmaylov, J. Bloino, G. Zheng, J. L. Sonnenberg, M. Hada, 
 M. Ehara, K. Toyota, R. Fukuda, J. Hasegawa, M. Ishida, T. Nakajima, 
 Y. Honda, O. Kitao, H. Nakai, T. Vreven, J. A. Montgomery, Jr., 
 J. E. Peralta, F. Ogliaro, M. Bearpark, J. J. Heyd, E. Brothers, 
 K. N. Kudin, V. N. Staroverov, T. Keith, R. Kobayashi, J. Normand, 
 K. Raghavachari, A. Rendell, J. C. Burant, S. S. Iyengar, J. Tomasi, 
 M. Cossi, N. Rega, J. M. Millam, M. Klene, J. E. Knox, J. B. Cross, 
 V. Bakken, C. Adamo, J. Jaramillo, R. Gomperts, R. E. Stratmann, 
 O. Yazyev, A. J. Austin, R. Cammi, C. Pomelli, J. W. Ochterski, 
 R. L. Martin, K. Morokuma, V. G. Zakrzewski, G. A. Voth, 
 P. Salvador, J. J. Dannenberg, S. Dapprich, A. D. Daniels, 
 O. Farkas, J. B. Foresman, J. V. Ortiz, J. Cioslowski, 
 and D. J. Fox, Gaussian, Inc., Wallingford CT, 2010.
 
 ******************************************
 Gaussian 09:  AM64L-G09RevC.01 23-Sep-2011
                17-May-2024 
 ******************************************
 %nprocshared=4
 Will use up to    4 processors via shared memory.
 ------------------------------------------------
 # mpw1pw91/6-31+G** nmr scrf=(pcm,solvent=water)
 ------------------------------------------------
 1/38=1/1;
 2/12=2,17=6,18=5,40=1/2;
 3/5=1,6=6,7=111,11=2,16=1,25=1,30=1,70=2201,72=1,74=-7/1,2,8,3;
 4//1;
 5/5=2,38=5,53=1/2;
 8/6=1,10=90,11=11/1;
 10/13=100,45=16/2;
 6/7=2,8=2,9=2,10=2,28=1/1;
 99/9=1/99;
 -------
 comment
 -------
 Charge =  0 Multiplicity = 1
 Symbolic Z-Matrix:
 6                     2.32747  -0.4586    0.13354 
 6                     1.26187   0.01055  -0.87358 
 7                     0.11342  -0.95124  -0.7426 
 6                     0.43536  -1.88317   0.36812 
 6                     1.96214  -1.93245   0.3624 
 6                    -1.1136   -0.13027  -0.60188 
 6                    -0.68286   1.19645   0.03395 
 6                     0.6685    1.43746  -0.6591 
 1                     3.34585  -0.31453  -0.24058 
 1                     2.23425   0.09545   1.07309 
 1                     1.66438  -0.04831  -1.89163 
 1                    -0.02327  -2.8628    0.19258 
 1                     0.08908  -1.52356   1.34565 
 1                     2.32199  -2.55243  -0.46769 
 1                     2.37022  -2.33906   1.29306 
 1                    -1.45776   0.12684  -1.61697 
 1                    -1.39872   2.00322  -0.17127 
 1                     0.48463   1.90229  -1.63609 
 8                     1.44141   2.3235    0.15267 
 1                     2.36939   2.26609  -0.12881 
 8                    -0.50019   1.0552    1.44597 
 1                     0.24996   1.63856   1.66714 
 6                    -2.28447  -0.84347   0.07232 
 1                    -2.44868  -1.81852  -0.40684 
 1                    -2.09334  -1.0175    1.13312 
 8                    -3.47274  -0.04691   0.02096 
 1                    -3.69626   0.06962  -0.91799 
 
                          Input orientation:                          
 ---------------------------------------------------------------------
 Center     Atomic      Atomic             Coordinates (Angstroms)
 Number     Number       Type             X           Y           Z
 ---------------------------------------------------------------------
      1          6           0        2.327473   -0.458598    0.133536
      2          6           0        1.261873    0.010553   -0.873584
      3          7           0        0.113420   -0.951240   -0.742597
      4          6           0        0.435359   -1.883173    0.368121
      5          6           0        1.962136   -1.932454    0.362402
      6          6           0       -1.113603   -0.130267   -0.601876
      7          6           0       -0.682859    1.196448    0.033952
      8          6           0        0.668499    1.437461   -0.659098
      9          1           0        3.345849   -0.314532   -0.240584
     10          1           0        2.234251    0.095452    1.073085
     11          1           0        1.664377   -0.048308   -1.891633
     12          1           0       -0.023271   -2.862798    0.192578
     13          1           0        0.089077   -1.523563    1.345648
     14          1           0        2.321987   -2.552431   -0.467686
     15          1           0        2.370218   -2.339059    1.293064
     16          1           0       -1.457755    0.126836   -1.616968
     17          1           0       -1.398720    2.003218   -0.171265
     18          1           0        0.484625    1.902293   -1.636092
     19          8           0        1.441413    2.323495    0.152674
     20          1           0        2.369388    2.266093   -0.128813
     21          8           0       -0.500188    1.055204    1.445965
     22          1           0        0.249956    1.638555    1.667140
     23          6           0       -2.284469   -0.843468    0.072318
     24          1           0       -2.448676   -1.818517   -0.406844
     25          1           0       -2.093336   -1.017499    1.133121
     26          8           0       -3.472737   -0.046911    0.020960
     27          1           0       -3.696264    0.069623   -0.917987
 ---------------------------------------------------------------------
                    Distance matrix (angstroms):
                    1          2          3          4          5
     1  C    0.000000
     2  C    1.539447   0.000000
     3  N    2.431530   1.503711   0.000000
     4  C    2.380029   2.410634   1.485206   0.000000
     5  C    1.535611   2.406929   2.366760   1.527583   0.000000
     6  C    3.534068   2.395108   1.483032   2.532362   3.692950
     7  C    3.436742   2.451928   2.418605   3.293349   4.110220
     8  C    2.641118   1.560181   2.453768   3.483697   3.751438
     9  H    1.094445   2.202118   3.332568   3.361861   2.212674
    10  H    1.094721   2.177670   2.981642   2.765492   2.165992
    11  H    2.170102   1.096311   2.130971   3.159700   2.952853
    12  H    3.362984   3.323318   2.132438   1.095820   2.199141
    13  H    2.759308   2.941760   2.165390   1.097629   2.154603
    14  H    2.178448   2.803120   2.741743   2.169296   1.096773
    15  H    2.209630   3.382820   3.341122   2.192494   1.094527
    16  H    4.211288   2.821793   2.096512   3.400676   4.455809
    17  H    4.476378   3.397458   3.367760   4.331145   5.202852
    18  H    3.478718   2.182708   3.013101   4.283579   4.569716
    19  O    2.919848   2.536758   3.645403   4.330660   4.292813
    20  H    2.737613   2.620827   3.977104   4.604761   4.246757
    21  O    3.465506   3.094586   3.031854   3.266658   4.020354
    22  H    3.326570   3.182710   3.540129   3.758243   4.169653
    23  C    4.628378   3.768372   2.534871   2.926764   4.393597
    24  H    4.995297   4.163114   2.725662   2.987040   4.478837
    25  H    4.566738   4.042423   2.896978   2.780093   4.228239
    26  O    5.815892   4.818718   3.776421   4.331927   5.762786
    27  H    6.137599   4.958688   3.947989   4.747399   6.137198
                    6          7          8          9         10
     6  C    0.000000
     7  C    1.532968   0.000000
     8  C    2.374223   1.537717   0.000000
     9  H    4.477856   4.311487   3.226893   0.000000
    10  H    3.750276   3.286567   2.693144   1.769029   0.000000
    11  H    3.063880   3.281282   2.172194   2.371537   3.022412
    12  H    3.047410   4.115543   4.438032   4.246441   3.823995
    13  H    2.679657   3.116872   3.622485   3.818960   2.701346
    14  H    4.205730   4.830614   4.323182   2.471449   3.064793
    15  H    4.539446   4.838021   4.579180   2.720780   2.448208
    16  H    1.102250   2.114254   2.675109   5.016358   4.568181
    17  H    2.195103   1.097929   2.198057   5.280881   4.287943
    18  H    2.784822   2.156451   1.097450   3.879221   3.696688
    19  O    3.621933   2.407667   1.428785   3.277303   2.537701
    20  H    4.254122   3.238340   1.964906   2.761448   2.484855
    21  O    2.444437   1.430769   2.437876   4.417310   2.921869
    22  H    3.183780   1.932073   2.372130   4.127773   2.582924
    23  C    1.527783   2.593816   3.802319   5.663759   4.722493
    24  H    2.161168   3.521708   4.514621   5.988834   5.270984
    25  H    2.181117   2.845906   4.106898   5.653845   4.468811
    26  O    2.441390   3.054428   4.451480   6.828846   5.804907
    27  H    2.609602   3.355076   4.581393   7.085041   6.255881
                   11         12         13         14         15
    11  H    0.000000
    12  H    3.887601   0.000000
    13  H    3.890750   1.770803   0.000000
    14  H    2.954777   2.456117   3.054936   0.000000
    15  H    3.985981   2.685919   2.423098   1.774287   0.000000
    16  H    3.139080   3.777580   3.727412   4.773444   5.403915
    17  H    4.068291   5.069749   4.117372   5.889437   5.933340
    18  H    2.293896   5.129141   4.558917   4.958391   5.488577
    19  O    3.139164   5.389297   4.248747   4.993487   4.889026
    20  H    2.993497   5.668653   4.662118   4.830658   4.819664
    21  O    4.128273   4.141155   2.647137   4.964047   4.447879
    22  H    4.184610   4.744593   3.182488   5.139568   4.522926
    23  C    4.481380   3.034003   2.778060   4.942833   5.039159
    24  H    4.717568   2.707844   3.098131   4.827169   5.136379
    25  H    4.920252   2.928296   2.250377   4.941020   4.657834
    26  O    5.481601   4.456174   4.076986   6.332080   6.404086
    27  H    5.449621   4.829423   4.689466   6.580067   6.891495
                   16         17         18         19         20
    16  H    0.000000
    17  H    2.369462   0.000000
    18  H    2.631626   2.388073   0.000000
    19  O    4.045012   2.876433   2.071844   0.000000
    20  H    4.630124   3.777505   2.440609   0.971426   0.000000
    21  O    3.340713   2.078827   3.344621   2.655368   3.490078
    22  H    3.998367   2.496166   3.322043   2.045072   2.848024
    23  C    2.116278   2.991238   4.257435   4.890635   5.600733
    24  H    2.496142   3.970335   4.894868   5.709826   6.322585
    25  H    3.045727   3.362833   4.779080   4.961650   5.682461
    26  O    2.602527   2.922589   4.712317   5.457568   6.285129
    27  H    2.345798   3.094365   4.621059   5.711565   6.499185
                   21         22         23         24         25
    21  O    0.000000
    22  H    0.975670   0.000000
    23  C    2.945424   3.889371   0.000000
    24  H    3.935452   4.851327   1.098763   0.000000
    25  H    2.632886   3.582013   1.091843   1.771832   0.000000
    26  O    3.475823   4.405581   1.431475   2.090527   2.020319
    27  H    4.095673   4.971628   1.951308   2.320090   2.821038
                   26         27
    26  O    0.000000
    27  H    0.972196   0.000000
 Stoichiometry    C8H15NO3
 Framework group  C1[X(C8H15NO3)]
 Deg. of freedom    75
 Full point group                 C1      NOp   1
 Largest Abelian subgroup         C1      NOp   1
 Largest concise Abelian subgroup C1      NOp   1
                         Standard orientation:                         
 ---------------------------------------------------------------------
 Center     Atomic      Atomic             Coordinates (Angstroms)
 Number     Number       Type             X           Y           Z
 ---------------------------------------------------------------------
      1          6           0        2.327473   -0.458598    0.133536
      2          6           0        1.261873    0.010553   -0.873584
      3          7           0        0.113420   -0.951240   -0.742597
      4          6           0        0.435359   -1.883173    0.368121
      5          6           0        1.962136   -1.932454    0.362402
      6          6           0       -1.113603   -0.130267   -0.601876
      7          6           0       -0.682859    1.196448    0.033952
      8          6           0        0.668499    1.437461   -0.659098
      9          1           0        3.345849   -0.314532   -0.240584
     10          1           0        2.234251    0.095452    1.073085
     11          1           0        1.664377   -0.048308   -1.891633
     12          1           0       -0.023271   -2.862798    0.192578
     13          1           0        0.089077   -1.523563    1.345648
     14          1           0        2.321987   -2.552431   -0.467686
     15          1           0        2.370218   -2.339059    1.293064
     16          1           0       -1.457755    0.126836   -1.616968
     17          1           0       -1.398720    2.003218   -0.171265
     18          1           0        0.484625    1.902293   -1.636092
     19          8           0        1.441413    2.323495    0.152674
     20          1           0        2.369388    2.266093   -0.128813
     21          8           0       -0.500188    1.055204    1.445965
     22          1           0        0.249956    1.638555    1.667140
     23          6           0       -2.284469   -0.843468    0.072318
     24          1           0       -2.448676   -1.818517   -0.406844
     25          1           0       -2.093336   -1.017499    1.133121
     26          8           0       -3.472737   -0.046911    0.020960
     27          1           0       -3.696264    0.069623   -0.917987
 ---------------------------------------------------------------------
 Rotational constants (GHZ):      1.3199099      0.8444255      0.6192543
 Standard basis: 6-31+G(d,p) (6D, 7F)
 There are   303 symmetry adapted basis functions of A   symmetry.
 Integral buffers will be    131072 words long.
 Raffenetti 2 integral format.
 Two-electron integral symmetry is turned on.
   303 basis functions,   489 primitive gaussians,   303 cartesian basis functions
    47 alpha electrons       47 beta electrons
       nuclear repulsion energy       813.6591763404 Hartrees.
 NAtoms=   27 NActive=   27 NUniq=   27 SFac= 1.00D+00 NAtFMM=   60 NAOKFM=F Big=F
 ------------------------------------------------------------------------------
 Polarizable Continuum Model (PCM)
 =================================
 Model                : PCM.
 Atomic radii         : UFF (Universal Force Field).
 Polarization charges : Total charges.
 Charge compensation  : None.
 Solution method      : Matrix inversion.
 Cavity type          : Scaled VdW (van der Waals Surface) (Alpha=1.100).
 Cavity algorithm     : GePol (No added spheres)
                        Default sphere list used, NSphG=   27.
                        Lebedev-Laikov grids with approx.  5.0 points / Ang**2.
                        Smoothing algorithm: Karplus/York (Gamma=1.0000).
                        Polarization charges: spherical gaussians, with
                                              point-specific exponents (IZeta= 3).
                        Self-potential: point-specific (ISelfS= 7).
                        Self-field    : sphere-specific E.n sum rule (ISelfD= 2).
 Solvent              : Water, Eps=  78.355300 Eps(inf)=   1.777849
 ------------------------------------------------------------------------------
 One-electron integrals computed using PRISM.
 NBasis=   303 RedAO= T  NBF=   303
 NBsUse=   303 1.00D-06 NBFU=   303
 Harris functional with IExCor=  908 diagonalized for initial guess.
 ExpMin= 4.38D-02 ExpMax= 5.48D+03 ExpMxC= 8.25D+02 IAcc=2 IRadAn=         4 AccDes= 0.00D+00
 HarFok:  IExCor=  908 AccDes= 0.00D+00 IRadAn=         4 IDoV= 1
 ScaDFX=  1.000000  1.000000  1.000000  1.000000
 FoFCou: FMM=F IPFlag=           0 FMFlag=      100000 FMFlg1=           0
         NFxFlg=           0 DoJE=T BraDBF=F KetDBF=T FulRan=T
         Omega=  0.000000  0.000000  1.000000  0.000000  0.000000 ICntrl=     500 IOpCl=  0
         NMat0=    1 NMatS0=    1 NMatT0=    0 NMatD0=    1 NMtDS0=    0 NMtDT0=    0
         I1Cent=           4 NGrid=           0.
 Petite list used in FoFCou.
 Initial guess orbital symmetries:
       Occupied  (A) (A) (A) (A) (A) (A) (A) (A) (A) (A) (A) (A)
                 (A) (A) (A) (A) (A) (A) (A) (A) (A) (A) (A) (A)
                 (A) (A) (A) (A) (A) (A) (A) (A) (A) (A) (A) (A)
                 (A) (A) (A) (A) (A) (A) (A) (A) (A) (A) (A)
       Virtual   (A) (A) (A) (A) (A) (A) (A) (A) (A) (A) (A) (A)
                 (A) (A) (A) (A) (A) (A) (A) (A) (A) (A) (A) (A)
                 (A) (A) (A) (A) (A) (A) (A) (A) (A) (A) (A) (A)
                 (A) (A) (A) (A) (A) (A) (A) (A) (A) (A) (A) (A)
                 (A) (A) (A) (A) (A) (A) (A) (A) (A) (A) (A) (A)
                 (A) (A) (A) (A) (A) (A) (A) (A) (A) (A) (A) (A)
                 (A) (A) (A) (A) (A) (A) (A) (A) (A) (A) (A) (A)
                 (A) (A) (A) (A) (A) (A) (A) (A) (A) (A) (A) (A)
                 (A) (A) (A) (A) (A) (A) (A) (A) (A) (A) (A) (A)
                 (A) (A) (A) (A) (A) (A) (A) (A) (A) (A) (A) (A)
                 (A) (A) (A) (A) (A) (A) (A) (A) (A) (A) (A) (A)
                 (A) (A) (A) (A) (A) (A) (A) (A) (A) (A) (A) (A)
                 (A) (A) (A) (A) (A) (A) (A) (A) (A) (A) (A) (A)
                 (A) (A) (A) (A) (A) (A) (A) (A) (A) (A) (A) (A)
                 (A) (A) (A) (A) (A) (A) (A) (A) (A) (A) (A) (A)
                 (A) (A) (A) (A) (A) (A) (A) (A) (A) (A) (A) (A)
                 (A) (A) (A) (A) (A) (A) (A) (A) (A) (A) (A) (A)
                 (A) (A) (A) (A) (A) (A) (A) (A) (A) (A) (A) (A)
                 (A) (A) (A) (A) (A) (A) (A) (A) (A) (A) (A) (A)
                 (A) (A) (A) (A) (A) (A) (A) (A) (A) (A) (A) (A)
                 (A) (A) (A) (A) (A) (A) (A) (A) (A) (A) (A) (A)
                 (A) (A) (A) (A)
 The electronic state of the initial guess is 1-A.
 Requested convergence on RMS density matrix=1.00D-08 within 128 cycles.
 Requested convergence on MAX density matrix=1.00D-06.
 Requested convergence on             energy=1.00D-06.
 No special actions if energy rises.
 Error on total polarization charges =  0.01420
 SCF Done:  E(RmPW1PW91) =  -594.190306143     A.U. after   13 cycles
             Convg  =    0.5376D-08             -V/T =  2.0094
 Range of M.O.s used for correlation:     1   303
 NBasis=   303 NAE=    47 NBE=    47 NFC=     0 NFV=     0
 NROrb=    303 NOA=    47 NOB=    47 NVA=   256 NVB=   256

 **** Warning!!: The largest alpha MO coefficient is  0.74352942D+02

 NEqPCM:  Using equilibrium solvation (IEInf=0, Eps=  78.3553, EpsInf=   1.7778)
          Differentiating once with respect to magnetic field using GIAOs.
          Electric field/nuclear overlap derivatives assumed to be zero.
 FoFCou: FMM=F IPFlag=           0 FMFlag=    10101102 FMFlg1=           0
         NFxFlg=    40000000 DoJE=F BraDBF=F KetDBF=T FulRan=T
         Omega=  0.000000  0.000000  1.000000  0.000000  0.000000 ICntrl=    6100 IOpCl=  0
         NMat0=    1 NMatS0=    1 NMatT0=    0 NMatD0=    1 NMtDS0=    0 NMtDT0=    0
         I1Cent=           7 NGrid=        1800.
 Symmetry not used in FoFCou.
          There are     3 degrees of freedom in the 1st order CPHF.  IDoFFX=0.
      3 vectors produced by pass  0 Test12= 4.01D-13 3.33D-08 XBig12= 3.46D+01 1.12D+00.
 AX will form     3 AO Fock derivatives at one time.
      3 vectors produced by pass  1 Test12= 4.01D-13 3.33D-08 XBig12= 8.63D-02 4.32D-02.
      3 vectors produced by pass  2 Test12= 4.01D-13 3.33D-08 XBig12= 2.06D-04 3.12D-03.
      3 vectors produced by pass  3 Test12= 4.01D-13 3.33D-08 XBig12= 1.03D-06 1.72D-04.
      3 vectors produced by pass  4 Test12= 4.01D-13 3.33D-08 XBig12= 3.14D-09 7.35D-06.
      3 vectors produced by pass  5 Test12= 4.01D-13 3.33D-08 XBig12= 9.49D-12 6.19D-07.
      1 vectors produced by pass  6 Test12= 4.01D-13 3.33D-08 XBig12= 3.83D-14 4.11D-08.
 Inverted reduced A of dimension    19 with in-core refinement.
 Calculating GIAO nuclear magnetic shielding tensors.
 SCF GIAO Magnetic shielding tensor (ppm):
      1  C    Isotropic =   168.4260   Anisotropy =    19.3297
   XX=   172.0641   YX=    -0.6873   ZX=     6.7863
   XY=     7.5051   YY=   175.5884   ZY=   -12.1150
   XZ=     9.2874   YZ=   -11.0865   ZZ=   157.6255
   Eigenvalues:   148.6848   175.2807   181.3125
      2  C    Isotropic =   127.4640   Anisotropy =    53.5331
   XX=   144.5508   YX=    16.7111   ZX=     2.7584
   XY=    18.3322   YY=   146.3937   ZY=    -2.9542
   XZ=    13.9404   YZ=    -4.4484   ZZ=    91.4475
   Eigenvalues:    89.3985   129.8407   163.1528
      3  N    Isotropic =   190.6018   Anisotropy =    91.8474
   XX=   250.7814   YX=     0.3898   ZX=    -2.2014
   XY=     8.0420   YY=   190.6912   ZY=   -25.2890
   XZ=   -12.3011   YZ=   -29.0994   ZZ=   130.3328
   Eigenvalues:   119.6763   200.2957   251.8334
      4  C    Isotropic =   144.8002   Anisotropy =    48.2680
   XX=   144.4310   YX=    -2.5654   ZX=    12.8624
   XY=   -11.9245   YY=   147.4872   ZY=   -24.4945
   XZ=     8.8886   YZ=   -29.3296   ZZ=   142.4825
   Eigenvalues:   117.5401   139.8817   176.9789
      5  C    Isotropic =   166.5121   Anisotropy =    20.8783
   XX=   179.7880   YX=     1.8311   ZX=     8.5351
   XY=     1.6778   YY=   172.5453   ZY=   -17.9087
   XZ=     0.6861   YZ=    -8.6949   ZZ=   147.2030
   Eigenvalues:   140.8787   178.2266   180.4310
      6  C    Isotropic =   128.5497   Anisotropy =    42.3058
   XX=   151.2869   YX=   -15.3272   ZX=   -11.7863
   XY=    -6.6876   YY=   128.7685   ZY=     3.1467
   XZ=     2.2796   YZ=    10.8021   ZZ=   105.5938
   Eigenvalues:   103.5939   125.3017   156.7536
      7  C    Isotropic =   120.1886   Anisotropy =    31.3089
   XX=   107.2263   YX=     0.4158   ZX=     8.8857
   XY=     1.3436   YY=   112.6345   ZY=     2.1677
   XZ=    -4.6595   YZ=     2.7697   ZZ=   140.7050
   Eigenvalues:   106.9975   112.5071   141.0612
      8  C    Isotropic =   119.7052   Anisotropy =    50.4432
   XX=   129.7472   YX=    16.9041   ZX=    10.6116
   XY=    15.9186   YY=   130.1190   ZY=    20.2335
   XZ=     6.2303   YZ=    17.1409   ZZ=    99.2494
   Eigenvalues:    90.4348   115.3467   153.3339
      9  H    Isotropic =    30.0328   Anisotropy =    11.1537
   XX=    36.9351   YX=     0.8211   ZX=    -2.0722
   XY=     1.3665   YY=    27.7191   ZY=    -1.1229
   XZ=    -2.1404   YZ=    -0.7934   ZZ=    25.4442
   Eigenvalues:    24.8632    27.7666    37.4686
     10  H    Isotropic =    29.6197   Anisotropy =     6.1671
   XX=    27.5276   YX=    -1.1734   ZX=     2.5241
   XY=    -1.3365   YY=    30.9098   ZY=     2.7295
   XZ=     3.0118   YZ=     3.0058   ZZ=    30.4218
   Eigenvalues:    24.7136    30.4144    33.7311
     11  H    Isotropic =    27.8647   Anisotropy =     8.9105
   XX=    26.4957   YX=     1.2560   ZX=    -4.0842
   XY=     0.3238   YY=    25.3364   ZY=    -0.7480
   XZ=    -3.2691   YZ=    -1.0056   ZZ=    31.7620
   Eigenvalues:    24.4792    25.3099    33.8051
     12  H    Isotropic =    28.8064   Anisotropy =     9.6143
   XX=    28.1698   YX=     1.5091   ZX=     0.7607
   XY=     2.8588   YY=    34.3390   ZY=    -1.2969
   XZ=     0.7498   YZ=    -2.1680   ZZ=    23.9103
   Eigenvalues:    23.3604    27.8428    35.2159
     13  H    Isotropic =    28.2671   Anisotropy =     6.3802
   XX=    27.2139   YX=    -1.8999   ZX=    -1.0830
   XY=    -2.5817   YY=    26.6997   ZY=    -3.2724
   XZ=    -3.0234   YZ=    -2.5049   ZZ=    30.8877
   Eigenvalues:    23.1024    29.1783    32.5206
     14  H    Isotropic =    29.8172   Anisotropy =    11.3157
   XX=    29.2546   YX=    -3.4005   ZX=    -2.4888
   XY=    -3.6989   YY=    33.0543   ZY=     3.6637
   XZ=    -2.6576   YZ=     4.2566   ZZ=    27.1428
   Eigenvalues:    24.9515    27.1391    37.3610
     15  H    Isotropic =    29.7065   Anisotropy =    11.7485
   XX=    28.8097   YX=    -2.6239   ZX=     3.9245
   XY=    -3.0791   YY=    29.7987   ZY=    -4.9523
   XZ=     3.9964   YZ=    -4.3960   ZZ=    30.5110
   Eigenvalues:    25.1702    26.4103    37.5388
     16  H    Isotropic =    28.7808   Anisotropy =     7.9233
   XX=    30.4750   YX=    -0.5127   ZX=     3.3238
   XY=    -1.4953   YY=    25.4092   ZY=    -0.8654
   XZ=     3.7408   YZ=     0.7767   ZZ=    30.4583
   Eigenvalues:    25.0974    27.1821    34.0631
     17  H    Isotropic =    27.3109   Anisotropy =     7.8155
   XX=    27.6850   YX=    -3.6914   ZX=     1.2546
   XY=    -3.1742   YY=    28.2429   ZY=    -1.5599
   XZ=     2.5742   YZ=    -2.2356   ZZ=    26.0049
   Eigenvalues:    24.4886    24.9230    32.5213
     18  H    Isotropic =    27.2303   Anisotropy =     7.0832
   XX=    23.8042   YX=     0.0613   ZX=     2.8098
   XY=     1.2177   YY=    28.3049   ZY=    -1.9973
   XZ=     0.3587   YZ=    -3.6991   ZZ=    29.5819
   Eigenvalues:    22.9933    26.7452    31.9524
     19  O    Isotropic =   304.1038   Anisotropy =    49.8026
   XX=   327.5766   YX=    -3.1304   ZX=   -11.3204
   XY=     5.7992   YY=   312.6288   ZY=    11.8175
   XZ=   -39.0352   YZ=    -6.9259   ZZ=   272.1061
   Eigenvalues:   262.2311   312.7748   337.3056
     20  H    Isotropic =    30.0333   Anisotropy =    18.4313
   XX=    41.1954   YX=     3.6107   ZX=    -3.4029
   XY=     2.6698   YY=    26.3200   ZY=     2.1595
   XZ=    -3.6897   YZ=     1.8859   ZZ=    22.5844
   Eigenvalues:    20.6920    27.0870    42.3208
     21  O    Isotropic =   314.2012   Anisotropy =    28.6461
   XX=   325.4775   YX=     8.9048   ZX=    21.9947
   XY=     2.4372   YY=   324.3355   ZY=   -13.3806
   XZ=     7.0598   YZ=     8.5134   ZZ=   292.7906
   Eigenvalues:   286.7715   322.5334   333.2986
     22  H    Isotropic =    28.5855   Anisotropy =    17.0270
   XX=    31.6166   YX=    10.2831   ZX=     0.3832
   XY=     9.4883   YY=    25.6082   ZY=     3.9481
   XZ=     2.1019   YZ=     3.8656   ZZ=    28.5316
   Eigenvalues:    17.7212    28.0984    39.9368
     23  C    Isotropic =   135.8084   Anisotropy =    69.6236
   XX=   165.4430   YX=   -27.8513   ZX=     1.3801
   XY=   -26.6055   YY=   137.3129   ZY=    -6.2519
   XZ=     1.0713   YZ=    -4.8281   ZZ=   104.6694
   Eigenvalues:   103.5001   121.7010   182.2241
     24  H    Isotropic =    27.5071   Anisotropy =     5.6230
   XX=    29.7788   YX=    -1.2277   ZX=    -0.1765
   XY=     1.1249   YY=    30.9393   ZY=     1.9766
   XZ=     0.6996   YZ=     1.4820   ZZ=    21.8031
   Eigenvalues:    21.4782    29.7873    31.2557
     25  H    Isotropic =    27.3211   Anisotropy =     4.2013
   XX=    29.9844   YX=    -0.5447   ZX=     1.0530
   XY=    -0.4066   YY=    25.2304   ZY=    -3.4248
   XZ=    -0.8054   YZ=    -2.2297   ZZ=    26.7486
   Eigenvalues:    23.0489    28.7925    30.1220
     26  O    Isotropic =   307.6211   Anisotropy =    57.6745
   XX=   304.4137   YX=     0.8863   ZX=     1.7376
   XY=   -10.3679   YY=   281.8989   ZY=   -10.4517
   XZ=    21.9437   YZ=   -26.4321   ZZ=   336.5508
   Eigenvalues:   276.2136   300.5790   346.0708
     27  H    Isotropic =    30.6182   Anisotropy =    17.4349
   XX=    30.8491   YX=    -3.2698   ZX=     6.2571
   XY=    -3.2866   YY=    23.0823   ZY=    -3.1765
   XZ=     6.0719   YZ=    -1.7367   ZZ=    37.9233
   Eigenvalues:    21.8805    27.7327    42.2415
 End of Minotr Frequency-dependent properties file   721 does not exist.
 End of Minotr Frequency-dependent properties file   722 does not exist.

 **********************************************************************

            Population analysis using the SCF density.

 **********************************************************************

 Orbital symmetries:
       Occupied  (A) (A) (A) (A) (A) (A) (A) (A) (A) (A) (A) (A)
                 (A) (A) (A) (A) (A) (A) (A) (A) (A) (A) (A) (A)
                 (A) (A) (A) (A) (A) (A) (A) (A) (A) (A) (A) (A)
                 (A) (A) (A) (A) (A) (A) (A) (A) (A) (A) (A)
       Virtual   (A) (A) (A) (A) (A) (A) (A) (A) (A) (A) (A) (A)
                 (A) (A) (A) (A) (A) (A) (A) (A) (A) (A) (A) (A)
                 (A) (A) (A) (A) (A) (A) (A) (A) (A) (A) (A) (A)
                 (A) (A) (A) (A) (A) (A) (A) (A) (A) (A) (A) (A)
                 (A) (A) (A) (A) (A) (A) (A) (A) (A) (A) (A) (A)
                 (A) (A) (A) (A) (A) (A) (A) (A) (A) (A) (A) (A)
                 (A) (A) (A) (A) (A) (A) (A) (A) (A) (A) (A) (A)
                 (A) (A) (A) (A) (A) (A) (A) (A) (A) (A) (A) (A)
                 (A) (A) (A) (A) (A) (A) (A) (A) (A) (A) (A) (A)
                 (A) (A) (A) (A) (A) (A) (A) (A) (A) (A) (A) (A)
                 (A) (A) (A) (A) (A) (A) (A) (A) (A) (A) (A) (A)
                 (A) (A) (A) (A) (A) (A) (A) (A) (A) (A) (A) (A)
                 (A) (A) (A) (A) (A) (A) (A) (A) (A) (A) (A) (A)
                 (A) (A) (A) (A) (A) (A) (A) (A) (A) (A) (A) (A)
                 (A) (A) (A) (A) (A) (A) (A) (A) (A) (A) (A) (A)
                 (A) (A) (A) (A) (A) (A) (A) (A) (A) (A) (A) (A)
                 (A) (A) (A) (A) (A) (A) (A) (A) (A) (A) (A) (A)
                 (A) (A) (A) (A) (A) (A) (A) (A) (A) (A) (A) (A)
                 (A) (A) (A) (A) (A) (A) (A) (A) (A) (A) (A) (A)
                 (A) (A) (A) (A) (A) (A) (A) (A) (A) (A) (A) (A)
                 (A) (A) (A) (A) (A) (A) (A) (A) (A) (A) (A) (A)
                 (A) (A) (A) (A)
 The electronic state is 1-A.
 Alpha  occ. eigenvalues --  -19.26862 -19.25800 -19.24954 -14.41175 -10.30691
 Alpha  occ. eigenvalues --  -10.29960 -10.29784 -10.28141 -10.27813 -10.26513
 Alpha  occ. eigenvalues --  -10.24589 -10.24555  -1.08039  -1.05940  -1.04623
 Alpha  occ. eigenvalues --   -0.96092  -0.82842  -0.78855  -0.75110  -0.71852
 Alpha  occ. eigenvalues --   -0.67067  -0.61513  -0.59991  -0.58673  -0.54433
 Alpha  occ. eigenvalues --   -0.52932  -0.52337  -0.51068  -0.49359  -0.47041
 Alpha  occ. eigenvalues --   -0.46715  -0.44731  -0.43084  -0.41659  -0.41044
 Alpha  occ. eigenvalues --   -0.38790  -0.38386  -0.37208  -0.35914  -0.35514
 Alpha  occ. eigenvalues --   -0.34985  -0.34706  -0.34188  -0.30763  -0.29962
 Alpha  occ. eigenvalues --   -0.28855  -0.22731
 Alpha virt. eigenvalues --   -0.00138   0.01349   0.01962   0.02192   0.03651
 Alpha virt. eigenvalues --    0.04055   0.05003   0.05214   0.05469   0.06721
 Alpha virt. eigenvalues --    0.07851   0.08616   0.08973   0.09079   0.09522
 Alpha virt. eigenvalues --    0.10451   0.11562   0.11903   0.12580   0.13378
 Alpha virt. eigenvalues --    0.13647   0.13934   0.14151   0.14723   0.15048
 Alpha virt. eigenvalues --    0.15964   0.16832   0.17020   0.18032   0.18063
 Alpha virt. eigenvalues --    0.18796   0.19439   0.20031   0.20261   0.21371
 Alpha virt. eigenvalues --    0.21610   0.21985   0.22208   0.23060   0.23382
 Alpha virt. eigenvalues --    0.24052   0.24601   0.25174   0.25672   0.25963
 Alpha virt. eigenvalues --    0.26460   0.26978   0.28264   0.28600   0.29219
 Alpha virt. eigenvalues --    0.29399   0.29647   0.30367   0.30733   0.32041
 Alpha virt. eigenvalues --    0.32392   0.32961   0.33644   0.34609   0.34666
 Alpha virt. eigenvalues --    0.35414   0.35749   0.36754   0.37833   0.38335
 Alpha virt. eigenvalues --    0.39192   0.39991   0.40117   0.41499   0.41956
 Alpha virt. eigenvalues --    0.42640   0.43185   0.44611   0.46756   0.46927
 Alpha virt. eigenvalues --    0.50776   0.64404   0.67225   0.68088   0.69068
 Alpha virt. eigenvalues --    0.70055   0.70213   0.71961   0.72434   0.73415
 Alpha virt. eigenvalues --    0.75252   0.76053   0.78571   0.79629   0.81073
 Alpha virt. eigenvalues --    0.82451   0.83753   0.84727   0.86345   0.89311
 Alpha virt. eigenvalues --    0.91608   0.93341   0.94300   0.94560   0.96915
 Alpha virt. eigenvalues --    0.98865   1.00410   1.01679   1.03417   1.05136
 Alpha virt. eigenvalues --    1.06670   1.06761   1.07187   1.08982   1.09278
 Alpha virt. eigenvalues --    1.10924   1.12160   1.13732   1.16253   1.17185
 Alpha virt. eigenvalues --    1.17727   1.18682   1.19297   1.23689   1.25500
 Alpha virt. eigenvalues --    1.27301   1.28934   1.30802   1.32293   1.33330
 Alpha virt. eigenvalues --    1.34982   1.35634   1.38927   1.39655   1.40319
 Alpha virt. eigenvalues --    1.42266   1.44634   1.47127   1.49472   1.52503
 Alpha virt. eigenvalues --    1.53442   1.56558   1.58328   1.60116   1.60908
 Alpha virt. eigenvalues --    1.62558   1.63999   1.68757   1.69278   1.71227
 Alpha virt. eigenvalues --    1.72111   1.74049   1.76686   1.78612   1.79918
 Alpha virt. eigenvalues --    1.80602   1.82527   1.83601   1.85227   1.86697
 Alpha virt. eigenvalues --    1.88621   1.89656   1.92877   1.93254   1.94158
 Alpha virt. eigenvalues --    1.95756   1.99967   2.01855   2.02997   2.04003
 Alpha virt. eigenvalues --    2.06618   2.07388   2.08651   2.10268   2.11277
 Alpha virt. eigenvalues --    2.11469   2.15752   2.16226   2.18976   2.20331
 Alpha virt. eigenvalues --    2.20950   2.22739   2.23919   2.27982   2.29191
 Alpha virt. eigenvalues --    2.32127   2.32380   2.34444   2.37764   2.39598
 Alpha virt. eigenvalues --    2.41298   2.43218   2.43604   2.45132   2.48346
 Alpha virt. eigenvalues --    2.49555   2.50769   2.51982   2.52810   2.55233
 Alpha virt. eigenvalues --    2.57900   2.59341   2.60825   2.61893   2.63035
 Alpha virt. eigenvalues --    2.64531   2.65075   2.67446   2.68725   2.71191
 Alpha virt. eigenvalues --    2.72659   2.72907   2.76076   2.76626   2.78928
 Alpha virt. eigenvalues --    2.79044   2.81059   2.81942   2.83286   2.85324
 Alpha virt. eigenvalues --    2.87277   2.87628   2.90183   2.90989   2.95752
 Alpha virt. eigenvalues --    2.97577   2.98878   3.00661   3.03281   3.05378
 Alpha virt. eigenvalues --    3.07021   3.09791   3.11708   3.13835   3.32619
 Alpha virt. eigenvalues --    3.35725   3.36646   3.38336   3.43605   3.44159
 Alpha virt. eigenvalues --    3.46176   3.50392   3.51839   3.52974   3.56755
 Alpha virt. eigenvalues --    3.57463   3.58363   3.59476   3.61317   4.30802
 Alpha virt. eigenvalues --    4.38056   4.38934   4.46165   4.51803   4.53475
 Alpha virt. eigenvalues --    4.61232   4.74147   4.76369   4.81677   4.87719
 Alpha virt. eigenvalues --    4.96763
          Condensed to atoms (all electrons):
              1          2          3          4          5          6
     1  C    5.872914  -0.533785   0.092030  -0.149339   0.188108   0.125022
     2  C   -0.533785   7.760268  -0.238130  -0.423505   0.179384  -0.660023
     3  N    0.092030  -0.238130   7.483275   0.348393  -0.223914  -0.341027
     4  C   -0.149339  -0.423505   0.348393   5.841396  -0.052719  -0.302873
     5  C    0.188108   0.179384  -0.223914  -0.052719   5.701756   0.107042
     6  C    0.125022  -0.660023  -0.341027  -0.302873   0.107042   9.565062
     7  C   -0.205489   0.647200  -0.120829  -0.116736   0.043186  -2.029636
     8  C    0.140733  -0.611177   0.012695   0.189716  -0.053480   0.601739
     9  H    0.378042  -0.063201   0.011356   0.047077  -0.046204   0.003431
    10  H    0.484895  -0.146745   0.026197   0.007918  -0.058980  -0.002146
    11  H    0.027904   0.208275   0.000524   0.019313  -0.014264  -0.005901
    12  H    0.031583  -0.000116  -0.055387   0.376293  -0.006896  -0.002485
    13  H   -0.007665   0.010988  -0.079812   0.379081  -0.016827   0.058219
    14  H   -0.023744  -0.031958   0.017161  -0.050535   0.410318   0.002541
    15  H   -0.063913   0.041870   0.006973  -0.043976   0.407675  -0.009089
    16  H    0.003536  -0.025353   0.002655   0.026446  -0.000960   0.239581
    17  H   -0.000554   0.027364   0.029947   0.004090  -0.001957  -0.165105
    18  H    0.010823  -0.015862   0.015890   0.002821  -0.000143  -0.024399
    19  O    0.060210  -0.155035   0.038887   0.002854   0.006378   0.017440
    20  H    0.013617  -0.057376   0.000359  -0.000498   0.003312  -0.002348
    21  O    0.007304   0.056283   0.113707   0.033719  -0.027216  -0.469283
    22  H    0.003654  -0.016061  -0.011430  -0.001401  -0.001915   0.098419
    23  C   -0.049754   0.098300   0.004246  -0.068772  -0.013123  -0.448714
    24  H    0.002483   0.003276  -0.005249  -0.002857  -0.001114  -0.011743
    25  H   -0.001693  -0.000246   0.013811   0.018240   0.001336  -0.125340
    26  O    0.004773  -0.011662   0.019233   0.000102  -0.005474  -0.060122
    27  H    0.000168  -0.000228   0.002885   0.005743   0.000413  -0.004843
              7          8          9         10         11         12
     1  C   -0.205489   0.140733   0.378042   0.484895   0.027904   0.031583
     2  C    0.647200  -0.611177  -0.063201  -0.146745   0.208275  -0.000116
     3  N   -0.120829   0.012695   0.011356   0.026197   0.000524  -0.055387
     4  C   -0.116736   0.189716   0.047077   0.007918   0.019313   0.376293
     5  C    0.043186  -0.053480  -0.046204  -0.058980  -0.014264  -0.006896
     6  C   -2.029636   0.601739   0.003431  -0.002146  -0.005901  -0.002485
     7  C    7.708001  -0.884629  -0.020401   0.016957   0.012436  -0.008092
     8  C   -0.884629   6.403156   0.031816  -0.010298   0.020944  -0.005377
     9  H   -0.020401   0.031816   0.517675  -0.026439  -0.004999  -0.000106
    10  H    0.016957  -0.010298  -0.026439   0.516019   0.004310  -0.000054
    11  H    0.012436   0.020944  -0.004999   0.004310   0.565173   0.000143
    12  H   -0.008092  -0.005377  -0.000106  -0.000054   0.000143   0.555880
    13  H    0.019416  -0.000728  -0.000115   0.001022  -0.000462  -0.045012
    14  H    0.006075  -0.000681  -0.004977   0.004070   0.000782  -0.006816
    15  H    0.005321  -0.004568   0.000226  -0.005517  -0.000125   0.000534
    16  H   -0.013925   0.003698   0.000004   0.000014   0.001812   0.000201
    17  H    0.423625  -0.005091   0.000005  -0.000060  -0.000079   0.000011
    18  H   -0.000482   0.303777  -0.000095   0.000057  -0.007195   0.000004
    19  O   -0.163786   0.265051  -0.002326   0.004093   0.002849   0.000105
    20  H    0.027235   0.018330  -0.000131  -0.000735   0.001095   0.000000
    21  O    0.381755  -0.088466   0.000715  -0.001911   0.000181   0.001277
    22  H   -0.065515  -0.015515   0.000011  -0.000271  -0.000040  -0.000011
    23  C    0.203606  -0.227689   0.000010  -0.000593   0.000036   0.003970
    24  H    0.006053   0.001306   0.000000   0.000000  -0.000007  -0.000826
    25  H   -0.011241  -0.002471   0.000000   0.000000   0.000002  -0.000396
    26  O   -0.031406   0.048093  -0.000001  -0.000005   0.000031  -0.000083
    27  H   -0.022878  -0.000018   0.000000   0.000000   0.000000   0.000000
             13         14         15         16         17         18
     1  C   -0.007665  -0.023744  -0.063913   0.003536  -0.000554   0.010823
     2  C    0.010988  -0.031958   0.041870  -0.025353   0.027364  -0.015862
     3  N   -0.079812   0.017161   0.006973   0.002655   0.029947   0.015890
     4  C    0.379081  -0.050535  -0.043976   0.026446   0.004090   0.002821
     5  C   -0.016827   0.410318   0.407675  -0.000960  -0.001957  -0.000143
     6  C    0.058219   0.002541  -0.009089   0.239581  -0.165105  -0.024399
     7  C    0.019416   0.006075   0.005321  -0.013925   0.423625  -0.000482
     8  C   -0.000728  -0.000681  -0.004568   0.003698  -0.005091   0.303777
     9  H   -0.000115  -0.004977   0.000226   0.000004   0.000005  -0.000095
    10  H    0.001022   0.004070  -0.005517   0.000014  -0.000060   0.000057
    11  H   -0.000462   0.000782  -0.000125   0.001812  -0.000079  -0.007195
    12  H   -0.045012  -0.006816   0.000534   0.000201   0.000011   0.000004
    13  H    0.555142   0.004067  -0.004452  -0.000505  -0.000192  -0.000005
    14  H    0.004067   0.523282  -0.025000   0.000006   0.000000   0.000002
    15  H   -0.004452  -0.025000   0.515692   0.000002   0.000000   0.000003
    16  H   -0.000505   0.000006   0.000002   0.576486   0.001541   0.001057
    17  H   -0.000192   0.000000   0.000000   0.001541   0.571049  -0.004106
    18  H   -0.000005   0.000002   0.000003   0.001057  -0.004106   0.565300
    19  O   -0.000513   0.000105   0.000060   0.000435   0.000523  -0.033848
    20  H    0.000000  -0.000001   0.000002   0.000002  -0.000202  -0.003356
    21  O   -0.014763  -0.000148   0.000017   0.012389  -0.045593   0.005752
    22  H    0.000434   0.000001  -0.000001  -0.000321   0.000053   0.000593
    23  C   -0.029749  -0.001956   0.001405   0.008600  -0.000182   0.008776
    24  H    0.000472   0.000004   0.000000  -0.007323  -0.000078   0.000004
    25  H   -0.001052   0.000000   0.000002   0.004844   0.000395  -0.000002
    26  O    0.000181   0.000003   0.000000  -0.005909   0.005066  -0.000126
    27  H   -0.000014   0.000000   0.000000   0.005995   0.000263   0.000006
             19         20         21         22         23         24
     1  C    0.060210   0.013617   0.007304   0.003654  -0.049754   0.002483
     2  C   -0.155035  -0.057376   0.056283  -0.016061   0.098300   0.003276
     3  N    0.038887   0.000359   0.113707  -0.011430   0.004246  -0.005249
     4  C    0.002854  -0.000498   0.033719  -0.001401  -0.068772  -0.002857
     5  C    0.006378   0.003312  -0.027216  -0.001915  -0.013123  -0.001114
     6  C    0.017440  -0.002348  -0.469283   0.098419  -0.448714  -0.011743
     7  C   -0.163786   0.027235   0.381755  -0.065515   0.203606   0.006053
     8  C    0.265051   0.018330  -0.088466  -0.015515  -0.227689   0.001306
     9  H   -0.002326  -0.000131   0.000715   0.000011   0.000010   0.000000
    10  H    0.004093  -0.000735  -0.001911  -0.000271  -0.000593   0.000000
    11  H    0.002849   0.001095   0.000181  -0.000040   0.000036  -0.000007
    12  H    0.000105   0.000000   0.001277  -0.000011   0.003970  -0.000826
    13  H   -0.000513   0.000000  -0.014763   0.000434  -0.029749   0.000472
    14  H    0.000105  -0.000001  -0.000148   0.000001  -0.001956   0.000004
    15  H    0.000060   0.000002   0.000017  -0.000001   0.001405   0.000000
    16  H    0.000435   0.000002   0.012389  -0.000321   0.008600  -0.007323
    17  H    0.000523  -0.000202  -0.045593   0.000053  -0.000182  -0.000078
    18  H   -0.033848  -0.003356   0.005752   0.000593   0.008776   0.000004
    19  O    8.298864   0.244849  -0.010208   0.024039  -0.010320   0.000026
    20  H    0.244849   0.363423  -0.000432  -0.001200   0.001692   0.000000
    21  O   -0.010208  -0.000432   8.328458   0.245739   0.061175  -0.001474
    22  H    0.024039  -0.001200   0.245739   0.354746  -0.006683  -0.000002
    23  C   -0.010320   0.001692   0.061175  -0.006683   5.632934   0.369951
    24  H    0.000026   0.000000  -0.001474  -0.000002   0.369951   0.561541
    25  H    0.000040   0.000000   0.011117  -0.000206   0.471257  -0.038060
    26  O    0.000175  -0.000002   0.004358  -0.000398   0.151796  -0.039547
    27  H    0.000017   0.000000   0.000527  -0.000002   0.006049  -0.007143
             25         26         27
     1  C   -0.001693   0.004773   0.000168
     2  C   -0.000246  -0.011662  -0.000228
     3  N    0.013811   0.019233   0.002885
     4  C    0.018240   0.000102   0.005743
     5  C    0.001336  -0.005474   0.000413
     6  C   -0.125340  -0.060122  -0.004843
     7  C   -0.011241  -0.031406  -0.022878
     8  C   -0.002471   0.048093  -0.000018
     9  H    0.000000  -0.000001   0.000000
    10  H    0.000000  -0.000005   0.000000
    11  H    0.000002   0.000031   0.000000
    12  H   -0.000396  -0.000083   0.000000
    13  H   -0.001052   0.000181  -0.000014
    14  H    0.000000   0.000003   0.000000
    15  H    0.000002   0.000000   0.000000
    16  H    0.004844  -0.005909   0.005995
    17  H    0.000395   0.005066   0.000263
    18  H   -0.000002  -0.000126   0.000006
    19  O    0.000040   0.000175   0.000017
    20  H    0.000000  -0.000002   0.000000
    21  O    0.011117   0.004358   0.000527
    22  H   -0.000206  -0.000398  -0.000002
    23  C    0.471257   0.151796   0.006049
    24  H   -0.038060  -0.039547  -0.007143
    25  H    0.532011  -0.053854   0.006499
    26  O   -0.053854   8.258256   0.258126
    27  H    0.006499   0.258126   0.374594
 Mulliken atomic charges:
              1
     1  C   -0.411863
     2  C   -0.042746
     3  N   -0.164446
     4  C   -0.089988
     5  C   -0.523721
     6  C   -0.153416
     7  C    0.194181
     8  C   -0.130863
     9  H    0.178626
    10  H    0.188204
    11  H    0.167260
    12  H    0.161657
    13  H    0.172844
    14  H    0.177401
    15  H    0.176861
    16  H    0.164994
    17  H    0.159267
    18  H    0.174752
    19  O   -0.590965
    20  H    0.392368
    21  O   -0.604978
    22  H    0.393286
    23  C   -0.166270
    24  H    0.170310
    25  H    0.175005
    26  O   -0.541602
    27  H    0.373842
 Sum of Mulliken atomic charges =   0.00000
 Mulliken charges with hydrogens summed into heavy atoms:
              1
     1  C   -0.045033
     2  C    0.124515
     3  N   -0.164446
     4  C    0.244513
     5  C   -0.169458
     6  C    0.011577
     7  C    0.353448
     8  C    0.043889
    19  O   -0.198597
    21  O   -0.211692
    23  C    0.179044
    26  O   -0.167760
 Sum of Mulliken charges with hydrogens summed into heavy atoms =   0.00000
 Electronic spatial extent (au):  <R**2>=           1989.6474
 Charge=              0.0000 electrons
 Dipole moment (field-independent basis, Debye):
    X=              3.8194    Y=             -0.2226    Z=             -3.1660  Tot=              4.9660
 Quadrupole moment (field-independent basis, Debye-Ang):
   XX=            -70.8695   YY=            -74.0400   ZZ=            -73.3189
   XY=              3.8121   XZ=              7.9861   YZ=             -5.8143
 Traceless Quadrupole moment (field-independent basis, Debye-Ang):
   XX=              1.8733   YY=             -1.2972   ZZ=             -0.5761
   XY=              3.8121   XZ=              7.9861   YZ=             -5.8143
 Octapole moment (field-independent basis, Debye-Ang**2):
  XXX=             42.4083  YYY=             -1.2552  ZZZ=              1.0979  XYY=              0.1440
  XXY=             10.3722  XXZ=            -32.0192  XZZ=             -2.6074  YZZ=              8.6991
  YYZ=              1.4626  XYZ=              0.6143
 Hexadecapole moment (field-independent basis, Debye-Ang**3):
 XXXX=          -1429.8140 YYYY=           -895.2530 ZZZZ=           -301.2696 XXXY=             50.2920
 XXXZ=             96.6502 YYYX=             13.0347 YYYZ=             -4.6044 ZZZX=             18.0323
 ZZZY=             -3.5129 XXYY=           -345.9620 XXZZ=           -254.4819 YYZZ=           -191.3883
 XXYZ=             -9.9540 YYXZ=             -0.0030 ZZXY=             10.6043
 N-N= 8.136591763404D+02 E-N=-3.013373479154D+03  KE= 5.886602557730D+02
 1\1\GINC-COMPUTE-3-1\SP\RmPW1PW91\6-31+G(d,p)\C8H15N1O3\MAMICHETTI.IQU
 IR\17-May-2024\0\\# mpw1pw91/6-31+G** nmr scrf=(pcm,solvent=water)\\co
 mment\\0,1\C,0,2.327473,-0.458598,0.133536\C,0,1.261873,0.010553,-0.87
 3584\N,0,0.11342,-0.95124,-0.742597\C,0,0.435359,-1.883173,0.368121\C,
 0,1.962136,-1.932454,0.362402\C,0,-1.113603,-0.130267,-0.601876\C,0,-0
 .682859,1.196448,0.033952\C,0,0.668499,1.437461,-0.659098\H,0,3.345849
 ,-0.314532,-0.240584\H,0,2.234251,0.095452,1.073085\H,0,1.664377,-0.04
 8308,-1.891633\H,0,-0.023271,-2.862798,0.192578\H,0,0.089077,-1.523563
 ,1.345648\H,0,2.321987,-2.552431,-0.467686\H,0,2.370218,-2.339059,1.29
 3064\H,0,-1.457755,0.126836,-1.616968\H,0,-1.39872,2.003218,-0.171265\
 H,0,0.484625,1.902293,-1.636092\O,0,1.441413,2.323495,0.152674\H,0,2.3
 69388,2.266093,-0.128813\O,0,-0.500188,1.055204,1.445965\H,0,0.249956,
 1.638555,1.66714\C,0,-2.284469,-0.843468,0.072318\H,0,-2.448676,-1.818
 517,-0.406844\H,0,-2.093336,-1.017499,1.133121\O,0,-3.472737,-0.046911
 ,0.02096\H,0,-3.696264,0.069623,-0.917987\\Version=AM64L-G09RevC.01\St
 ate=1-A\HF=-594.1903061\RMSD=5.376e-09\Dipole=1.5026617,-0.0875954,-1.
 2456099\Quadrupole=1.3927418,-0.9644415,-0.4283003,2.8341852,5.9374859
 ,-4.3228163\PG=C01 [X(C8H15N1O3)]\\@


 A SLIP OF THE FOOT YOU MAY SOON RECOVER, BUT A SLIP OF THE TONGUE
 YOU MAY NEVER GET OVER. -- BEN FRANKLIN
 Job cpu time:  0 days  0 hours  9 minutes 15.2 seconds.
 File lengths (MBytes):  RWF=    111 Int=      0 D2E=      0 Chk=      7 Scr=      1
 Normal termination of Gaussian 09 at Fri May 17 12:53:50 2024.
