 Entering Gaussian System, Link 0=g09
 Input=/home/lpassaglia.iquir/NMR_Tetrahalogenados/01_SSSE_Tetrahalogenado_002.gjc
 Output=/home/lpassaglia.iquir/NMR_Tetrahalogenados/01_SSSE_Tetrahalogenado_002.log
 Initial command:
 /share/apps/Gaussian09/EM64T.SSE4.2-enabled/g09/l1.exe /tmp/Gau-12340.inp -scrdir=/tmp/
 Entering Link 1 = /share/apps/Gaussian09/EM64T.SSE4.2-enabled/g09/l1.exe PID=     12341.
  
 Copyright (c) 1988,1990,1992,1993,1995,1998,2003,2009,2011,
            Gaussian, Inc.  All Rights Reserved.
  
 This is part of the Gaussian(R) 09 program.  It is based on
 the Gaussian(R) 03 system (copyright 2003, Gaussian, Inc.),
 the Gaussian(R) 98 system (copyright 1998, Gaussian, Inc.),
 the Gaussian(R) 94 system (copyright 1995, Gaussian, Inc.),
 the Gaussian 92(TM) system (copyright 1992, Gaussian, Inc.),
 the Gaussian 90(TM) system (copyright 1990, Gaussian, Inc.),
 the Gaussian 88(TM) system (copyright 1988, Gaussian, Inc.),
 the Gaussian 86(TM) system (copyright 1986, Carnegie Mellon
 University), and the Gaussian 82(TM) system (copyright 1983,
 Carnegie Mellon University). Gaussian is a federally registered
 trademark of Gaussian, Inc.
  
 This software contains proprietary and confidential information,
 including trade secrets, belonging to Gaussian, Inc.
  
 This software is provided under written license and may be
 used, copied, transmitted, or stored only in accord with that
 written license.
  
 The following legend is applicable only to US Government
 contracts under FAR:
  
                    RESTRICTED RIGHTS LEGEND
  
 Use, reproduction and disclosure by the US Government is
 subject to restrictions as set forth in subparagraphs (a)
 and (c) of the Commercial Computer Software - Restricted
 Rights clause in FAR 52.227-19.
  
 Gaussian, Inc.
 340 Quinnipiac St., Bldg. 40, Wallingford CT 06492
  
  
 ---------------------------------------------------------------
 Warning -- This program may not be used in any manner that
 competes with the business of Gaussian, Inc. or will provide
 assistance to any competitor of Gaussian, Inc.  The licensee
 of this program is prohibited from giving any competitor of
 Gaussian, Inc. access to this program.  By using this program,
 the user acknowledges that Gaussian, Inc. is engaged in the
 business of creating and licensing software in the field of
 computational chemistry and represents and warrants to the
 licensee that it is not a competitor of Gaussian, Inc. and that
 it will not use this program in any manner prohibited above.
 ---------------------------------------------------------------
  

 Cite this work as:
 Gaussian 09, Revision C.01,
 M. J. Frisch, G. W. Trucks, H. B. Schlegel, G. E. Scuseria, 
 M. A. Robb, J. R. Cheeseman, G. Scalmani, V. Barone, B. Mennucci, 
 G. A. Petersson, H. Nakatsuji, M. Caricato, X. Li, H. P. Hratchian, 
 A. F. Izmaylov, J. Bloino, G. Zheng, J. L. Sonnenberg, M. Hada, 
 M. Ehara, K. Toyota, R. Fukuda, J. Hasegawa, M. Ishida, T. Nakajima, 
 Y. Honda, O. Kitao, H. Nakai, T. Vreven, J. A. Montgomery, Jr., 
 J. E. Peralta, F. Ogliaro, M. Bearpark, J. J. Heyd, E. Brothers, 
 K. N. Kudin, V. N. Staroverov, T. Keith, R. Kobayashi, J. Normand, 
 K. Raghavachari, A. Rendell, J. C. Burant, S. S. Iyengar, J. Tomasi, 
 M. Cossi, N. Rega, J. M. Millam, M. Klene, J. E. Knox, J. B. Cross, 
 V. Bakken, C. Adamo, J. Jaramillo, R. Gomperts, R. E. Stratmann, 
 O. Yazyev, A. J. Austin, R. Cammi, C. Pomelli, J. W. Ochterski, 
 R. L. Martin, K. Morokuma, V. G. Zakrzewski, G. A. Voth, 
 P. Salvador, J. J. Dannenberg, S. Dapprich, A. D. Daniels, 
 O. Farkas, J. B. Foresman, J. V. Ortiz, J. Cioslowski, 
 and D. J. Fox, Gaussian, Inc., Wallingford CT, 2010.
 
 ******************************************
 Gaussian 09:  EM64L-G09RevC.01 23-Sep-2011
                20-May-2022 
 ******************************************
 %nprocshared=4
 Will use up to    4 processors via shared memory.
 -----------------------------------------------------
 # mPW1PW91/6-31+G** scrf=(PCM,solvent=chloroform) nmr
 -----------------------------------------------------
 1/38=1/1;
 2/12=2,17=6,18=5,40=1/2;
 3/5=1,6=6,7=111,11=2,16=1,25=1,30=1,70=2201,72=7,74=-7/1,2,8,3;
 4//1;
 5/5=2,38=5,53=7/2;
 8/6=1,10=90,11=11/1;
 10/13=100,45=16/2;
 6/7=2,8=2,9=2,10=2,28=1/1;
 99/9=1/99;
 -------
 comment
 -------
 Charge =  0 Multiplicity = 1
 Symbolic Z-Matrix:
 6                    -0.43437   1.48663  -0.75179 
 6                     1.61537   0.23037   0.05885 
 6                    -0.63331  -0.80708   0.43664 
 6                     0.86326  -1.11934   0.11266 
 6                    -1.24741   0.24492  -0.45981 
 6                     1.05565   1.19988  -0.97759 
 1                    -1.17924  -1.74581   0.35334 
 1                     1.61712   2.13675  -0.96422 
 1                    -0.84431   1.99354  -1.62608 
 1                     1.62106   0.68735   1.04908 
 1                     1.16963   0.77217  -1.98053 
 17                   -0.62104   2.74561   0.59016 
 35                    3.55703  -0.02222  -0.33928 
 6                     0.87827  -1.84905  -1.25161 
 1                     0.32261  -1.31538  -2.02851 
 1                     0.43301  -2.84477  -1.14916 
 1                     1.91004  -1.97109  -1.5927 
 6                     1.46798  -2.05877   1.17086 
 1                     2.45439  -2.39941   0.84606 
 1                     0.82853  -2.93779   1.31095 
 1                     1.57821  -1.5641    2.13877 
 17                   -0.88871  -0.33457   2.2047 
 6                    -2.44433   0.10845  -1.05743 
 1                    -2.78722   0.91455  -1.70463 
 6                    -3.40788  -1.02673  -0.93976 
 1                    -3.60025  -1.48816  -1.9118 
 1                    -3.10386  -1.7963   -0.23229 
 17                   -5.03116  -0.41808  -0.36425 
 
                          Input orientation:                          
 ---------------------------------------------------------------------
 Center     Atomic      Atomic             Coordinates (Angstroms)
 Number     Number       Type             X           Y           Z
 ---------------------------------------------------------------------
      1          6           0       -0.434366    1.486628   -0.751790
      2          6           0        1.615371    0.230366    0.058852
      3          6           0       -0.633308   -0.807080    0.436641
      4          6           0        0.863263   -1.119343    0.112664
      5          6           0       -1.247408    0.244922   -0.459805
      6          6           0        1.055649    1.199882   -0.977590
      7          1           0       -1.179239   -1.745814    0.353341
      8          1           0        1.617116    2.136752   -0.964219
      9          1           0       -0.844310    1.993541   -1.626077
     10          1           0        1.621064    0.687347    1.049082
     11          1           0        1.169625    0.772167   -1.980528
     12         17           0       -0.621036    2.745605    0.590158
     13         35           0        3.557032   -0.022216   -0.339283
     14          6           0        0.878268   -1.849048   -1.251611
     15          1           0        0.322613   -1.315377   -2.028509
     16          1           0        0.433007   -2.844773   -1.149164
     17          1           0        1.910037   -1.971089   -1.592700
     18          6           0        1.467980   -2.058769    1.170858
     19          1           0        2.454388   -2.399406    0.846056
     20          1           0        0.828532   -2.937791    1.310952
     21          1           0        1.578212   -1.564097    2.138765
     22         17           0       -0.888706   -0.334565    2.204704
     23          6           0       -2.444329    0.108451   -1.057433
     24          1           0       -2.787223    0.914548   -1.704627
     25          6           0       -3.407882   -1.026729   -0.939764
     26          1           0       -3.600248   -1.488160   -1.911795
     27          1           0       -3.103865   -1.796299   -0.232288
     28         17           0       -5.031155   -0.418078   -0.364245
 ---------------------------------------------------------------------
                    Distance matrix (angstroms):
                    1          2          3          4          5
     1  C    0.000000
     2  C    2.537076   0.000000
     3  C    2.590954   2.505110   0.000000
     4  C    3.036809   1.546052   1.562752   0.000000
     5  C    1.512655   2.909419   1.512429   2.577571   0.000000
     6  C    1.534064   1.525602   2.980020   2.569916   2.546394
     7  H    3.496403   3.435383   1.089129   2.149932   2.151484
     8  H    2.162491   2.163558   3.961435   3.511428   3.469719
     9  H    1.090593   3.463784   3.484653   3.953362   2.140174
    10  H    2.847241   1.090605   2.773191   2.171467   3.271179
    11  H    2.143138   2.156689   3.404012   2.837802   2.903900
    12  Cl   1.849512   3.407379   3.556021   4.167609   2.783555
    13  Br   4.286960   1.998088   4.333246   2.943524   4.813370
    14  C    3.619332   2.566047   2.494144   1.547237   3.087097
    15  H    3.170845   2.901314   2.692418   2.217060   2.712993
    16  H    4.435231   3.509098   2.793564   2.180468   3.584024
    17  H    4.261357   2.767825   3.455683   2.174735   4.020400
    18  C    4.459298   2.549200   2.553666   1.538824   3.916553
    19  H    5.098948   2.870425   3.498141   2.169817   4.732973
    20  H    5.042351   3.496296   2.727879   2.178039   4.192227
    21  H    4.659689   2.747274   2.891560   2.194093   4.243730
    22  Cl   3.502003   3.345778   1.847849   2.839349   2.750287
    23  C    2.456164   4.212140   2.519970   3.717092   1.344769
    24  H    2.602136   4.791743   3.491186   4.556897   2.090218
    25  C    3.897960   5.273575   3.104996   4.399871   2.552470
    26  H    4.496419   5.834335   3.844705   4.915017   3.263082
    27  H    4.263064   5.144251   2.744025   4.039228   2.768534
    28  Cl   4.990848   6.691472   4.487070   5.955114   3.842583
                    6          7          8          9         10
     6  C    0.000000
     7  H    3.929787   0.000000
     8  H    1.092314   4.962850   0.000000
     9  H    2.158767   4.244178   2.552877   0.000000
    10  H    2.165591   3.774391   2.480760   3.865319   0.000000
    11  H    1.096273   4.159848   1.759325   2.381874   3.064234
    12  Cl   2.767375   4.532165   2.792152   2.350989   3.077994
    13  Br   2.856200   5.087512   2.969000   5.009084   2.485761
    14  C    3.066354   2.611487   4.063876   4.227646   3.504031
    15  H    2.822818   2.848516   3.837401   3.531657   3.894669
    16  H    4.095895   2.462635   5.123662   5.026755   4.326620
    17  H    3.341167   3.658067   4.165951   4.827611   3.758963
    18  C    3.924876   2.788197   4.709904   5.439738   2.753074
    19  H    4.270484   3.724674   4.955285   6.024187   3.203700
    20  H    4.733851   2.523682   5.616872   5.978509   3.719988
    21  H    4.198133   3.290030   4.829732   5.718342   2.501649
    22  Cl   4.032622   2.345971   4.735887   4.482960   2.945965
    23  C    3.667075   2.651233   4.540708   2.537121   4.615186
    24  H    3.921436   3.728052   4.630355   2.223805   5.202646
    25  C    4.988220   2.675080   5.937913   4.020567   5.673082
    26  H    5.456710   3.325434   6.423299   4.449615   6.384491
    27  H    5.180167   2.012385   6.188075   4.627216   5.489568
    28  Cl   6.327967   4.137036   7.147491   4.993776   6.889955
                   11         12         13         14         15
    11  H    0.000000
    12  Cl   3.702614   0.000000
    13  Br   3.004071   5.097151   0.000000
    14  C    2.736234   5.172124   3.368298   0.000000
    15  H    2.253347   4.923359   3.871333   1.094133   0.000000
    16  H    3.783653   5.948830   4.287455   1.095546   1.767622
    17  H    2.867765   5.780865   2.842842   1.093519   1.771949
    18  C    4.246698   5.270978   3.285150   2.502019   3.478570
    19  H    4.438363   5.999571   2.876088   2.680906   3.739346
    20  H    4.971315   5.909465   4.320714   2.784702   3.747023
    21  H    4.753278   5.080198   3.526166   3.473581   4.359422
    22  Cl   4.793511   3.487958   5.131668   4.166770   4.511029
    23  C    3.788573   3.604655   6.045589   3.861238   3.259792
    24  H    3.969010   3.648448   6.556772   4.612864   3.840383
    25  C    5.027205   4.933323   7.062553   4.375447   3.896829
    26  H    5.278777   5.749803   7.473182   4.541276   3.928398
    27  H    5.283567   5.241159   6.893937   4.110862   3.898519
    28  Cl   6.517571   5.510801   8.597342   6.144622   5.677830
                   16         17         18         19         20
    16  H    0.000000
    17  H    1.772474   0.000000
    18  C    2.659224   2.800063   0.000000
    19  H    2.874932   2.535213   1.092946   0.000000
    20  H    2.493444   3.245822   1.095993   1.774653   0.000000
    21  H    3.709731   3.768233   1.092564   1.771023   1.770404
    22  Cl   4.392778   4.993140   3.097690   4.157616   3.244146
    23  C    4.124198   4.855049   4.996827   5.823233   5.059689
    24  H    4.981056   5.513953   5.934289   6.705428   6.083413
    25  C    4.254593   5.440442   5.412380   6.280096   5.163825
    26  H    4.323095   5.540603   5.959470   6.715261   5.665829
    27  H    3.801240   5.198123   4.789517   5.693921   4.375882
    28  Cl   6.030092   7.218109   6.876566   7.837336   6.594784
                   21         22         23         24         25
    21  H    0.000000
    22  Cl   2.757133   0.000000
    23  C    5.403141   3.641121   0.000000
    24  H    6.322370   4.521893   1.089141   0.000000
    25  C    5.884491   4.088156   1.493624   2.176876   0.000000
    26  H    6.574895   5.062490   2.148313   2.544982   1.093054
    27  H    5.253347   3.603127   2.178055   3.101086   1.088663
    28  Cl   7.159759   4.875075   2.729361   2.933896   1.826662
                   26         27         28
    26  H    0.000000
    27  H    1.778227   0.000000
    28  Cl   2.363785   2.373047   0.000000
 Stoichiometry    C10H14BrCl3
 Framework group  C1[X(C10H14BrCl3)]
 Deg. of freedom    78
 Full point group                 C1      NOp   1
 Largest Abelian subgroup         C1      NOp   1
 Largest concise Abelian subgroup C1      NOp   1
                         Standard orientation:                         
 ---------------------------------------------------------------------
 Center     Atomic      Atomic             Coordinates (Angstroms)
 Number     Number       Type             X           Y           Z
 ---------------------------------------------------------------------
      1          6           0       -0.434366    1.486628   -0.751790
      2          6           0        1.615371    0.230366    0.058852
      3          6           0       -0.633308   -0.807080    0.436641
      4          6           0        0.863263   -1.119343    0.112664
      5          6           0       -1.247408    0.244922   -0.459805
      6          6           0        1.055649    1.199882   -0.977590
      7          1           0       -1.179239   -1.745814    0.353341
      8          1           0        1.617116    2.136752   -0.964219
      9          1           0       -0.844310    1.993541   -1.626077
     10          1           0        1.621064    0.687347    1.049082
     11          1           0        1.169625    0.772167   -1.980528
     12         17           0       -0.621036    2.745605    0.590158
     13         35           0        3.557032   -0.022216   -0.339283
     14          6           0        0.878268   -1.849048   -1.251611
     15          1           0        0.322613   -1.315377   -2.028509
     16          1           0        0.433007   -2.844773   -1.149164
     17          1           0        1.910037   -1.971089   -1.592700
     18          6           0        1.467980   -2.058769    1.170858
     19          1           0        2.454388   -2.399406    0.846056
     20          1           0        0.828532   -2.937791    1.310952
     21          1           0        1.578212   -1.564097    2.138765
     22         17           0       -0.888706   -0.334565    2.204704
     23          6           0       -2.444329    0.108451   -1.057433
     24          1           0       -2.787223    0.914548   -1.704627
     25          6           0       -3.407882   -1.026729   -0.939764
     26          1           0       -3.600248   -1.488160   -1.911795
     27          1           0       -3.103865   -1.796299   -0.232288
     28         17           0       -5.031155   -0.418078   -0.364245
 ---------------------------------------------------------------------
 Rotational constants (GHZ):      0.6284406      0.1936597      0.1806751
 Standard basis: 6-31+G(d,p) (6D, 7F)
 There are   363 symmetry adapted basis functions of A   symmetry.
 Integral buffers will be    131072 words long.
 Raffenetti 2 integral format.
 Two-electron integral symmetry is turned on.
   363 basis functions,   673 primitive gaussians,   363 cartesian basis functions
    80 alpha electrons       80 beta electrons
       nuclear repulsion energy      1696.2410772197 Hartrees.
 NAtoms=   28 NActive=   28 NUniq=   28 SFac= 1.00D+00 NAtFMM=   60 NAOKFM=F Big=F
 ------------------------------------------------------------------------------
 Polarizable Continuum Model (PCM)
 =================================
 Model                : PCM.
 Atomic radii         : UFF (Universal Force Field).
 Polarization charges : Total charges.
 Charge compensation  : None.
 Solution method      : Matrix inversion.
 Cavity type          : Scaled VdW (van der Waals Surface) (Alpha=1.100).
 Cavity algorithm     : GePol (No added spheres)
                        Default sphere list used, NSphG=   28.
                        Lebedev-Laikov grids with approx.  5.0 points / Ang**2.
                        Smoothing algorithm: Karplus/York (Gamma=1.0000).
                        Polarization charges: spherical gaussians, with
                                              point-specific exponents (IZeta= 3).
                        Self-potential: point-specific (ISelfS= 7).
                        Self-field    : sphere-specific E.n sum rule (ISelfD= 2).
 Solvent              : Chloroform, Eps=   4.711300 Eps(inf)=   2.090627
 ------------------------------------------------------------------------------
 One-electron integrals computed using PRISM.
 NBasis=   363 RedAO= T  NBF=   363
 NBsUse=   363 1.00D-06 NBFU=   363
 Harris functional with IExCor=  908 diagonalized for initial guess.
 ExpMin= 3.50D-02 ExpMax= 5.74D+05 ExpMxC= 5.74D+03 IAcc=3 IRadAn=         5 AccDes= 0.00D+00
 HarFok:  IExCor=  908 AccDes= 0.00D+00 IRadAn=         5 IDoV= 1
 ScaDFX=  1.000000  1.000000  1.000000  1.000000
 FoFCou: FMM=F IPFlag=           0 FMFlag=      100000 FMFlg1=           0
         NFxFlg=           0 DoJE=T BraDBF=F KetDBF=T FulRan=T
         Omega=  0.000000  0.000000  1.000000  0.000000  0.000000 ICntrl=     500 IOpCl=  0
         NMat0=    1 NMatS0=    1 NMatT0=    0 NMatD0=    1 NMtDS0=    0 NMtDT0=    0
         I1Cent=           4 NGrid=           0.
 Petite list used in FoFCou.
 Initial guess orbital symmetries:
       Occupied  (A) (A) (A) (A) (A) (A) (A) (A) (A) (A) (A) (A)
                 (A) (A) (A) (A) (A) (A) (A) (A) (A) (A) (A) (A)
                 (A) (A) (A) (A) (A) (A) (A) (A) (A) (A) (A) (A)
                 (A) (A) (A) (A) (A) (A) (A) (A) (A) (A) (A) (A)
                 (A) (A) (A) (A) (A) (A) (A) (A) (A) (A) (A) (A)
                 (A) (A) (A) (A) (A) (A) (A) (A) (A) (A) (A) (A)
                 (A) (A) (A) (A) (A) (A) (A) (A)
       Virtual   (A) (A) (A) (A) (A) (A) (A) (A) (A) (A) (A) (A)
                 (A) (A) (A) (A) (A) (A) (A) (A) (A) (A) (A) (A)
                 (A) (A) (A) (A) (A) (A) (A) (A) (A) (A) (A) (A)
                 (A) (A) (A) (A) (A) (A) (A) (A) (A) (A) (A) (A)
                 (A) (A) (A) (A) (A) (A) (A) (A) (A) (A) (A) (A)
                 (A) (A) (A) (A) (A) (A) (A) (A) (A) (A) (A) (A)
                 (A) (A) (A) (A) (A) (A) (A) (A) (A) (A) (A) (A)
                 (A) (A) (A) (A) (A) (A) (A) (A) (A) (A) (A) (A)
                 (A) (A) (A) (A) (A) (A) (A) (A) (A) (A) (A) (A)
                 (A) (A) (A) (A) (A) (A) (A) (A) (A) (A) (A) (A)
                 (A) (A) (A) (A) (A) (A) (A) (A) (A) (A) (A) (A)
                 (A) (A) (A) (A) (A) (A) (A) (A) (A) (A) (A) (A)
                 (A) (A) (A) (A) (A) (A) (A) (A) (A) (A) (A) (A)
                 (A) (A) (A) (A) (A) (A) (A) (A) (A) (A) (A) (A)
                 (A) (A) (A) (A) (A) (A) (A) (A) (A) (A) (A) (A)
                 (A) (A) (A) (A) (A) (A) (A) (A) (A) (A) (A) (A)
                 (A) (A) (A) (A) (A) (A) (A) (A) (A) (A) (A) (A)
                 (A) (A) (A) (A) (A) (A) (A) (A) (A) (A) (A) (A)
                 (A) (A) (A) (A) (A) (A) (A) (A) (A) (A) (A) (A)
                 (A) (A) (A) (A) (A) (A) (A) (A) (A) (A) (A) (A)
                 (A) (A) (A) (A) (A) (A) (A) (A) (A) (A) (A) (A)
                 (A) (A) (A) (A) (A) (A) (A) (A) (A) (A) (A) (A)
                 (A) (A) (A) (A) (A) (A) (A) (A) (A) (A) (A) (A)
                 (A) (A) (A) (A) (A) (A) (A)
 The electronic state of the initial guess is 1-A.
 Requested convergence on RMS density matrix=1.00D-08 within 128 cycles.
 Requested convergence on MAX density matrix=1.00D-06.
 Requested convergence on             energy=1.00D-06.
 No special actions if energy rises.
 Error on total polarization charges =  0.01649
 SCF Done:  E(RmPW1PW91) =  -4341.94945428     A.U. after   14 cycles
             Convg  =    0.6510D-08             -V/T =  2.0056
 Range of M.O.s used for correlation:     1   363
 NBasis=   363 NAE=    80 NBE=    80 NFC=     0 NFV=     0
 NROrb=    363 NOA=    80 NOB=    80 NVA=   283 NVB=   283

 **** Warning!!: The largest alpha MO coefficient is  0.18133096D+03

 NEqPCM:  Using equilibrium solvation (IEInf=0, Eps=   4.7113, EpsInf=   2.0906)
          Differentiating once with respect to magnetic field using GIAOs.
          Electric field/nuclear overlap derivatives assumed to be zero.
 FoFCou: FMM=F IPFlag=           0 FMFlag=    10101102 FMFlg1=           0
         NFxFlg=    40000000 DoJE=F BraDBF=F KetDBF=T FulRan=T
         Omega=  0.000000  0.000000  1.000000  0.000000  0.000000 ICntrl=    6100 IOpCl=  0
         NMat0=    1 NMatS0=    1 NMatT0=    0 NMatD0=    1 NMtDS0=    0 NMtDT0=    0
         I1Cent=           7 NGrid=        2112.
 Symmetry not used in FoFCou.
          There are     3 degrees of freedom in the 1st order CPHF.  IDoFFX=0.
      3 vectors produced by pass  0 Test12= 7.55D-13 3.33D-08 XBig12= 8.84D+01 1.32D+00.
 AX will form     3 AO Fock derivatives at one time.
      3 vectors produced by pass  1 Test12= 7.55D-13 3.33D-08 XBig12= 2.72D-01 9.95D-02.
      3 vectors produced by pass  2 Test12= 7.55D-13 3.33D-08 XBig12= 1.20D-03 9.81D-03.
      3 vectors produced by pass  3 Test12= 7.55D-13 3.33D-08 XBig12= 7.55D-06 9.53D-04.
      3 vectors produced by pass  4 Test12= 7.55D-13 3.33D-08 XBig12= 3.19D-08 5.81D-05.
      3 vectors produced by pass  5 Test12= 7.55D-13 3.33D-08 XBig12= 1.09D-10 2.43D-06.
      3 vectors produced by pass  6 Test12= 7.55D-13 3.33D-08 XBig12= 4.41D-13 1.26D-07.
 Inverted reduced A of dimension    21 with in-core refinement.
 Calculating GIAO nuclear magnetic shielding tensors.
 SCF GIAO Magnetic shielding tensor (ppm):
      1  C    Isotropic =   128.0726   Anisotropy =    28.0589
   XX=   129.0210   YX=     6.5148   ZX=    -7.1852
   XY=     8.8661   YY=   125.5095   ZY=    24.1563
   XZ=    -6.0847   YZ=    13.9707   ZZ=   129.6874
   Eigenvalues:   104.2564   133.1830   146.7786
      2  C    Isotropic =   127.0235   Anisotropy =    64.0153
   XX=   163.4885   YX=    -4.9413   ZX=   -20.0245
   XY=   -12.2453   YY=   130.0772   ZY=    -9.7961
   XZ=   -21.3080   YZ=    -8.7655   ZZ=    87.5049
   Eigenvalues:    79.7726   131.5976   169.7003
      3  C    Isotropic =   127.0855   Anisotropy =    46.2760
   XX=   133.4533   YX=   -20.7206   ZX=    -9.3555
   XY=   -14.6469   YY=   101.3636   ZY=    15.0489
   XZ=    -1.7532   YZ=    19.2762   ZZ=   146.4396
   Eigenvalues:    90.1504   133.1699   157.9362
      4  C    Isotropic =   150.6506   Anisotropy =    17.4874
   XX=   157.1802   YX=    -2.0871   ZX=   -13.3902
   XY=     4.8579   YY=   145.0666   ZY=    -2.0112
   XZ=    -2.3330   YZ=     0.1496   ZZ=   149.7050
   Eigenvalues:   144.7256   144.9173   162.3089
      5  C    Isotropic =    59.9141   Anisotropy =   149.0866
   XX=    76.6598   YX=   -33.7858   ZX=   -23.7835
   XY=   -28.9866   YY=     0.7184   ZY=    72.5624
   XZ=   -38.7954   YZ=    66.3243   ZZ=   102.3640
   Eigenvalues:   -36.3737    56.8108   159.3051
      6  C    Isotropic =   152.4975   Anisotropy =    42.4796
   XX=   175.3408   YX=   -10.9371   ZX=    -9.0441
   XY=   -16.0374   YY=   146.0924   ZY=     0.9431
   XZ=     0.7153   YZ=    -5.6149   ZZ=   136.0592
   Eigenvalues:   133.8957   142.7795   180.8172
      7  H    Isotropic =    26.8604   Anisotropy =     6.6859
   XX=    29.2149   YX=     1.8241   ZX=     1.3436
   XY=     2.7992   YY=    25.6215   ZY=     1.9316
   XZ=     0.8363   YZ=     3.6215   ZZ=    25.7447
   Eigenvalues:    22.7603    26.5032    31.3176
      8  H    Isotropic =    29.0656   Anisotropy =     6.8544
   XX=    30.9784   YX=     1.0314   ZX=    -1.0424
   XY=    -0.1362   YY=    32.5253   ZY=    -2.4423
   XZ=    -2.2140   YZ=    -3.0927   ZZ=    23.6931
   Eigenvalues:    22.6461    30.9155    33.6352
      9  H    Isotropic =    26.8948   Anisotropy =     6.8011
   XX=    25.2053   YX=    -0.8892   ZX=     2.1810
   XY=    -1.5987   YY=    25.2028   ZY=     0.4612
   XZ=     2.8716   YZ=    -1.1937   ZZ=    30.2764
   Eigenvalues:    23.5224    25.7332    31.4289
     10  H    Isotropic =    26.3973   Anisotropy =     8.8197
   XX=    29.8074   YX=    -1.5891   ZX=    -3.2936
   XY=    -1.2790   YY=    24.4575   ZY=     2.8771
   XZ=    -3.2554   YZ=     2.4899   ZZ=    24.9270
   Eigenvalues:    21.7758    25.1390    32.2771
     11  H    Isotropic =    29.0534   Anisotropy =     4.4124
   XX=    28.4968   YX=    -1.7110   ZX=    -1.3542
   XY=    -2.1174   YY=    27.1656   ZY=    -0.8120
   XZ=    -1.2316   YZ=    -1.1455   ZZ=    31.4977
   Eigenvalues:    25.4082    29.7569    31.9950
     12  Cl   Isotropic =   711.0836   Anisotropy =   510.8952
   XX=   632.8009   YX=    51.2158   ZX=   -87.8058
   XY=    56.5695   YY=   829.1545   ZY=   274.3890
   XZ=   -93.1672   YZ=   306.7258   ZZ=   671.2954
   Eigenvalues:   401.7269   679.8435  1051.6804
     13  Br   Isotropic =  2454.1596   Anisotropy =  1028.0555
   XX=  3080.9665   YX=  -186.3378   ZX=  -168.0293
   XY=  -192.5181   YY=  2158.3732   ZY=   -94.6026
   XZ=  -156.1850   YZ=   -39.4360   ZZ=  2123.1391
   Eigenvalues:  2014.8853  2208.0636  3139.5300
     14  C    Isotropic =   175.0147   Anisotropy =    33.0080
   XX=   164.6976   YX=     0.4628   ZX=    -1.9332
   XY=     0.5873   YY=   170.6915   ZY=    15.3880
   XZ=    -3.9928   YZ=    12.0358   ZZ=   189.6550
   Eigenvalues:   162.1066   165.9175   197.0201
     15  H    Isotropic =    30.7843   Anisotropy =     7.3418
   XX=    29.0635   YX=    -1.4040   ZX=     2.9065
   XY=    -1.4384   YY=    28.7553   ZY=     1.0402
   XZ=     2.5963   YZ=     0.2285   ZZ=    34.5342
   Eigenvalues:    26.7261    29.9480    35.6788
     16  H    Isotropic =    31.0521   Anisotropy =     9.9585
   XX=    28.4187   YX=     2.3570   ZX=     0.5811
   XY=     2.5897   YY=    35.9469   ZY=     2.2059
   XZ=     0.4713   YZ=     3.7164   ZZ=    28.7906
   Eigenvalues:    27.4015    28.0637    37.6911
     17  H    Isotropic =    30.0173   Anisotropy =     7.8788
   XX=    32.8505   YX=     0.4518   ZX=    -2.1457
   XY=    -0.2516   YY=    28.3911   ZY=     4.4320
   XZ=    -3.9491   YZ=     4.3101   ZZ=    28.8103
   Eigenvalues:    23.6796    31.1024    35.2699
     18  C    Isotropic =   167.8040   Anisotropy =    34.7491
   XX=   158.0247   YX=    -3.8221   ZX=    10.6711
   XY=    -5.3591   YY=   171.7972   ZY=   -16.6867
   XZ=     8.6996   YZ=   -13.4373   ZZ=   173.5900
   Eigenvalues:   152.7901   159.6518   190.9701
     19  H    Isotropic =    30.0035   Anisotropy =     7.5276
   XX=    32.9325   YX=    -2.3317   ZX=    -0.9715
   XY=    -3.0527   YY=    30.9155   ZY=    -3.3363
   XZ=    -0.4622   YZ=    -3.1976   ZZ=    26.1627
   Eigenvalues:    24.0844    30.9044    35.0219
     20  H    Isotropic =    30.7827   Anisotropy =    10.5337
   XX=    28.3940   YX=     1.3019   ZX=    -0.5445
   XY=     1.9703   YY=    35.8035   ZY=    -3.8447
   XZ=    -1.0154   YZ=    -4.0004   ZZ=    28.1507
   Eigenvalues:    26.4930    28.0499    37.8052
     21  H    Isotropic =    30.0750   Anisotropy =     7.6125
   XX=    28.7077   YX=    -1.3116   ZX=     1.8085
   XY=    -1.5735   YY=    26.8173   ZY=    -1.4397
   XZ=     1.1331   YZ=     0.1852   ZZ=    34.7000
   Eigenvalues:    26.0351    29.0399    35.1500
     22  Cl   Isotropic =   777.0299   Anisotropy =   411.3413
   XX=   641.3779   YX=   -59.9572   ZX=   -34.4471
   XY=   -90.6735   YY=   646.5280   ZY=    46.2819
   XZ=   -40.8321   YZ=    24.8517   ZZ=  1043.1838
   Eigenvalues:   568.5815   711.2507  1051.2574
     23  C    Isotropic =    61.4223   Anisotropy =   125.9399
   XX=    90.3547   YX=   -23.2819   ZX=   -34.3028
   XY=   -18.5648   YY=     7.1769   ZY=    64.9025
   XZ=   -22.5701   YZ=    64.7962   ZZ=    86.7353
   Eigenvalues:   -29.2927    68.1773   145.3822
     24  H    Isotropic =    25.4518   Anisotropy =     7.9070
   XX=    29.3701   YX=     2.6538   ZX=     1.7874
   XY=     2.9468   YY=    23.1804   ZY=     0.5363
   XZ=     1.1018   YZ=    -0.3876   ZZ=    23.8048
   Eigenvalues:    21.9755    23.6567    30.7231
     25  C    Isotropic =   150.4426   Anisotropy =    47.8673
   XX=   170.8789   YX=    -7.4352   ZX=   -18.1415
   XY=    -7.0589   YY=   150.7505   ZY=     5.1110
   XZ=   -22.8774   YZ=    10.5735   ZZ=   129.6983
   Eigenvalues:   120.5252   148.4485   182.3541
     26  H    Isotropic =    27.4866   Anisotropy =     8.4882
   XX=    28.2881   YX=    -0.5237   ZX=    -1.4219
   XY=     0.4220   YY=    25.0908   ZY=     5.9415
   XZ=     0.4969   YZ=     5.4296   ZZ=    29.0810
   Eigenvalues:    21.0533    28.2610    33.1454
     27  H    Isotropic =    27.3446   Anisotropy =     9.5343
   XX=    32.3251   YX=    -1.7831   ZX=     1.8633
   XY=    -2.3606   YY=    27.5649   ZY=    -3.2028
   XZ=     2.0062   YZ=    -1.2939   ZZ=    22.1440
   Eigenvalues:    21.2101    27.1230    33.7008
     28  Cl   Isotropic =   841.7885   Anisotropy =   401.5614
   XX=  1052.3865   YX=   -58.9840   ZX=  -138.3093
   XY=   -82.5100   YY=   773.0058   ZY=    45.6732
   XZ=  -108.4590   YZ=    25.8537   ZZ=   699.9731
   Eigenvalues:   659.4129   756.4564  1109.4961
 End of Minotr Frequency-dependent properties file   721 does not exist.
 End of Minotr Frequency-dependent properties file   722 does not exist.

 **********************************************************************

            Population analysis using the SCF density.

 **********************************************************************

 Orbital symmetries:
       Occupied  (A) (A) (A) (A) (A) (A) (A) (A) (A) (A) (A) (A)
                 (A) (A) (A) (A) (A) (A) (A) (A) (A) (A) (A) (A)
                 (A) (A) (A) (A) (A) (A) (A) (A) (A) (A) (A) (A)
                 (A) (A) (A) (A) (A) (A) (A) (A) (A) (A) (A) (A)
                 (A) (A) (A) (A) (A) (A) (A) (A) (A) (A) (A) (A)
                 (A) (A) (A) (A) (A) (A) (A) (A) (A) (A) (A) (A)
                 (A) (A) (A) (A) (A) (A) (A) (A)
       Virtual   (A) (A) (A) (A) (A) (A) (A) (A) (A) (A) (A) (A)
                 (A) (A) (A) (A) (A) (A) (A) (A) (A) (A) (A) (A)
                 (A) (A) (A) (A) (A) (A) (A) (A) (A) (A) (A) (A)
                 (A) (A) (A) (A) (A) (A) (A) (A) (A) (A) (A) (A)
                 (A) (A) (A) (A) (A) (A) (A) (A) (A) (A) (A) (A)
                 (A) (A) (A) (A) (A) (A) (A) (A) (A) (A) (A) (A)
                 (A) (A) (A) (A) (A) (A) (A) (A) (A) (A) (A) (A)
                 (A) (A) (A) (A) (A) (A) (A) (A) (A) (A) (A) (A)
                 (A) (A) (A) (A) (A) (A) (A) (A) (A) (A) (A) (A)
                 (A) (A) (A) (A) (A) (A) (A) (A) (A) (A) (A) (A)
                 (A) (A) (A) (A) (A) (A) (A) (A) (A) (A) (A) (A)
                 (A) (A) (A) (A) (A) (A) (A) (A) (A) (A) (A) (A)
                 (A) (A) (A) (A) (A) (A) (A) (A) (A) (A) (A) (A)
                 (A) (A) (A) (A) (A) (A) (A) (A) (A) (A) (A) (A)
                 (A) (A) (A) (A) (A) (A) (A) (A) (A) (A) (A) (A)
                 (A) (A) (A) (A) (A) (A) (A) (A) (A) (A) (A) (A)
                 (A) (A) (A) (A) (A) (A) (A) (A) (A) (A) (A) (A)
                 (A) (A) (A) (A) (A) (A) (A) (A) (A) (A) (A) (A)
                 (A) (A) (A) (A) (A) (A) (A) (A) (A) (A) (A) (A)
                 (A) (A) (A) (A) (A) (A) (A) (A) (A) (A) (A) (A)
                 (A) (A) (A) (A) (A) (A) (A) (A) (A) (A) (A) (A)
                 (A) (A) (A) (A) (A) (A) (A) (A) (A) (A) (A) (A)
                 (A) (A) (A) (A) (A) (A) (A) (A) (A) (A) (A) (A)
                 (A) (A) (A) (A) (A) (A) (A)
 The electronic state is 1-A.
 Alpha  occ. eigenvalues -- -483.41564-101.76398-101.76013-101.75747 -62.05549
 Alpha  occ. eigenvalues --  -56.54119 -56.53780 -56.53762 -10.34060 -10.33920
 Alpha  occ. eigenvalues --  -10.32939 -10.32603 -10.30315 -10.30240 -10.29406
 Alpha  occ. eigenvalues --  -10.27921 -10.25327 -10.24634  -9.54200  -9.53727
 Alpha  occ. eigenvalues --   -9.53502  -8.67409  -7.28186  -7.27701  -7.27470
 Alpha  occ. eigenvalues --   -7.27224  -7.27202  -7.26766  -7.26748  -7.26537
 Alpha  occ. eigenvalues --   -7.26525  -6.60887  -6.59726  -6.59714  -2.69622
 Alpha  occ. eigenvalues --   -2.69294  -2.69283  -2.68339  -2.68339  -0.93874
 Alpha  occ. eigenvalues --   -0.89706  -0.88623  -0.86557  -0.83022  -0.80980
 Alpha  occ. eigenvalues --   -0.78040  -0.73728  -0.72238  -0.71362  -0.67492
 Alpha  occ. eigenvalues --   -0.64064  -0.59851  -0.55459  -0.53623  -0.50644
 Alpha  occ. eigenvalues --   -0.49981  -0.48532  -0.47844  -0.47378  -0.45350
 Alpha  occ. eigenvalues --   -0.44914  -0.43885  -0.42551  -0.42240  -0.40687
 Alpha  occ. eigenvalues --   -0.39966  -0.39323  -0.38668  -0.37159  -0.36299
 Alpha  occ. eigenvalues --   -0.35809  -0.33982  -0.33049  -0.32502  -0.32307
 Alpha  occ. eigenvalues --   -0.31948  -0.30495  -0.29863  -0.29736  -0.29257
 Alpha virt. eigenvalues --   -0.06125  -0.02198  -0.00551   0.00241   0.01084
 Alpha virt. eigenvalues --    0.01321   0.02069   0.02561   0.03374   0.03531
 Alpha virt. eigenvalues --    0.04147   0.04918   0.05224   0.05783   0.06141
 Alpha virt. eigenvalues --    0.06491   0.07122   0.07340   0.07859   0.08402
 Alpha virt. eigenvalues --    0.08719   0.09015   0.09712   0.09905   0.10276
 Alpha virt. eigenvalues --    0.10651   0.11183   0.11584   0.12227   0.12380
 Alpha virt. eigenvalues --    0.12556   0.12879   0.13504   0.13654   0.14477
 Alpha virt. eigenvalues --    0.14558   0.15019   0.15432   0.15748   0.16335
 Alpha virt. eigenvalues --    0.16833   0.17486   0.17915   0.18008   0.18387
 Alpha virt. eigenvalues --    0.18511   0.19399   0.19784   0.20067   0.20320
 Alpha virt. eigenvalues --    0.20625   0.21060   0.21832   0.22382   0.22570
 Alpha virt. eigenvalues --    0.23076   0.23405   0.23611   0.24113   0.24543
 Alpha virt. eigenvalues --    0.24844   0.25340   0.26009   0.26629   0.26995
 Alpha virt. eigenvalues --    0.28137   0.28692   0.28963   0.29123   0.29607
 Alpha virt. eigenvalues --    0.30635   0.31044   0.31286   0.32428   0.33174
 Alpha virt. eigenvalues --    0.35336   0.36242   0.36520   0.38615   0.40018
 Alpha virt. eigenvalues --    0.40494   0.42783   0.44398   0.47171   0.48481
 Alpha virt. eigenvalues --    0.49487   0.52338   0.53231   0.54845   0.56688
 Alpha virt. eigenvalues --    0.58979   0.59183   0.60101   0.61768   0.62382
 Alpha virt. eigenvalues --    0.63440   0.63508   0.64299   0.64399   0.65194
 Alpha virt. eigenvalues --    0.65415   0.65800   0.66669   0.67120   0.68220
 Alpha virt. eigenvalues --    0.68725   0.68992   0.70249   0.71469   0.72196
 Alpha virt. eigenvalues --    0.72837   0.73926   0.75099   0.75548   0.76579
 Alpha virt. eigenvalues --    0.76878   0.77712   0.78235   0.79202   0.80523
 Alpha virt. eigenvalues --    0.81261   0.82971   0.83773   0.84451   0.85201
 Alpha virt. eigenvalues --    0.86943   0.87555   0.88271   0.88700   0.89067
 Alpha virt. eigenvalues --    0.90226   0.91841   0.93885   0.94320   0.95142
 Alpha virt. eigenvalues --    0.96595   0.97976   0.98515   0.99099   0.99412
 Alpha virt. eigenvalues --    0.99948   1.00655   1.02491   1.03443   1.04534
 Alpha virt. eigenvalues --    1.05089   1.06484   1.07351   1.07630   1.08772
 Alpha virt. eigenvalues --    1.10189   1.10400   1.12447   1.12561   1.14548
 Alpha virt. eigenvalues --    1.16104   1.16288   1.17176   1.18127   1.19287
 Alpha virt. eigenvalues --    1.21303   1.23258   1.25381   1.26173   1.28952
 Alpha virt. eigenvalues --    1.31976   1.33976   1.35314   1.35895   1.39149
 Alpha virt. eigenvalues --    1.42496   1.44898   1.45738   1.51799   1.53313
 Alpha virt. eigenvalues --    1.56760   1.58916   1.60573   1.65091   1.66976
 Alpha virt. eigenvalues --    1.70676   1.73188   1.74272   1.79851   1.80750
 Alpha virt. eigenvalues --    1.82303   1.83013   1.84548   1.86358   1.88590
 Alpha virt. eigenvalues --    1.89126   1.89711   1.90678   1.92386   1.96883
 Alpha virt. eigenvalues --    1.97135   1.98628   2.00807   2.02168   2.03268
 Alpha virt. eigenvalues --    2.04985   2.06856   2.09120   2.09616   2.11823
 Alpha virt. eigenvalues --    2.12377   2.13005   2.15361   2.15822   2.16513
 Alpha virt. eigenvalues --    2.18167   2.20160   2.22032   2.22367   2.23534
 Alpha virt. eigenvalues --    2.24903   2.25609   2.31093   2.32976   2.35854
 Alpha virt. eigenvalues --    2.37794   2.40902   2.43924   2.46217   2.47796
 Alpha virt. eigenvalues --    2.50170   2.52025   2.53926   2.56035   2.57459
 Alpha virt. eigenvalues --    2.58291   2.60186   2.62123   2.64850   2.66617
 Alpha virt. eigenvalues --    2.67050   2.68869   2.70618   2.71825   2.74183
 Alpha virt. eigenvalues --    2.76518   2.79218   2.79948   2.82467   2.83938
 Alpha virt. eigenvalues --    2.85365   2.87338   2.89650   2.90923   2.93423
 Alpha virt. eigenvalues --    2.97087   2.99757   3.00691   3.08834   3.30755
 Alpha virt. eigenvalues --    3.31370   3.32597   3.36515   3.40371   3.44010
 Alpha virt. eigenvalues --    3.46992   3.47296   3.48534   3.49300   3.51804
 Alpha virt. eigenvalues --    3.52874   3.55047   3.56617   4.29152   4.34991
 Alpha virt. eigenvalues --    4.36092   4.41316   4.43426   4.48718   4.51242
 Alpha virt. eigenvalues --    4.54326   4.60409   4.67652   4.73829   4.76717
 Alpha virt. eigenvalues --    4.80990   9.06597  81.42144
          Condensed to atoms (all electrons):
              1          2          3          4          5          6
     1  C    7.969798  -0.364175  -1.481274   0.540348  -0.338755  -0.357614
     2  C   -0.364175  10.802944   0.272838  -2.180309   0.268909  -1.182351
     3  C   -1.481274   0.272838  14.412800  -3.219619  -1.522857   0.970632
     4  C    0.540348  -2.180309  -3.219619  11.189429   0.306779  -0.177434
     5  C   -0.338755   0.268909  -1.522857   0.306779  13.856308  -0.380973
     6  C   -0.357614  -1.182351   0.970632  -0.177434  -0.380973   7.048677
     7  H    0.025225   0.014376   0.078011   0.035655   0.004249  -0.014168
     8  H   -0.099267  -0.101737   0.028788   0.030210   0.058441   0.417418
     9  H    0.248909   0.026253   0.022276  -0.033930  -0.203758   0.024317
    10  H    0.007637   0.392929   0.028004  -0.058491  -0.029885  -0.028051
    11  H    0.008151  -0.042658  -0.040709   0.052688   0.005696   0.345385
    12  Cl  -0.078119   0.152337  -0.053093  -0.096150   0.177839  -0.069348
    13  Br   0.031617   0.327767   0.164128  -0.085878  -0.040705  -0.083814
    14  C    0.260558  -0.576187  -0.148697  -0.465801  -0.151696  -0.121515
    15  H   -0.003644  -0.035833   0.027378  -0.080431  -0.052016  -0.005851
    16  H   -0.001029   0.045965  -0.025194  -0.147571   0.044160  -0.000952
    17  H   -0.001549   0.007754   0.039281  -0.125171  -0.008872  -0.004021
    18  C   -0.103730  -0.647603   0.433692  -0.495714  -0.337366   0.201387
    19  H   -0.002867  -0.032617   0.059769  -0.104627  -0.019689   0.004899
    20  H   -0.003871   0.039765  -0.005202  -0.121637   0.008353  -0.003103
    21  H    0.002357  -0.021435  -0.050903  -0.054578   0.007169   0.006994
    22  Cl  -0.036362   0.015229  -1.045039   0.302997   0.510290  -0.090360
    23  C   -0.011659  -0.810958  -2.260817   0.776250  -6.219126  -0.021927
    24  H   -0.040529   0.000502   0.030769  -0.001165   0.031217   0.028789
    25  C   -0.218202   0.021774  -0.526840  -0.030946   0.158999  -0.115258
    26  H    0.007296   0.000480   0.015602   0.005111   0.076168   0.000327
    27  H   -0.006669   0.002202  -0.034253  -0.002070   0.046843   0.000448
    28  Cl  -0.018023  -0.001165  -0.008986   0.006638   0.184040  -0.003558
              7          8          9         10         11         12
     1  C    0.025225  -0.099267   0.248909   0.007637   0.008151  -0.078119
     2  C    0.014376  -0.101737   0.026253   0.392929  -0.042658   0.152337
     3  C    0.078011   0.028788   0.022276   0.028004  -0.040709  -0.053093
     4  C    0.035655   0.030210  -0.033930  -0.058491   0.052688  -0.096150
     5  C    0.004249   0.058441  -0.203758  -0.029885   0.005696   0.177839
     6  C   -0.014168   0.417418   0.024317  -0.028051   0.345385  -0.069348
     7  H    0.542645   0.000008  -0.000097  -0.000046  -0.000029  -0.001860
     8  H    0.000008   0.483421  -0.001807  -0.003664  -0.021814   0.007289
     9  H   -0.000097  -0.001807   0.508927  -0.000079  -0.004016  -0.018665
    10  H   -0.000046  -0.003664  -0.000079   0.473857   0.003475   0.001854
    11  H   -0.000029  -0.021814  -0.004016   0.003475   0.484818   0.006561
    12  Cl  -0.001860   0.007289  -0.018665   0.001854   0.006561  17.058374
    13  Br  -0.000151  -0.009616  -0.000193  -0.016837  -0.000263   0.000224
    14  C    0.046055   0.005713   0.003705  -0.013551  -0.018477  -0.018643
    15  H   -0.000803   0.000057   0.000033  -0.000190  -0.002353  -0.001463
    16  H    0.003980   0.000000   0.000001  -0.000094   0.000023   0.000029
    17  H    0.000080   0.000003   0.000002   0.000060   0.000202   0.000355
    18  C   -0.047828  -0.001415  -0.000148   0.006576   0.008850   0.005735
    19  H   -0.000020   0.000000   0.000000   0.000018   0.000005   0.000013
    20  H    0.003589   0.000002   0.000000   0.000037   0.000000  -0.000005
    21  H    0.000015  -0.000005   0.000000   0.003401  -0.000002   0.000111
    22  Cl  -0.013036   0.000333  -0.004159  -0.003512  -0.000011  -0.004477
    23  C    0.131000  -0.004432   0.189890  -0.006537  -0.000158   0.023296
    24  H    0.000137  -0.000007   0.003967  -0.000001  -0.000020   0.005755
    25  C   -0.017185   0.000444   0.010265  -0.000395   0.001045   0.010871
    26  H   -0.000371   0.000000  -0.000008   0.000000   0.000001  -0.000534
    27  H    0.008220   0.000000   0.000000   0.000000   0.000000   0.000115
    28  Cl   0.000919  -0.000013  -0.000022   0.000017   0.000044  -0.001119
             13         14         15         16         17         18
     1  C    0.031617   0.260558  -0.003644  -0.001029  -0.001549  -0.103730
     2  C    0.327767  -0.576187  -0.035833   0.045965   0.007754  -0.647603
     3  C    0.164128  -0.148697   0.027378  -0.025194   0.039281   0.433692
     4  C   -0.085878  -0.465801  -0.080431  -0.147571  -0.125171  -0.495714
     5  C   -0.040705  -0.151696  -0.052016   0.044160  -0.008872  -0.337366
     6  C   -0.083814  -0.121515  -0.005851  -0.000952  -0.004021   0.201387
     7  H   -0.000151   0.046055  -0.000803   0.003980   0.000080  -0.047828
     8  H   -0.009616   0.005713   0.000057   0.000000   0.000003  -0.001415
     9  H   -0.000193   0.003705   0.000033   0.000001   0.000002  -0.000148
    10  H   -0.016837  -0.013551  -0.000190  -0.000094   0.000060   0.006576
    11  H   -0.000263  -0.018477  -0.002353   0.000023   0.000202   0.008850
    12  Cl   0.000224  -0.018643  -0.001463   0.000029   0.000355   0.005735
    13  Br  35.059408  -0.098030   0.002157  -0.000452   0.002551  -0.085993
    14  C   -0.098030   6.799935   0.440571   0.479160   0.472663  -0.337667
    15  H    0.002157   0.440571   0.516698  -0.024557  -0.023191   0.013322
    16  H   -0.000452   0.479160  -0.024557   0.510155  -0.020797  -0.048965
    17  H    0.002551   0.472663  -0.023191  -0.020797   0.487208  -0.012465
    18  C   -0.085993  -0.337667   0.013322  -0.048965  -0.012465   6.423026
    19  H    0.004686   0.019809   0.000136  -0.000234   0.001939   0.432887
    20  H   -0.001254  -0.032811   0.000015   0.002764   0.000045   0.454677
    21  H    0.000519  -0.004217  -0.000155   0.000095   0.000019   0.461747
    22  Cl  -0.001364  -0.088998  -0.002429   0.004295  -0.003074  -0.006271
    23  C   -0.038446   0.180979   0.051587  -0.004288  -0.010484   0.081608
    24  H    0.000196  -0.001320   0.000024   0.000001   0.000000   0.000573
    25  C   -0.001764  -0.025293  -0.000333   0.002170  -0.000361  -0.009270
    26  H    0.000008   0.000974   0.000014  -0.000016   0.000000  -0.000254
    27  H    0.000115   0.005022   0.000010  -0.000006   0.000001  -0.000987
    28  Cl   0.000076  -0.001834   0.000074  -0.000128   0.000000   0.002431
             19         20         21         22         23         24
     1  C   -0.002867  -0.003871   0.002357  -0.036362  -0.011659  -0.040529
     2  C   -0.032617   0.039765  -0.021435   0.015229  -0.810958   0.000502
     3  C    0.059769  -0.005202  -0.050903  -1.045039  -2.260817   0.030769
     4  C   -0.104627  -0.121637  -0.054578   0.302997   0.776250  -0.001165
     5  C   -0.019689   0.008353   0.007169   0.510290  -6.219126   0.031217
     6  C    0.004899  -0.003103   0.006994  -0.090360  -0.021927   0.028789
     7  H   -0.000020   0.003589   0.000015  -0.013036   0.131000   0.000137
     8  H    0.000000   0.000002  -0.000005   0.000333  -0.004432  -0.000007
     9  H    0.000000   0.000000   0.000000  -0.004159   0.189890   0.003967
    10  H    0.000018   0.000037   0.003401  -0.003512  -0.006537  -0.000001
    11  H    0.000005   0.000000  -0.000002  -0.000011  -0.000158  -0.000020
    12  Cl   0.000013  -0.000005   0.000111  -0.004477   0.023296   0.005755
    13  Br   0.004686  -0.001254   0.000519  -0.001364  -0.038446   0.000196
    14  C    0.019809  -0.032811  -0.004217  -0.088998   0.180979  -0.001320
    15  H    0.000136   0.000015  -0.000155  -0.002429   0.051587   0.000024
    16  H   -0.000234   0.002764   0.000095   0.004295  -0.004288   0.000001
    17  H    0.001939   0.000045   0.000019  -0.003074  -0.010484   0.000000
    18  C    0.432887   0.454677   0.461747  -0.006271   0.081608   0.000573
    19  H    0.501621  -0.024300  -0.024471  -0.005658  -0.000206   0.000000
    20  H   -0.024300   0.515473  -0.023171   0.007625   0.004273   0.000000
    21  H   -0.024471  -0.023171   0.499200   0.008948  -0.003381   0.000000
    22  Cl  -0.005658   0.007625   0.008948  17.316217   0.139472  -0.002036
    23  C   -0.000206   0.004273  -0.003381   0.139472  14.004970   0.311957
    24  H    0.000000   0.000000   0.000000  -0.002036   0.311957   0.498708
    25  C   -0.000164   0.000782  -0.000035   0.103095  -0.179389  -0.077387
    26  H    0.000000   0.000000   0.000000  -0.003506  -0.120448  -0.002026
    27  H    0.000000   0.000001   0.000001   0.007769  -0.047182   0.003427
    28  Cl   0.000000   0.000017  -0.000004   0.001925  -0.244149   0.017964
             25         26         27         28
     1  C   -0.218202   0.007296  -0.006669  -0.018023
     2  C    0.021774   0.000480   0.002202  -0.001165
     3  C   -0.526840   0.015602  -0.034253  -0.008986
     4  C   -0.030946   0.005111  -0.002070   0.006638
     5  C    0.158999   0.076168   0.046843   0.184040
     6  C   -0.115258   0.000327   0.000448  -0.003558
     7  H   -0.017185  -0.000371   0.008220   0.000919
     8  H    0.000444   0.000000   0.000000  -0.000013
     9  H    0.010265  -0.000008   0.000000  -0.000022
    10  H   -0.000395   0.000000   0.000000   0.000017
    11  H    0.001045   0.000001   0.000000   0.000044
    12  Cl   0.010871  -0.000534   0.000115  -0.001119
    13  Br  -0.001764   0.000008   0.000115   0.000076
    14  C   -0.025293   0.000974   0.005022  -0.001834
    15  H   -0.000333   0.000014   0.000010   0.000074
    16  H    0.002170  -0.000016  -0.000006  -0.000128
    17  H   -0.000361   0.000000   0.000001   0.000000
    18  C   -0.009270  -0.000254  -0.000987   0.002431
    19  H   -0.000164   0.000000   0.000000   0.000000
    20  H    0.000782   0.000000   0.000001   0.000017
    21  H   -0.000035   0.000000   0.000001  -0.000004
    22  Cl   0.103095  -0.003506   0.007769   0.001925
    23  C   -0.179389  -0.120448  -0.047182  -0.244149
    24  H   -0.077387  -0.002026   0.003427   0.017964
    25  C    6.371820   0.354793   0.348022   0.249729
    26  H    0.354793   0.485516  -0.025025  -0.038427
    27  H    0.348022  -0.025025   0.501754  -0.025262
    28  Cl   0.249729  -0.038427  -0.025262  16.977707
 Mulliken atomic charges:
              1
     1  C    0.065443
     2  C   -0.394996
     3  C   -0.160488
     4  C    0.235418
     5  C   -0.439762
     6  C   -0.388975
     7  H    0.201431
     8  H    0.211650
     9  H    0.228336
    10  H    0.243466
    11  H    0.213564
    12  Cl  -0.107283
    13  Br  -0.128694
    14  C   -0.610407
    15  H    0.181174
    16  H    0.181487
    17  H    0.197822
    18  C   -0.390836
    19  H    0.189072
    20  H    0.177935
    21  H    0.191783
    22  Cl  -0.107905
    23  C    0.088304
    24  H    0.190505
    25  C   -0.430986
    26  H    0.244325
    27  H    0.217505
    28  Cl  -0.098892
 Sum of Mulliken atomic charges =   0.00000
 Mulliken charges with hydrogens summed into heavy atoms:
              1
     1  C    0.293779
     2  C   -0.151530
     3  C    0.040943
     4  C    0.235418
     5  C   -0.439762
     6  C    0.036240
    12  Cl  -0.107283
    13  Br  -0.128694
    14  C   -0.049924
    18  C    0.167955
    22  Cl  -0.107905
    23  C    0.278810
    25  C    0.030844
    28  Cl  -0.098892
 Sum of Mulliken charges with hydrogens summed into heavy atoms =   0.00000
 Electronic spatial extent (au):  <R**2>=           5790.3841
 Charge=              0.0000 electrons
 Dipole moment (field-independent basis, Debye):
    X=              0.3333    Y=             -3.1660    Z=             -4.4947  Tot=              5.5079
 Quadrupole moment (field-independent basis, Debye-Ang):
   XX=           -139.5481   YY=           -117.5283   ZZ=           -117.8491
   XY=              3.3671   XZ=              7.0632   YZ=             -2.3065
 Traceless Quadrupole moment (field-independent basis, Debye-Ang):
   XX=            -14.5729   YY=              7.4469   ZZ=              7.1261
   XY=              3.3671   XZ=              7.0632   YZ=             -2.3065
 Octapole moment (field-independent basis, Debye-Ang**2):
  XXX=            142.3642  YYY=            -22.1591  ZZZ=            -16.0446  XYY=             27.1958
  XXY=             -4.1751  XXZ=            -10.0244  XZZ=             24.7024  YZZ=              7.2995
  YYZ=            -10.4305  XYZ=             -1.8571
 Hexadecapole moment (field-independent basis, Debye-Ang**3):
 XXXX=          -5162.5443 YYYY=          -1419.2027 ZZZZ=           -884.7565 XXXY=            -39.3561
 XXXZ=            -46.7826 YYYX=             28.3373 YYYZ=             -4.0879 ZZZX=            -11.0975
 ZZZY=             10.4553 XXYY=           -996.7996 XXZZ=           -913.2343 YYZZ=           -369.8536
 XXYZ=             12.8943 YYXZ=             -1.0483 ZZXY=              0.7030
 N-N= 1.696241077220D+03 E-N=-1.370644899225D+04  KE= 4.317885063845D+03
 1\1\GINC-COMPUTE-6-31\SP\RmPW1PW91\6-31+G(d,p)\C10H14Br1Cl3\LPASSAGLIA
 .IQUIR\20-May-2022\0\\# mPW1PW91/6-31+G** scrf=(PCM,solvent=chloroform
 ) nmr\\comment\\0,1\C,0,-0.434366,1.486628,-0.75179\C,0,1.615371,0.230
 366,0.058852\C,0,-0.633308,-0.80708,0.436641\C,0,0.863263,-1.119343,0.
 112664\C,0,-1.247408,0.244922,-0.459805\C,0,1.055649,1.199882,-0.97759
 \H,0,-1.179239,-1.745814,0.353341\H,0,1.617116,2.136752,-0.964219\H,0,
 -0.84431,1.993541,-1.626077\H,0,1.621064,0.687347,1.049082\H,0,1.16962
 5,0.772167,-1.980528\Cl,0,-0.621036,2.745605,0.590158\Br,0,3.557032,-0
 .022216,-0.339283\C,0,0.878268,-1.849048,-1.251611\H,0,0.322613,-1.315
 377,-2.028509\H,0,0.433007,-2.844773,-1.149164\H,0,1.910037,-1.971089,
 -1.5927\C,0,1.46798,-2.058769,1.170858\H,0,2.454388,-2.399406,0.846056
 \H,0,0.828532,-2.937791,1.310952\H,0,1.578212,-1.564097,2.138765\Cl,0,
 -0.888706,-0.334565,2.204704\C,0,-2.444329,0.108451,-1.057433\H,0,-2.7
 87223,0.914548,-1.704627\C,0,-3.407882,-1.026729,-0.939764\H,0,-3.6002
 48,-1.48816,-1.911795\H,0,-3.103865,-1.796299,-0.232288\Cl,0,-5.031155
 ,-0.418078,-0.364245\\Version=EM64L-G09RevC.01\State=1-A\HF=-4341.9494
 543\RMSD=6.510e-09\Dipole=0.1311396,-1.2455813,-1.7683514\Quadrupole=-
 10.8346086,5.5365583,5.2980503,2.5033813,5.2513068,-1.7148599\PG=C01 [
 X(C10H14Br1Cl3)]\\@


     SCHOPENHAUER'S LAW OF ENTROPY
 IF YOU PUT A SPOONFUL OF WINE IN A BARREL FULL
 OF SEWAGE, YOU GET SEWAGE.
 IF YOU PUT A SPOONFUL OF SEWAGE IN A BARREL FULL
 OF WINE, YOU GET SEWAGE.
 Job cpu time:  0 days  0 hours 18 minutes  2.7 seconds.
 File lengths (MBytes):  RWF=    153 Int=      0 D2E=      0 Chk=      9 Scr=      1
 Normal termination of Gaussian 09 at Fri May 20 10:26:04 2022.
