 Entering Gaussian System, Link 0=g09
 Input=/home/lpassaglia.iquir/NMR_Tetrahalogenados/02_SSSZ_Tetrahalogenado_001.gjc
 Output=/home/lpassaglia.iquir/NMR_Tetrahalogenados/02_SSSZ_Tetrahalogenado_001.log
 Initial command:
 /share/apps/Gaussian09/EM64T.SSE4.2-enabled/g09/l1.exe /tmp/Gau-29892.inp -scrdir=/tmp/
 Entering Link 1 = /share/apps/Gaussian09/EM64T.SSE4.2-enabled/g09/l1.exe PID=     29893.
  
 Copyright (c) 1988,1990,1992,1993,1995,1998,2003,2009,2011,
            Gaussian, Inc.  All Rights Reserved.
  
 This is part of the Gaussian(R) 09 program.  It is based on
 the Gaussian(R) 03 system (copyright 2003, Gaussian, Inc.),
 the Gaussian(R) 98 system (copyright 1998, Gaussian, Inc.),
 the Gaussian(R) 94 system (copyright 1995, Gaussian, Inc.),
 the Gaussian 92(TM) system (copyright 1992, Gaussian, Inc.),
 the Gaussian 90(TM) system (copyright 1990, Gaussian, Inc.),
 the Gaussian 88(TM) system (copyright 1988, Gaussian, Inc.),
 the Gaussian 86(TM) system (copyright 1986, Carnegie Mellon
 University), and the Gaussian 82(TM) system (copyright 1983,
 Carnegie Mellon University). Gaussian is a federally registered
 trademark of Gaussian, Inc.
  
 This software contains proprietary and confidential information,
 including trade secrets, belonging to Gaussian, Inc.
  
 This software is provided under written license and may be
 used, copied, transmitted, or stored only in accord with that
 written license.
  
 The following legend is applicable only to US Government
 contracts under FAR:
  
                    RESTRICTED RIGHTS LEGEND
  
 Use, reproduction and disclosure by the US Government is
 subject to restrictions as set forth in subparagraphs (a)
 and (c) of the Commercial Computer Software - Restricted
 Rights clause in FAR 52.227-19.
  
 Gaussian, Inc.
 340 Quinnipiac St., Bldg. 40, Wallingford CT 06492
  
  
 ---------------------------------------------------------------
 Warning -- This program may not be used in any manner that
 competes with the business of Gaussian, Inc. or will provide
 assistance to any competitor of Gaussian, Inc.  The licensee
 of this program is prohibited from giving any competitor of
 Gaussian, Inc. access to this program.  By using this program,
 the user acknowledges that Gaussian, Inc. is engaged in the
 business of creating and licensing software in the field of
 computational chemistry and represents and warrants to the
 licensee that it is not a competitor of Gaussian, Inc. and that
 it will not use this program in any manner prohibited above.
 ---------------------------------------------------------------
  

 Cite this work as:
 Gaussian 09, Revision C.01,
 M. J. Frisch, G. W. Trucks, H. B. Schlegel, G. E. Scuseria, 
 M. A. Robb, J. R. Cheeseman, G. Scalmani, V. Barone, B. Mennucci, 
 G. A. Petersson, H. Nakatsuji, M. Caricato, X. Li, H. P. Hratchian, 
 A. F. Izmaylov, J. Bloino, G. Zheng, J. L. Sonnenberg, M. Hada, 
 M. Ehara, K. Toyota, R. Fukuda, J. Hasegawa, M. Ishida, T. Nakajima, 
 Y. Honda, O. Kitao, H. Nakai, T. Vreven, J. A. Montgomery, Jr., 
 J. E. Peralta, F. Ogliaro, M. Bearpark, J. J. Heyd, E. Brothers, 
 K. N. Kudin, V. N. Staroverov, T. Keith, R. Kobayashi, J. Normand, 
 K. Raghavachari, A. Rendell, J. C. Burant, S. S. Iyengar, J. Tomasi, 
 M. Cossi, N. Rega, J. M. Millam, M. Klene, J. E. Knox, J. B. Cross, 
 V. Bakken, C. Adamo, J. Jaramillo, R. Gomperts, R. E. Stratmann, 
 O. Yazyev, A. J. Austin, R. Cammi, C. Pomelli, J. W. Ochterski, 
 R. L. Martin, K. Morokuma, V. G. Zakrzewski, G. A. Voth, 
 P. Salvador, J. J. Dannenberg, S. Dapprich, A. D. Daniels, 
 O. Farkas, J. B. Foresman, J. V. Ortiz, J. Cioslowski, 
 and D. J. Fox, Gaussian, Inc., Wallingford CT, 2010.
 
 ******************************************
 Gaussian 09:  EM64L-G09RevC.01 23-Sep-2011
                20-May-2022 
 ******************************************
 %nprocshared=4
 Will use up to    4 processors via shared memory.
 -----------------------------------------------------
 # mPW1PW91/6-31+G** scrf=(PCM,solvent=chloroform) nmr
 -----------------------------------------------------
 1/38=1/1;
 2/12=2,17=6,18=5,40=1/2;
 3/5=1,6=6,7=111,11=2,16=1,25=1,30=1,70=2201,72=7,74=-7/1,2,8,3;
 4//1;
 5/5=2,38=5,53=7/2;
 8/6=1,10=90,11=11/1;
 10/13=100,45=16/2;
 6/7=2,8=2,9=2,10=2,28=1/1;
 99/9=1/99;
 -------
 comment
 -------
 Charge =  0 Multiplicity = 1
 Symbolic Z-Matrix:
 6                     0.92484  -0.07765   1.16469 
 6                    -1.47466  -0.03696   0.30437 
 6                     0.30901   0.92593  -1.14659 
 6                    -1.02834   0.125    -1.16615 
 6                     1.35969   0.3708   -0.21025 
 6                    -0.45107  -0.7602    1.17367 
 1                     0.70679   0.95139  -2.16268 
 1                    -0.81089  -0.83708   2.20212 
 1                     1.65239  -0.76874   1.58737 
 1                    -1.71824   0.93988   0.72393 
 1                    -0.31727  -1.78406   0.80592 
 17                    0.9353    1.33221   2.36281 
 35                   -3.1983   -1.03691   0.45019 
 6                    -0.72149  -1.23466  -1.83833 
 1                     0.14868  -1.74049  -1.40967 
 1                    -0.52407  -1.08727  -2.90553 
 1                    -1.58646  -1.89666  -1.73928 
 6                    -2.09587   0.85124  -2.00293 
 1                    -2.96145   0.20006  -2.14865 
 1                    -1.69382   1.11574  -2.98751 
 1                    -2.43601   1.76976  -1.51881 
 17                    0.04132   2.71832  -0.75779 
 6                     2.6265    0.26278  -0.64807 
 1                     2.84473   0.55518  -1.6739 
 6                     3.80917  -0.20195   0.13228 
 1                     3.62705  -0.29271   1.20169 
 1                     4.66221   0.461    -0.0239 
 17                    4.36457  -1.85288  -0.44524 
 
                          Input orientation:                          
 ---------------------------------------------------------------------
 Center     Atomic      Atomic             Coordinates (Angstroms)
 Number     Number       Type             X           Y           Z
 ---------------------------------------------------------------------
      1          6           0        0.924839   -0.077654    1.164690
      2          6           0       -1.474658   -0.036955    0.304365
      3          6           0        0.309005    0.925934   -1.146588
      4          6           0       -1.028339    0.125001   -1.166146
      5          6           0        1.359693    0.370796   -0.210249
      6          6           0       -0.451068   -0.760204    1.173665
      7          1           0        0.706788    0.951386   -2.162683
      8          1           0       -0.810886   -0.837077    2.202116
      9          1           0        1.652390   -0.768740    1.587369
     10          1           0       -1.718238    0.939882    0.723928
     11          1           0       -0.317265   -1.784062    0.805917
     12         17           0        0.935304    1.332209    2.362805
     13         35           0       -3.198304   -1.036913    0.450187
     14          6           0       -0.721489   -1.234656   -1.838325
     15          1           0        0.148682   -1.740492   -1.409673
     16          1           0       -0.524065   -1.087269   -2.905533
     17          1           0       -1.586462   -1.896659   -1.739277
     18          6           0       -2.095870    0.851241   -2.002931
     19          1           0       -2.961448    0.200061   -2.148648
     20          1           0       -1.693823    1.115743   -2.987512
     21          1           0       -2.436007    1.769755   -1.518809
     22         17           0        0.041319    2.718320   -0.757786
     23          6           0        2.626498    0.262778   -0.648065
     24          1           0        2.844731    0.555181   -1.673896
     25          6           0        3.809167   -0.201946    0.132276
     26          1           0        3.627050   -0.292708    1.201694
     27          1           0        4.662215    0.460999   -0.023896
     28         17           0        4.364572   -1.852884   -0.445242
 ---------------------------------------------------------------------
                    Distance matrix (angstroms):
                    1          2          3          4          5
     1  C    0.000000
     2  C    2.549392   0.000000
     3  C    2.593925   2.492764   0.000000
     4  C    3.047748   1.545261   1.558963   0.000000
     5  C    1.510186   2.909404   1.512896   2.583960   0.000000
     6  C    1.535928   1.525290   2.967212   2.567400   2.544255
     7  H    3.489682   3.438292   1.091480   2.164870   2.139011
     8  H    2.160027   2.163850   3.946667   3.509711   3.462640
     9  H    1.088847   3.458329   3.485846   3.945494   2.148405
    10  H    2.866271   1.090676   2.758394   2.170800   3.266528
    11  H    2.140880   2.154877   3.398318   2.835345   2.913451
    12  Cl   1.850217   3.452492   3.587917   4.215061   2.779393
    13  Br   4.293134   1.998033   4.324775   2.944711   4.815927
    14  C    3.614851   2.567659   2.491700   1.547465   3.091832
    15  H    3.161455   2.911219   2.684166   2.219177   2.713430
    16  H    4.436819   3.508594   2.800157   2.179302   3.597090
    17  H    4.248345   2.765406   3.451247   2.174187   4.019839
    18  C    4.474522   2.549198   2.553885   1.538589   3.922429
    19  H    5.114544   2.878193   3.496695   2.169759   4.739072
    20  H    5.051967   3.494739   2.726967   2.177570   4.194293
    21  H    4.680745   2.740868   2.895803   2.193426   4.251677
    22  Cl   3.506279   3.319321   1.853502   2.834824   2.747504
    23  C    2.509506   4.220953   2.461519   3.693944   1.344673
    24  H    3.484829   4.787616   2.616375   3.929826   2.093227
    25  C    3.066052   5.289201   3.893423   5.019388   2.538756
    26  H    2.711008   5.186331   4.243694   5.239637   2.752222
    27  H    3.958644   6.165787   4.519628   5.813780   3.309005
    28  Cl   4.192265   6.160853   4.966018   5.789233   3.745567
                    6          7          8          9         10
     6  C    0.000000
     7  H    3.924460   0.000000
     8  H    1.092287   4.955139   0.000000
     9  H    2.143772   4.232716   2.539747   0.000000
    10  H    2.167551   3.770067   2.483125   3.876345   0.000000
    11  H    1.096096   4.164606   1.757787   2.349699   3.064199
    12  Cl   2.777458   4.547229   2.789409   2.351489   3.143425
    13  Br   2.854346   5.101977   2.967988   4.989422   2.484602
    14  C    3.061097   2.631342   4.060939   4.193776   3.505319
    15  H    2.827419   2.850388   3.844730   3.491089   3.901544
    16  H    4.092940   2.494582   5.121810   5.002458   4.325318
    17  H    3.326542   3.680982   4.154373   4.777964   3.759083
    18  C    3.923377   2.808993   4.709992   5.437283   2.754310
    19  H    4.273392   3.744415   4.962834   6.015305   3.216302
    20  H    4.730646   2.543676   5.614742   5.973103   3.715684
    21  H    4.194054   3.310810   4.825129   5.727765   2.496748
    22  Cl   4.009124   2.353432   4.704054   4.500543   2.907638
    23  C    3.719759   2.540381   4.598785   2.647656   4.606253
    24  H    4.549850   2.228608   5.506849   3.716220   5.168969
    25  C    4.421057   4.027625   5.102207   2.662750   5.675036
    26  H    4.104922   4.625444   4.581753   2.067519   5.506327
    27  H    5.391767   4.523305   6.049377   3.628702   6.441952
    28  Cl   5.196653   4.918630   5.901333   3.558484   6.794636
                   11         12         13         14         15
    11  H    0.000000
    12  Cl   3.701888   0.000000
    13  Br   2.997526   5.133962   0.000000
    14  C    2.730798   5.194541   3.378017   0.000000
    15  H    2.264474   4.928677   3.893124   1.093988   0.000000
    16  H    3.781950   5.978212   4.291264   1.095277   1.765470
    17  H    2.846322   5.797583   2.851482   1.093726   1.773063
    18  C    4.242391   5.336572   3.286073   2.503395   3.479518
    19  H    4.433723   6.067919   2.887932   2.678083   3.739617
    20  H    4.969294   5.965321   4.326103   2.791136   3.747330
    21  H    4.745844   5.159856   3.512183   3.473924   4.360546
    22  Cl   4.779665   3.529674   5.104521   4.168388   4.507492
    23  C    3.869025   3.615129   6.068251   3.855910   3.276081
    24  H    4.649704   4.532619   6.600361   3.993555   3.550860
    25  C    4.470383   3.948162   7.064198   5.047435   4.259563
    26  H    4.235374   3.351721   6.906813   5.388764   4.584142
    27  H    5.524863   4.510567   8.016000   5.928884   5.209503
    28  Cl   4.846621   5.458006   7.659288   5.309511   4.326256
                   16         17         18         19         20
    16  H    0.000000
    17  H    1.773119   0.000000
    18  C    2.653881   2.807127   0.000000
    19  H    2.858484   2.540552   1.092929   0.000000
    20  H    2.495659   3.262542   1.095903   1.774553   0.000000
    21  H    3.706901   3.770003   1.092582   1.771080   1.770779
    22  Cl   4.406244   4.991095   3.099024   4.158453   3.248176
    23  C    4.104246   4.858286   4.948001   5.786262   4.986555
    24  H    3.945042   5.064708   4.960388   5.836370   4.757971
    25  C    5.365536   5.957145   6.366928   7.155798   6.461600
    26  H    5.893420   6.196989   6.658082   7.407828   6.916999
    27  H    6.131759   6.895437   7.052700   7.918516   7.043503
    28  Cl   5.526117   6.090258   7.174678   7.796585   7.209718
                   21         22         23         24         25
    21  H    0.000000
    22  Cl   2.759724   0.000000
    23  C    5.353329   3.567194   0.000000
    24  H    5.420833   3.657533   1.088786   0.000000
    25  C    6.753953   4.849417   1.491176   2.183034   0.000000
    26  H    6.958128   5.075758   2.175150   3.098380   1.088604
    27  H    7.371049   5.194879   2.138463   2.456546   1.091594
    28  Cl   7.779713   6.299532   2.745554   3.101336   1.835102
                   26         27         28
    26  H    0.000000
    27  H    1.772487   0.000000
    28  Cl   2.385474   2.370692   0.000000
 Stoichiometry    C10H14BrCl3
 Framework group  C1[X(C10H14BrCl3)]
 Deg. of freedom    78
 Full point group                 C1      NOp   1
 Largest Abelian subgroup         C1      NOp   1
 Largest concise Abelian subgroup C1      NOp   1
                         Standard orientation:                         
 ---------------------------------------------------------------------
 Center     Atomic      Atomic             Coordinates (Angstroms)
 Number     Number       Type             X           Y           Z
 ---------------------------------------------------------------------
      1          6           0        0.924839   -0.077654    1.164690
      2          6           0       -1.474658   -0.036955    0.304365
      3          6           0        0.309005    0.925934   -1.146588
      4          6           0       -1.028339    0.125001   -1.166146
      5          6           0        1.359693    0.370796   -0.210249
      6          6           0       -0.451068   -0.760204    1.173665
      7          1           0        0.706788    0.951386   -2.162683
      8          1           0       -0.810886   -0.837077    2.202116
      9          1           0        1.652390   -0.768740    1.587369
     10          1           0       -1.718238    0.939882    0.723928
     11          1           0       -0.317265   -1.784062    0.805917
     12         17           0        0.935304    1.332209    2.362805
     13         35           0       -3.198304   -1.036913    0.450187
     14          6           0       -0.721489   -1.234656   -1.838325
     15          1           0        0.148682   -1.740492   -1.409673
     16          1           0       -0.524065   -1.087269   -2.905533
     17          1           0       -1.586462   -1.896659   -1.739277
     18          6           0       -2.095870    0.851241   -2.002931
     19          1           0       -2.961448    0.200061   -2.148648
     20          1           0       -1.693823    1.115743   -2.987512
     21          1           0       -2.436007    1.769755   -1.518809
     22         17           0        0.041319    2.718320   -0.757786
     23          6           0        2.626498    0.262778   -0.648065
     24          1           0        2.844731    0.555181   -1.673896
     25          6           0        3.809167   -0.201946    0.132276
     26          1           0        3.627050   -0.292708    1.201694
     27          1           0        4.662215    0.460999   -0.023896
     28         17           0        4.364572   -1.852884   -0.445242
 ---------------------------------------------------------------------
 Rotational constants (GHZ):      0.4877286      0.2097746      0.1977067
 Standard basis: 6-31+G(d,p) (6D, 7F)
 There are   363 symmetry adapted basis functions of A   symmetry.
 Integral buffers will be    131072 words long.
 Raffenetti 2 integral format.
 Two-electron integral symmetry is turned on.
   363 basis functions,   673 primitive gaussians,   363 cartesian basis functions
    80 alpha electrons       80 beta electrons
       nuclear repulsion energy      1698.0786516480 Hartrees.
 NAtoms=   28 NActive=   28 NUniq=   28 SFac= 1.00D+00 NAtFMM=   60 NAOKFM=F Big=F
 ------------------------------------------------------------------------------
 Polarizable Continuum Model (PCM)
 =================================
 Model                : PCM.
 Atomic radii         : UFF (Universal Force Field).
 Polarization charges : Total charges.
 Charge compensation  : None.
 Solution method      : Matrix inversion.
 Cavity type          : Scaled VdW (van der Waals Surface) (Alpha=1.100).
 Cavity algorithm     : GePol (No added spheres)
                        Default sphere list used, NSphG=   28.
                        Lebedev-Laikov grids with approx.  5.0 points / Ang**2.
                        Smoothing algorithm: Karplus/York (Gamma=1.0000).
                        Polarization charges: spherical gaussians, with
                                              point-specific exponents (IZeta= 3).
                        Self-potential: point-specific (ISelfS= 7).
                        Self-field    : sphere-specific E.n sum rule (ISelfD= 2).
 Solvent              : Chloroform, Eps=   4.711300 Eps(inf)=   2.090627
 ------------------------------------------------------------------------------
 One-electron integrals computed using PRISM.
 NBasis=   363 RedAO= T  NBF=   363
 NBsUse=   363 1.00D-06 NBFU=   363
 Harris functional with IExCor=  908 diagonalized for initial guess.
 ExpMin= 3.50D-02 ExpMax= 5.74D+05 ExpMxC= 5.74D+03 IAcc=3 IRadAn=         5 AccDes= 0.00D+00
 HarFok:  IExCor=  908 AccDes= 0.00D+00 IRadAn=         5 IDoV= 1
 ScaDFX=  1.000000  1.000000  1.000000  1.000000
 FoFCou: FMM=F IPFlag=           0 FMFlag=      100000 FMFlg1=           0
         NFxFlg=           0 DoJE=T BraDBF=F KetDBF=T FulRan=T
         Omega=  0.000000  0.000000  1.000000  0.000000  0.000000 ICntrl=     500 IOpCl=  0
         NMat0=    1 NMatS0=    1 NMatT0=    0 NMatD0=    1 NMtDS0=    0 NMtDT0=    0
         I1Cent=           4 NGrid=           0.
 Petite list used in FoFCou.
 Initial guess orbital symmetries:
       Occupied  (A) (A) (A) (A) (A) (A) (A) (A) (A) (A) (A) (A)
                 (A) (A) (A) (A) (A) (A) (A) (A) (A) (A) (A) (A)
                 (A) (A) (A) (A) (A) (A) (A) (A) (A) (A) (A) (A)
                 (A) (A) (A) (A) (A) (A) (A) (A) (A) (A) (A) (A)
                 (A) (A) (A) (A) (A) (A) (A) (A) (A) (A) (A) (A)
                 (A) (A) (A) (A) (A) (A) (A) (A) (A) (A) (A) (A)
                 (A) (A) (A) (A) (A) (A) (A) (A)
       Virtual   (A) (A) (A) (A) (A) (A) (A) (A) (A) (A) (A) (A)
                 (A) (A) (A) (A) (A) (A) (A) (A) (A) (A) (A) (A)
                 (A) (A) (A) (A) (A) (A) (A) (A) (A) (A) (A) (A)
                 (A) (A) (A) (A) (A) (A) (A) (A) (A) (A) (A) (A)
                 (A) (A) (A) (A) (A) (A) (A) (A) (A) (A) (A) (A)
                 (A) (A) (A) (A) (A) (A) (A) (A) (A) (A) (A) (A)
                 (A) (A) (A) (A) (A) (A) (A) (A) (A) (A) (A) (A)
                 (A) (A) (A) (A) (A) (A) (A) (A) (A) (A) (A) (A)
                 (A) (A) (A) (A) (A) (A) (A) (A) (A) (A) (A) (A)
                 (A) (A) (A) (A) (A) (A) (A) (A) (A) (A) (A) (A)
                 (A) (A) (A) (A) (A) (A) (A) (A) (A) (A) (A) (A)
                 (A) (A) (A) (A) (A) (A) (A) (A) (A) (A) (A) (A)
                 (A) (A) (A) (A) (A) (A) (A) (A) (A) (A) (A) (A)
                 (A) (A) (A) (A) (A) (A) (A) (A) (A) (A) (A) (A)
                 (A) (A) (A) (A) (A) (A) (A) (A) (A) (A) (A) (A)
                 (A) (A) (A) (A) (A) (A) (A) (A) (A) (A) (A) (A)
                 (A) (A) (A) (A) (A) (A) (A) (A) (A) (A) (A) (A)
                 (A) (A) (A) (A) (A) (A) (A) (A) (A) (A) (A) (A)
                 (A) (A) (A) (A) (A) (A) (A) (A) (A) (A) (A) (A)
                 (A) (A) (A) (A) (A) (A) (A) (A) (A) (A) (A) (A)
                 (A) (A) (A) (A) (A) (A) (A) (A) (A) (A) (A) (A)
                 (A) (A) (A) (A) (A) (A) (A) (A) (A) (A) (A) (A)
                 (A) (A) (A) (A) (A) (A) (A) (A) (A) (A) (A) (A)
                 (A) (A) (A) (A) (A) (A) (A)
 The electronic state of the initial guess is 1-A.
 Requested convergence on RMS density matrix=1.00D-08 within 128 cycles.
 Requested convergence on MAX density matrix=1.00D-06.
 Requested convergence on             energy=1.00D-06.
 No special actions if energy rises.
 Error on total polarization charges =  0.01645
 SCF Done:  E(RmPW1PW91) =  -4341.95085642     A.U. after   14 cycles
             Convg  =    0.5867D-08             -V/T =  2.0056
 Range of M.O.s used for correlation:     1   363
 NBasis=   363 NAE=    80 NBE=    80 NFC=     0 NFV=     0
 NROrb=    363 NOA=    80 NOB=    80 NVA=   283 NVB=   283

 **** Warning!!: The largest alpha MO coefficient is  0.11971523D+03

 NEqPCM:  Using equilibrium solvation (IEInf=0, Eps=   4.7113, EpsInf=   2.0906)
          Differentiating once with respect to magnetic field using GIAOs.
          Electric field/nuclear overlap derivatives assumed to be zero.
 FoFCou: FMM=F IPFlag=           0 FMFlag=    10101102 FMFlg1=           0
         NFxFlg=    40000000 DoJE=F BraDBF=F KetDBF=T FulRan=T
         Omega=  0.000000  0.000000  1.000000  0.000000  0.000000 ICntrl=    6100 IOpCl=  0
         NMat0=    1 NMatS0=    1 NMatT0=    0 NMatD0=    1 NMtDS0=    0 NMtDT0=    0
         I1Cent=           7 NGrid=        2115.
 Symmetry not used in FoFCou.
          There are     3 degrees of freedom in the 1st order CPHF.  IDoFFX=0.
      3 vectors produced by pass  0 Test12= 7.55D-13 3.33D-08 XBig12= 9.86D+01 1.59D+00.
 AX will form     3 AO Fock derivatives at one time.
      3 vectors produced by pass  1 Test12= 7.55D-13 3.33D-08 XBig12= 3.01D-01 1.20D-01.
      3 vectors produced by pass  2 Test12= 7.55D-13 3.33D-08 XBig12= 1.39D-03 1.12D-02.
      3 vectors produced by pass  3 Test12= 7.55D-13 3.33D-08 XBig12= 9.38D-06 1.03D-03.
      3 vectors produced by pass  4 Test12= 7.55D-13 3.33D-08 XBig12= 3.63D-08 7.24D-05.
      3 vectors produced by pass  5 Test12= 7.55D-13 3.33D-08 XBig12= 1.03D-10 3.07D-06.
      3 vectors produced by pass  6 Test12= 7.55D-13 3.33D-08 XBig12= 4.81D-13 1.77D-07.
 Inverted reduced A of dimension    21 with in-core refinement.
 Calculating GIAO nuclear magnetic shielding tensors.
 SCF GIAO Magnetic shielding tensor (ppm):
      1  C    Isotropic =   137.3715   Anisotropy =    46.3013
   XX=   126.9374   YX=    12.9230   ZX=    -8.4369
   XY=     7.8493   YY=   150.6372   ZY=    21.3716
   XZ=   -10.9369   YZ=    26.9097   ZZ=   134.5400
   Eigenvalues:   107.2303   136.6452   168.2390
      2  C    Isotropic =   127.2254   Anisotropy =    63.0102
   XX=   145.9724   YX=    37.9130   ZX=     1.5254
   XY=    38.6392   YY=   106.0688   ZY=   -12.2909
   XZ=     9.0153   YZ=   -10.2617   ZZ=   129.6349
   Eigenvalues:    79.7835   132.6605   169.2322
      3  C    Isotropic =   117.1500   Anisotropy =    25.5756
   XX=   129.5948   YX=     1.9516   ZX=     6.4341
   XY=    -4.8371   YY=   129.6462   ZY=    17.8666
   XZ=     4.7604   YZ=     9.6699   ZZ=    92.2092
   Eigenvalues:    86.9114   130.3383   134.2005
      4  C    Isotropic =   150.3761   Anisotropy =    15.3974
   XX=   150.5663   YX=    11.7515   ZX=    -0.0016
   XY=     1.1613   YY=   154.4704   ZY=    -0.9587
   XZ=    -4.0948   YZ=    -7.1368   ZZ=   146.0916
   Eigenvalues:   144.3404   146.1469   160.6410
      5  C    Isotropic =    56.1331   Anisotropy =   152.9650
   XX=    50.0989   YX=    32.6962   ZX=   -26.5386
   XY=    33.6793   YY=   128.2145   ZY=    62.2992
   XZ=   -11.3843   YZ=    63.2681   ZZ=    -9.9141
   Eigenvalues:   -43.8502    54.1397   158.1098
      6  C    Isotropic =   153.1866   Anisotropy =    42.8220
   XX=   173.8620   YX=    20.6870   ZX=     6.3248
   XY=    10.4738   YY=   142.9002   ZY=    -2.9746
   XZ=     9.8949   YZ=     2.1583   ZZ=   142.7977
   Eigenvalues:   134.6642   143.1610   181.7346
      7  H    Isotropic =    27.1008   Anisotropy =     5.3916
   XX=    26.7636   YX=    -0.1715   ZX=    -2.7480
   XY=    -0.4438   YY=    27.4142   ZY=     2.4712
   XZ=    -3.3912   YZ=     0.9593   ZZ=    27.1245
   Eigenvalues:    23.6078    26.9994    30.6952
      8  H    Isotropic =    29.0119   Anisotropy =     6.5374
   XX=    29.8564   YX=     2.5481   ZX=     0.3965
   XY=     3.3811   YY=    24.5240   ZY=    -3.0447
   XZ=     1.1622   YZ=    -1.9793   ZZ=    32.6553
   Eigenvalues:    22.5288    31.1368    33.3702
      9  H    Isotropic =    26.4554   Anisotropy =     8.2887
   XX=    29.0790   YX=    -3.2247   ZX=     0.2439
   XY=    -4.4560   YY=    26.8795   ZY=    -0.1758
   XZ=     0.2271   YZ=     1.6214   ZZ=    23.4076
   Eigenvalues:    22.9168    24.4682    31.9812
     10  H    Isotropic =    26.3075   Anisotropy =     8.7850
   XX=    27.2376   YX=     4.5535   ZX=    -0.2194
   XY=     4.2316   YY=    28.0157   ZY=     1.6422
   XZ=    -0.6848   YZ=     1.9652   ZZ=    23.6692
   Eigenvalues:    21.8304    24.9279    32.1641
     11  H    Isotropic =    29.0075   Anisotropy =     3.8843
   XX=    29.3643   YX=     0.4001   ZX=     1.8085
   XY=     0.0932   YY=    31.5359   ZY=    -0.7435
   XZ=     2.0998   YZ=    -0.4027   ZZ=    26.1223
   Eigenvalues:    25.1435    30.2820    31.5971
     12  Cl   Isotropic =   714.2698   Anisotropy =   534.4909
   XX=   523.9102   YX=   111.6534   ZX=   -96.9937
   XY=   125.2379   YY=   770.2339   ZY=   268.8400
   XZ=   -79.1380   YZ=   247.0979   ZZ=   848.6655
   Eigenvalues:   388.3849   683.8275  1070.5971
     13  Br   Isotropic =  2456.9614   Anisotropy =  1011.4191
   XX=  2920.9571   YX=   400.9162   ZX=    18.8242
   XY=   417.4772   YY=  2333.8112   ZY=   -67.7032
   XZ=    40.5145   YZ=  -116.3346   ZZ=  2116.1159
   Eigenvalues:  2024.3388  2215.3046  3131.2408
     14  C    Isotropic =   174.6294   Anisotropy =    32.0561
   XX=   164.1215   YX=    -4.6628   ZX=    -0.9259
   XY=    -5.0118   YY=   189.7784   ZY=    10.2053
   XZ=    -2.5694   YZ=    13.1156   ZZ=   169.9882
   Eigenvalues:   163.1620   164.7260   196.0001
     15  H    Isotropic =    30.6755   Anisotropy =     7.9919
   XX=    32.2816   YX=    -4.0702   ZX=     1.5318
   XY=    -3.9526   YY=    31.6798   ZY=     1.1596
   XZ=     1.2815   YZ=     1.8396   ZZ=    28.0651
   Eigenvalues:    25.9548    30.0683    36.0034
     16  H    Isotropic =    30.9140   Anisotropy =    10.1559
   XX=    27.5837   YX=    -0.9377   ZX=    -1.7602
   XY=    -0.5866   YY=    28.6130   ZY=     3.3207
   XZ=    -1.6528   YZ=     1.9614   ZZ=    36.5452
   Eigenvalues:    27.1613    27.8961    37.6846
     17  H    Isotropic =    30.0041   Anisotropy =     7.4924
   XX=    30.0294   YX=     3.0338   ZX=    -2.1989
   XY=     4.6555   YY=    31.5672   ZY=     2.7507
   XZ=    -1.8241   YZ=     3.6108   ZZ=    28.4157
   Eigenvalues:    23.9406    31.0726    34.9991
     18  C    Isotropic =   167.5475   Anisotropy =    34.9155
   XX=   168.9580   YX=   -14.9226   ZX=     9.9070
   XY=   -11.8901   YY=   164.0999   ZY=    -8.7335
   XZ=    13.0283   YZ=   -10.7761   ZZ=   169.5846
   Eigenvalues:   152.9020   158.9159   190.8245
     19  H    Isotropic =    30.0417   Anisotropy =     7.5970
   XX=    32.8839   YX=     2.7023   ZX=     2.8156
   XY=     2.1070   YY=    26.9584   ZY=    -2.3088
   XZ=     3.5535   YZ=    -2.1789   ZZ=    30.2827
   Eigenvalues:    24.2625    30.7562    35.1063
     20  H    Isotropic =    30.7519   Anisotropy =    10.6761
   XX=    27.8067   YX=    -0.2338   ZX=     1.5043
   XY=    -0.0051   YY=    28.1003   ZY=    -3.7839
   XZ=     0.7013   YZ=    -3.5850   ZZ=    36.3487
   Eigenvalues:    26.6209    27.7655    37.8693
     21  H    Isotropic =    30.1562   Anisotropy =     7.7572
   XX=    30.6717   YX=    -3.4727   ZX=     0.8881
   XY=    -2.5669   YY=    33.2516   ZY=     0.4363
   XZ=     1.5798   YZ=    -0.8298   ZZ=    26.5454
   Eigenvalues:    26.1336    29.0074    35.3277
     22  Cl   Isotropic =   768.7458   Anisotropy =   421.9282
   XX=   697.7705   YX=   -74.9678   ZX=    47.3831
   XY=   -84.2859   YY=  1028.8032   ZY=    27.3110
   XZ=    65.0057   YZ=    75.2892   ZZ=   579.6637
   Eigenvalues:   544.4460   711.7601  1050.0312
     23  C    Isotropic =    62.0049   Anisotropy =   130.5745
   XX=    68.3361   YX=    11.9702   ZX=    -8.8832
   XY=    22.4777   YY=   128.6763   ZY=    51.0074
   XZ=    -9.7057   YZ=    56.0217   ZZ=   -10.9976
   Eigenvalues:   -31.2280    68.1882   149.0546
     24  H    Isotropic =    25.2790   Anisotropy =     8.2816
   XX=    30.2414   YX=    -1.4763   ZX=    -0.6586
   XY=    -2.4873   YY=    23.7705   ZY=    -1.1681
   XZ=     0.1338   YZ=    -0.7515   ZZ=    21.8251
   Eigenvalues:    21.3057    23.7312    30.8001
     25  C    Isotropic =   150.6407   Anisotropy =    49.1009
   XX=   139.2891   YX=   -13.6449   ZX=     9.6337
   XY=   -17.0796   YY=   174.2576   ZY=    18.5763
   XZ=     7.3317   YZ=    12.8876   ZZ=   138.3754
   Eigenvalues:   121.2222   147.3253   183.3746
     26  H    Isotropic =    27.3064   Anisotropy =     8.2958
   XX=    27.6539   YX=    -3.7412   ZX=    -0.3651
   XY=    -3.4392   YY=    24.4586   ZY=     4.0251
   XZ=    -2.1187   YZ=     2.2793   ZZ=    29.8066
   Eigenvalues:    21.5968    27.4854    32.8369
     27  H    Isotropic =    27.4902   Anisotropy =     9.1474
   XX=    29.8981   YX=     2.2585   ZX=    -0.3339
   XY=     4.0254   YY=    30.7789   ZY=     0.8191
   XZ=     0.4724   YZ=     1.5836   ZZ=    21.7938
   Eigenvalues:    21.6199    27.2623    33.5885
     28  Cl   Isotropic =   826.1257   Anisotropy =   412.9443
   XX=   786.3619   YX=  -148.2084   ZX=    20.6743
   XY=  -153.1261   YY=  1006.5876   ZY=    85.5726
   XZ=     0.2236   YZ=   119.0441   ZZ=   685.4276
   Eigenvalues:   630.1029   746.8523  1101.4219
 End of Minotr Frequency-dependent properties file   721 does not exist.
 End of Minotr Frequency-dependent properties file   722 does not exist.

 **********************************************************************

            Population analysis using the SCF density.

 **********************************************************************

 Orbital symmetries:
       Occupied  (A) (A) (A) (A) (A) (A) (A) (A) (A) (A) (A) (A)
                 (A) (A) (A) (A) (A) (A) (A) (A) (A) (A) (A) (A)
                 (A) (A) (A) (A) (A) (A) (A) (A) (A) (A) (A) (A)
                 (A) (A) (A) (A) (A) (A) (A) (A) (A) (A) (A) (A)
                 (A) (A) (A) (A) (A) (A) (A) (A) (A) (A) (A) (A)
                 (A) (A) (A) (A) (A) (A) (A) (A) (A) (A) (A) (A)
                 (A) (A) (A) (A) (A) (A) (A) (A)
       Virtual   (A) (A) (A) (A) (A) (A) (A) (A) (A) (A) (A) (A)
                 (A) (A) (A) (A) (A) (A) (A) (A) (A) (A) (A) (A)
                 (A) (A) (A) (A) (A) (A) (A) (A) (A) (A) (A) (A)
                 (A) (A) (A) (A) (A) (A) (A) (A) (A) (A) (A) (A)
                 (A) (A) (A) (A) (A) (A) (A) (A) (A) (A) (A) (A)
                 (A) (A) (A) (A) (A) (A) (A) (A) (A) (A) (A) (A)
                 (A) (A) (A) (A) (A) (A) (A) (A) (A) (A) (A) (A)
                 (A) (A) (A) (A) (A) (A) (A) (A) (A) (A) (A) (A)
                 (A) (A) (A) (A) (A) (A) (A) (A) (A) (A) (A) (A)
                 (A) (A) (A) (A) (A) (A) (A) (A) (A) (A) (A) (A)
                 (A) (A) (A) (A) (A) (A) (A) (A) (A) (A) (A) (A)
                 (A) (A) (A) (A) (A) (A) (A) (A) (A) (A) (A) (A)
                 (A) (A) (A) (A) (A) (A) (A) (A) (A) (A) (A) (A)
                 (A) (A) (A) (A) (A) (A) (A) (A) (A) (A) (A) (A)
                 (A) (A) (A) (A) (A) (A) (A) (A) (A) (A) (A) (A)
                 (A) (A) (A) (A) (A) (A) (A) (A) (A) (A) (A) (A)
                 (A) (A) (A) (A) (A) (A) (A) (A) (A) (A) (A) (A)
                 (A) (A) (A) (A) (A) (A) (A) (A) (A) (A) (A) (A)
                 (A) (A) (A) (A) (A) (A) (A) (A) (A) (A) (A) (A)
                 (A) (A) (A) (A) (A) (A) (A) (A) (A) (A) (A) (A)
                 (A) (A) (A) (A) (A) (A) (A) (A) (A) (A) (A) (A)
                 (A) (A) (A) (A) (A) (A) (A) (A) (A) (A) (A) (A)
                 (A) (A) (A) (A) (A) (A) (A) (A) (A) (A) (A) (A)
                 (A) (A) (A) (A) (A) (A) (A)
 The electronic state is 1-A.
 Alpha  occ. eigenvalues -- -483.41532-101.76490-101.76071-101.75934 -62.05516
 Alpha  occ. eigenvalues --  -56.54088 -56.53748 -56.53731 -10.34183 -10.33925
 Alpha  occ. eigenvalues --  -10.32884 -10.32578 -10.30411 -10.30089 -10.29355
 Alpha  occ. eigenvalues --  -10.28017 -10.25150 -10.24565  -9.54285  -9.53813
 Alpha  occ. eigenvalues --   -9.53658  -8.67377  -7.28263  -7.27784  -7.27625
 Alpha  occ. eigenvalues --   -7.27311  -7.27296  -7.26850  -7.26834  -7.26700
 Alpha  occ. eigenvalues --   -7.26684  -6.60856  -6.59694  -6.59682  -2.69591
 Alpha  occ. eigenvalues --   -2.69262  -2.69252  -2.68308  -2.68307  -0.93905
 Alpha  occ. eigenvalues --   -0.89688  -0.88620  -0.86537  -0.83029  -0.80959
 Alpha  occ. eigenvalues --   -0.78144  -0.74206  -0.72017  -0.70960  -0.66833
 Alpha  occ. eigenvalues --   -0.65503  -0.58903  -0.55466  -0.54089  -0.51116
 Alpha  occ. eigenvalues --   -0.49545  -0.48259  -0.47835  -0.46782  -0.45632
 Alpha  occ. eigenvalues --   -0.44757  -0.43831  -0.43353  -0.41834  -0.40539
 Alpha  occ. eigenvalues --   -0.39824  -0.39549  -0.38638  -0.37063  -0.36249
 Alpha  occ. eigenvalues --   -0.35789  -0.34011  -0.33269  -0.32647  -0.32484
 Alpha  occ. eigenvalues --   -0.31886  -0.30682  -0.29853  -0.29732  -0.29329
 Alpha virt. eigenvalues --   -0.06583  -0.02211  -0.00006   0.00106   0.00616
 Alpha virt. eigenvalues --    0.01480   0.01676   0.02942   0.03457   0.03837
 Alpha virt. eigenvalues --    0.04099   0.04703   0.05032   0.05929   0.06287
 Alpha virt. eigenvalues --    0.06427   0.07191   0.07540   0.08064   0.08358
 Alpha virt. eigenvalues --    0.08689   0.09094   0.09257   0.10230   0.10568
 Alpha virt. eigenvalues --    0.10920   0.11109   0.11680   0.11794   0.12255
 Alpha virt. eigenvalues --    0.12595   0.12714   0.12851   0.13504   0.14464
 Alpha virt. eigenvalues --    0.14725   0.15127   0.15805   0.16036   0.16536
 Alpha virt. eigenvalues --    0.17031   0.17269   0.17367   0.17632   0.18097
 Alpha virt. eigenvalues --    0.18745   0.19323   0.19419   0.20035   0.20072
 Alpha virt. eigenvalues --    0.21244   0.21394   0.21705   0.21945   0.22576
 Alpha virt. eigenvalues --    0.23099   0.23354   0.24012   0.24656   0.24908
 Alpha virt. eigenvalues --    0.25210   0.25889   0.26221   0.26658   0.27159
 Alpha virt. eigenvalues --    0.27571   0.28216   0.28534   0.29380   0.30069
 Alpha virt. eigenvalues --    0.30360   0.30931   0.31146   0.32506   0.33303
 Alpha virt. eigenvalues --    0.35163   0.36150   0.37145   0.38249   0.39298
 Alpha virt. eigenvalues --    0.40801   0.42356   0.44691   0.46764   0.48692
 Alpha virt. eigenvalues --    0.49182   0.52257   0.52818   0.54764   0.56829
 Alpha virt. eigenvalues --    0.57853   0.59757   0.60527   0.61152   0.62590
 Alpha virt. eigenvalues --    0.63312   0.63793   0.63974   0.64769   0.65069
 Alpha virt. eigenvalues --    0.65755   0.65815   0.66448   0.66940   0.67865
 Alpha virt. eigenvalues --    0.69035   0.69752   0.70630   0.71490   0.72403
 Alpha virt. eigenvalues --    0.74088   0.74385   0.74919   0.75237   0.76464
 Alpha virt. eigenvalues --    0.77179   0.77559   0.78448   0.78738   0.79498
 Alpha virt. eigenvalues --    0.81116   0.82648   0.83195   0.84381   0.85425
 Alpha virt. eigenvalues --    0.87008   0.87603   0.88191   0.88766   0.89133
 Alpha virt. eigenvalues --    0.90455   0.91612   0.92426   0.93910   0.95057
 Alpha virt. eigenvalues --    0.95726   0.96947   0.97855   0.98745   0.99946
 Alpha virt. eigenvalues --    1.00691   1.00881   1.01836   1.02398   1.04339
 Alpha virt. eigenvalues --    1.04953   1.06325   1.07236   1.07886   1.08147
 Alpha virt. eigenvalues --    1.09811   1.11267   1.12720   1.13234   1.14728
 Alpha virt. eigenvalues --    1.15753   1.17081   1.17534   1.18423   1.19854
 Alpha virt. eigenvalues --    1.21267   1.23408   1.24588   1.27919   1.28342
 Alpha virt. eigenvalues --    1.32025   1.34152   1.34563   1.37013   1.39499
 Alpha virt. eigenvalues --    1.40638   1.44431   1.48084   1.51020   1.52714
 Alpha virt. eigenvalues --    1.56562   1.58338   1.59691   1.65087   1.66116
 Alpha virt. eigenvalues --    1.70799   1.73222   1.75805   1.80128   1.80603
 Alpha virt. eigenvalues --    1.81938   1.83621   1.84571   1.87220   1.87748
 Alpha virt. eigenvalues --    1.90115   1.90319   1.91608   1.92624   1.95578
 Alpha virt. eigenvalues --    1.97160   1.97775   2.00559   2.02108   2.02939
 Alpha virt. eigenvalues --    2.05485   2.06287   2.09250   2.10605   2.11176
 Alpha virt. eigenvalues --    2.13206   2.13596   2.15659   2.15778   2.17701
 Alpha virt. eigenvalues --    2.17885   2.19383   2.21664   2.22964   2.24016
 Alpha virt. eigenvalues --    2.24467   2.25684   2.31269   2.33261   2.35088
 Alpha virt. eigenvalues --    2.37916   2.40013   2.43999   2.45983   2.47858
 Alpha virt. eigenvalues --    2.49774   2.52577   2.54038   2.55441   2.57011
 Alpha virt. eigenvalues --    2.58238   2.59941   2.61292   2.63939   2.65596
 Alpha virt. eigenvalues --    2.67837   2.68467   2.70672   2.73316   2.74824
 Alpha virt. eigenvalues --    2.76856   2.78560   2.80917   2.82206   2.83879
 Alpha virt. eigenvalues --    2.84687   2.87508   2.89544   2.92314   2.93433
 Alpha virt. eigenvalues --    2.96880   2.98231   3.01442   3.08806   3.31119
 Alpha virt. eigenvalues --    3.31559   3.32051   3.36658   3.41175   3.42906
 Alpha virt. eigenvalues --    3.46913   3.47939   3.48991   3.49246   3.51548
 Alpha virt. eigenvalues --    3.52485   3.54990   3.56874   4.29095   4.34341
 Alpha virt. eigenvalues --    4.35937   4.40669   4.43461   4.49343   4.50680
 Alpha virt. eigenvalues --    4.56388   4.59776   4.67825   4.72317   4.76998
 Alpha virt. eigenvalues --    4.80464   9.06543  81.40173
          Condensed to atoms (all electrons):
              1          2          3          4          5          6
     1  C    9.642918  -0.437501  -2.271580   0.928454   1.200518  -0.681765
     2  C   -0.437501  10.741099  -0.018234  -1.920046   0.276315  -1.230038
     3  C   -2.271580  -0.018234  13.603924  -2.849377  -3.917253   0.543998
     4  C    0.928454  -1.920046  -2.849377  10.674316   0.537976  -0.023602
     5  C    1.200518   0.276315  -3.917253   0.537976  13.843129  -0.477153
     6  C   -0.681765  -1.230038   0.543998  -0.023602  -0.477153   7.163665
     7  H    0.005059  -0.000019   0.206150   0.033130  -0.108299  -0.007021
     8  H   -0.087808  -0.109335   0.032694   0.039651   0.045106   0.400552
     9  H    0.086399   0.045070   0.092841  -0.059448  -0.090598   0.051781
    10  H    0.002369   0.376220   0.040516  -0.073066  -0.036491  -0.007127
    11  H    0.019367  -0.048545  -0.036284   0.036873  -0.012337   0.363089
    12  Cl  -0.154372   0.145024   0.036284  -0.149964   0.218784  -0.067166
    13  Br   0.044341   0.274220   0.117059  -0.054954  -0.028778  -0.064003
    14  C    0.153781  -0.675758  -0.005158  -0.422727  -0.174663  -0.017748
    15  H    0.003088  -0.031906   0.044280  -0.090098  -0.031031  -0.002986
    16  H   -0.005459   0.048686  -0.042851  -0.116119   0.038276  -0.000953
    17  H   -0.000282  -0.000913   0.033794  -0.116722  -0.011628  -0.006927
    18  C   -0.026430  -0.577492   0.475237  -0.554050  -0.379969   0.118885
    19  H   -0.003279  -0.041632   0.059655  -0.108870  -0.018673   0.008324
    20  H   -0.005067   0.038132   0.007289  -0.127043  -0.003431  -0.002963
    21  H    0.003173  -0.019980  -0.063802  -0.037721   0.011236   0.005276
    22  Cl  -0.031556   0.079539  -0.596468   0.156619   0.398401  -0.048807
    23  C   -2.459758  -0.544659   1.391667  -0.013615  -5.428655   0.561402
    24  H    0.003322  -0.004283  -0.007073   0.007110  -0.030501  -0.004309
    25  C   -0.030771  -0.036935  -0.600752   0.004430   0.336806  -0.074353
    26  H    0.005193   0.001208  -0.008450   0.002674   0.002401   0.010701
    27  H   -0.009869   0.001919  -0.009859  -0.003882   0.107004  -0.003824
    28  Cl   0.043029   0.009739  -0.051756  -0.002278   0.158163  -0.004842
              7          8          9         10         11         12
     1  C    0.005059  -0.087808   0.086399   0.002369   0.019367  -0.154372
     2  C   -0.000019  -0.109335   0.045070   0.376220  -0.048545   0.145024
     3  C    0.206150   0.032694   0.092841   0.040516  -0.036284   0.036284
     4  C    0.033130   0.039651  -0.059448  -0.073066   0.036873  -0.149964
     5  C   -0.108299   0.045106  -0.090598  -0.036491  -0.012337   0.218784
     6  C   -0.007021   0.400552   0.051781  -0.007127   0.363089  -0.067166
     7  H    0.511988   0.000007  -0.000103  -0.000040  -0.000028  -0.002387
     8  H    0.000007   0.482740  -0.001526  -0.003688  -0.021662   0.009015
     9  H   -0.000103  -0.001526   0.524721  -0.000090  -0.004163  -0.023333
    10  H   -0.000040  -0.003688  -0.000090   0.474816   0.003438   0.002920
    11  H   -0.000028  -0.021662  -0.004163   0.003438   0.480198   0.006903
    12  Cl  -0.002387   0.009015  -0.023333   0.002920   0.006903  17.075031
    13  Br  -0.000600  -0.009987  -0.000169  -0.017381  -0.000734   0.000572
    14  C    0.026693   0.005100   0.007482  -0.015503  -0.019311  -0.018747
    15  H   -0.000795   0.000060   0.000022  -0.000182  -0.002265  -0.001539
    16  H    0.003362   0.000000   0.000001  -0.000093   0.000030   0.000043
    17  H    0.000085   0.000003   0.000002   0.000060   0.000197   0.000365
    18  C   -0.037867  -0.000106  -0.000958   0.007666   0.008930   0.003880
    19  H   -0.000021   0.000001   0.000000   0.000037   0.000004  -0.000001
    20  H    0.003064   0.000002   0.000000   0.000045   0.000000   0.000008
    21  H    0.000020  -0.000006   0.000000   0.003437  -0.000001   0.000070
    22  Cl  -0.019700   0.000151  -0.004683  -0.004382  -0.000083  -0.004359
    23  C    0.147427   0.007756   0.178141   0.003984   0.006165  -0.001556
    24  H    0.004144   0.000002   0.000140  -0.000001  -0.000005  -0.001086
    25  C    0.011902  -0.001071  -0.030748   0.000017   0.002573   0.029250
    26  H    0.000000   0.000010   0.003957   0.000000  -0.000013   0.002024
    27  H   -0.000018   0.000000   0.000057   0.000000   0.000000   0.002655
    28  Cl  -0.000262  -0.000062   0.002844  -0.000001  -0.000118   0.001520
             13         14         15         16         17         18
     1  C    0.044341   0.153781   0.003088  -0.005459  -0.000282  -0.026430
     2  C    0.274220  -0.675758  -0.031906   0.048686  -0.000913  -0.577492
     3  C    0.117059  -0.005158   0.044280  -0.042851   0.033794   0.475237
     4  C   -0.054954  -0.422727  -0.090098  -0.116119  -0.116722  -0.554050
     5  C   -0.028778  -0.174663  -0.031031   0.038276  -0.011628  -0.379969
     6  C   -0.064003  -0.017748  -0.002986  -0.000953  -0.006927   0.118885
     7  H   -0.000600   0.026693  -0.000795   0.003362   0.000085  -0.037867
     8  H   -0.009987   0.005100   0.000060   0.000000   0.000003  -0.000106
     9  H   -0.000169   0.007482   0.000022   0.000001   0.000002  -0.000958
    10  H   -0.017381  -0.015503  -0.000182  -0.000093   0.000060   0.007666
    11  H   -0.000734  -0.019311  -0.002265   0.000030   0.000197   0.008930
    12  Cl   0.000572  -0.018747  -0.001539   0.000043   0.000365   0.003880
    13  Br  35.057062  -0.083713   0.002240  -0.000286   0.003185  -0.097372
    14  C   -0.083713   6.745044   0.435693   0.472833   0.475659  -0.290638
    15  H    0.002240   0.435693   0.512061  -0.024255  -0.023233   0.014697
    16  H   -0.000286   0.472833  -0.024255   0.507379  -0.020755  -0.054294
    17  H    0.003185   0.475659  -0.023233  -0.020755   0.489319  -0.012615
    18  C   -0.097372  -0.290638   0.014697  -0.054294  -0.012615   6.404027
    19  H    0.004368   0.020760   0.000139  -0.000285   0.001931   0.439416
    20  H   -0.001501  -0.034869   0.000006   0.002556   0.000048   0.460684
    21  H    0.000681  -0.003056  -0.000152   0.000104   0.000011   0.452940
    22  Cl  -0.003617  -0.102411  -0.002442   0.003023  -0.002595   0.025339
    23  C   -0.022238   0.085049   0.018634   0.004207  -0.005739   0.049791
    24  H    0.000047   0.009587   0.000007  -0.000030   0.000001   0.002669
    25  C    0.001831   0.001921  -0.004924   0.001836   0.000166  -0.025527
    26  H    0.000090   0.000361   0.000002   0.000000   0.000000   0.000097
    27  H   -0.000006  -0.000527  -0.000001   0.000000   0.000000  -0.000135
    28  Cl   0.000076   0.002385   0.000670  -0.000169  -0.000048  -0.001390
             19         20         21         22         23         24
     1  C   -0.003279  -0.005067   0.003173  -0.031556  -2.459758   0.003322
     2  C   -0.041632   0.038132  -0.019980   0.079539  -0.544659  -0.004283
     3  C    0.059655   0.007289  -0.063802  -0.596468   1.391667  -0.007073
     4  C   -0.108870  -0.127043  -0.037721   0.156619  -0.013615   0.007110
     5  C   -0.018673  -0.003431   0.011236   0.398401  -5.428655  -0.030501
     6  C    0.008324  -0.002963   0.005276  -0.048807   0.561402  -0.004309
     7  H   -0.000021   0.003064   0.000020  -0.019700   0.147427   0.004144
     8  H    0.000001   0.000002  -0.000006   0.000151   0.007756   0.000002
     9  H    0.000000   0.000000   0.000000  -0.004683   0.178141   0.000140
    10  H    0.000037   0.000045   0.003437  -0.004382   0.003984  -0.000001
    11  H    0.000004   0.000000  -0.000001  -0.000083   0.006165  -0.000005
    12  Cl  -0.000001   0.000008   0.000070  -0.004359  -0.001556  -0.001086
    13  Br   0.004368  -0.001501   0.000681  -0.003617  -0.022238   0.000047
    14  C    0.020760  -0.034869  -0.003056  -0.102411   0.085049   0.009587
    15  H    0.000139   0.000006  -0.000152  -0.002442   0.018634   0.000007
    16  H   -0.000285   0.002556   0.000104   0.003023   0.004207  -0.000030
    17  H    0.001931   0.000048   0.000011  -0.002595  -0.005739   0.000001
    18  C    0.439416   0.460684   0.452940   0.025339   0.049791   0.002669
    19  H    0.502016  -0.024124  -0.024491  -0.004580   0.000530   0.000000
    20  H   -0.024124   0.514326  -0.023229   0.008177   0.009088   0.000001
    21  H   -0.024491  -0.023229   0.499988   0.007542  -0.003390   0.000000
    22  Cl  -0.004580   0.008177   0.007542  17.224588   0.001058   0.007940
    23  C    0.000530   0.009088  -0.003390   0.001058  12.256954   0.403225
    24  H    0.000000   0.000001   0.000000   0.007940   0.403225   0.498189
    25  C   -0.000141   0.000032   0.000149  -0.001890  -0.312710  -0.092217
    26  H    0.000000   0.000000   0.000000  -0.000035  -0.009605   0.003330
    27  H    0.000000   0.000000   0.000000   0.000876  -0.170830  -0.003606
    28  Cl   0.000002  -0.000001  -0.000002  -0.000917  -0.182112   0.017722
             25         26         27         28
     1  C   -0.030771   0.005193  -0.009869   0.043029
     2  C   -0.036935   0.001208   0.001919   0.009739
     3  C   -0.600752  -0.008450  -0.009859  -0.051756
     4  C    0.004430   0.002674  -0.003882  -0.002278
     5  C    0.336806   0.002401   0.107004   0.158163
     6  C   -0.074353   0.010701  -0.003824  -0.004842
     7  H    0.011902   0.000000  -0.000018  -0.000262
     8  H   -0.001071   0.000010   0.000000  -0.000062
     9  H   -0.030748   0.003957   0.000057   0.002844
    10  H    0.000017   0.000000   0.000000  -0.000001
    11  H    0.002573  -0.000013   0.000000  -0.000118
    12  Cl   0.029250   0.002024   0.002655   0.001520
    13  Br   0.001831   0.000090  -0.000006   0.000076
    14  C    0.001921   0.000361  -0.000527   0.002385
    15  H   -0.004924   0.000002  -0.000001   0.000670
    16  H    0.001836   0.000000   0.000000  -0.000169
    17  H    0.000166   0.000000   0.000000  -0.000048
    18  C   -0.025527   0.000097  -0.000135  -0.001390
    19  H   -0.000141   0.000000   0.000000   0.000002
    20  H    0.000032   0.000000   0.000000  -0.000001
    21  H    0.000149   0.000000   0.000000  -0.000002
    22  Cl  -0.001890  -0.000035   0.000876  -0.000917
    23  C   -0.312710  -0.009605  -0.170830  -0.182112
    24  H   -0.092217   0.003330  -0.003606   0.017722
    25  C    6.338910   0.311260   0.431390   0.159917
    26  H    0.311260   0.499471  -0.023846  -0.022945
    27  H    0.431390  -0.023846   0.478649  -0.040407
    28  Cl   0.159917  -0.022945  -0.040407  17.010656
 Mulliken atomic charges:
              1
     1  C    0.064489
     2  C   -0.339895
     3  C   -0.206491
     4  C    0.302349
     5  C   -0.424654
     6  C   -0.502086
     7  H    0.224128
     8  H    0.212402
     9  H    0.222363
    10  H    0.242519
    11  H    0.217782
    12  Cl  -0.109837
    13  Br  -0.120431
    14  C   -0.577517
    15  H    0.184210
    16  H    0.183213
    17  H    0.196630
    18  C   -0.405415
    19  H    0.188913
    20  H    0.178769
    21  H    0.191204
    22  Cl  -0.084726
    23  C    0.029791
    24  H    0.185674
    25  C   -0.420349
    26  H    0.222115
    27  H    0.244261
    28  Cl  -0.099413
 Sum of Mulliken atomic charges =   0.00000
 Mulliken charges with hydrogens summed into heavy atoms:
              1
     1  C    0.286852
     2  C   -0.097375
     3  C    0.017637
     4  C    0.302349
     5  C   -0.424654
     6  C   -0.071902
    12  Cl  -0.109837
    13  Br  -0.120431
    14  C   -0.013464
    18  C    0.153472
    22  Cl  -0.084726
    23  C    0.215466
    25  C    0.046028
    28  Cl  -0.099413
 Sum of Mulliken charges with hydrogens summed into heavy atoms =   0.00000
 Electronic spatial extent (au):  <R**2>=           5630.0587
 Charge=              0.0000 electrons
 Dipole moment (field-independent basis, Debye):
    X=              1.5943    Y=             -1.0843    Z=             -1.9530  Tot=              2.7444
 Quadrupole moment (field-independent basis, Debye-Ang):
   XX=           -125.0974   YY=           -129.6671   ZZ=           -117.0459
   XY=              4.4873   XZ=              2.3809   YZ=             -3.5457
 Traceless Quadrupole moment (field-independent basis, Debye-Ang):
   XX=             -1.1606   YY=             -5.7303   ZZ=              6.8909
   XY=              4.4873   XZ=              2.3809   YZ=             -3.5457
 Octapole moment (field-independent basis, Debye-Ang**2):
  XXX=            -69.5551  YYY=            -38.5162  ZZZ=             -2.8286  XYY=            -43.0915
  XXY=             34.9486  XXZ=              7.8914  XZZ=            -26.8352  YZZ=            -14.0035
  YYZ=             10.3788  XYZ=            -10.6323
 Hexadecapole moment (field-independent basis, Debye-Ang**3):
 XXXX=          -4235.3552 YYYY=          -1460.7806 ZZZZ=          -1254.8283 XXXY=            264.0525
 XXXZ=             11.4606 YYYX=             78.2520 YYYZ=             15.2296 ZZZX=            -51.5750
 ZZZY=            -26.8815 XXYY=           -978.5254 XXZZ=           -896.6343 YYZZ=           -457.8626
 XXYZ=            -22.8475 YYXZ=            -14.3967 ZZXY=             25.0711
 N-N= 1.698078651648D+03 E-N=-1.371008351698D+04  KE= 4.317886018903D+03
 1\1\GINC-COMPUTE-9-6\SP\RmPW1PW91\6-31+G(d,p)\C10H14Br1Cl3\LPASSAGLIA.
 IQUIR\20-May-2022\0\\# mPW1PW91/6-31+G** scrf=(PCM,solvent=chloroform)
  nmr\\comment\\0,1\C,0,0.924839,-0.077654,1.16469\C,0,-1.474658,-0.036
 955,0.304365\C,0,0.309005,0.925934,-1.146588\C,0,-1.028339,0.125001,-1
 .166146\C,0,1.359693,0.370796,-0.210249\C,0,-0.451068,-0.760204,1.1736
 65\H,0,0.706788,0.951386,-2.162683\H,0,-0.810886,-0.837077,2.202116\H,
 0,1.65239,-0.76874,1.587369\H,0,-1.718238,0.939882,0.723928\H,0,-0.317
 265,-1.784062,0.805917\Cl,0,0.935304,1.332209,2.362805\Br,0,-3.198304,
 -1.036913,0.450187\C,0,-0.721489,-1.234656,-1.838325\H,0,0.148682,-1.7
 40492,-1.409673\H,0,-0.524065,-1.087269,-2.905533\H,0,-1.586462,-1.896
 659,-1.739277\C,0,-2.09587,0.851241,-2.002931\H,0,-2.961448,0.200061,-
 2.148648\H,0,-1.693823,1.115743,-2.987512\H,0,-2.436007,1.769755,-1.51
 8809\Cl,0,0.041319,2.71832,-0.757786\C,0,2.626498,0.262778,-0.648065\H
 ,0,2.844731,0.555181,-1.673896\C,0,3.809167,-0.201946,0.132276\H,0,3.6
 2705,-0.292708,1.201694\H,0,4.662215,0.460999,-0.023896\Cl,0,4.364572,
 -1.852884,-0.445242\\Version=EM64L-G09RevC.01\State=1-A\HF=-4341.95085
 64\RMSD=5.867e-09\Dipole=0.6272422,-0.4266022,-0.7683528\Quadrupole=-0
 .8628643,-4.2603428,5.1232071,3.3362332,1.7701744,-2.63616\PG=C01 [X(C
 10H14Br1Cl3)]\\@


 Sacred cows make the best hamburger.
                               -- Mark Twain
 Job cpu time:  0 days  0 hours 16 minutes 54.9 seconds.
 File lengths (MBytes):  RWF=    153 Int=      0 D2E=      0 Chk=      9 Scr=      1
 Normal termination of Gaussian 09 at Fri May 20 10:29:31 2022.
