 Entering Gaussian System, Link 0=g09
 Input=/home/lpassaglia.iquir/NMR_Tetrahalogenados/03_SRSE_Tetrahalogenado_001.gjc
 Output=/home/lpassaglia.iquir/NMR_Tetrahalogenados/03_SRSE_Tetrahalogenado_001.log
 Initial command:
 /share/apps/Gaussian09/EM64T.SSE4.2-enabled/g09/l1.exe /tmp/Gau-27655.inp -scrdir=/tmp/
 Entering Link 1 = /share/apps/Gaussian09/EM64T.SSE4.2-enabled/g09/l1.exe PID=     27656.
  
 Copyright (c) 1988,1990,1992,1993,1995,1998,2003,2009,2011,
            Gaussian, Inc.  All Rights Reserved.
  
 This is part of the Gaussian(R) 09 program.  It is based on
 the Gaussian(R) 03 system (copyright 2003, Gaussian, Inc.),
 the Gaussian(R) 98 system (copyright 1998, Gaussian, Inc.),
 the Gaussian(R) 94 system (copyright 1995, Gaussian, Inc.),
 the Gaussian 92(TM) system (copyright 1992, Gaussian, Inc.),
 the Gaussian 90(TM) system (copyright 1990, Gaussian, Inc.),
 the Gaussian 88(TM) system (copyright 1988, Gaussian, Inc.),
 the Gaussian 86(TM) system (copyright 1986, Carnegie Mellon
 University), and the Gaussian 82(TM) system (copyright 1983,
 Carnegie Mellon University). Gaussian is a federally registered
 trademark of Gaussian, Inc.
  
 This software contains proprietary and confidential information,
 including trade secrets, belonging to Gaussian, Inc.
  
 This software is provided under written license and may be
 used, copied, transmitted, or stored only in accord with that
 written license.
  
 The following legend is applicable only to US Government
 contracts under FAR:
  
                    RESTRICTED RIGHTS LEGEND
  
 Use, reproduction and disclosure by the US Government is
 subject to restrictions as set forth in subparagraphs (a)
 and (c) of the Commercial Computer Software - Restricted
 Rights clause in FAR 52.227-19.
  
 Gaussian, Inc.
 340 Quinnipiac St., Bldg. 40, Wallingford CT 06492
  
  
 ---------------------------------------------------------------
 Warning -- This program may not be used in any manner that
 competes with the business of Gaussian, Inc. or will provide
 assistance to any competitor of Gaussian, Inc.  The licensee
 of this program is prohibited from giving any competitor of
 Gaussian, Inc. access to this program.  By using this program,
 the user acknowledges that Gaussian, Inc. is engaged in the
 business of creating and licensing software in the field of
 computational chemistry and represents and warrants to the
 licensee that it is not a competitor of Gaussian, Inc. and that
 it will not use this program in any manner prohibited above.
 ---------------------------------------------------------------
  

 Cite this work as:
 Gaussian 09, Revision C.01,
 M. J. Frisch, G. W. Trucks, H. B. Schlegel, G. E. Scuseria, 
 M. A. Robb, J. R. Cheeseman, G. Scalmani, V. Barone, B. Mennucci, 
 G. A. Petersson, H. Nakatsuji, M. Caricato, X. Li, H. P. Hratchian, 
 A. F. Izmaylov, J. Bloino, G. Zheng, J. L. Sonnenberg, M. Hada, 
 M. Ehara, K. Toyota, R. Fukuda, J. Hasegawa, M. Ishida, T. Nakajima, 
 Y. Honda, O. Kitao, H. Nakai, T. Vreven, J. A. Montgomery, Jr., 
 J. E. Peralta, F. Ogliaro, M. Bearpark, J. J. Heyd, E. Brothers, 
 K. N. Kudin, V. N. Staroverov, T. Keith, R. Kobayashi, J. Normand, 
 K. Raghavachari, A. Rendell, J. C. Burant, S. S. Iyengar, J. Tomasi, 
 M. Cossi, N. Rega, J. M. Millam, M. Klene, J. E. Knox, J. B. Cross, 
 V. Bakken, C. Adamo, J. Jaramillo, R. Gomperts, R. E. Stratmann, 
 O. Yazyev, A. J. Austin, R. Cammi, C. Pomelli, J. W. Ochterski, 
 R. L. Martin, K. Morokuma, V. G. Zakrzewski, G. A. Voth, 
 P. Salvador, J. J. Dannenberg, S. Dapprich, A. D. Daniels, 
 O. Farkas, J. B. Foresman, J. V. Ortiz, J. Cioslowski, 
 and D. J. Fox, Gaussian, Inc., Wallingford CT, 2010.
 
 ******************************************
 Gaussian 09:  EM64L-G09RevC.01 23-Sep-2011
                20-May-2022 
 ******************************************
 %nprocshared=4
 Will use up to    4 processors via shared memory.
 -----------------------------------------------------
 # mPW1PW91/6-31+G** scrf=(PCM,solvent=chloroform) nmr
 -----------------------------------------------------
 1/38=1/1;
 2/12=2,17=6,18=5,40=1/2;
 3/5=1,6=6,7=111,11=2,16=1,25=1,30=1,70=2201,72=7,74=-7/1,2,8,3;
 4//1;
 5/5=2,38=5,53=7/2;
 8/6=1,10=90,11=11/1;
 10/13=100,45=16/2;
 6/7=2,8=2,9=2,10=2,28=1/1;
 99/9=1/99;
 -------
 comment
 -------
 Charge =  0 Multiplicity = 1
 Symbolic Z-Matrix:
 6                    -0.1445    1.44752  -0.99747 
 6                     1.3571   -0.67043  -1.08666 
 6                    -0.6288   -0.572     0.56608 
 6                     0.2832   -1.47452  -0.31392 
 6                    -1.11877   0.67143  -0.14138 
 6                     0.80188   0.55748  -1.81168 
 1                    -1.48009  -1.18588   0.85761 
 1                     1.61687   1.15619  -2.22451 
 1                    -0.7052    2.07864  -1.68818 
 1                     1.81705  -1.33381  -1.8203 
 1                     0.21648   0.18997  -2.66642 
 17                    0.78595   2.68038   0.01162 
 35                    2.93879  -0.15586   0.02438 
 6                    -0.65952  -2.11398  -1.37665 
 1                    -1.24496  -1.37852  -1.93503 
 1                    -1.36785  -2.78984  -0.88618 
 1                    -0.07756  -2.7058   -2.09166 
 6                     0.89945  -2.62596   0.49722 
 1                     1.42113  -3.31569  -0.1765 
 1                     0.11469  -3.18919   1.01456 
 1                     1.61431  -2.26697   1.23715 
 17                    0.10838  -0.11211   2.19403 
 6                    -2.39559   1.08958  -0.08224 
 1                    -2.67796   1.96477  -0.66549 
 6                    -3.50004   0.49668   0.72513 
 1                    -3.16516  -0.20024   1.49142 
 1                    -4.09983   1.27687   1.19664 
 17                   -4.67115  -0.43182  -0.3449 
 
                          Input orientation:                          
 ---------------------------------------------------------------------
 Center     Atomic      Atomic             Coordinates (Angstroms)
 Number     Number       Type             X           Y           Z
 ---------------------------------------------------------------------
      1          6           0       -0.144498    1.447518   -0.997472
      2          6           0        1.357102   -0.670427   -1.086656
      3          6           0       -0.628797   -0.571999    0.566084
      4          6           0        0.283197   -1.474524   -0.313918
      5          6           0       -1.118774    0.671430   -0.141379
      6          6           0        0.801879    0.557475   -1.811679
      7          1           0       -1.480088   -1.185875    0.857606
      8          1           0        1.616874    1.156186   -2.224511
      9          1           0       -0.705200    2.078637   -1.688175
     10          1           0        1.817048   -1.333807   -1.820300
     11          1           0        0.216480    0.189968   -2.666423
     12         17           0        0.785950    2.680380    0.011621
     13         35           0        2.938790   -0.155856    0.024384
     14          6           0       -0.659522   -2.113984   -1.376648
     15          1           0       -1.244959   -1.378515   -1.935031
     16          1           0       -1.367848   -2.789837   -0.886179
     17          1           0       -0.077562   -2.705804   -2.091659
     18          6           0        0.899445   -2.625958    0.497215
     19          1           0        1.421128   -3.315687   -0.176503
     20          1           0        0.114685   -3.189190    1.014556
     21          1           0        1.614310   -2.266971    1.237150
     22         17           0        0.108380   -0.112112    2.194029
     23          6           0       -2.395586    1.089584   -0.082235
     24          1           0       -2.677963    1.964770   -0.665489
     25          6           0       -3.500042    0.496682    0.725128
     26          1           0       -3.165159   -0.200244    1.491420
     27          1           0       -4.099829    1.276869    1.196644
     28         17           0       -4.671153   -0.431816   -0.344896
 ---------------------------------------------------------------------
                    Distance matrix (angstroms):
                    1          2          3          4          5
     1  C    0.000000
     2  C    2.597777   0.000000
     3  C    2.599558   2.585543   0.000000
     4  C    3.031254   1.548214   1.555856   0.000000
     5  C    1.511430   2.970537   1.512183   2.569126   0.000000
     6  C    1.533212   1.530253   2.996048   2.577080   2.547900
     7  H    3.487101   3.477857   1.089277   2.136577   2.139650
     8  H    2.166317   2.167651   3.977070   3.514213   3.472492
     9  H    1.090765   3.488878   3.480430   3.935793   2.131632
    10  H    3.501496   1.090806   3.501048   2.154457   3.931768
    11  H    2.120645   2.130015   3.426979   2.882579   2.896646
    12  Cl   1.844980   3.572161   3.589834   4.197852   2.772591
    13  Br   3.622384   2.000233   3.632395   2.984210   4.144358
    14  C    3.618469   2.496943   2.480498   1.557891   3.081450
    15  H    3.174349   2.826986   2.699204   2.229907   2.726790
    16  H    4.411819   3.457953   2.752103   2.187117   3.549244
    17  H    4.295557   2.685340   3.452620   2.192387   4.036511
    18  C    4.462859   2.557772   2.561057   1.537367   3.918390
    19  H    5.080679   2.798192   3.504490   2.168790   4.727519
    20  H    5.061076   3.507543   2.757459   2.175619   4.214498
    21  H    4.678073   2.831110   2.890465   2.192178   4.243146
    22  Cl   3.561190   3.554422   1.845300   2.859462   2.752086
    23  C    2.456252   4.264876   2.510522   3.715401   1.344842
    24  H    2.606954   4.837705   3.485836   4.552012   2.092484
    25  C    3.889873   5.313808   3.067804   4.390691   2.540041
    26  H    4.246657   5.226700   2.725359   4.095631   2.759264
    27  H    4.526357   6.227641   3.982961   5.391000   3.323184
    28  Cl   4.944528   6.078405   4.146104   5.062982   3.725314
                    6          7          8          9         10
     6  C    0.000000
     7  H    3.920679   0.000000
     8  H    1.092292   4.957405   0.000000
     9  H    2.144872   4.211709   2.555504   0.000000
    10  H    2.146530   4.250196   2.530518   4.245464   0.000000
    11  H    1.099246   4.146091   1.757830   2.318088   2.366354
    12  Cl   2.798464   4.560542   2.830881   2.339857   4.531313
    13  Br   2.906262   4.613207   2.920008   4.604832   2.459417
    14  C    3.075978   2.554722   4.073679   4.204427   2.634180
    15  H    2.820074   2.809131   3.833875   3.507731   3.064482
    16  H    4.094968   2.371936   5.125504   4.978387   3.624385
    17  H    3.391282   3.602142   4.219447   4.842273   2.354901
    18  C    3.933797   2.804621   4.714564   5.429920   2.807584
    19  H    4.249547   3.744668   4.922428   5.992091   2.605124
    20  H    4.743136   2.565386   5.624093   5.977204   3.791688
    21  H    4.234725   3.299715   4.868378   5.729045   3.203108
    22  Cl   4.120071   2.337140   4.838143   4.531313   4.530665
    23  C    3.673949   2.626624   4.549024   2.532721   5.161393
    24  H    3.924733   3.698822   4.640041   2.225005   5.693797
    25  C    4.994558   2.632254   5.942907   4.017182   6.172628
    26  H    5.217470   2.052475   6.206117   4.621095   6.088911
    27  H    5.796057   3.611523   6.663299   4.526424   7.136317
    28  Cl   5.751889   3.492494   6.752332   4.882167   6.714697
                   11         12         13         14         15
    11  H    0.000000
    12  Cl   3.701131   0.000000
    13  Br   3.843307   3.560775   0.000000
    14  C    2.781923   5.196403   4.329550   0.000000
    15  H    2.265144   4.938489   4.778908   1.093363   0.000000
    16  H    3.815574   5.947114   5.129728   1.095017   1.762675
    17  H    2.966869   5.846402   4.480876   1.095522   1.774555
    18  C    4.290045   5.329719   3.237885   2.490755   3.474249
    19  H    4.465478   6.032550   3.511152   2.685804   3.735382
    20  H    4.997867   5.992356   4.261118   2.733738   3.718500
    21  H    4.819581   5.163757   2.771616   3.467803   4.362053
    22  Cl   4.871030   3.608326   3.566580   4.164961   4.525974
    23  C    3.782886   3.558316   5.478874   3.866817   3.293677
    24  H    3.940997   3.601287   6.043252   4.606092   3.852634
    25  C    5.040757   4.862855   6.509639   4.393358   3.959572
    26  H    5.373584   5.108724   6.277926   4.262210   4.100739
    27  H    5.893655   5.219670   7.277984   5.473155   5.000873
    28  Cl   5.446564   6.292284   7.623894   4.470725   3.894043
                   16         17         18         19         20
    16  H    0.000000
    17  H    1.767790   0.000000
    18  C    2.661062   2.768246   0.000000
    19  H    2.925499   2.507160   1.096255   0.000000
    20  H    2.443395   3.149475   1.095774   1.772404   0.000000
    21  H    3.697997   3.759784   1.089682   1.770745   1.774517
    22  Cl   4.340178   5.012877   3.134387   4.195905   3.295392
    23  C    4.092979   4.880163   4.999824   5.829460   5.080582
    24  H    4.936739   5.532658   5.935024   6.702603   6.097929
    25  C    4.236009   5.468416   5.399844   6.290072   5.170655
    26  H    3.948328   5.352527   4.836687   5.789817   4.463023
    27  H    5.323530   6.546240   6.380752   7.311503   6.143368
    28  Cl   4.094518   5.415097   6.046071   6.742474   5.688187
                   21         22         23         24         25
    21  H    0.000000
    22  Cl   2.797653   0.000000
    23  C    5.393191   3.591002   0.000000
    24  H    6.320702   4.500443   1.088978   0.000000
    25  C    5.835798   3.943223   1.491037   2.182868   0.000000
    26  H    5.213381   3.349251   2.175382   3.094657   1.088603
    27  H    6.723974   4.542364   2.138937   2.441813   1.091221
    28  Cl   6.736298   5.421465   2.749883   3.133562   1.838086
                   26         27         28
    26  H    0.000000
    27  H    1.772671   0.000000
    28  Cl   2.386148   2.371152   0.000000
 Stoichiometry    C10H14BrCl3
 Framework group  C1[X(C10H14BrCl3)]
 Deg. of freedom    78
 Full point group                 C1      NOp   1
 Largest Abelian subgroup         C1      NOp   1
 Largest concise Abelian subgroup C1      NOp   1
                         Standard orientation:                         
 ---------------------------------------------------------------------
 Center     Atomic      Atomic             Coordinates (Angstroms)
 Number     Number       Type             X           Y           Z
 ---------------------------------------------------------------------
      1          6           0       -0.144498    1.447518   -0.997472
      2          6           0        1.357102   -0.670427   -1.086656
      3          6           0       -0.628797   -0.571999    0.566084
      4          6           0        0.283197   -1.474524   -0.313918
      5          6           0       -1.118774    0.671430   -0.141379
      6          6           0        0.801879    0.557475   -1.811679
      7          1           0       -1.480088   -1.185875    0.857606
      8          1           0        1.616874    1.156186   -2.224511
      9          1           0       -0.705200    2.078637   -1.688175
     10          1           0        1.817048   -1.333807   -1.820300
     11          1           0        0.216480    0.189968   -2.666423
     12         17           0        0.785950    2.680380    0.011621
     13         35           0        2.938790   -0.155856    0.024384
     14          6           0       -0.659522   -2.113984   -1.376648
     15          1           0       -1.244959   -1.378515   -1.935031
     16          1           0       -1.367848   -2.789837   -0.886179
     17          1           0       -0.077562   -2.705804   -2.091659
     18          6           0        0.899445   -2.625958    0.497215
     19          1           0        1.421128   -3.315687   -0.176503
     20          1           0        0.114685   -3.189190    1.014556
     21          1           0        1.614310   -2.266971    1.237150
     22         17           0        0.108380   -0.112112    2.194029
     23          6           0       -2.395586    1.089584   -0.082235
     24          1           0       -2.677963    1.964770   -0.665489
     25          6           0       -3.500042    0.496682    0.725128
     26          1           0       -3.165159   -0.200244    1.491420
     27          1           0       -4.099829    1.276869    1.196644
     28         17           0       -4.671153   -0.431816   -0.344896
 ---------------------------------------------------------------------
 Rotational constants (GHZ):      0.5940183      0.2399284      0.2162014
 Standard basis: 6-31+G(d,p) (6D, 7F)
 There are   363 symmetry adapted basis functions of A   symmetry.
 Integral buffers will be    131072 words long.
 Raffenetti 2 integral format.
 Two-electron integral symmetry is turned on.
   363 basis functions,   673 primitive gaussians,   363 cartesian basis functions
    80 alpha electrons       80 beta electrons
       nuclear repulsion energy      1758.5291144985 Hartrees.
 NAtoms=   28 NActive=   28 NUniq=   28 SFac= 1.00D+00 NAtFMM=   60 NAOKFM=F Big=F
 ------------------------------------------------------------------------------
 Polarizable Continuum Model (PCM)
 =================================
 Model                : PCM.
 Atomic radii         : UFF (Universal Force Field).
 Polarization charges : Total charges.
 Charge compensation  : None.
 Solution method      : Matrix inversion.
 Cavity type          : Scaled VdW (van der Waals Surface) (Alpha=1.100).
 Cavity algorithm     : GePol (No added spheres)
                        Default sphere list used, NSphG=   28.
                        Lebedev-Laikov grids with approx.  5.0 points / Ang**2.
                        Smoothing algorithm: Karplus/York (Gamma=1.0000).
                        Polarization charges: spherical gaussians, with
                                              point-specific exponents (IZeta= 3).
                        Self-potential: point-specific (ISelfS= 7).
                        Self-field    : sphere-specific E.n sum rule (ISelfD= 2).
 Solvent              : Chloroform, Eps=   4.711300 Eps(inf)=   2.090627
 ------------------------------------------------------------------------------
 One-electron integrals computed using PRISM.
 NBasis=   363 RedAO= T  NBF=   363
 NBsUse=   363 1.00D-06 NBFU=   363
 Harris functional with IExCor=  908 diagonalized for initial guess.
 ExpMin= 3.50D-02 ExpMax= 5.74D+05 ExpMxC= 5.74D+03 IAcc=3 IRadAn=         5 AccDes= 0.00D+00
 HarFok:  IExCor=  908 AccDes= 0.00D+00 IRadAn=         5 IDoV= 1
 ScaDFX=  1.000000  1.000000  1.000000  1.000000
 FoFCou: FMM=F IPFlag=           0 FMFlag=      100000 FMFlg1=           0
         NFxFlg=           0 DoJE=T BraDBF=F KetDBF=T FulRan=T
         Omega=  0.000000  0.000000  1.000000  0.000000  0.000000 ICntrl=     500 IOpCl=  0
         NMat0=    1 NMatS0=    1 NMatT0=    0 NMatD0=    1 NMtDS0=    0 NMtDT0=    0
         I1Cent=           4 NGrid=           0.
 Petite list used in FoFCou.
 Initial guess orbital symmetries:
       Occupied  (A) (A) (A) (A) (A) (A) (A) (A) (A) (A) (A) (A)
                 (A) (A) (A) (A) (A) (A) (A) (A) (A) (A) (A) (A)
                 (A) (A) (A) (A) (A) (A) (A) (A) (A) (A) (A) (A)
                 (A) (A) (A) (A) (A) (A) (A) (A) (A) (A) (A) (A)
                 (A) (A) (A) (A) (A) (A) (A) (A) (A) (A) (A) (A)
                 (A) (A) (A) (A) (A) (A) (A) (A) (A) (A) (A) (A)
                 (A) (A) (A) (A) (A) (A) (A) (A)
       Virtual   (A) (A) (A) (A) (A) (A) (A) (A) (A) (A) (A) (A)
                 (A) (A) (A) (A) (A) (A) (A) (A) (A) (A) (A) (A)
                 (A) (A) (A) (A) (A) (A) (A) (A) (A) (A) (A) (A)
                 (A) (A) (A) (A) (A) (A) (A) (A) (A) (A) (A) (A)
                 (A) (A) (A) (A) (A) (A) (A) (A) (A) (A) (A) (A)
                 (A) (A) (A) (A) (A) (A) (A) (A) (A) (A) (A) (A)
                 (A) (A) (A) (A) (A) (A) (A) (A) (A) (A) (A) (A)
                 (A) (A) (A) (A) (A) (A) (A) (A) (A) (A) (A) (A)
                 (A) (A) (A) (A) (A) (A) (A) (A) (A) (A) (A) (A)
                 (A) (A) (A) (A) (A) (A) (A) (A) (A) (A) (A) (A)
                 (A) (A) (A) (A) (A) (A) (A) (A) (A) (A) (A) (A)
                 (A) (A) (A) (A) (A) (A) (A) (A) (A) (A) (A) (A)
                 (A) (A) (A) (A) (A) (A) (A) (A) (A) (A) (A) (A)
                 (A) (A) (A) (A) (A) (A) (A) (A) (A) (A) (A) (A)
                 (A) (A) (A) (A) (A) (A) (A) (A) (A) (A) (A) (A)
                 (A) (A) (A) (A) (A) (A) (A) (A) (A) (A) (A) (A)
                 (A) (A) (A) (A) (A) (A) (A) (A) (A) (A) (A) (A)
                 (A) (A) (A) (A) (A) (A) (A) (A) (A) (A) (A) (A)
                 (A) (A) (A) (A) (A) (A) (A) (A) (A) (A) (A) (A)
                 (A) (A) (A) (A) (A) (A) (A) (A) (A) (A) (A) (A)
                 (A) (A) (A) (A) (A) (A) (A) (A) (A) (A) (A) (A)
                 (A) (A) (A) (A) (A) (A) (A) (A) (A) (A) (A) (A)
                 (A) (A) (A) (A) (A) (A) (A) (A) (A) (A) (A) (A)
                 (A) (A) (A) (A) (A) (A) (A)
 The electronic state of the initial guess is 1-A.
 Requested convergence on RMS density matrix=1.00D-08 within 128 cycles.
 Requested convergence on MAX density matrix=1.00D-06.
 Requested convergence on             energy=1.00D-06.
 No special actions if energy rises.
 Error on total polarization charges =  0.01599
 SCF Done:  E(RmPW1PW91) =  -4341.94416274     A.U. after   14 cycles
             Convg  =    0.4813D-08             -V/T =  2.0056
 Range of M.O.s used for correlation:     1   363
 NBasis=   363 NAE=    80 NBE=    80 NFC=     0 NFV=     0
 NROrb=    363 NOA=    80 NOB=    80 NVA=   283 NVB=   283

 **** Warning!!: The largest alpha MO coefficient is  0.16677576D+03

 NEqPCM:  Using equilibrium solvation (IEInf=0, Eps=   4.7113, EpsInf=   2.0906)
          Differentiating once with respect to magnetic field using GIAOs.
          Electric field/nuclear overlap derivatives assumed to be zero.
 FoFCou: FMM=F IPFlag=           0 FMFlag=    10101102 FMFlg1=           0
         NFxFlg=    40000000 DoJE=F BraDBF=F KetDBF=T FulRan=T
         Omega=  0.000000  0.000000  1.000000  0.000000  0.000000 ICntrl=    6100 IOpCl=  0
         NMat0=    1 NMatS0=    1 NMatT0=    0 NMatD0=    1 NMtDS0=    0 NMtDT0=    0
         I1Cent=           7 NGrid=        2106.
 Symmetry not used in FoFCou.
          There are     3 degrees of freedom in the 1st order CPHF.  IDoFFX=0.
      3 vectors produced by pass  0 Test12= 7.55D-13 3.33D-08 XBig12= 7.86D+01 1.30D+00.
 AX will form     3 AO Fock derivatives at one time.
      3 vectors produced by pass  1 Test12= 7.55D-13 3.33D-08 XBig12= 2.65D-01 9.35D-02.
      3 vectors produced by pass  2 Test12= 7.55D-13 3.33D-08 XBig12= 1.02D-03 1.17D-02.
      3 vectors produced by pass  3 Test12= 7.55D-13 3.33D-08 XBig12= 6.89D-06 1.22D-03.
      3 vectors produced by pass  4 Test12= 7.55D-13 3.33D-08 XBig12= 3.25D-08 3.95D-05.
      3 vectors produced by pass  5 Test12= 7.55D-13 3.33D-08 XBig12= 9.53D-11 2.15D-06.
      3 vectors produced by pass  6 Test12= 7.55D-13 3.33D-08 XBig12= 4.06D-13 1.74D-07.
 Inverted reduced A of dimension    21 with in-core refinement.
 Calculating GIAO nuclear magnetic shielding tensors.
 SCF GIAO Magnetic shielding tensor (ppm):
      1  C    Isotropic =   132.1940   Anisotropy =    36.7824
   XX=   142.0664   YX=    10.0030   ZX=     4.4322
   XY=    18.8328   YY=   120.6214   ZY=    20.9323
   XZ=     4.3937   YZ=    13.7753   ZZ=   133.8943
   Eigenvalues:   105.9811   133.8854   156.7157
      2  C    Isotropic =   129.8474   Anisotropy =    54.0027
   XX=   129.0681   YX=    34.8566   ZX=    28.0749
   XY=    31.0751   YY=   123.4953   ZY=    -4.9909
   XZ=    21.5500   YZ=   -14.5561   ZZ=   136.9789
   Eigenvalues:    82.3213   141.3717   165.8492
      3  C    Isotropic =   131.2765   Anisotropy =    49.6011
   XX=   129.2256   YX=   -13.9812   ZX=    14.4165
   XY=    -6.6517   YY=   121.7856   ZY=    25.1172
   XZ=    22.8026   YZ=    28.7610   ZZ=   142.8183
   Eigenvalues:    93.0145   136.4711   164.3439
      4  C    Isotropic =   152.7907   Anisotropy =     5.3481
   XX=   152.2960   YX=     2.3675   ZX=     0.3027
   XY=     1.8980   YY=   150.9823   ZY=    -0.9331
   XZ=     4.1651   YZ=    -0.6624   ZZ=   155.0938
   Eigenvalues:   148.7605   153.2554   156.3561
      5  C    Isotropic =    54.2943   Anisotropy =   157.0066
   XX=    47.9961   YX=    -9.6491   ZX=    38.4719
   XY=    -4.1827   YY=    32.1894   ZY=    90.1495
   XZ=    24.0596   YZ=    98.3887   ZZ=    82.6973
   Eigenvalues:   -46.6471    50.5646   158.9653
      6  C    Isotropic =   155.9741   Anisotropy =     5.2862
   XX=   158.1506   YX=    -0.5854   ZX=     0.1622
   XY=    -2.3953   YY=   157.8034   ZY=     0.0111
   XZ=    -4.5589   YZ=    -4.0167   ZZ=   151.9683
   Eigenvalues:   150.4951   157.9290   159.4982
      7  H    Isotropic =    26.8476   Anisotropy =     8.4608
   XX=    32.1302   YX=     1.2492   ZX=     0.0145
   XY=     1.5311   YY=    23.6186   ZY=     0.6092
   XZ=     1.4482   YZ=     2.9880   ZZ=    24.7940
   Eigenvalues:    22.2624    25.7923    32.4882
      8  H    Isotropic =    28.9404   Anisotropy =     8.0271
   XX=    28.5138   YX=     0.8985   ZX=    -2.2965
   XY=     0.5374   YY=    28.3186   ZY=    -3.1822
   XZ=    -3.5625   YZ=    -4.2335   ZZ=    29.9886
   Eigenvalues:    24.7811    27.7483    34.2918
      9  H    Isotropic =    26.8461   Anisotropy =     8.1869
   XX=    27.8290   YX=    -1.5570   ZX=     4.3495
   XY=    -0.7404   YY=    25.8131   ZY=     0.3215
   XZ=     4.8311   YZ=    -2.1283   ZZ=    26.8961
   Eigenvalues:    22.7452    25.4891    32.3040
     10  H    Isotropic =    27.1647   Anisotropy =     8.3630
   XX=    27.0399   YX=     1.5751   ZX=     1.4676
   XY=    -0.0056   YY=    25.1450   ZY=     4.6784
   XZ=    -0.0407   YZ=     5.1287   ZZ=    29.3092
   Eigenvalues:    21.8864    26.8677    32.7400
     11  H    Isotropic =    28.8223   Anisotropy =     8.4898
   XX=    25.7167   YX=     0.2872   ZX=     3.2016
   XY=    -0.4748   YY=    27.2068   ZY=     0.6774
   XZ=     2.5019   YZ=    -0.0526   ZZ=    33.5434
   Eigenvalues:    24.7736    27.2111    34.4821
     12  Cl   Isotropic =   705.6488   Anisotropy =   497.9148
   XX=   711.2706   YX=   220.9483   ZX=    -8.0203
   XY=   220.9842   YY=   765.3935   ZY=   201.0075
   XZ=    15.4075   YZ=   235.3258   ZZ=   640.2823
   Eigenvalues:   406.5097   672.8447  1037.5920
     13  Br   Isotropic =  2464.2456   Anisotropy =   953.0815
   XX=  2758.0445   YX=   226.1691   ZX=   441.9877
   XY=   252.0152   YY=  2238.7588   ZY=    69.4105
   XZ=   400.3663   YZ=    56.1958   ZZ=  2395.9336
   Eigenvalues:  2065.1542  2227.9495  3099.6333
     14  C    Isotropic =   166.0560   Anisotropy =    43.4941
   XX=   166.7331   YX=    10.9604   ZX=    13.3247
   XY=    12.2588   YY=   159.0785   ZY=    16.9438
   XZ=    14.1731   YZ=    16.5077   ZZ=   172.3563
   Eigenvalues:   147.3860   155.7299   195.0521
     15  H    Isotropic =    30.5292   Anisotropy =     7.1831
   XX=    31.1899   YX=    -1.0057   ZX=     4.3249
   XY=    -0.2456   YY=    29.5255   ZY=     0.7588
   XZ=     4.2399   YZ=     0.2656   ZZ=    30.8721
   Eigenvalues:    26.5303    29.7393    35.3179
     16  H    Isotropic =    30.4883   Anisotropy =     9.6573
   XX=    32.5788   YX=     5.0580   ZX=    -0.2990
   XY=     4.2959   YY=    31.7782   ZY=    -0.2464
   XZ=     0.8675   YZ=     1.7781   ZZ=    27.1080
   Eigenvalues:    26.8405    27.6980    36.9265
     17  H    Isotropic =    30.7254   Anisotropy =    10.6219
   XX=    28.1133   YX=     0.4644   ZX=     0.3778
   XY=    -0.7788   YY=    31.3568   ZY=     5.2561
   XZ=    -1.3798   YZ=     6.1676   ZZ=    32.7061
   Eigenvalues:    26.2547    28.1149    37.8066
     18  C    Isotropic =   166.4428   Anisotropy =    34.7426
   XX=   161.3722   YX=    -3.1936   ZX=     7.9473
   XY=    -9.2716   YY=   177.8899   ZY=   -18.7982
   XZ=     7.3613   YZ=   -11.5228   ZZ=   160.0664
   Eigenvalues:   150.0010   159.7229   189.6045
     19  H    Isotropic =    30.4512   Anisotropy =    10.2294
   XX=    29.0687   YX=    -3.7947   ZX=    -1.1670
   XY=    -3.8907   YY=    35.0872   ZY=     1.6347
   XZ=    -0.7750   YZ=     1.3623   ZZ=    27.1976
   Eigenvalues:    26.7772    27.3056    37.2707
     20  H    Isotropic =    30.5658   Anisotropy =    10.2793
   XX=    28.8275   YX=     1.9636   ZX=    -1.8840
   XY=     2.6141   YY=    33.8694   ZY=    -4.4923
   XZ=    -2.2042   YZ=    -4.0757   ZZ=    29.0006
   Eigenvalues:    26.2784    28.0004    37.4187
     21  H    Isotropic =    29.3096   Anisotropy =     4.6218
   XX=    29.5225   YX=     1.2244   ZX=     2.8882
   XY=    -0.0095   YY=    29.6042   ZY=    -2.3784
   XZ=     3.0993   YZ=    -1.1105   ZZ=    28.8022
   Eigenvalues:    25.4346    30.1034    32.3908
     22  Cl   Isotropic =   765.8074   Anisotropy =   429.7233
   XX=   646.9298   YX=   -34.2414   ZX=   177.6321
   XY=   -41.3462   YY=   674.5853   ZY=    89.5098
   XZ=   150.3995   YZ=    63.5300   ZZ=   975.9070
   Eigenvalues:   545.5701   699.5625  1052.2895
     23  C    Isotropic =    62.8802   Anisotropy =   129.6036
   XX=    73.7811   YX=     5.8983   ZX=    25.3018
   XY=    -0.5620   YY=    36.5384   ZY=    84.3530
   XZ=    18.7367   YZ=    84.6242   ZZ=    78.3209
   Eigenvalues:   -30.8861    70.2440   149.2826
     24  H    Isotropic =    25.1968   Anisotropy =     7.5264
   XX=    30.0341   YX=    -0.4247   ZX=    -1.1619
   XY=     0.8024   YY=    24.0871   ZY=    -0.4011
   XZ=    -1.3016   YZ=     0.1806   ZZ=    21.4692
   Eigenvalues:    21.2931    24.0829    30.2144
     25  C    Isotropic =   150.5830   Anisotropy =    51.4499
   XX=   151.7449   YX=    22.7269   ZX=     9.7763
   XY=    26.0071   YY=   141.7339   ZY=    17.5352
   XZ=    12.5859   YZ=    14.0336   ZZ=   158.2701
   Eigenvalues:   120.9861   145.8799   184.8829
     26  H    Isotropic =    27.2627   Anisotropy =     8.1134
   XX=    30.5018   YX=     0.2300   ZX=     2.2857
   XY=     0.0418   YY=    22.5733   ZY=    -0.7821
   XZ=     3.3318   YZ=    -3.1788   ZZ=    28.7131
   Eigenvalues:    21.8786    27.2379    32.6716
     27  H    Isotropic =    27.5086   Anisotropy =     9.2681
   XX=    27.8934   YX=    -0.6549   ZX=    -0.8707
   XY=    -1.7472   YY=    28.0918   ZY=     5.2894
   XZ=    -2.3604   YZ=     6.0079   ZZ=    26.5405
   Eigenvalues:    21.5838    27.2546    33.6873
     28  Cl   Isotropic =   827.6310   Anisotropy =   414.9388
   XX=   908.0163   YX=   185.1211   ZX=    79.9001
   XY=   174.2911   YY=   761.7131   ZY=   109.6868
   XZ=   113.7146   YZ=   129.2278   ZZ=   813.1637
   Eigenvalues:   625.6572   752.9790  1104.2569
 End of Minotr Frequency-dependent properties file   721 does not exist.
 End of Minotr Frequency-dependent properties file   722 does not exist.

 **********************************************************************

            Population analysis using the SCF density.

 **********************************************************************

 Orbital symmetries:
       Occupied  (A) (A) (A) (A) (A) (A) (A) (A) (A) (A) (A) (A)
                 (A) (A) (A) (A) (A) (A) (A) (A) (A) (A) (A) (A)
                 (A) (A) (A) (A) (A) (A) (A) (A) (A) (A) (A) (A)
                 (A) (A) (A) (A) (A) (A) (A) (A) (A) (A) (A) (A)
                 (A) (A) (A) (A) (A) (A) (A) (A) (A) (A) (A) (A)
                 (A) (A) (A) (A) (A) (A) (A) (A) (A) (A) (A) (A)
                 (A) (A) (A) (A) (A) (A) (A) (A)
       Virtual   (A) (A) (A) (A) (A) (A) (A) (A) (A) (A) (A) (A)
                 (A) (A) (A) (A) (A) (A) (A) (A) (A) (A) (A) (A)
                 (A) (A) (A) (A) (A) (A) (A) (A) (A) (A) (A) (A)
                 (A) (A) (A) (A) (A) (A) (A) (A) (A) (A) (A) (A)
                 (A) (A) (A) (A) (A) (A) (A) (A) (A) (A) (A) (A)
                 (A) (A) (A) (A) (A) (A) (A) (A) (A) (A) (A) (A)
                 (A) (A) (A) (A) (A) (A) (A) (A) (A) (A) (A) (A)
                 (A) (A) (A) (A) (A) (A) (A) (A) (A) (A) (A) (A)
                 (A) (A) (A) (A) (A) (A) (A) (A) (A) (A) (A) (A)
                 (A) (A) (A) (A) (A) (A) (A) (A) (A) (A) (A) (A)
                 (A) (A) (A) (A) (A) (A) (A) (A) (A) (A) (A) (A)
                 (A) (A) (A) (A) (A) (A) (A) (A) (A) (A) (A) (A)
                 (A) (A) (A) (A) (A) (A) (A) (A) (A) (A) (A) (A)
                 (A) (A) (A) (A) (A) (A) (A) (A) (A) (A) (A) (A)
                 (A) (A) (A) (A) (A) (A) (A) (A) (A) (A) (A) (A)
                 (A) (A) (A) (A) (A) (A) (A) (A) (A) (A) (A) (A)
                 (A) (A) (A) (A) (A) (A) (A) (A) (A) (A) (A) (A)
                 (A) (A) (A) (A) (A) (A) (A) (A) (A) (A) (A) (A)
                 (A) (A) (A) (A) (A) (A) (A) (A) (A) (A) (A) (A)
                 (A) (A) (A) (A) (A) (A) (A) (A) (A) (A) (A) (A)
                 (A) (A) (A) (A) (A) (A) (A) (A) (A) (A) (A) (A)
                 (A) (A) (A) (A) (A) (A) (A) (A) (A) (A) (A) (A)
                 (A) (A) (A) (A) (A) (A) (A) (A) (A) (A) (A) (A)
                 (A) (A) (A) (A) (A) (A) (A)
 The electronic state is 1-A.
 Alpha  occ. eigenvalues -- -483.40722-101.76392-101.75633-101.75385 -62.04674
 Alpha  occ. eigenvalues --  -56.53209 -56.52861 -56.52844 -10.33602 -10.33600
 Alpha  occ. eigenvalues --  -10.32742 -10.32635 -10.30298 -10.30147 -10.29056
 Alpha  occ. eigenvalues --  -10.28080 -10.25796 -10.24589  -9.54178  -9.53334
 Alpha  occ. eigenvalues --   -9.53133  -8.66461  -7.28153  -7.27316  -7.27207
 Alpha  occ. eigenvalues --   -7.27192  -7.27110  -7.26371  -7.26355  -7.26168
 Alpha  occ. eigenvalues --   -7.26148  -6.59942  -6.58759  -6.58732  -2.68674
 Alpha  occ. eigenvalues --   -2.68341  -2.68319  -2.67359  -2.67357  -0.93519
 Alpha  occ. eigenvalues --   -0.89389  -0.88381  -0.86252  -0.82708  -0.80933
 Alpha  occ. eigenvalues --   -0.77817  -0.73885  -0.72236  -0.70569  -0.67709
 Alpha  occ. eigenvalues --   -0.63825  -0.59870  -0.55139  -0.52992  -0.50640
 Alpha  occ. eigenvalues --   -0.49917  -0.48794  -0.47690  -0.45776  -0.45361
 Alpha  occ. eigenvalues --   -0.44523  -0.43947  -0.42573  -0.42457  -0.40951
 Alpha  occ. eigenvalues --   -0.40241  -0.39580  -0.38131  -0.37507  -0.35933
 Alpha  occ. eigenvalues --   -0.35087  -0.33671  -0.33220  -0.32642  -0.32379
 Alpha  occ. eigenvalues --   -0.32023  -0.30465  -0.29076  -0.28552  -0.27851
 Alpha virt. eigenvalues --   -0.06348  -0.01451  -0.00228   0.00379   0.00886
 Alpha virt. eigenvalues --    0.01585   0.01706   0.02992   0.03311   0.03525
 Alpha virt. eigenvalues --    0.03900   0.05272   0.05394   0.05841   0.06115
 Alpha virt. eigenvalues --    0.06793   0.07340   0.07604   0.08255   0.08380
 Alpha virt. eigenvalues --    0.08681   0.09096   0.09588   0.10254   0.10693
 Alpha virt. eigenvalues --    0.10866   0.11161   0.11817   0.11924   0.12433
 Alpha virt. eigenvalues --    0.12794   0.13151   0.13357   0.14236   0.14363
 Alpha virt. eigenvalues --    0.15101   0.15535   0.16134   0.16182   0.16678
 Alpha virt. eigenvalues --    0.17364   0.17799   0.17966   0.18218   0.18384
 Alpha virt. eigenvalues --    0.18740   0.18837   0.19714   0.19949   0.20273
 Alpha virt. eigenvalues --    0.20588   0.20940   0.21301   0.21925   0.22417
 Alpha virt. eigenvalues --    0.22584   0.22710   0.23559   0.24108   0.25043
 Alpha virt. eigenvalues --    0.25395   0.26262   0.26485   0.27022   0.27330
 Alpha virt. eigenvalues --    0.28083   0.28387   0.28895   0.29275   0.29908
 Alpha virt. eigenvalues --    0.30188   0.31151   0.32016   0.32704   0.33072
 Alpha virt. eigenvalues --    0.33519   0.35131   0.36112   0.38785   0.39790
 Alpha virt. eigenvalues --    0.40798   0.42941   0.44780   0.47236   0.48833
 Alpha virt. eigenvalues --    0.50140   0.53002   0.54286   0.55057   0.57883
 Alpha virt. eigenvalues --    0.58469   0.58892   0.60845   0.61933   0.62472
 Alpha virt. eigenvalues --    0.63327   0.63844   0.64563   0.65010   0.65322
 Alpha virt. eigenvalues --    0.65755   0.66329   0.66567   0.67746   0.67984
 Alpha virt. eigenvalues --    0.69716   0.71605   0.72148   0.72910   0.73942
 Alpha virt. eigenvalues --    0.74478   0.75703   0.76238   0.76461   0.76889
 Alpha virt. eigenvalues --    0.77911   0.78303   0.79077   0.79637   0.80197
 Alpha virt. eigenvalues --    0.81871   0.82664   0.83556   0.84717   0.86413
 Alpha virt. eigenvalues --    0.86664   0.87308   0.88028   0.88934   0.90194
 Alpha virt. eigenvalues --    0.90530   0.91483   0.92033   0.93936   0.96027
 Alpha virt. eigenvalues --    0.96127   0.97737   0.98405   1.00113   1.01082
 Alpha virt. eigenvalues --    1.01515   1.02089   1.02616   1.03380   1.04763
 Alpha virt. eigenvalues --    1.05159   1.06064   1.06690   1.07249   1.08904
 Alpha virt. eigenvalues --    1.09428   1.10482   1.11125   1.13207   1.14082
 Alpha virt. eigenvalues --    1.14773   1.16271   1.17869   1.18744   1.20497
 Alpha virt. eigenvalues --    1.22352   1.25561   1.25748   1.26842   1.28902
 Alpha virt. eigenvalues --    1.31250   1.32405   1.35716   1.36986   1.38701
 Alpha virt. eigenvalues --    1.41113   1.45602   1.46685   1.48315   1.54190
 Alpha virt. eigenvalues --    1.55988   1.59408   1.61641   1.67053   1.70794
 Alpha virt. eigenvalues --    1.71502   1.72714   1.74725   1.80589   1.81860
 Alpha virt. eigenvalues --    1.82149   1.84255   1.85089   1.87071   1.88072
 Alpha virt. eigenvalues --    1.89322   1.90445   1.91563   1.92905   1.96244
 Alpha virt. eigenvalues --    1.97076   1.99620   2.01851   2.02529   2.03361
 Alpha virt. eigenvalues --    2.04936   2.05357   2.09063   2.09833   2.11926
 Alpha virt. eigenvalues --    2.13035   2.14157   2.14788   2.15391   2.17828
 Alpha virt. eigenvalues --    2.18579   2.19210   2.19748   2.21011   2.22178
 Alpha virt. eigenvalues --    2.24038   2.25566   2.29245   2.32508   2.35412
 Alpha virt. eigenvalues --    2.40403   2.42163   2.42499   2.46282   2.47764
 Alpha virt. eigenvalues --    2.49665   2.52411   2.54298   2.55176   2.56553
 Alpha virt. eigenvalues --    2.57376   2.59179   2.61411   2.63409   2.63730
 Alpha virt. eigenvalues --    2.68052   2.68912   2.70813   2.73805   2.75538
 Alpha virt. eigenvalues --    2.76349   2.78972   2.80481   2.81500   2.83593
 Alpha virt. eigenvalues --    2.85877   2.88294   2.89439   2.90762   2.92059
 Alpha virt. eigenvalues --    2.96617   2.98386   3.01439   3.09659   3.30349
 Alpha virt. eigenvalues --    3.31670   3.32449   3.35881   3.42328   3.45290
 Alpha virt. eigenvalues --    3.46723   3.47604   3.48214   3.49908   3.50459
 Alpha virt. eigenvalues --    3.52082   3.54492   3.56189   4.29985   4.34282
 Alpha virt. eigenvalues --    4.36750   4.41154   4.43477   4.50268   4.51598
 Alpha virt. eigenvalues --    4.56229   4.61886   4.66209   4.73047   4.77408
 Alpha virt. eigenvalues --    4.80189   9.11135  82.13291
          Condensed to atoms (all electrons):
              1          2          3          4          5          6
     1  C   10.948074   2.131267   0.038694  -1.891506  -0.971674  -2.622413
     2  C    2.131267  10.198498   1.825153  -3.927550   0.237219  -2.926457
     3  C    0.038694   1.825153  14.647910  -4.525101  -1.514205  -0.921070
     4  C   -1.891506  -3.927550  -4.525101  13.311289  -0.252388   2.324503
     5  C   -0.971674   0.237219  -1.514205  -0.252388  15.683151  -0.565826
     6  C   -2.622413  -2.926457  -0.921070   2.324503  -0.565826   9.008717
     7  H    0.000462   0.010073   0.205728  -0.049675   0.060325   0.000902
     8  H   -0.175146  -0.111795   0.034566   0.033322   0.074439   0.482653
     9  H    0.204540   0.015534   0.000607  -0.014963  -0.140409   0.022002
    10  H    0.056737   0.302880   0.072325  -0.056724  -0.051964  -0.017529
    11  H    0.057752   0.063423  -0.031696  -0.018589   0.007337   0.242082
    12  Cl  -0.181658  -0.106695  -0.181699   0.071319   0.153913   0.085056
    13  Br   0.341270   0.523340   0.108546  -0.191366  -0.189414  -0.383813
    14  C    0.267409   0.152820   0.094452  -0.746415  -0.099927  -0.097302
    15  H    0.008561  -0.022679  -0.023321  -0.019192  -0.042344  -0.006613
    16  H   -0.000616   0.033577  -0.035996  -0.094228   0.045155  -0.000159
    17  H   -0.001853  -0.001789   0.083604  -0.175145  -0.014625   0.009401
    18  C   -0.284710  -0.390104   0.002180  -0.137063  -0.276746   0.215477
    19  H    0.002007   0.000350   0.080034  -0.155344  -0.025016   0.006499
    20  H   -0.004197   0.028077  -0.011605  -0.106897   0.002515  -0.004168
    21  H    0.000478  -0.040641  -0.065795  -0.008617   0.019650   0.001449
    22  Cl  -0.279070  -0.237780  -0.733382   0.330696   0.498869   0.080574
    23  C   -1.398496  -1.627639  -2.616209   2.339282  -7.352691   1.502241
    24  H   -0.045249  -0.000510   0.016776   0.001847  -0.022482   0.012296
    25  C   -0.029237   0.175224  -0.272563  -0.297195   0.882152  -0.247115
    26  H   -0.011079  -0.000851   0.032870   0.001346  -0.014572   0.001884
    27  H   -0.008451   0.001197  -0.001709  -0.005539   0.095880  -0.002533
    28  Cl  -0.000067   0.001931   0.055309  -0.012423   0.123654  -0.002196
              7          8          9         10         11         12
     1  C    0.000462  -0.175146   0.204540   0.056737   0.057752  -0.181658
     2  C    0.010073  -0.111795   0.015534   0.302880   0.063423  -0.106695
     3  C    0.205728   0.034566   0.000607   0.072325  -0.031696  -0.181699
     4  C   -0.049675   0.033322  -0.014963  -0.056724  -0.018589   0.071319
     5  C    0.060325   0.074439  -0.140409  -0.051964   0.007337   0.153913
     6  C    0.000902   0.482653   0.022002  -0.017529   0.242082   0.085056
     7  H    0.546393   0.000008  -0.000080  -0.000148   0.000001  -0.001265
     8  H    0.000008   0.480624  -0.001214  -0.002212  -0.019592   0.010577
     9  H   -0.000080  -0.001214   0.518290  -0.000127  -0.005211  -0.020708
    10  H   -0.000148  -0.002212  -0.000127   0.520417  -0.005129  -0.001705
    11  H    0.000001  -0.019592  -0.005211  -0.005129   0.500062   0.006511
    12  Cl  -0.001265   0.010577  -0.020708  -0.001705   0.006511  17.076608
    13  Br  -0.002771  -0.003259  -0.003651  -0.019649   0.005804  -0.025165
    14  C    0.029247  -0.001265   0.003943   0.030347  -0.010510  -0.023791
    15  H   -0.000756   0.000049   0.000008  -0.000078  -0.002409  -0.000855
    16  H    0.004531   0.000000   0.000000   0.000113   0.000066   0.000044
    17  H    0.000126  -0.000009   0.000001   0.004024   0.000170   0.000128
    18  C   -0.041000  -0.001132   0.000120  -0.043386   0.006961   0.019251
    19  H   -0.000070  -0.000002   0.000000   0.002761   0.000005  -0.000106
    20  H    0.003378   0.000002   0.000000  -0.000043  -0.000001  -0.000066
    21  H    0.000013  -0.000003   0.000000  -0.000101  -0.000002   0.000244
    22  Cl  -0.032247   0.001208  -0.003187  -0.005939  -0.001221   0.031385
    23  C    0.070429  -0.011798   0.183426  -0.000293  -0.009114   0.196889
    24  H    0.000206  -0.000007   0.003848   0.000000  -0.000023   0.008731
    25  C   -0.020110   0.000088   0.010798  -0.000208   0.003473  -0.019032
    26  H    0.004030   0.000000  -0.000003   0.000000   0.000000  -0.000176
    27  H    0.000041   0.000000  -0.000016   0.000000   0.000000   0.000378
    28  Cl   0.003998  -0.000027  -0.000289  -0.000012   0.000142  -0.000519
             13         14         15         16         17         18
     1  C    0.341270   0.267409   0.008561  -0.000616  -0.001853  -0.284710
     2  C    0.523340   0.152820  -0.022679   0.033577  -0.001789  -0.390104
     3  C    0.108546   0.094452  -0.023321  -0.035996   0.083604   0.002180
     4  C   -0.191366  -0.746415  -0.019192  -0.094228  -0.175145  -0.137063
     5  C   -0.189414  -0.099927  -0.042344   0.045155  -0.014625  -0.276746
     6  C   -0.383813  -0.097302  -0.006613  -0.000159   0.009401   0.215477
     7  H   -0.002771   0.029247  -0.000756   0.004531   0.000126  -0.041000
     8  H   -0.003259  -0.001265   0.000049   0.000000  -0.000009  -0.001132
     9  H   -0.003651   0.003943   0.000008   0.000000   0.000001   0.000120
    10  H   -0.019649   0.030347  -0.000078   0.000113   0.004024  -0.043386
    11  H    0.005804  -0.010510  -0.002409   0.000066   0.000170   0.006961
    12  Cl  -0.025165  -0.023791  -0.000855   0.000044   0.000128   0.019251
    13  Br  35.169891   0.029963   0.000707  -0.002167   0.002039  -0.075948
    14  C    0.029963   6.361324   0.403887   0.444579   0.478383  -0.583374
    15  H    0.000707   0.403887   0.503735  -0.024115  -0.023258   0.021902
    16  H   -0.002167   0.444579  -0.024115   0.499333  -0.020448  -0.042415
    17  H    0.002039   0.478383  -0.023258  -0.020448   0.502211  -0.021542
    18  C   -0.075948  -0.583374   0.021902  -0.042415  -0.021542   6.515506
    19  H    0.002134   0.002463   0.000108  -0.000151   0.002255   0.443138
    20  H   -0.000061  -0.011873   0.000047   0.002691   0.000079   0.446763
    21  H    0.003826  -0.000495  -0.000147   0.000109   0.000007   0.442257
    22  Cl  -0.057849  -0.105206  -0.001257   0.002484  -0.003386   0.117871
    23  C   -0.041126  -0.061772   0.036438  -0.006019  -0.009012   0.142127
    24  H    0.000057  -0.001326   0.000044   0.000001   0.000000   0.000360
    25  C    0.000693   0.017178  -0.001913   0.002842   0.000032  -0.018225
    26  H    0.000275   0.001309   0.000024   0.000001   0.000000   0.000387
    27  H   -0.000010  -0.001062  -0.000002   0.000000   0.000000  -0.000058
    28  Cl  -0.000367  -0.004746   0.000755  -0.000505  -0.000108   0.001452
             19         20         21         22         23         24
     1  C    0.002007  -0.004197   0.000478  -0.279070  -1.398496  -0.045249
     2  C    0.000350   0.028077  -0.040641  -0.237780  -1.627639  -0.000510
     3  C    0.080034  -0.011605  -0.065795  -0.733382  -2.616209   0.016776
     4  C   -0.155344  -0.106897  -0.008617   0.330696   2.339282   0.001847
     5  C   -0.025016   0.002515   0.019650   0.498869  -7.352691  -0.022482
     6  C    0.006499  -0.004168   0.001449   0.080574   1.502241   0.012296
     7  H   -0.000070   0.003378   0.000013  -0.032247   0.070429   0.000206
     8  H   -0.000002   0.000002  -0.000003   0.001208  -0.011798  -0.000007
     9  H    0.000000   0.000000   0.000000  -0.003187   0.183426   0.003848
    10  H    0.002761  -0.000043  -0.000101  -0.005939  -0.000293   0.000000
    11  H    0.000005  -0.000001  -0.000002  -0.001221  -0.009114  -0.000023
    12  Cl  -0.000106  -0.000066   0.000244   0.031385   0.196889   0.008731
    13  Br   0.002134  -0.000061   0.003826  -0.057849  -0.041126   0.000057
    14  C    0.002463  -0.011873  -0.000495  -0.105206  -0.061772  -0.001326
    15  H    0.000108   0.000047  -0.000147  -0.001257   0.036438   0.000044
    16  H   -0.000151   0.002691   0.000109   0.002484  -0.006019   0.000001
    17  H    0.002255   0.000079   0.000007  -0.003386  -0.009012   0.000000
    18  C    0.443138   0.446763   0.442257   0.117871   0.142127   0.000360
    19  H    0.515379  -0.025158  -0.024236  -0.005906   0.000221   0.000000
    20  H   -0.025158   0.516062  -0.023000   0.005971   0.003068   0.000000
    21  H   -0.024236  -0.023000   0.486406   0.010769  -0.001497   0.000000
    22  Cl  -0.005906   0.005971   0.010769  17.322251   0.140825  -0.000726
    23  C    0.000221   0.003068  -0.001497   0.140825  15.381702   0.382406
    24  H    0.000000   0.000000   0.000000  -0.000726   0.382406   0.496304
    25  C   -0.000135   0.000434   0.000218   0.011127  -1.053483  -0.057122
    26  H    0.000000   0.000000   0.000000   0.001066  -0.025326   0.003247
    27  H    0.000000   0.000000   0.000000   0.004366  -0.144114  -0.003749
    28  Cl   0.000005   0.000074  -0.000019   0.001098  -0.177830   0.017723
             25         26         27         28
     1  C   -0.029237  -0.011079  -0.008451  -0.000067
     2  C    0.175224  -0.000851   0.001197   0.001931
     3  C   -0.272563   0.032870  -0.001709   0.055309
     4  C   -0.297195   0.001346  -0.005539  -0.012423
     5  C    0.882152  -0.014572   0.095880   0.123654
     6  C   -0.247115   0.001884  -0.002533  -0.002196
     7  H   -0.020110   0.004030   0.000041   0.003998
     8  H    0.000088   0.000000   0.000000  -0.000027
     9  H    0.010798  -0.000003  -0.000016  -0.000289
    10  H   -0.000208   0.000000   0.000000  -0.000012
    11  H    0.003473   0.000000   0.000000   0.000142
    12  Cl  -0.019032  -0.000176   0.000378  -0.000519
    13  Br   0.000693   0.000275  -0.000010  -0.000367
    14  C    0.017178   0.001309  -0.001062  -0.004746
    15  H   -0.001913   0.000024  -0.000002   0.000755
    16  H    0.002842   0.000001   0.000000  -0.000505
    17  H    0.000032   0.000000   0.000000  -0.000108
    18  C   -0.018225   0.000387  -0.000058   0.001452
    19  H   -0.000135   0.000000   0.000000   0.000005
    20  H    0.000434   0.000000   0.000000   0.000074
    21  H    0.000218   0.000000   0.000000  -0.000019
    22  Cl   0.011127   0.001066   0.004366   0.001098
    23  C   -1.053483  -0.025326  -0.144114  -0.177830
    24  H   -0.057122   0.003247  -0.003749   0.017723
    25  C    6.434517   0.332906   0.404861   0.140933
    26  H    0.332906   0.496683  -0.023709  -0.025344
    27  H    0.404861  -0.023709   0.479747  -0.038472
    28  Cl   0.140933  -0.025344  -0.038472  17.016410
 Mulliken atomic charges:
              1
     1  C   -0.151829
     2  C   -0.306071
     3  C   -0.364404
     4  C    0.272315
     5  C   -0.349977
     6  C   -0.198543
     7  H    0.208230
     8  H    0.209924
     9  H    0.226739
    10  H    0.215642
    11  H    0.209709
    12  Cl  -0.097593
    13  Br  -0.191930
    14  C   -0.568240
    15  H    0.192671
    16  H    0.191290
    17  H    0.188717
    18  C   -0.460048
    19  H    0.178765
    20  H    0.177909
    21  H    0.199127
    22  Cl  -0.093403
    23  C    0.157365
    24  H    0.187348
    25  C   -0.401137
    26  H    0.225030
    27  H    0.242954
    28  Cl  -0.100559
 Sum of Mulliken atomic charges =   0.00000
 Mulliken charges with hydrogens summed into heavy atoms:
              1
     1  C    0.074911
     2  C   -0.090429
     3  C   -0.156174
     4  C    0.272315
     5  C   -0.349977
     6  C    0.221090
    12  Cl  -0.097593
    13  Br  -0.191930
    14  C    0.004438
    18  C    0.095752
    22  Cl  -0.093403
    23  C    0.344713
    25  C    0.066847
    28  Cl  -0.100559
 Sum of Mulliken charges with hydrogens summed into heavy atoms =   0.00000
 Electronic spatial extent (au):  <R**2>=           5060.2004
 Charge=              0.0000 electrons
 Dipole moment (field-independent basis, Debye):
    X=             -2.6400    Y=             -2.0306    Z=             -3.5253  Tot=              4.8499
 Quadrupole moment (field-independent basis, Debye-Ang):
   XX=           -132.4696   YY=           -117.6203   ZZ=           -114.9042
   XY=             -7.6630   XZ=             -6.4281   YZ=             -0.6102
 Traceless Quadrupole moment (field-independent basis, Debye-Ang):
   XX=            -10.8049   YY=              4.0444   ZZ=              6.7605
   XY=             -7.6630   XZ=             -6.4281   YZ=             -0.6102
 Octapole moment (field-independent basis, Debye-Ang**2):
  XXX=            108.8423  YYY=            -22.9081  ZZZ=            -13.3749  XYY=             13.3928
  XXY=             24.8271  XXZ=             25.8142  XZZ=             26.8805  YZZ=              2.9309
  YYZ=             -4.9036  XYZ=              3.2875
 Hexadecapole moment (field-independent basis, Debye-Ang**3):
 XXXX=          -4151.5596 YYYY=          -1556.0497 ZZZZ=           -905.2418 XXXY=            -73.0817
 XXXZ=            -46.6612 YYYX=            -25.4912 YYYZ=              6.4447 ZZZX=             -1.4291
 ZZZY=              3.8774 XXYY=           -855.7567 XXZZ=           -751.6960 YYZZ=           -392.0599
 XXYZ=             20.2310 YYXZ=              2.7833 ZZXY=             -4.8251
 N-N= 1.758529114499D+03 E-N=-1.383192870798D+04  KE= 4.317818246583D+03
 1\1\GINC-COMPUTE-7-3\SP\RmPW1PW91\6-31+G(d,p)\C10H14Br1Cl3\LPASSAGLIA.
 IQUIR\20-May-2022\0\\# mPW1PW91/6-31+G** scrf=(PCM,solvent=chloroform)
  nmr\\comment\\0,1\C,0,-0.144498,1.447518,-0.997472\C,0,1.357102,-0.67
 0427,-1.086656\C,0,-0.628797,-0.571999,0.566084\C,0,0.283197,-1.474524
 ,-0.313918\C,0,-1.118774,0.67143,-0.141379\C,0,0.801879,0.557475,-1.81
 1679\H,0,-1.480088,-1.185875,0.857606\H,0,1.616874,1.156186,-2.224511\
 H,0,-0.7052,2.078637,-1.688175\H,0,1.817048,-1.333807,-1.8203\H,0,0.21
 648,0.189968,-2.666423\Cl,0,0.78595,2.68038,0.011621\Br,0,2.93879,-0.1
 55856,0.024384\C,0,-0.659522,-2.113984,-1.376648\H,0,-1.244959,-1.3785
 15,-1.935031\H,0,-1.367848,-2.789837,-0.886179\H,0,-0.077562,-2.705804
 ,-2.091659\C,0,0.899445,-2.625958,0.497215\H,0,1.421128,-3.315687,-0.1
 76503\H,0,0.114685,-3.18919,1.014556\H,0,1.61431,-2.266971,1.23715\Cl,
 0,0.10838,-0.112112,2.194029\C,0,-2.395586,1.089584,-0.082235\H,0,-2.6
 77963,1.96477,-0.665489\C,0,-3.500042,0.496682,0.725128\H,0,-3.165159,
 -0.200244,1.49142\H,0,-4.099829,1.276869,1.196644\Cl,0,-4.671153,-0.43
 1816,-0.344896\\Version=EM64L-G09RevC.01\State=1-A\HF=-4341.9441627\RM
 SD=4.813e-09\Dipole=-1.0386638,-0.7989157,-1.3869738\Quadrupole=-8.033
 1809,3.0069234,5.0262575,-5.6972872,-4.7791509,-0.4536409\PG=C01 [X(C1
 0H14Br1Cl3)]\\@


 THOSE WHO ARE UNABLE TO LEARN FROM PAST MEETINGS
 ARE CONDEMNED TO REPEAT THEM.
 Job cpu time:  0 days  0 hours 38 minutes 48.1 seconds.
 File lengths (MBytes):  RWF=    153 Int=      0 D2E=      0 Chk=      9 Scr=      1
 Normal termination of Gaussian 09 at Fri May 20 10:37:01 2022.
