 Entering Gaussian System, Link 0=g09
 Input=/home/lpassaglia.iquir/NMR_Tetrahalogenados/03_SRSE_Tetrahalogenado_002.gjc
 Output=/home/lpassaglia.iquir/NMR_Tetrahalogenados/03_SRSE_Tetrahalogenado_002.log
 Initial command:
 /share/apps/Gaussian09/EM64T.SSE4.2-enabled/g09/l1.exe /tmp/Gau-1016.inp -scrdir=/tmp/
 Entering Link 1 = /share/apps/Gaussian09/EM64T.SSE4.2-enabled/g09/l1.exe PID=      1017.
  
 Copyright (c) 1988,1990,1992,1993,1995,1998,2003,2009,2011,
            Gaussian, Inc.  All Rights Reserved.
  
 This is part of the Gaussian(R) 09 program.  It is based on
 the Gaussian(R) 03 system (copyright 2003, Gaussian, Inc.),
 the Gaussian(R) 98 system (copyright 1998, Gaussian, Inc.),
 the Gaussian(R) 94 system (copyright 1995, Gaussian, Inc.),
 the Gaussian 92(TM) system (copyright 1992, Gaussian, Inc.),
 the Gaussian 90(TM) system (copyright 1990, Gaussian, Inc.),
 the Gaussian 88(TM) system (copyright 1988, Gaussian, Inc.),
 the Gaussian 86(TM) system (copyright 1986, Carnegie Mellon
 University), and the Gaussian 82(TM) system (copyright 1983,
 Carnegie Mellon University). Gaussian is a federally registered
 trademark of Gaussian, Inc.
  
 This software contains proprietary and confidential information,
 including trade secrets, belonging to Gaussian, Inc.
  
 This software is provided under written license and may be
 used, copied, transmitted, or stored only in accord with that
 written license.
  
 The following legend is applicable only to US Government
 contracts under FAR:
  
                    RESTRICTED RIGHTS LEGEND
  
 Use, reproduction and disclosure by the US Government is
 subject to restrictions as set forth in subparagraphs (a)
 and (c) of the Commercial Computer Software - Restricted
 Rights clause in FAR 52.227-19.
  
 Gaussian, Inc.
 340 Quinnipiac St., Bldg. 40, Wallingford CT 06492
  
  
 ---------------------------------------------------------------
 Warning -- This program may not be used in any manner that
 competes with the business of Gaussian, Inc. or will provide
 assistance to any competitor of Gaussian, Inc.  The licensee
 of this program is prohibited from giving any competitor of
 Gaussian, Inc. access to this program.  By using this program,
 the user acknowledges that Gaussian, Inc. is engaged in the
 business of creating and licensing software in the field of
 computational chemistry and represents and warrants to the
 licensee that it is not a competitor of Gaussian, Inc. and that
 it will not use this program in any manner prohibited above.
 ---------------------------------------------------------------
  

 Cite this work as:
 Gaussian 09, Revision C.01,
 M. J. Frisch, G. W. Trucks, H. B. Schlegel, G. E. Scuseria, 
 M. A. Robb, J. R. Cheeseman, G. Scalmani, V. Barone, B. Mennucci, 
 G. A. Petersson, H. Nakatsuji, M. Caricato, X. Li, H. P. Hratchian, 
 A. F. Izmaylov, J. Bloino, G. Zheng, J. L. Sonnenberg, M. Hada, 
 M. Ehara, K. Toyota, R. Fukuda, J. Hasegawa, M. Ishida, T. Nakajima, 
 Y. Honda, O. Kitao, H. Nakai, T. Vreven, J. A. Montgomery, Jr., 
 J. E. Peralta, F. Ogliaro, M. Bearpark, J. J. Heyd, E. Brothers, 
 K. N. Kudin, V. N. Staroverov, T. Keith, R. Kobayashi, J. Normand, 
 K. Raghavachari, A. Rendell, J. C. Burant, S. S. Iyengar, J. Tomasi, 
 M. Cossi, N. Rega, J. M. Millam, M. Klene, J. E. Knox, J. B. Cross, 
 V. Bakken, C. Adamo, J. Jaramillo, R. Gomperts, R. E. Stratmann, 
 O. Yazyev, A. J. Austin, R. Cammi, C. Pomelli, J. W. Ochterski, 
 R. L. Martin, K. Morokuma, V. G. Zakrzewski, G. A. Voth, 
 P. Salvador, J. J. Dannenberg, S. Dapprich, A. D. Daniels, 
 O. Farkas, J. B. Foresman, J. V. Ortiz, J. Cioslowski, 
 and D. J. Fox, Gaussian, Inc., Wallingford CT, 2010.
 
 ******************************************
 Gaussian 09:  EM64L-G09RevC.01 23-Sep-2011
                20-May-2022 
 ******************************************
 %nprocshared=4
 Will use up to    4 processors via shared memory.
 -----------------------------------------------------
 # mPW1PW91/6-31+G** scrf=(PCM,solvent=chloroform) nmr
 -----------------------------------------------------
 1/38=1/1;
 2/12=2,17=6,18=5,40=1/2;
 3/5=1,6=6,7=111,11=2,16=1,25=1,30=1,70=2201,72=7,74=-7/1,2,8,3;
 4//1;
 5/5=2,38=5,53=7/2;
 8/6=1,10=90,11=11/1;
 10/13=100,45=16/2;
 6/7=2,8=2,9=2,10=2,28=1/1;
 99/9=1/99;
 -------
 comment
 -------
 Charge =  0 Multiplicity = 1
 Symbolic Z-Matrix:
 6                    -0.24685  -1.17386   1.24095 
 6                     1.74866   0.46839   0.95504 
 6                    -0.49179   0.93762  -0.24858 
 6                     0.78939   1.54638   0.39242 
 6                    -1.13992  -0.13484   0.59894 
 6                     1.05269  -0.59275   1.81137 
 1                    -1.186     1.7642   -0.39387 
 1                     1.74864  -1.39876   2.0543 
 1                    -0.79292  -1.65574   2.05289 
 1                     2.50491   0.9686    1.56153 
 1                     0.78298  -0.1138    2.76379 
 17                    0.08432  -2.57516   0.09081 
 35                    2.88424  -0.41432  -0.43505 
 6                     0.29348   2.38982   1.60422 
 1                    -0.32478   1.81784   2.30166 
 1                    -0.30466   3.23576   1.24785 
 1                     1.14591   2.79939   2.15715 
 6                     1.5054    2.50879  -0.5689 
 1                     2.32488   3.01552  -0.04603 
 1                     0.80922   3.27521  -0.92816 
 1                     1.92131   1.98745  -1.43047 
 17                   -0.24796   0.31566  -1.9644 
 6                    -2.45802  -0.17674   0.86251 
 1                    -2.82606  -0.97608   1.50424 
 6                    -3.52696   0.73972   0.36419 
 1                    -4.04497   1.23423   1.1901 
 1                    -3.1763    1.49232  -0.34 
 17                   -4.81796  -0.21228  -0.5112 
 
                          Input orientation:                          
 ---------------------------------------------------------------------
 Center     Atomic      Atomic             Coordinates (Angstroms)
 Number     Number       Type             X           Y           Z
 ---------------------------------------------------------------------
      1          6           0       -0.246847   -1.173855    1.240947
      2          6           0        1.748660    0.468389    0.955037
      3          6           0       -0.491792    0.937617   -0.248575
      4          6           0        0.789392    1.546384    0.392417
      5          6           0       -1.139921   -0.134843    0.598944
      6          6           0        1.052690   -0.592745    1.811367
      7          1           0       -1.186002    1.764203   -0.393873
      8          1           0        1.748637   -1.398764    2.054304
      9          1           0       -0.792923   -1.655736    2.052891
     10          1           0        2.504910    0.968600    1.561530
     11          1           0        0.782977   -0.113804    2.763787
     12         17           0        0.084316   -2.575161    0.090813
     13         35           0        2.884243   -0.414315   -0.435049
     14          6           0        0.293484    2.389824    1.604219
     15          1           0       -0.324782    1.817840    2.301659
     16          1           0       -0.304659    3.235755    1.247850
     17          1           0        1.145907    2.799391    2.157154
     18          6           0        1.505395    2.508792   -0.568895
     19          1           0        2.324877    3.015521   -0.046032
     20          1           0        0.809221    3.275207   -0.928157
     21          1           0        1.921310    1.987451   -1.430473
     22         17           0       -0.247955    0.315658   -1.964396
     23          6           0       -2.458024   -0.176744    0.862507
     24          1           0       -2.826058   -0.976078    1.504241
     25          6           0       -3.526957    0.739719    0.364193
     26          1           0       -4.044969    1.234233    1.190105
     27          1           0       -3.176304    1.492321   -0.339997
     28         17           0       -4.817956   -0.212282   -0.511195
 ---------------------------------------------------------------------
                    Distance matrix (angstroms):
                    1          2          3          4          5
     1  C    0.000000
     2  C    2.600146   0.000000
     3  C    2.595571   2.586210   0.000000
     4  C    3.032078   1.548809   1.556567   0.000000
     5  C    1.513042   2.972304   1.512789   2.567377   0.000000
     6  C    1.533579   1.530908   2.995128   2.580430   2.546996
     7  H    3.490965   3.480077   1.089166   2.137260   2.143405
     8  H    2.166585   2.166714   3.972587   3.515098   3.472656
     9  H    1.090716   3.489532   3.480360   3.938841   2.132483
    10  H    3.502150   1.090852   3.501095   2.154916   3.927970
    11  H    2.122095   2.131448   3.435818   2.894764   2.895604
    12  Cl   1.842861   3.574929   3.575849   4.192282   2.777068
    13  Br   3.631747   2.000264   3.641443   2.986209   4.164270
    14  C    3.622669   2.496174   2.481614   1.557492   3.072323
    15  H    3.175126   2.816659   2.703031   2.227168   2.716001
    16  H    4.409994   3.458348   2.748772   2.186936   3.532658
    17  H    4.308815   2.691090   3.454822   2.193496   4.032711
    18  C    4.461812   2.558279   2.561240   1.537209   3.917952
    19  H    5.081432   2.796792   3.506042   2.169865   4.727115
    20  H    5.061071   3.508161   2.760216   2.175578   4.214218
    21  H    4.672392   2.833375   2.884804   2.190595   4.241910
    22  Cl   3.534526   3.540182   1.841285   2.854005   2.751230
    23  C    2.454944   4.256871   2.518407   3.706193   1.344848
    24  H    2.600148   4.828680   3.490471   4.546476   2.090526
    25  C    3.897382   5.315529   3.102721   4.391170   2.553019
    26  H    4.497466   5.848753   3.844847   4.909663   3.265447
    27  H    4.264926   5.194307   2.742747   4.033125   2.770583
    28  Cl   4.988954   6.762662   4.484075   5.945736   3.842700
                    6          7          8          9         10
     6  C    0.000000
     7  H    3.928108   0.000000
     8  H    1.092258   4.960850   0.000000
     9  H    2.143495   4.223405   2.554518   0.000000
    10  H    2.146895   4.251990   2.533612   4.243145   0.000000
    11  H    1.099652   4.168286   1.756983   2.316547   2.362641
    12  Cl   2.797861   4.547385   2.830048   2.337657   4.536576
    13  Br   2.903930   4.616766   2.907855   4.610046   2.458185
    14  C    3.084643   2.563718   4.083313   4.212854   2.629088
    15  H    2.819350   2.830277   3.834944   3.513797   3.045678
    16  H    4.100897   2.374339   5.132754   4.981283   3.623819
    17  H    3.410989   3.607929   4.242448   4.859845   2.356576
    18  C    3.935749   2.797975   4.712678   5.431328   2.812460
    19  H    4.252996   3.743402   4.922334   5.995565   2.608937
    20  H    4.746085   2.559201   5.623485   5.980611   3.793987
    21  H    4.233372   3.283256   4.862092   5.724832   3.214145
    22  Cl   4.095517   2.333400   4.803704   4.507991   4.520703
    23  C    3.660397   2.638902   4.539792   2.525271   5.141124
    24  H    3.909726   3.715072   4.626993   2.212824   5.674881
    25  C    4.984269   2.665390   5.938137   4.008098   6.153814
    26  H    5.450683   3.311125   6.422257   4.435327   6.565777
    27  H    5.182688   2.009509   6.192422   4.616999   6.013841
    28  Cl   6.324834   4.136586   7.149103   4.985879   7.701626
                   11         12         13         14         15
    11  H    0.000000
    12  Cl   3.700162   0.000000
    13  Br   3.839033   3.575665   0.000000
    14  C    2.802205   5.194731   4.328261   0.000000
    15  H    2.274190   4.934943   4.771785   1.093545   0.000000
    16  H    3.834131   5.937742   5.130717   1.095615   1.766749
    17  H    2.997737   5.855130   4.479870   1.095494   1.774049
    18  C    4.301938   5.319893   3.234763   2.491045   3.473765
    19  H    4.479421   6.024497   3.496856   2.690982   3.737216
    20  H    5.011640   5.982524   4.261625   2.731815   3.720429
    21  H    4.827307   5.148426   2.772470   3.467142   4.359186
    22  Cl   4.858289   3.562460   3.561240   4.162972   4.523459
    23  C    3.758047   3.579303   5.502718   3.835128   3.255802
    24  H    3.918559   3.609033   6.056729   4.590298   3.833828
    25  C    5.006205   4.909629   6.563084   4.342382   3.894874
    26  H    5.253831   5.724589   7.305670   4.508775   3.926314
    27  H    5.281005   5.230836   6.354095   4.077366   3.900703
    28  Cl   6.488887   5.475206   7.705225   6.113326   5.676456
                   16         17         18         19         20
    16  H    0.000000
    17  H    1.766745   0.000000
    18  C    2.665583   2.764963   0.000000
    19  H    2.938893   2.508129   1.096226   0.000000
    20  H    2.444850   3.139889   1.095956   1.772793   0.000000
    21  H    3.699543   3.759197   1.089540   1.771009   1.774085
    22  Cl   4.341510   5.009886   3.135522   4.193906   3.309130
    23  C    4.053470   4.849929   4.996970   5.821696   5.079108
    24  H    4.915560   5.518783   5.933270   6.698383   6.099610
    25  C    4.170641   5.412265   5.415241   6.292179   5.186647
    26  H    4.242563   5.507277   5.960295   6.728741   5.675894
    27  H    3.715799   5.160010   4.796239   5.715728   4.405567
    28  Cl   5.945843   7.194298   6.884210   7.852079   6.633367
                   21         22         23         24         25
    21  H    0.000000
    22  Cl   2.790282   0.000000
    23  C    5.396301   3.621912   0.000000
    24  H    6.319221   4.510725   1.089131   0.000000
    25  C    5.870373   4.044009   1.493599   2.175989   0.000000
    26  H    6.559821   5.021152   2.148621   2.543600   1.093166
    27  H    5.236407   3.549428   2.178926   3.101109   1.088692
    28  Cl   7.148539   4.824461   2.730861   2.934795   1.827372
                   26         27         28
    26  H    0.000000
    27  H    1.778314   0.000000
    28  Cl   2.363120   2.372762   0.000000
 Stoichiometry    C10H14BrCl3
 Framework group  C1[X(C10H14BrCl3)]
 Deg. of freedom    78
 Full point group                 C1      NOp   1
 Largest Abelian subgroup         C1      NOp   1
 Largest concise Abelian subgroup C1      NOp   1
                         Standard orientation:                         
 ---------------------------------------------------------------------
 Center     Atomic      Atomic             Coordinates (Angstroms)
 Number     Number       Type             X           Y           Z
 ---------------------------------------------------------------------
      1          6           0       -0.246847   -1.173855    1.240947
      2          6           0        1.748660    0.468389    0.955037
      3          6           0       -0.491792    0.937617   -0.248575
      4          6           0        0.789392    1.546384    0.392417
      5          6           0       -1.139921   -0.134843    0.598944
      6          6           0        1.052690   -0.592745    1.811367
      7          1           0       -1.186002    1.764203   -0.393873
      8          1           0        1.748637   -1.398764    2.054304
      9          1           0       -0.792923   -1.655736    2.052891
     10          1           0        2.504910    0.968600    1.561530
     11          1           0        0.782977   -0.113804    2.763787
     12         17           0        0.084316   -2.575161    0.090813
     13         35           0        2.884243   -0.414315   -0.435049
     14          6           0        0.293484    2.389824    1.604219
     15          1           0       -0.324782    1.817840    2.301659
     16          1           0       -0.304659    3.235755    1.247850
     17          1           0        1.145907    2.799391    2.157154
     18          6           0        1.505395    2.508792   -0.568895
     19          1           0        2.324877    3.015521   -0.046032
     20          1           0        0.809221    3.275207   -0.928157
     21          1           0        1.921310    1.987451   -1.430473
     22         17           0       -0.247955    0.315658   -1.964396
     23          6           0       -2.458024   -0.176744    0.862507
     24          1           0       -2.826058   -0.976078    1.504241
     25          6           0       -3.526957    0.739719    0.364193
     26          1           0       -4.044969    1.234233    1.190105
     27          1           0       -3.176304    1.492321   -0.339997
     28         17           0       -4.817956   -0.212282   -0.511195
 ---------------------------------------------------------------------
 Rotational constants (GHZ):      0.6031092      0.2328655      0.2127119
 Standard basis: 6-31+G(d,p) (6D, 7F)
 There are   363 symmetry adapted basis functions of A   symmetry.
 Integral buffers will be    131072 words long.
 Raffenetti 2 integral format.
 Two-electron integral symmetry is turned on.
   363 basis functions,   673 primitive gaussians,   363 cartesian basis functions
    80 alpha electrons       80 beta electrons
       nuclear repulsion energy      1752.9147482776 Hartrees.
 NAtoms=   28 NActive=   28 NUniq=   28 SFac= 1.00D+00 NAtFMM=   60 NAOKFM=F Big=F
 ------------------------------------------------------------------------------
 Polarizable Continuum Model (PCM)
 =================================
 Model                : PCM.
 Atomic radii         : UFF (Universal Force Field).
 Polarization charges : Total charges.
 Charge compensation  : None.
 Solution method      : Matrix inversion.
 Cavity type          : Scaled VdW (van der Waals Surface) (Alpha=1.100).
 Cavity algorithm     : GePol (No added spheres)
                        Default sphere list used, NSphG=   28.
                        Lebedev-Laikov grids with approx.  5.0 points / Ang**2.
                        Smoothing algorithm: Karplus/York (Gamma=1.0000).
                        Polarization charges: spherical gaussians, with
                                              point-specific exponents (IZeta= 3).
                        Self-potential: point-specific (ISelfS= 7).
                        Self-field    : sphere-specific E.n sum rule (ISelfD= 2).
 Solvent              : Chloroform, Eps=   4.711300 Eps(inf)=   2.090627
 ------------------------------------------------------------------------------
 One-electron integrals computed using PRISM.
 NBasis=   363 RedAO= T  NBF=   363
 NBsUse=   363 1.00D-06 NBFU=   363
 Harris functional with IExCor=  908 diagonalized for initial guess.
 ExpMin= 3.50D-02 ExpMax= 5.74D+05 ExpMxC= 5.74D+03 IAcc=3 IRadAn=         5 AccDes= 0.00D+00
 HarFok:  IExCor=  908 AccDes= 0.00D+00 IRadAn=         5 IDoV= 1
 ScaDFX=  1.000000  1.000000  1.000000  1.000000
 FoFCou: FMM=F IPFlag=           0 FMFlag=      100000 FMFlg1=           0
         NFxFlg=           0 DoJE=T BraDBF=F KetDBF=T FulRan=T
         Omega=  0.000000  0.000000  1.000000  0.000000  0.000000 ICntrl=     500 IOpCl=  0
         NMat0=    1 NMatS0=    1 NMatT0=    0 NMatD0=    1 NMtDS0=    0 NMtDT0=    0
         I1Cent=           4 NGrid=           0.
 Petite list used in FoFCou.
 Initial guess orbital symmetries:
       Occupied  (A) (A) (A) (A) (A) (A) (A) (A) (A) (A) (A) (A)
                 (A) (A) (A) (A) (A) (A) (A) (A) (A) (A) (A) (A)
                 (A) (A) (A) (A) (A) (A) (A) (A) (A) (A) (A) (A)
                 (A) (A) (A) (A) (A) (A) (A) (A) (A) (A) (A) (A)
                 (A) (A) (A) (A) (A) (A) (A) (A) (A) (A) (A) (A)
                 (A) (A) (A) (A) (A) (A) (A) (A) (A) (A) (A) (A)
                 (A) (A) (A) (A) (A) (A) (A) (A)
       Virtual   (A) (A) (A) (A) (A) (A) (A) (A) (A) (A) (A) (A)
                 (A) (A) (A) (A) (A) (A) (A) (A) (A) (A) (A) (A)
                 (A) (A) (A) (A) (A) (A) (A) (A) (A) (A) (A) (A)
                 (A) (A) (A) (A) (A) (A) (A) (A) (A) (A) (A) (A)
                 (A) (A) (A) (A) (A) (A) (A) (A) (A) (A) (A) (A)
                 (A) (A) (A) (A) (A) (A) (A) (A) (A) (A) (A) (A)
                 (A) (A) (A) (A) (A) (A) (A) (A) (A) (A) (A) (A)
                 (A) (A) (A) (A) (A) (A) (A) (A) (A) (A) (A) (A)
                 (A) (A) (A) (A) (A) (A) (A) (A) (A) (A) (A) (A)
                 (A) (A) (A) (A) (A) (A) (A) (A) (A) (A) (A) (A)
                 (A) (A) (A) (A) (A) (A) (A) (A) (A) (A) (A) (A)
                 (A) (A) (A) (A) (A) (A) (A) (A) (A) (A) (A) (A)
                 (A) (A) (A) (A) (A) (A) (A) (A) (A) (A) (A) (A)
                 (A) (A) (A) (A) (A) (A) (A) (A) (A) (A) (A) (A)
                 (A) (A) (A) (A) (A) (A) (A) (A) (A) (A) (A) (A)
                 (A) (A) (A) (A) (A) (A) (A) (A) (A) (A) (A) (A)
                 (A) (A) (A) (A) (A) (A) (A) (A) (A) (A) (A) (A)
                 (A) (A) (A) (A) (A) (A) (A) (A) (A) (A) (A) (A)
                 (A) (A) (A) (A) (A) (A) (A) (A) (A) (A) (A) (A)
                 (A) (A) (A) (A) (A) (A) (A) (A) (A) (A) (A) (A)
                 (A) (A) (A) (A) (A) (A) (A) (A) (A) (A) (A) (A)
                 (A) (A) (A) (A) (A) (A) (A) (A) (A) (A) (A) (A)
                 (A) (A) (A) (A) (A) (A) (A) (A) (A) (A) (A) (A)
                 (A) (A) (A) (A) (A) (A) (A)
 The electronic state of the initial guess is 1-A.
 Requested convergence on RMS density matrix=1.00D-08 within 128 cycles.
 Requested convergence on MAX density matrix=1.00D-06.
 Requested convergence on             energy=1.00D-06.
 No special actions if energy rises.
 Error on total polarization charges =  0.01607
 SCF Done:  E(RmPW1PW91) =  -4341.94269525     A.U. after   14 cycles
             Convg  =    0.4821D-08             -V/T =  2.0056
 Range of M.O.s used for correlation:     1   363
 NBasis=   363 NAE=    80 NBE=    80 NFC=     0 NFV=     0
 NROrb=    363 NOA=    80 NOB=    80 NVA=   283 NVB=   283

 **** Warning!!: The largest alpha MO coefficient is  0.16709409D+03

 NEqPCM:  Using equilibrium solvation (IEInf=0, Eps=   4.7113, EpsInf=   2.0906)
          Differentiating once with respect to magnetic field using GIAOs.
          Electric field/nuclear overlap derivatives assumed to be zero.
 FoFCou: FMM=F IPFlag=           0 FMFlag=    10101102 FMFlg1=           0
         NFxFlg=    40000000 DoJE=F BraDBF=F KetDBF=T FulRan=T
         Omega=  0.000000  0.000000  1.000000  0.000000  0.000000 ICntrl=    6100 IOpCl=  0
         NMat0=    1 NMatS0=    1 NMatT0=    0 NMatD0=    1 NMtDS0=    0 NMtDT0=    0
         I1Cent=           7 NGrid=        2113.
 Symmetry not used in FoFCou.
          There are     3 degrees of freedom in the 1st order CPHF.  IDoFFX=0.
      3 vectors produced by pass  0 Test12= 7.55D-13 3.33D-08 XBig12= 7.92D+01 1.53D+00.
 AX will form     3 AO Fock derivatives at one time.
      3 vectors produced by pass  1 Test12= 7.55D-13 3.33D-08 XBig12= 2.70D-01 1.40D-01.
      3 vectors produced by pass  2 Test12= 7.55D-13 3.33D-08 XBig12= 1.18D-03 1.29D-02.
      3 vectors produced by pass  3 Test12= 7.55D-13 3.33D-08 XBig12= 8.29D-06 1.14D-03.
      3 vectors produced by pass  4 Test12= 7.55D-13 3.33D-08 XBig12= 3.36D-08 3.30D-05.
      3 vectors produced by pass  5 Test12= 7.55D-13 3.33D-08 XBig12= 1.12D-10 2.04D-06.
      3 vectors produced by pass  6 Test12= 7.55D-13 3.33D-08 XBig12= 4.95D-13 1.43D-07.
 Inverted reduced A of dimension    21 with in-core refinement.
 Calculating GIAO nuclear magnetic shielding tensors.
 SCF GIAO Magnetic shielding tensor (ppm):
      1  C    Isotropic =   132.3081   Anisotropy =    36.2958
   XX=   133.5026   YX=   -10.3663   ZX=     1.0014
   XY=   -16.5688   YY=   128.4384   ZY=    25.7017
   XZ=     0.2682   YZ=    16.7071   ZZ=   134.9833
   Eigenvalues:   105.9247   134.4943   156.5053
      2  C    Isotropic =   130.3247   Anisotropy =    53.3340
   XX=   103.1429   YX=   -32.1228   ZX=   -21.4746
   XY=   -27.0467   YY=   141.5635   ZY=     7.7848
   XZ=   -17.0770   YZ=    -2.1383   ZZ=   146.2678
   Eigenvalues:    83.1141   141.9795   165.8807
      3  C    Isotropic =   131.2213   Anisotropy =    49.1102
   XX=   130.0905   YX=    18.3011   ZX=    -2.1463
   XY=    10.6193   YY=   117.0416   ZY=    26.2668
   XZ=   -10.1111   YZ=    30.5416   ZZ=   146.5319
   Eigenvalues:    93.2203   136.4823   163.9615
      4  C    Isotropic =   152.7951   Anisotropy =     5.5846
   XX=   150.1210   YX=    -2.2522   ZX=     1.0272
   XY=    -1.8329   YY=   152.1083   ZY=    -0.5175
   XZ=    -3.2365   YZ=     1.4176   ZZ=   156.1559
   Eigenvalues:   148.7754   153.0917   156.5181
      5  C    Isotropic =    58.4149   Anisotropy =   151.5705
   XX=    55.6921   YX=    23.6745   ZX=    -3.9602
   XY=    19.3736   YY=    26.6267   ZY=    92.3042
   XZ=    13.4226   YZ=    90.2714   ZZ=    92.9257
   Eigenvalues:   -39.7081    55.4908   159.4619
      6  C    Isotropic =   155.8220   Anisotropy =     6.0789
   XX=   159.7258   YX=    -0.7974   ZX=    -1.4913
   XY=     2.2261   YY=   156.2560   ZY=    -0.4651
   XZ=     2.1141   YZ=    -4.9572   ZZ=   151.4843
   Eigenvalues:   150.2234   157.3680   159.8746
      7  H    Isotropic =    26.9980   Anisotropy =     7.5337
   XX=    30.5063   YX=    -2.2796   ZX=    -0.7592
   XY=    -2.7806   YY=    25.6073   ZY=     1.3819
   XZ=    -0.7038   YZ=     3.8760   ZZ=    24.8803
   Eigenvalues:    22.4149    26.5585    32.0204
      8  H    Isotropic =    28.9466   Anisotropy =     7.8773
   XX=    29.0211   YX=    -1.8808   ZX=     1.4759
   XY=    -1.2528   YY=    28.8615   ZY=    -3.4885
   XZ=     2.4336   YZ=    -4.6867   ZZ=    28.9572
   Eigenvalues:    24.8020    27.8397    34.1981
      9  H    Isotropic =    26.9000   Anisotropy =     8.2942
   XX=    26.4395   YX=     0.7872   ZX=    -3.8295
   XY=     0.7394   YY=    24.9367   ZY=     1.3888
   XZ=    -4.7539   YZ=    -1.2492   ZZ=    29.3237
   Eigenvalues:    23.1127    25.1578    32.4294
     10  H    Isotropic =    27.1937   Anisotropy =     8.4751
   XX=    26.8650   YX=    -0.8901   ZX=     0.3974
   XY=     0.5860   YY=    25.4514   ZY=     4.7371
   XZ=     1.9638   YZ=     5.2671   ZZ=    29.2647
   Eigenvalues:    21.8763    26.8610    32.8438
     11  H    Isotropic =    28.8481   Anisotropy =     8.7190
   XX=    25.1182   YX=     0.3893   ZX=    -1.0395
   XY=     1.3777   YY=    26.8891   ZY=     1.1091
   XZ=    -0.5235   YZ=     0.3919   ZZ=    34.5370
   Eigenvalues:    24.6492    27.2343    34.6608
     12  Cl   Isotropic =   716.7645   Anisotropy =   486.8098
   XX=   628.0852   YX=  -126.7118   ZX=    51.9020
   XY=  -130.0998   YY=   865.3336   ZY=   219.2851
   XZ=    34.7505   YZ=   262.3545   ZZ=   656.8747
   Eigenvalues:   435.6392   673.3500  1041.3043
     13  Br   Isotropic =  2458.0268   Anisotropy =   943.2599
   XX=  2427.4172   YX=  -277.4957   ZX=  -415.4918
   XY=  -311.0068   YY=  2380.3906   ZY=   227.6251
   XZ=  -391.8693   YZ=   205.3485   ZZ=  2566.2725
   Eigenvalues:  2047.8503  2239.3633  3086.8667
     14  C    Isotropic =   166.5045   Anisotropy =    44.0125
   XX=   157.9221   YX=    -7.6383   ZX=    -5.4068
   XY=    -7.5025   YY=   164.9362   ZY=    22.6803
   XZ=    -5.8860   YZ=    21.5187   ZZ=   176.6554
   Eigenvalues:   147.2015   156.4659   195.8462
     15  H    Isotropic =    30.6303   Anisotropy =     7.3566
   XX=    29.0689   YX=     1.0015   ZX=    -3.7449
   XY=     0.4965   YY=    29.7359   ZY=     2.1175
   XZ=    -3.7663   YZ=     1.2233   ZZ=    33.0861
   Eigenvalues:    26.1655    30.1907    35.5347
     16  H    Isotropic =    30.6475   Anisotropy =    10.0225
   XX=    29.5800   YX=    -4.3497   ZX=    -0.3137
   XY=    -3.8912   YY=    34.5651   ZY=     0.8258
   XZ=    -0.9255   YZ=     3.1775   ZZ=    27.7974
   Eigenvalues:    26.8702    27.7430    37.3292
     17  H    Isotropic =    30.7626   Anisotropy =    10.8221
   XX=    29.2632   YX=     1.5126   ZX=     1.7374
   XY=     2.5870   YY=    31.0185   ZY=     4.8088
   XZ=     3.6967   YZ=     5.4346   ZZ=    32.0061
   Eigenvalues:    26.3148    27.9957    37.9773
     18  C    Isotropic =   165.9642   Anisotropy =    35.0789
   XX=   159.8495   YX=     4.2973   ZX=   -12.2498
   XY=    10.0116   YY=   174.0413   ZY=   -18.4415
   XZ=    -9.9253   YZ=   -10.0927   ZZ=   164.0019
   Eigenvalues:   149.7178   158.8247   189.3502
     19  H    Isotropic =    30.4313   Anisotropy =    10.3185
   XX=    31.8121   YX=     4.9594   ZX=     0.6722
   XY=     5.1005   YY=    32.6599   ZY=     0.3258
   XZ=     0.3017   YZ=     0.2137   ZZ=    26.8220
   Eigenvalues:    26.7283    27.2554    37.3104
     20  H    Isotropic =    30.6230   Anisotropy =    10.3785
   XX=    28.3770   YX=    -1.3544   ZX=     0.6744
   XY=    -1.9319   YY=    35.0986   ZY=    -4.2698
   XZ=     1.2905   YZ=    -4.1944   ZZ=    28.3935
   Eigenvalues:    26.3302    27.9968    37.5420
     21  H    Isotropic =    29.3254   Anisotropy =     4.3625
   XX=    27.8894   YX=    -1.0606   ZX=    -3.1548
   XY=    -0.0691   YY=    29.9817   ZY=    -1.4596
   XZ=    -2.8666   YZ=     0.0700   ZZ=    30.1051
   Eigenvalues:    25.6190    30.1235    32.2338
     22  Cl   Isotropic =   772.3132   Anisotropy =   411.6895
   XX=   630.7960   YX=    38.5135   ZX=   -83.5818
   XY=    48.6208   YY=   673.8119   ZY=   122.1738
   XZ=   -56.4911   YZ=    75.1881   ZZ=  1012.3316
   Eigenvalues:   574.1387   696.0279  1046.7729
     23  C    Isotropic =    62.5580   Anisotropy =   123.2501
   XX=    74.2882   YX=    17.3980   ZX=    17.2814
   XY=    13.3421   YY=    32.1038   ZY=    79.5142
   XZ=     6.0570   YZ=    79.3561   ZZ=    81.2820
   Eigenvalues:   -26.7606    69.7098   144.7248
     24  H    Isotropic =    25.3566   Anisotropy =     8.1020
   XX=    30.4170   YX=    -1.3284   ZX=     0.0623
   XY=    -1.9764   YY=    22.1503   ZY=    -0.2086
   XZ=     0.5495   YZ=    -0.9097   ZZ=    23.5024
   Eigenvalues:    21.6972    23.6146    30.7579
     25  C    Isotropic =   150.4963   Anisotropy =    48.1984
   XX=   155.3443   YX=     8.4684   ZX=    23.4558
   XY=     9.8830   YY=   155.5329   ZY=    10.1466
   XZ=    27.1656   YZ=    15.0229   ZZ=   140.6118
   Eigenvalues:   120.9348   147.9256   182.6286
     26  H    Isotropic =    27.4821   Anisotropy =     8.6924
   XX=    28.4604   YX=    -0.4036   ZX=     0.2655
   XY=    -1.6700   YY=    26.2614   ZY=     6.1938
   XZ=    -1.5292   YZ=     5.7246   ZZ=    27.7246
   Eigenvalues:    20.9717    28.1977    33.2771
     27  H    Isotropic =    27.2225   Anisotropy =     9.5698
   XX=    31.5859   YX=     2.9082   ZX=     1.0030
   XY=     3.7541   YY=    27.9762   ZY=    -3.1151
   XZ=     0.3591   YZ=    -1.4917   ZZ=    22.1053
   Eigenvalues:    20.9936    27.0715    33.6023
     28  Cl   Isotropic =   842.6441   Anisotropy =   404.5478
   XX=   937.0274   YX=   102.4213   ZX=   182.6672
   XY=   120.6695   YY=   822.1659   ZY=   101.4030
   XZ=   162.1224   YZ=    69.9110   ZZ=   768.7390
   Eigenvalues:   659.4083   756.1814  1112.3426
 End of Minotr Frequency-dependent properties file   721 does not exist.
 End of Minotr Frequency-dependent properties file   722 does not exist.

 **********************************************************************

            Population analysis using the SCF density.

 **********************************************************************

 Orbital symmetries:
       Occupied  (A) (A) (A) (A) (A) (A) (A) (A) (A) (A) (A) (A)
                 (A) (A) (A) (A) (A) (A) (A) (A) (A) (A) (A) (A)
                 (A) (A) (A) (A) (A) (A) (A) (A) (A) (A) (A) (A)
                 (A) (A) (A) (A) (A) (A) (A) (A) (A) (A) (A) (A)
                 (A) (A) (A) (A) (A) (A) (A) (A) (A) (A) (A) (A)
                 (A) (A) (A) (A) (A) (A) (A) (A) (A) (A) (A) (A)
                 (A) (A) (A) (A) (A) (A) (A) (A)
       Virtual   (A) (A) (A) (A) (A) (A) (A) (A) (A) (A) (A) (A)
                 (A) (A) (A) (A) (A) (A) (A) (A) (A) (A) (A) (A)
                 (A) (A) (A) (A) (A) (A) (A) (A) (A) (A) (A) (A)
                 (A) (A) (A) (A) (A) (A) (A) (A) (A) (A) (A) (A)
                 (A) (A) (A) (A) (A) (A) (A) (A) (A) (A) (A) (A)
                 (A) (A) (A) (A) (A) (A) (A) (A) (A) (A) (A) (A)
                 (A) (A) (A) (A) (A) (A) (A) (A) (A) (A) (A) (A)
                 (A) (A) (A) (A) (A) (A) (A) (A) (A) (A) (A) (A)
                 (A) (A) (A) (A) (A) (A) (A) (A) (A) (A) (A) (A)
                 (A) (A) (A) (A) (A) (A) (A) (A) (A) (A) (A) (A)
                 (A) (A) (A) (A) (A) (A) (A) (A) (A) (A) (A) (A)
                 (A) (A) (A) (A) (A) (A) (A) (A) (A) (A) (A) (A)
                 (A) (A) (A) (A) (A) (A) (A) (A) (A) (A) (A) (A)
                 (A) (A) (A) (A) (A) (A) (A) (A) (A) (A) (A) (A)
                 (A) (A) (A) (A) (A) (A) (A) (A) (A) (A) (A) (A)
                 (A) (A) (A) (A) (A) (A) (A) (A) (A) (A) (A) (A)
                 (A) (A) (A) (A) (A) (A) (A) (A) (A) (A) (A) (A)
                 (A) (A) (A) (A) (A) (A) (A) (A) (A) (A) (A) (A)
                 (A) (A) (A) (A) (A) (A) (A) (A) (A) (A) (A) (A)
                 (A) (A) (A) (A) (A) (A) (A) (A) (A) (A) (A) (A)
                 (A) (A) (A) (A) (A) (A) (A) (A) (A) (A) (A) (A)
                 (A) (A) (A) (A) (A) (A) (A) (A) (A) (A) (A) (A)
                 (A) (A) (A) (A) (A) (A) (A) (A) (A) (A) (A) (A)
                 (A) (A) (A) (A) (A) (A) (A)
 The electronic state is 1-A.
 Alpha  occ. eigenvalues -- -483.40712-101.76264-101.75497-101.75263 -62.04664
 Alpha  occ. eigenvalues --  -56.53201 -56.52852 -56.52835 -10.33563 -10.33519
 Alpha  occ. eigenvalues --  -10.32798 -10.32658 -10.30342 -10.30042 -10.29109
 Alpha  occ. eigenvalues --  -10.28073 -10.25995 -10.24631  -9.54065  -9.53203
 Alpha  occ. eigenvalues --   -9.53011  -8.66453  -7.28050  -7.27188  -7.27090
 Alpha  occ. eigenvalues --   -7.27068  -7.26989  -7.26237  -7.26221  -7.26046
 Alpha  occ. eigenvalues --   -7.26026  -6.59935  -6.58751  -6.58724  -2.68665
 Alpha  occ. eigenvalues --   -2.68335  -2.68314  -2.67350  -2.67348  -0.93474
 Alpha  occ. eigenvalues --   -0.89517  -0.88316  -0.86232  -0.82695  -0.80949
 Alpha  occ. eigenvalues --   -0.77733  -0.73711  -0.72314  -0.70606  -0.67740
 Alpha  occ. eigenvalues --   -0.63746  -0.59930  -0.55119  -0.53021  -0.50673
 Alpha  occ. eigenvalues --   -0.49914  -0.48556  -0.47529  -0.47032  -0.45402
 Alpha  occ. eigenvalues --   -0.44245  -0.43679  -0.42537  -0.42296  -0.41059
 Alpha  occ. eigenvalues --   -0.40300  -0.39593  -0.38198  -0.37557  -0.35952
 Alpha  occ. eigenvalues --   -0.35050  -0.33652  -0.32892  -0.32672  -0.32315
 Alpha  occ. eigenvalues --   -0.31851  -0.30241  -0.29010  -0.28525  -0.27812
 Alpha virt. eigenvalues --   -0.05817  -0.01515  -0.00504   0.00554   0.01021
 Alpha virt. eigenvalues --    0.01504   0.01876   0.02647   0.03296   0.03598
 Alpha virt. eigenvalues --    0.03966   0.04992   0.05265   0.05951   0.06348
 Alpha virt. eigenvalues --    0.06536   0.07153   0.07482   0.08234   0.08366
 Alpha virt. eigenvalues --    0.08597   0.09306   0.09725   0.09948   0.10338
 Alpha virt. eigenvalues --    0.10835   0.10953   0.11944   0.12331   0.12785
 Alpha virt. eigenvalues --    0.13016   0.13093   0.13281   0.13829   0.14433
 Alpha virt. eigenvalues --    0.14764   0.15963   0.16043   0.16223   0.16372
 Alpha virt. eigenvalues --    0.16970   0.17353   0.17796   0.18121   0.18520
 Alpha virt. eigenvalues --    0.18871   0.18930   0.19366   0.20051   0.20223
 Alpha virt. eigenvalues --    0.20970   0.21318   0.21600   0.21982   0.22343
 Alpha virt. eigenvalues --    0.22958   0.23126   0.23807   0.24204   0.24602
 Alpha virt. eigenvalues --    0.24628   0.25913   0.26328   0.26701   0.27639
 Alpha virt. eigenvalues --    0.27923   0.28144   0.28479   0.29385   0.29775
 Alpha virt. eigenvalues --    0.30138   0.31558   0.31943   0.32522   0.32909
 Alpha virt. eigenvalues --    0.33400   0.35303   0.36647   0.38477   0.39814
 Alpha virt. eigenvalues --    0.41037   0.43020   0.44956   0.47469   0.48695
 Alpha virt. eigenvalues --    0.50086   0.52975   0.54353   0.54902   0.58370
 Alpha virt. eigenvalues --    0.58936   0.59280   0.60571   0.61474   0.62540
 Alpha virt. eigenvalues --    0.63284   0.64244   0.64493   0.64803   0.65184
 Alpha virt. eigenvalues --    0.65720   0.66280   0.66553   0.67104   0.68265
 Alpha virt. eigenvalues --    0.69494   0.70860   0.71645   0.72536   0.73060
 Alpha virt. eigenvalues --    0.74357   0.74980   0.75573   0.76583   0.77261
 Alpha virt. eigenvalues --    0.77331   0.77955   0.78914   0.79778   0.80143
 Alpha virt. eigenvalues --    0.82036   0.83228   0.83811   0.84634   0.85881
 Alpha virt. eigenvalues --    0.86946   0.87365   0.88102   0.89031   0.89731
 Alpha virt. eigenvalues --    0.90539   0.90809   0.92763   0.94359   0.95618
 Alpha virt. eigenvalues --    0.96943   0.98025   0.99053   0.99640   1.00359
 Alpha virt. eigenvalues --    1.01287   1.01974   1.02568   1.03662   1.04850
 Alpha virt. eigenvalues --    1.05044   1.05571   1.07204   1.07923   1.09418
 Alpha virt. eigenvalues --    1.10062   1.10805   1.11841   1.12423   1.14343
 Alpha virt. eigenvalues --    1.15809   1.15907   1.17141   1.18572   1.19114
 Alpha virt. eigenvalues --    1.22166   1.24570   1.25479   1.26224   1.28564
 Alpha virt. eigenvalues --    1.30715   1.31686   1.36372   1.37356   1.38071
 Alpha virt. eigenvalues --    1.41410   1.44807   1.46517   1.49721   1.54940
 Alpha virt. eigenvalues --    1.55660   1.59563   1.62726   1.66574   1.70352
 Alpha virt. eigenvalues --    1.71216   1.72583   1.74626   1.80499   1.81448
 Alpha virt. eigenvalues --    1.82088   1.84319   1.85125   1.86813   1.87691
 Alpha virt. eigenvalues --    1.88614   1.90168   1.91050   1.92856   1.96153
 Alpha virt. eigenvalues --    1.96775   1.99515   2.00939   2.02561   2.03282
 Alpha virt. eigenvalues --    2.04926   2.05410   2.09255   2.09758   2.11574
 Alpha virt. eigenvalues --    2.12193   2.13459   2.14547   2.15387   2.17011
 Alpha virt. eigenvalues --    2.18218   2.18686   2.19842   2.21678   2.23681
 Alpha virt. eigenvalues --    2.25363   2.25541   2.30405   2.31822   2.34047
 Alpha virt. eigenvalues --    2.38915   2.41556   2.42596   2.46610   2.47719
 Alpha virt. eigenvalues --    2.50902   2.51734   2.54692   2.55636   2.56639
 Alpha virt. eigenvalues --    2.56720   2.60565   2.62185   2.62360   2.64887
 Alpha virt. eigenvalues --    2.68145   2.69077   2.70577   2.73711   2.75459
 Alpha virt. eigenvalues --    2.76170   2.78589   2.80415   2.81378   2.83766
 Alpha virt. eigenvalues --    2.85070   2.88132   2.89296   2.90619   2.91757
 Alpha virt. eigenvalues --    2.96552   2.98401   3.01323   3.09226   3.29832
 Alpha virt. eigenvalues --    3.31679   3.32457   3.35883   3.41758   3.45244
 Alpha virt. eigenvalues --    3.46521   3.47393   3.48242   3.49236   3.51006
 Alpha virt. eigenvalues --    3.51924   3.54611   3.56074   4.29452   4.34468
 Alpha virt. eigenvalues --    4.37054   4.41934   4.42934   4.50265   4.51388
 Alpha virt. eigenvalues --    4.55502   4.62022   4.66066   4.73701   4.77386
 Alpha virt. eigenvalues --    4.80306   9.11069  82.11612
          Condensed to atoms (all electrons):
              1          2          3          4          5          6
     1  C   10.229385   2.015749   0.445125  -1.827397  -0.815099  -2.300730
     2  C    2.015749  10.195254   1.690301  -3.803592   0.432861  -2.895560
     3  C    0.445125   1.690301  15.150496  -4.344294  -2.275477  -0.687057
     4  C   -1.827397  -3.803592  -4.344294  13.030852  -0.165393   2.126921
     5  C   -0.815099   0.432861  -2.275477  -0.165393  16.496772  -0.724945
     6  C   -2.300730  -2.895560  -0.687057   2.126921  -0.724945   8.814665
     7  H    0.003765   0.011544   0.136330  -0.021657   0.078668  -0.001019
     8  H   -0.170436  -0.112874   0.025004   0.034710   0.073984   0.485369
     9  H    0.215484   0.013571  -0.001958  -0.013696  -0.155045   0.020566
    10  H    0.055540   0.294446   0.075875  -0.053223  -0.051914  -0.017945
    11  H    0.043124   0.061177  -0.026763  -0.020600   0.016902   0.249881
    12  Cl  -0.177583  -0.120472  -0.225536   0.073157   0.165923   0.090784
    13  Br   0.304490   0.533401   0.089602  -0.190765  -0.158048  -0.380980
    14  C    0.310801   0.168922   0.192794  -0.838031  -0.074768  -0.137099
    15  H    0.004837  -0.019033  -0.014090  -0.032949  -0.041964  -0.005666
    16  H    0.000659   0.029459  -0.030007  -0.105352   0.043077  -0.000448
    17  H   -0.001636   0.001172   0.076122  -0.170866  -0.013040   0.009900
    18  C   -0.294767  -0.417990   0.038689  -0.137788  -0.386832   0.265789
    19  H    0.002062  -0.001710   0.083242  -0.155355  -0.026341   0.006323
    20  H   -0.003725   0.029616  -0.025772  -0.096421   0.006021  -0.004246
    21  H   -0.000041  -0.041422  -0.065085  -0.011452   0.019852   0.002055
    22  Cl  -0.278852  -0.240833  -1.120523   0.450878   0.596150   0.077529
    23  C   -1.379312  -1.677910  -2.477060   2.248367  -8.021635   1.445925
    24  H   -0.029614  -0.001947   0.021325   0.003953  -0.024868   0.020602
    25  C   -0.166377   0.175193  -0.582980  -0.194961   1.072375  -0.244922
    26  H    0.007846   0.000762   0.019969   0.004715   0.089489  -0.000319
    27  H   -0.003467   0.000886  -0.043742  -0.005911   0.040098   0.000298
    28  Cl  -0.024309   0.001981  -0.006265   0.004351   0.186909  -0.003714
              7          8          9         10         11         12
     1  C    0.003765  -0.170436   0.215484   0.055540   0.043124  -0.177583
     2  C    0.011544  -0.112874   0.013571   0.294446   0.061177  -0.120472
     3  C    0.136330   0.025004  -0.001958   0.075875  -0.026763  -0.225536
     4  C   -0.021657   0.034710  -0.013696  -0.053223  -0.020600   0.073157
     5  C    0.078668   0.073984  -0.155045  -0.051914   0.016902   0.165923
     6  C   -0.001019   0.485369   0.020566  -0.017945   0.249881   0.090784
     7  H    0.557417   0.000009  -0.000082  -0.000148  -0.000002  -0.001213
     8  H    0.000009   0.481063  -0.001245  -0.002109  -0.019837   0.012328
     9  H   -0.000082  -0.001245   0.520725  -0.000128  -0.005272  -0.022156
    10  H   -0.000148  -0.002109  -0.000128   0.521207  -0.005239  -0.001865
    11  H   -0.000002  -0.019837  -0.005272  -0.005239   0.502479   0.007278
    12  Cl  -0.001213   0.012328  -0.022156  -0.001865   0.007278  17.079113
    13  Br  -0.002603  -0.003633  -0.003357  -0.019695   0.006011  -0.020108
    14  C    0.027355  -0.001133   0.003017   0.034643  -0.009188  -0.026806
    15  H   -0.000738   0.000046   0.000012  -0.000096  -0.002326  -0.001059
    16  H    0.004615   0.000000   0.000000   0.000121   0.000059   0.000057
    17  H    0.000115  -0.000007   0.000001   0.003971   0.000160   0.000174
    18  C   -0.043659  -0.001466   0.000382  -0.046210   0.006600   0.019159
    19  H   -0.000065  -0.000002   0.000000   0.002697   0.000005  -0.000127
    20  H    0.003553   0.000002   0.000000  -0.000043   0.000000  -0.000072
    21  H    0.000015  -0.000003   0.000000  -0.000092  -0.000002   0.000322
    22  Cl  -0.021864   0.001324  -0.002785  -0.005854  -0.001363   0.032439
    23  C    0.071852  -0.010745   0.191902   0.001044  -0.014721   0.208070
    24  H    0.000167  -0.000007   0.004051   0.000000  -0.000025   0.006571
    25  C   -0.005509  -0.000006   0.011025  -0.000300   0.003978  -0.003833
    26  H   -0.000388   0.000000  -0.000008   0.000000   0.000001  -0.000620
    27  H    0.008144   0.000000   0.000000   0.000000   0.000000   0.000146
    28  Cl   0.000908  -0.000006   0.000160  -0.000007   0.000011  -0.001166
             13         14         15         16         17         18
     1  C    0.304490   0.310801   0.004837   0.000659  -0.001636  -0.294767
     2  C    0.533401   0.168922  -0.019033   0.029459   0.001172  -0.417990
     3  C    0.089602   0.192794  -0.014090  -0.030007   0.076122   0.038689
     4  C   -0.190765  -0.838031  -0.032949  -0.105352  -0.170866  -0.137788
     5  C   -0.158048  -0.074768  -0.041964   0.043077  -0.013040  -0.386832
     6  C   -0.380980  -0.137099  -0.005666  -0.000448   0.009900   0.265789
     7  H   -0.002603   0.027355  -0.000738   0.004615   0.000115  -0.043659
     8  H   -0.003633  -0.001133   0.000046   0.000000  -0.000007  -0.001466
     9  H   -0.003357   0.003017   0.000012   0.000000   0.000001   0.000382
    10  H   -0.019695   0.034643  -0.000096   0.000121   0.003971  -0.046210
    11  H    0.006011  -0.009188  -0.002326   0.000059   0.000160   0.006600
    12  Cl  -0.020108  -0.026806  -0.001059   0.000057   0.000174   0.019159
    13  Br  35.167293   0.035249   0.000728  -0.002208   0.001888  -0.084363
    14  C    0.035249   6.387033   0.409936   0.446503   0.478642  -0.602862
    15  H    0.000728   0.409936   0.508805  -0.024555  -0.023313   0.019489
    16  H   -0.002208   0.446503  -0.024555   0.503849  -0.020594  -0.038694
    17  H    0.001888   0.478642  -0.023313  -0.020594   0.499792  -0.021016
    18  C   -0.084363  -0.602862   0.019489  -0.038694  -0.021016   6.599558
    19  H    0.002169   0.002046   0.000103  -0.000103   0.002255   0.444729
    20  H    0.000061  -0.011507   0.000051   0.002741   0.000075   0.441334
    21  H    0.003405  -0.000898  -0.000149   0.000108   0.000011   0.445677
    22  Cl  -0.053244  -0.105665  -0.001163   0.003330  -0.003601   0.093508
    23  C   -0.035104  -0.104020   0.036224  -0.003878  -0.009632   0.177562
    24  H    0.000152  -0.000637   0.000032   0.000001   0.000000   0.000580
    25  C    0.001336  -0.011382  -0.002014   0.003654  -0.000651  -0.029351
    26  H   -0.000085   0.000823   0.000018  -0.000019   0.000000  -0.000048
    27  H    0.000238   0.005893   0.000020  -0.000003   0.000001  -0.002014
    28  Cl  -0.000539  -0.003102   0.000130  -0.000109  -0.000006   0.002413
             19         20         21         22         23         24
     1  C    0.002062  -0.003725  -0.000041  -0.278852  -1.379312  -0.029614
     2  C   -0.001710   0.029616  -0.041422  -0.240833  -1.677910  -0.001947
     3  C    0.083242  -0.025772  -0.065085  -1.120523  -2.477060   0.021325
     4  C   -0.155355  -0.096421  -0.011452   0.450878   2.248367   0.003953
     5  C   -0.026341   0.006021   0.019852   0.596150  -8.021635  -0.024868
     6  C    0.006323  -0.004246   0.002055   0.077529   1.445925   0.020602
     7  H   -0.000065   0.003553   0.000015  -0.021864   0.071852   0.000167
     8  H   -0.000002   0.000002  -0.000003   0.001324  -0.010745  -0.000007
     9  H    0.000000   0.000000   0.000000  -0.002785   0.191902   0.004051
    10  H    0.002697  -0.000043  -0.000092  -0.005854   0.001044   0.000000
    11  H    0.000005   0.000000  -0.000002  -0.001363  -0.014721  -0.000025
    12  Cl  -0.000127  -0.000072   0.000322   0.032439   0.208070   0.006571
    13  Br   0.002169   0.000061   0.003405  -0.053244  -0.035104   0.000152
    14  C    0.002046  -0.011507  -0.000898  -0.105665  -0.104020  -0.000637
    15  H    0.000103   0.000051  -0.000149  -0.001163   0.036224   0.000032
    16  H   -0.000103   0.002741   0.000108   0.003330  -0.003878   0.000001
    17  H    0.002255   0.000075   0.000011  -0.003601  -0.009632   0.000000
    18  C    0.444729   0.441334   0.445677   0.093508   0.177562   0.000580
    19  H    0.515101  -0.025325  -0.024116  -0.006236  -0.000089   0.000000
    20  H   -0.025325   0.517642  -0.023008   0.006743   0.004525   0.000000
    21  H   -0.024116  -0.023008   0.485643   0.010744  -0.001322   0.000000
    22  Cl  -0.006236   0.006743   0.010744  17.367590   0.211011  -0.001367
    23  C   -0.000089   0.004525  -0.001322   0.211011  16.230767   0.363339
    24  H    0.000000   0.000000   0.000000  -0.001367   0.363339   0.500041
    25  C   -0.000118   0.001071   0.000044   0.102037  -1.157690  -0.070351
    26  H    0.000000   0.000000   0.000000  -0.004216  -0.140394  -0.002079
    27  H    0.000000  -0.000001   0.000001   0.008715  -0.040564   0.003417
    28  Cl   0.000000   0.000010  -0.000006   0.003132  -0.265401   0.017523
             25         26         27         28
     1  C   -0.166377   0.007846  -0.003467  -0.024309
     2  C    0.175193   0.000762   0.000886   0.001981
     3  C   -0.582980   0.019969  -0.043742  -0.006265
     4  C   -0.194961   0.004715  -0.005911   0.004351
     5  C    1.072375   0.089489   0.040098   0.186909
     6  C   -0.244922  -0.000319   0.000298  -0.003714
     7  H   -0.005509  -0.000388   0.008144   0.000908
     8  H   -0.000006   0.000000   0.000000  -0.000006
     9  H    0.011025  -0.000008   0.000000   0.000160
    10  H   -0.000300   0.000000   0.000000  -0.000007
    11  H    0.003978   0.000001   0.000000   0.000011
    12  Cl  -0.003833  -0.000620   0.000146  -0.001166
    13  Br   0.001336  -0.000085   0.000238  -0.000539
    14  C   -0.011382   0.000823   0.005893  -0.003102
    15  H   -0.002014   0.000018   0.000020   0.000130
    16  H    0.003654  -0.000019  -0.000003  -0.000109
    17  H   -0.000651   0.000000   0.000001  -0.000006
    18  C   -0.029351  -0.000048  -0.002014   0.002413
    19  H   -0.000118   0.000000   0.000000   0.000000
    20  H    0.001071   0.000000  -0.000001   0.000010
    21  H    0.000044   0.000000   0.000001  -0.000006
    22  Cl   0.102037  -0.004216   0.008715   0.003132
    23  C   -1.157690  -0.140394  -0.040564  -0.265401
    24  H   -0.070351  -0.002079   0.003417   0.017523
    25  C    6.562703   0.357324   0.361200   0.275345
    26  H    0.357324   0.487771  -0.025485  -0.037954
    27  H    0.361200  -0.025485   0.501161  -0.027209
    28  Cl   0.275345  -0.037954  -0.027209  16.975591
 Mulliken atomic charges:
              1
     1  C   -0.165521
     2  C   -0.322953
     3  C   -0.118263
     4  C    0.211800
     5  C   -0.383715
     6  C   -0.211959
     7  H    0.194490
     8  H    0.209670
     9  H    0.224833
    10  H    0.215323
    11  H    0.207673
    12  Cl  -0.092905
    13  Br  -0.191292
    14  C   -0.576556
    15  H    0.188686
    16  H    0.187736
    17  H    0.190083
    18  C   -0.448409
    19  H    0.178853
    20  H    0.176679
    21  H    0.199719
    22  Cl  -0.117565
    23  C    0.148889
    24  H    0.189143
    25  C   -0.456841
    26  H    0.242896
    27  H    0.218179
    28  Cl  -0.098674
 Sum of Mulliken atomic charges =   0.00000
 Mulliken charges with hydrogens summed into heavy atoms:
              1
     1  C    0.059312
     2  C   -0.107630
     3  C    0.076227
     4  C    0.211800
     5  C   -0.383715
     6  C    0.205385
    12  Cl  -0.092905
    13  Br  -0.191292
    14  C   -0.010051
    18  C    0.106842
    22  Cl  -0.117565
    23  C    0.338032
    25  C    0.004234
    28  Cl  -0.098674
 Sum of Mulliken charges with hydrogens summed into heavy atoms =   0.00000
 Electronic spatial extent (au):  <R**2>=           5158.7693
 Charge=              0.0000 electrons
 Dipole moment (field-independent basis, Debye):
    X=             -0.4676    Y=              5.3169    Z=              6.5935  Tot=              8.4831
 Quadrupole moment (field-independent basis, Debye-Ang):
   XX=           -131.6291   YY=           -116.9092   ZZ=           -114.0101
   XY=             -2.0959   XZ=             -3.2770   YZ=              0.1896
 Traceless Quadrupole moment (field-independent basis, Debye-Ang):
   XX=            -10.7797   YY=              3.9403   ZZ=              6.8394
   XY=             -2.0959   XZ=             -3.2770   YZ=              0.1896
 Octapole moment (field-independent basis, Debye-Ang**2):
  XXX=            111.8651  YYY=             11.1404  ZZZ=             -0.4936  XYY=             20.3173
  XXY=             15.0224  XXZ=             22.2905  XZZ=             29.5557  YZZ=            -13.2045
  YYZ=             -3.0319  XYZ=              4.3329
 Hexadecapole moment (field-independent basis, Debye-Ang**3):
 XXXX=          -4375.8736 YYYY=          -1489.0254 ZZZZ=           -907.4889 XXXY=            -73.9816
 XXXZ=           -104.2118 YYYX=            -43.7117 YYYZ=             17.2091 ZZZX=            -34.7364
 ZZZY=              5.3919 XXYY=           -871.7247 XXZZ=           -781.5288 YYZZ=           -388.9436
 XXYZ=             25.0486 YYXZ=             -9.2820 ZZXY=             -6.5036
 N-N= 1.752914748278D+03 E-N=-1.382080065919D+04  KE= 4.317819763537D+03
 1\1\GINC-COMPUTE-9-5\SP\RmPW1PW91\6-31+G(d,p)\C10H14Br1Cl3\LPASSAGLIA.
 IQUIR\20-May-2022\0\\# mPW1PW91/6-31+G** scrf=(PCM,solvent=chloroform)
  nmr\\comment\\0,1\C,0,-0.246847,-1.173855,1.240947\C,0,1.74866,0.4683
 89,0.955037\C,0,-0.491792,0.937617,-0.248575\C,0,0.789392,1.546384,0.3
 92417\C,0,-1.139921,-0.134843,0.598944\C,0,1.05269,-0.592745,1.811367\
 H,0,-1.186002,1.764203,-0.393873\H,0,1.748637,-1.398764,2.054304\H,0,-
 0.792923,-1.655736,2.052891\H,0,2.50491,0.9686,1.56153\H,0,0.782977,-0
 .113804,2.763787\Cl,0,0.084316,-2.575161,0.090813\Br,0,2.884243,-0.414
 315,-0.435049\C,0,0.293484,2.389824,1.604219\H,0,-0.324782,1.81784,2.3
 01659\H,0,-0.304659,3.235755,1.24785\H,0,1.145907,2.799391,2.157154\C,
 0,1.505395,2.508792,-0.568895\H,0,2.324877,3.015521,-0.046032\H,0,0.80
 9221,3.275207,-0.928157\H,0,1.92131,1.987451,-1.430473\Cl,0,-0.247955,
 0.315658,-1.964396\C,0,-2.458024,-0.176744,0.862507\H,0,-2.826058,-0.9
 76078,1.504241\C,0,-3.526957,0.739719,0.364193\H,0,-4.044969,1.234233,
 1.190105\H,0,-3.176304,1.492321,-0.339997\Cl,0,-4.817956,-0.212282,-0.
 511195\\Version=EM64L-G09RevC.01\State=1-A\HF=-4341.9426953\RMSD=4.821
 e-09\Dipole=-0.1839562,2.0918197,2.5940984\Quadrupole=-8.0144157,2.929
 4897,5.084926,-1.558275,-2.4364029,0.1409317\PG=C01 [X(C10H14Br1Cl3)]\
 \@


 I MET A TRAVELLER FROM AN ANTIQUE LAND
 WHO SAID... TWO VAST AND TRUNKLESS LEGS OF STONE
 STAND IN THE DESERT..... NEAR THEM,  ON THE SAND,
 HALF SUNK,  A SHATTERED VISAGE LIES,  WHOSE FROWN,
 AND WRINKLED LIP,  AND SNEER OF COLD COMMAND
 TELL THAT ITS SCULPTOR WELL THOSE PASSIONS READ
 WHICH YET SURVIVE,  STAMPED ON THESE LIFELESS THINGS
 THE HAND THAT MOCKED THEM,  AND THE HEART THAT FED-
 AND ON THE PEDESTAL THESE WORDS APPEAR 
 MY NAME IS OZYMANDIAS, KING OF KINGS--   
 LOOK ON MY WORKS YE MIGHTY AND DESPAIR. 
 NOTHING BESIDE REMAINS,  ROUND THE DECAY 
 OF THAT COLOSSAL WRECK,  BOUNDLESS AND BARE
 THE LONE AND LEVEL SANDS STRETCH FAR AWAY.
                                    SHELLEY
 Job cpu time:  0 days  0 hours 19 minutes 24.8 seconds.
 File lengths (MBytes):  RWF=    153 Int=      0 D2E=      0 Chk=      9 Scr=      1
 Normal termination of Gaussian 09 at Fri May 20 10:34:25 2022.
