 Entering Gaussian System, Link 0=g09
 Input=/home/lpassaglia.iquir/NMR_Tetrahalogenados/04_SRRE_Tetrahalogenado_004.gjc
 Output=/home/lpassaglia.iquir/NMR_Tetrahalogenados/04_SRRE_Tetrahalogenado_004.log
 Initial command:
 /share/apps/Gaussian09/EM64T.SSE4.2-enabled/g09/l1.exe /tmp/Gau-1276.inp -scrdir=/tmp/
 Entering Link 1 = /share/apps/Gaussian09/EM64T.SSE4.2-enabled/g09/l1.exe PID=      1277.
  
 Copyright (c) 1988,1990,1992,1993,1995,1998,2003,2009,2011,
            Gaussian, Inc.  All Rights Reserved.
  
 This is part of the Gaussian(R) 09 program.  It is based on
 the Gaussian(R) 03 system (copyright 2003, Gaussian, Inc.),
 the Gaussian(R) 98 system (copyright 1998, Gaussian, Inc.),
 the Gaussian(R) 94 system (copyright 1995, Gaussian, Inc.),
 the Gaussian 92(TM) system (copyright 1992, Gaussian, Inc.),
 the Gaussian 90(TM) system (copyright 1990, Gaussian, Inc.),
 the Gaussian 88(TM) system (copyright 1988, Gaussian, Inc.),
 the Gaussian 86(TM) system (copyright 1986, Carnegie Mellon
 University), and the Gaussian 82(TM) system (copyright 1983,
 Carnegie Mellon University). Gaussian is a federally registered
 trademark of Gaussian, Inc.
  
 This software contains proprietary and confidential information,
 including trade secrets, belonging to Gaussian, Inc.
  
 This software is provided under written license and may be
 used, copied, transmitted, or stored only in accord with that
 written license.
  
 The following legend is applicable only to US Government
 contracts under FAR:
  
                    RESTRICTED RIGHTS LEGEND
  
 Use, reproduction and disclosure by the US Government is
 subject to restrictions as set forth in subparagraphs (a)
 and (c) of the Commercial Computer Software - Restricted
 Rights clause in FAR 52.227-19.
  
 Gaussian, Inc.
 340 Quinnipiac St., Bldg. 40, Wallingford CT 06492
  
  
 ---------------------------------------------------------------
 Warning -- This program may not be used in any manner that
 competes with the business of Gaussian, Inc. or will provide
 assistance to any competitor of Gaussian, Inc.  The licensee
 of this program is prohibited from giving any competitor of
 Gaussian, Inc. access to this program.  By using this program,
 the user acknowledges that Gaussian, Inc. is engaged in the
 business of creating and licensing software in the field of
 computational chemistry and represents and warrants to the
 licensee that it is not a competitor of Gaussian, Inc. and that
 it will not use this program in any manner prohibited above.
 ---------------------------------------------------------------
  

 Cite this work as:
 Gaussian 09, Revision C.01,
 M. J. Frisch, G. W. Trucks, H. B. Schlegel, G. E. Scuseria, 
 M. A. Robb, J. R. Cheeseman, G. Scalmani, V. Barone, B. Mennucci, 
 G. A. Petersson, H. Nakatsuji, M. Caricato, X. Li, H. P. Hratchian, 
 A. F. Izmaylov, J. Bloino, G. Zheng, J. L. Sonnenberg, M. Hada, 
 M. Ehara, K. Toyota, R. Fukuda, J. Hasegawa, M. Ishida, T. Nakajima, 
 Y. Honda, O. Kitao, H. Nakai, T. Vreven, J. A. Montgomery, Jr., 
 J. E. Peralta, F. Ogliaro, M. Bearpark, J. J. Heyd, E. Brothers, 
 K. N. Kudin, V. N. Staroverov, T. Keith, R. Kobayashi, J. Normand, 
 K. Raghavachari, A. Rendell, J. C. Burant, S. S. Iyengar, J. Tomasi, 
 M. Cossi, N. Rega, J. M. Millam, M. Klene, J. E. Knox, J. B. Cross, 
 V. Bakken, C. Adamo, J. Jaramillo, R. Gomperts, R. E. Stratmann, 
 O. Yazyev, A. J. Austin, R. Cammi, C. Pomelli, J. W. Ochterski, 
 R. L. Martin, K. Morokuma, V. G. Zakrzewski, G. A. Voth, 
 P. Salvador, J. J. Dannenberg, S. Dapprich, A. D. Daniels, 
 O. Farkas, J. B. Foresman, J. V. Ortiz, J. Cioslowski, 
 and D. J. Fox, Gaussian, Inc., Wallingford CT, 2010.
 
 ******************************************
 Gaussian 09:  EM64L-G09RevC.01 23-Sep-2011
                20-May-2022 
 ******************************************
 %nprocshared=4
 Will use up to    4 processors via shared memory.
 -----------------------------------------------------
 # mPW1PW91/6-31+G** scrf=(PCM,solvent=chloroform) nmr
 -----------------------------------------------------
 1/38=1/1;
 2/12=2,17=6,18=5,40=1/2;
 3/5=1,6=6,7=111,11=2,16=1,25=1,30=1,70=2201,72=7,74=-7/1,2,8,3;
 4//1;
 5/5=2,38=5,53=7/2;
 8/6=1,10=90,11=11/1;
 10/13=100,45=16/2;
 6/7=2,8=2,9=2,10=2,28=1/1;
 99/9=1/99;
 -------
 comment
 -------
 Charge =  0 Multiplicity = 1
 Symbolic Z-Matrix:
 6                     0.28866   1.78596  -0.25991 
 6                    -1.721     0.30101   0.15527 
 6                     0.53757  -0.45641   0.79936 
 6                    -0.84881  -0.98441   0.27357 
 6                     1.17017   0.56038  -0.13233 
 6                    -1.12933   1.41256  -0.70596 
 1                     0.35534   0.05633   1.74766 
 1                    -1.06754   1.08246  -1.74979 
 1                     0.72349   2.49756  -0.96139 
 1                    -1.93368   0.68066   1.15615 
 1                    -1.77756   2.29229  -0.68168 
 17                    0.21793   2.73063   1.33301 
 35                   -3.54354  -0.10065  -0.55945 
 6                    -1.48525  -1.91992   1.31851 
 1                    -1.51536  -1.44752   2.30798 
 1                    -0.92437  -2.8527    1.40599 
 1                    -2.51122  -2.15803   1.02606 
 6                    -0.68891  -1.7193   -1.0676 
 1                    -1.66522  -2.03627  -1.44289 
 1                    -0.06612  -2.60877  -0.93455 
 1                    -0.21884  -1.09235  -1.83186 
 17                    1.62913  -1.83053   1.30447 
 6                     2.27626   0.53565  -0.89647 
 1                     2.48674   1.44685  -1.45587 
 6                     3.28694  -0.5338   -1.15399 
 1                     3.10391  -1.46534  -0.63205 
 1                     3.3667   -0.72125  -2.22779 
 17                    4.94999   0.03863  -0.645 
 
                          Input orientation:                          
 ---------------------------------------------------------------------
 Center     Atomic      Atomic             Coordinates (Angstroms)
 Number     Number       Type             X           Y           Z
 ---------------------------------------------------------------------
      1          6           0        0.288661    1.785963   -0.259913
      2          6           0       -1.720998    0.301008    0.155272
      3          6           0        0.537569   -0.456405    0.799361
      4          6           0       -0.848809   -0.984414    0.273568
      5          6           0        1.170165    0.560381   -0.132326
      6          6           0       -1.129328    1.412558   -0.705957
      7          1           0        0.355343    0.056329    1.747657
      8          1           0       -1.067545    1.082458   -1.749793
      9          1           0        0.723493    2.497559   -0.961390
     10          1           0       -1.933684    0.680656    1.156150
     11          1           0       -1.777559    2.292285   -0.681678
     12         17           0        0.217926    2.730634    1.333013
     13         35           0       -3.543538   -0.100646   -0.559451
     14          6           0       -1.485254   -1.919918    1.318506
     15          1           0       -1.515363   -1.447515    2.307980
     16          1           0       -0.924372   -2.852702    1.405988
     17          1           0       -2.511223   -2.158033    1.026056
     18          6           0       -0.688907   -1.719298   -1.067600
     19          1           0       -1.665218   -2.036275   -1.442888
     20          1           0       -0.066123   -2.608773   -0.934552
     21          1           0       -0.218840   -1.092345   -1.831862
     22         17           0        1.629129   -1.830533    1.304466
     23          6           0        2.276261    0.535653   -0.896469
     24          1           0        2.486735    1.446850   -1.455865
     25          6           0        3.286936   -0.533802   -1.153988
     26          1           0        3.103911   -1.465337   -0.632053
     27          1           0        3.366699   -0.721253   -2.227795
     28         17           0        4.949992    0.038625   -0.645002
 ---------------------------------------------------------------------
                    Distance matrix (angstroms):
                    1          2          3          4          5
     1  C    0.000000
     2  C    2.533022   0.000000
     3  C    2.492435   2.467722   0.000000
     4  C    3.041945   1.557889   1.573943   0.000000
     5  C    1.515051   2.916987   1.517258   2.574373   0.000000
     6  C    1.532671   1.525560   2.921909   2.604541   2.518517
     7  H    2.650739   2.628070   1.093329   2.169347   2.110057
     8  H    2.134000   2.160310   3.382703   2.900654   2.810002
     9  H    1.089733   3.470923   3.443939   4.015145   2.153955
    10  H    2.857579   1.091387   2.743592   2.174480   3.362814
    11  H    2.168758   2.160756   3.886977   3.537206   3.462709
    12  Cl   1.853327   3.324091   3.247179   4.007734   2.786391
    13  Br   4.281911   1.998451   4.316059   2.955762   4.778953
    14  C    4.401333   2.518174   2.550136   1.540171   3.912550
    15  H    4.505991   2.780966   2.733635   2.190340   4.147144
    16  H    5.075814   3.484938   2.871847   2.185997   4.289829
    17  H    5.004815   2.725730   3.498866   2.169617   4.720619
    18  C    3.727580   2.577259   2.566064   1.537646   3.086717
    19  H    4.452704   2.831981   3.517945   2.172362   4.061969
    20  H    4.460349   3.520391   2.829061   2.170413   3.495070
    21  H    3.318620   2.854227   2.810678   2.200306   2.747592
    22  Cl   4.162112   4.133699   1.826160   2.814044   2.826922
    23  C    2.432906   4.139963   2.623560   3.666831   1.344609
    24  H    2.525238   4.649057   3.536619   4.475247   2.066625
    25  C    3.894911   5.243136   3.373512   4.398335   2.592634
    26  H    4.316836   5.198038   3.106928   4.083556   2.844756
    27  H    4.430915   5.710402   4.151842   4.908827   3.295199
    28  Cl   4.992944   6.723942   4.669124   5.959570   3.849956
                    6          7          8          9         10
     6  C    0.000000
     7  H    3.172354   0.000000
     8  H    1.096529   3.912762   0.000000
     9  H    2.162272   3.665252   2.414934   0.000000
    10  H    2.156412   2.445263   3.058782   3.853012   0.000000
    11  H    1.093029   3.930705   1.763142   2.525002   2.449354
    12  Cl   2.776656   2.709745   3.724596   2.360976   2.977099
    13  Br   2.853009   4.533063   2.991185   5.011963   2.478982
    14  C    3.915422   2.734505   4.313143   5.439724   2.643943
    15  H    4.172872   2.464762   4.802794   5.591499   2.455772
    16  H    4.763902   3.196384   5.046279   6.078259   3.683171
    17  H    4.202216   3.693414   4.504478   6.007318   2.899764
    18  C    3.183281   3.488407   2.908366   4.448375   3.500616
    19  H    3.567169   4.317550   3.190282   5.147177   3.769454
    20  H    4.165785   3.804556   3.910582   5.167092   4.321940
    21  H    2.893301   3.802906   2.335980   3.812233   3.874589
    22  Cl   4.708346   2.319310   5.008599   4.968567   4.361388
    23  C    3.521831   3.303192   3.494023   2.502874   4.685927
    24  H    3.693163   4.091324   3.584980   2.111283   5.191318
    25  C    4.846900   4.166778   4.682818   3.974605   5.836653
    26  H    5.119380   3.941207   5.014145   4.634587   5.760236
    27  H    5.204171   5.047486   4.810861   4.353283   6.442864
    28  Cl   6.232940   5.180341   6.206521   4.899975   7.144323
                   11         12         13         14         15
    11  H    0.000000
    12  Cl   2.869336   0.000000
    13  Br   2.976532   5.074069   0.000000
    14  C    4.672134   4.952642   3.327613   0.000000
    15  H    4.795092   4.627287   3.761610   1.096873   0.000000
    16  H    5.617577   5.699457   4.277475   1.091938   1.771274
    17  H    4.822857   5.607276   2.795058   1.093087   1.771977
    18  C    4.174554   5.136846   3.320718   2.523474   3.485891
    19  H    4.396418   5.828832   2.838170   2.769697   3.799751
    20  H    5.197435   5.807909   4.303930   2.750404   3.736687
    21  H    3.899775   4.982205   3.695418   3.494782   4.352632
    22  Cl   5.705078   4.774574   5.763955   3.115697   3.322886
    23  C    4.423273   3.745033   5.864172   5.008487   5.345827
    24  H    4.415691   3.817517   6.289872   5.899912   6.209724
    25  C    5.818845   5.124504   6.869969   5.550526   5.990173
    26  H    6.160433   5.458623   6.786474   5.007171   5.475564
    27  H    6.159162   5.874491   7.135818   6.128172   6.703375
    28  Cl   7.095088   5.792401   8.495103   7.007399   7.261510
                   16         17         18         19         20
    16  H    0.000000
    17  H    1.773417   0.000000
    18  C    2.731059   2.810110   0.000000
    19  H    3.054750   2.612706   1.092931   0.000000
    20  H    2.504839   3.166333   1.093950   1.772925   0.000000
    21  H    3.752373   3.815548   1.094591   1.770399   1.768627
    22  Cl   2.752363   4.162605   3.318488   4.294532   2.914230
    23  C    5.198683   5.819970   3.729117   4.738000   3.921177
    24  H    6.189669   6.643395   4.501105   5.419506   4.820470
    25  C    5.446640   6.403856   4.149722   5.183119   3.949261
    26  H    4.722865   5.895666   3.826182   4.871141   3.383499
    27  H    6.013380   6.870360   4.334753   5.259805   4.125467
    28  Cl   6.861085   7.955342   5.921661   6.978742   5.679257
                   21         22         23         24         25
    21  H    0.000000
    22  Cl   3.714359   0.000000
    23  C    3.122638   3.295714   0.000000
    24  H    3.729480   4.369915   1.089726   0.000000
    25  C    3.614132   3.236330   1.493825   2.157414   0.000000
    26  H    3.552371   2.461393   2.181486   3.088755   1.083361
    27  H    3.626370   4.089807   2.131032   2.463916   1.092960
    28  Cl   5.422597   4.280457   2.731137   2.950971   1.830982
                   26         27         28
    26  H    0.000000
    27  H    1.780200   0.000000
    28  Cl   2.381194   2.364205   0.000000
 Stoichiometry    C10H14BrCl3
 Framework group  C1[X(C10H14BrCl3)]
 Deg. of freedom    78
 Full point group                 C1      NOp   1
 Largest Abelian subgroup         C1      NOp   1
 Largest concise Abelian subgroup C1      NOp   1
                         Standard orientation:                         
 ---------------------------------------------------------------------
 Center     Atomic      Atomic             Coordinates (Angstroms)
 Number     Number       Type             X           Y           Z
 ---------------------------------------------------------------------
      1          6           0        0.288661    1.785963   -0.259913
      2          6           0       -1.720998    0.301008    0.155272
      3          6           0        0.537569   -0.456405    0.799361
      4          6           0       -0.848809   -0.984414    0.273568
      5          6           0        1.170165    0.560381   -0.132326
      6          6           0       -1.129328    1.412558   -0.705957
      7          1           0        0.355343    0.056329    1.747657
      8          1           0       -1.067545    1.082458   -1.749793
      9          1           0        0.723493    2.497559   -0.961390
     10          1           0       -1.933684    0.680656    1.156150
     11          1           0       -1.777559    2.292285   -0.681678
     12         17           0        0.217926    2.730634    1.333013
     13         35           0       -3.543538   -0.100646   -0.559451
     14          6           0       -1.485254   -1.919918    1.318506
     15          1           0       -1.515363   -1.447515    2.307980
     16          1           0       -0.924372   -2.852702    1.405988
     17          1           0       -2.511223   -2.158033    1.026056
     18          6           0       -0.688907   -1.719298   -1.067600
     19          1           0       -1.665218   -2.036275   -1.442888
     20          1           0       -0.066123   -2.608773   -0.934552
     21          1           0       -0.218840   -1.092345   -1.831862
     22         17           0        1.629129   -1.830533    1.304466
     23          6           0        2.276261    0.535653   -0.896469
     24          1           0        2.486735    1.446850   -1.455865
     25          6           0        3.286936   -0.533802   -1.153988
     26          1           0        3.103911   -1.465337   -0.632053
     27          1           0        3.366699   -0.721253   -2.227795
     28         17           0        4.949992    0.038625   -0.645002
 ---------------------------------------------------------------------
 Rotational constants (GHZ):      0.5881565      0.1973108      0.1751215
 Standard basis: 6-31+G(d,p) (6D, 7F)
 There are   363 symmetry adapted basis functions of A   symmetry.
 Integral buffers will be    131072 words long.
 Raffenetti 2 integral format.
 Two-electron integral symmetry is turned on.
   363 basis functions,   673 primitive gaussians,   363 cartesian basis functions
    80 alpha electrons       80 beta electrons
       nuclear repulsion energy      1688.4836192463 Hartrees.
 NAtoms=   28 NActive=   28 NUniq=   28 SFac= 1.00D+00 NAtFMM=   60 NAOKFM=F Big=F
 ------------------------------------------------------------------------------
 Polarizable Continuum Model (PCM)
 =================================
 Model                : PCM.
 Atomic radii         : UFF (Universal Force Field).
 Polarization charges : Total charges.
 Charge compensation  : None.
 Solution method      : Matrix inversion.
 Cavity type          : Scaled VdW (van der Waals Surface) (Alpha=1.100).
 Cavity algorithm     : GePol (No added spheres)
                        Default sphere list used, NSphG=   28.
                        Lebedev-Laikov grids with approx.  5.0 points / Ang**2.
                        Smoothing algorithm: Karplus/York (Gamma=1.0000).
                        Polarization charges: spherical gaussians, with
                                              point-specific exponents (IZeta= 3).
                        Self-potential: point-specific (ISelfS= 7).
                        Self-field    : sphere-specific E.n sum rule (ISelfD= 2).
 Solvent              : Chloroform, Eps=   4.711300 Eps(inf)=   2.090627
 ------------------------------------------------------------------------------
 One-electron integrals computed using PRISM.
 NBasis=   363 RedAO= T  NBF=   363
 NBsUse=   363 1.00D-06 NBFU=   363
 Harris functional with IExCor=  908 diagonalized for initial guess.
 ExpMin= 3.50D-02 ExpMax= 5.74D+05 ExpMxC= 5.74D+03 IAcc=3 IRadAn=         5 AccDes= 0.00D+00
 HarFok:  IExCor=  908 AccDes= 0.00D+00 IRadAn=         5 IDoV= 1
 ScaDFX=  1.000000  1.000000  1.000000  1.000000
 FoFCou: FMM=F IPFlag=           0 FMFlag=      100000 FMFlg1=           0
         NFxFlg=           0 DoJE=T BraDBF=F KetDBF=T FulRan=T
         Omega=  0.000000  0.000000  1.000000  0.000000  0.000000 ICntrl=     500 IOpCl=  0
         NMat0=    1 NMatS0=    1 NMatT0=    0 NMatD0=    1 NMtDS0=    0 NMtDT0=    0
         I1Cent=           4 NGrid=           0.
 Petite list used in FoFCou.
 Initial guess orbital symmetries:
       Occupied  (A) (A) (A) (A) (A) (A) (A) (A) (A) (A) (A) (A)
                 (A) (A) (A) (A) (A) (A) (A) (A) (A) (A) (A) (A)
                 (A) (A) (A) (A) (A) (A) (A) (A) (A) (A) (A) (A)
                 (A) (A) (A) (A) (A) (A) (A) (A) (A) (A) (A) (A)
                 (A) (A) (A) (A) (A) (A) (A) (A) (A) (A) (A) (A)
                 (A) (A) (A) (A) (A) (A) (A) (A) (A) (A) (A) (A)
                 (A) (A) (A) (A) (A) (A) (A) (A)
       Virtual   (A) (A) (A) (A) (A) (A) (A) (A) (A) (A) (A) (A)
                 (A) (A) (A) (A) (A) (A) (A) (A) (A) (A) (A) (A)
                 (A) (A) (A) (A) (A) (A) (A) (A) (A) (A) (A) (A)
                 (A) (A) (A) (A) (A) (A) (A) (A) (A) (A) (A) (A)
                 (A) (A) (A) (A) (A) (A) (A) (A) (A) (A) (A) (A)
                 (A) (A) (A) (A) (A) (A) (A) (A) (A) (A) (A) (A)
                 (A) (A) (A) (A) (A) (A) (A) (A) (A) (A) (A) (A)
                 (A) (A) (A) (A) (A) (A) (A) (A) (A) (A) (A) (A)
                 (A) (A) (A) (A) (A) (A) (A) (A) (A) (A) (A) (A)
                 (A) (A) (A) (A) (A) (A) (A) (A) (A) (A) (A) (A)
                 (A) (A) (A) (A) (A) (A) (A) (A) (A) (A) (A) (A)
                 (A) (A) (A) (A) (A) (A) (A) (A) (A) (A) (A) (A)
                 (A) (A) (A) (A) (A) (A) (A) (A) (A) (A) (A) (A)
                 (A) (A) (A) (A) (A) (A) (A) (A) (A) (A) (A) (A)
                 (A) (A) (A) (A) (A) (A) (A) (A) (A) (A) (A) (A)
                 (A) (A) (A) (A) (A) (A) (A) (A) (A) (A) (A) (A)
                 (A) (A) (A) (A) (A) (A) (A) (A) (A) (A) (A) (A)
                 (A) (A) (A) (A) (A) (A) (A) (A) (A) (A) (A) (A)
                 (A) (A) (A) (A) (A) (A) (A) (A) (A) (A) (A) (A)
                 (A) (A) (A) (A) (A) (A) (A) (A) (A) (A) (A) (A)
                 (A) (A) (A) (A) (A) (A) (A) (A) (A) (A) (A) (A)
                 (A) (A) (A) (A) (A) (A) (A) (A) (A) (A) (A) (A)
                 (A) (A) (A) (A) (A) (A) (A) (A) (A) (A) (A) (A)
                 (A) (A) (A) (A) (A) (A) (A)
 The electronic state of the initial guess is 1-A.
 Requested convergence on RMS density matrix=1.00D-08 within 128 cycles.
 Requested convergence on MAX density matrix=1.00D-06.
 Requested convergence on             energy=1.00D-06.
 No special actions if energy rises.
 Error on total polarization charges =  0.01659
 SCF Done:  E(RmPW1PW91) =  -4341.94549286     A.U. after   14 cycles
             Convg  =    0.4610D-08             -V/T =  2.0056
 Range of M.O.s used for correlation:     1   363
 NBasis=   363 NAE=    80 NBE=    80 NFC=     0 NFV=     0
 NROrb=    363 NOA=    80 NOB=    80 NVA=   283 NVB=   283

 **** Warning!!: The largest alpha MO coefficient is  0.13056485D+03

 NEqPCM:  Using equilibrium solvation (IEInf=0, Eps=   4.7113, EpsInf=   2.0906)
          Differentiating once with respect to magnetic field using GIAOs.
          Electric field/nuclear overlap derivatives assumed to be zero.
 FoFCou: FMM=F IPFlag=           0 FMFlag=    10101102 FMFlg1=           0
         NFxFlg=    40000000 DoJE=F BraDBF=F KetDBF=T FulRan=T
         Omega=  0.000000  0.000000  1.000000  0.000000  0.000000 ICntrl=    6100 IOpCl=  0
         NMat0=    1 NMatS0=    1 NMatT0=    0 NMatD0=    1 NMtDS0=    0 NMtDT0=    0
         I1Cent=           7 NGrid=        2072.
 Symmetry not used in FoFCou.
          There are     3 degrees of freedom in the 1st order CPHF.  IDoFFX=0.
      3 vectors produced by pass  0 Test12= 7.55D-13 3.33D-08 XBig12= 1.19D+02 1.45D+00.
 AX will form     3 AO Fock derivatives at one time.
      3 vectors produced by pass  1 Test12= 7.55D-13 3.33D-08 XBig12= 3.33D-01 1.06D-01.
      3 vectors produced by pass  2 Test12= 7.55D-13 3.33D-08 XBig12= 1.54D-03 9.74D-03.
      3 vectors produced by pass  3 Test12= 7.55D-13 3.33D-08 XBig12= 7.77D-06 1.00D-03.
      3 vectors produced by pass  4 Test12= 7.55D-13 3.33D-08 XBig12= 3.87D-08 5.76D-05.
      3 vectors produced by pass  5 Test12= 7.55D-13 3.33D-08 XBig12= 1.35D-10 3.15D-06.
      3 vectors produced by pass  6 Test12= 7.55D-13 3.33D-08 XBig12= 5.73D-13 1.97D-07.
 Inverted reduced A of dimension    21 with in-core refinement.
 Calculating GIAO nuclear magnetic shielding tensors.
 SCF GIAO Magnetic shielding tensor (ppm):
      1  C    Isotropic =   121.5031   Anisotropy =    30.7611
   XX=   119.2727   YX=   -13.4578   ZX=     0.3577
   XY=   -11.2101   YY=   114.1429   ZY=    19.2737
   XZ=    -0.3147   YZ=    11.1593   ZZ=   131.0936
   Eigenvalues:    99.2570   123.2417   142.0105
      2  C    Isotropic =   124.4815   Anisotropy =    54.7514
   XX=   147.8086   YX=     4.3358   ZX=    29.7366
   XY=     4.2975   YY=   134.1562   ZY=    -6.5054
   XZ=    30.2898   YZ=    -2.4665   ZZ=    91.4797
   Eigenvalues:    77.8806   134.5814   160.9824
      3  C    Isotropic =   120.7664   Anisotropy =    36.0300
   XX=   137.3997   YX=    -2.7145   ZX=     4.9532
   XY=    -6.2164   YY=   135.7813   ZY=   -12.2099
   XZ=    10.0077   YZ=   -13.5744   ZZ=    89.1184
   Eigenvalues:    85.0659   132.4470   144.7864
      4  C    Isotropic =   145.4895   Anisotropy =    29.1103
   XX=   159.7061   YX=    -5.5066   ZX=    10.8349
   XY=    -4.8644   YY=   140.9910   ZY=    -2.6603
   XZ=     8.9793   YZ=    -5.2025   ZZ=   135.7713
   Eigenvalues:   131.7335   139.8386   164.8963
      5  C    Isotropic =    59.1861   Anisotropy =   143.0217
   XX=    74.9990   YX=    45.9555   ZX=    27.6217
   XY=    32.3333   YY=    -2.1487   ZY=    62.0028
   XZ=    41.0065   YZ=    42.9661   ZZ=   104.7080
   Eigenvalues:   -29.5740    52.5984   154.5339
      6  C    Isotropic =   151.8008   Anisotropy =    42.4714
   XX=   171.0733   YX=    11.7528   ZX=    15.6572
   XY=    17.7054   YY=   144.9440   ZY=     5.9858
   XZ=     4.7285   YZ=    -3.0378   ZZ=   139.3851
   Eigenvalues:   134.8088   140.4785   180.1150
      7  H    Isotropic =    26.4524   Anisotropy =     8.7709
   XX=    24.1750   YX=    -3.9472   ZX=     1.7648
   XY=    -3.1639   YY=    30.6762   ZY=     1.6803
   XZ=     1.2511   YZ=     1.0636   ZZ=    24.5060
   Eigenvalues:    21.3927    25.6649    32.2997
      8  H    Isotropic =    29.1971   Anisotropy =     4.4750
   XX=    28.5882   YX=     1.6425   ZX=     1.2358
   XY=     1.8073   YY=    27.2399   ZY=    -1.2007
   XZ=     0.7977   YZ=    -1.2346   ZZ=    31.7633
   Eigenvalues:    25.6536    29.7573    32.1805
      9  H    Isotropic =    26.9257   Anisotropy =     6.4725
   XX=    25.3903   YX=     1.0304   ZX=    -2.6764
   XY=     2.0158   YY=    26.4095   ZY=    -0.5364
   XZ=    -3.4088   YZ=    -1.3548   ZZ=    28.9774
   Eigenvalues:    23.3811    26.1554    31.2407
     10  H    Isotropic =    26.8337   Anisotropy =     7.5127
   XX=    28.6757   YX=     1.8927   ZX=     1.9135
   XY=     1.4528   YY=    25.4837   ZY=     3.5635
   XZ=     2.4766   YZ=     3.4518   ZZ=    26.3418
   Eigenvalues:    22.3711    26.2879    31.8422
     11  H    Isotropic =    29.1477   Anisotropy =     7.0936
   XX=    30.7311   YX=    -1.4820   ZX=     1.8448
   XY=    -0.3822   YY=    32.7602   ZY=    -1.6579
   XZ=     2.9620   YZ=    -2.1318   ZZ=    23.9517
   Eigenvalues:    22.9437    30.6226    33.8767
     12  Cl   Isotropic =   764.5120   Anisotropy =   459.3781
   XX=   679.4356   YX=   -88.6389   ZX=    29.1254
   XY=   -91.6085   YY=   742.0441   ZY=   247.2053
   XZ=    31.5630   YZ=   258.5854   ZZ=   872.0564
   Eigenvalues:   500.4325   722.3394  1070.7641
     13  Br   Isotropic =  2366.1017   Anisotropy =  1063.8496
   XX=  2893.9344   YX=   217.2704   ZX=   349.7069
   XY=   245.7763   YY=  2106.6895   ZY=    22.9609
   XZ=   346.3711   YZ=     2.0989   ZZ=  2097.6812
   Eigenvalues:  1930.1937  2092.7766  3075.3348
     14  C    Isotropic =   168.5923   Anisotropy =    39.6607
   XX=   158.8309   YX=     9.0057   ZX=   -14.3383
   XY=     4.9418   YY=   167.5391   ZY=   -14.1267
   XZ=   -13.4071   YZ=   -13.3680   ZZ=   179.4068
   Eigenvalues:   151.8474   158.8966   195.0327
     15  H    Isotropic =    30.7072   Anisotropy =     9.7882
   XX=    28.4804   YX=    -0.2150   ZX=    -2.5592
   XY=     0.4774   YY=    27.0277   ZY=    -1.4926
   XZ=    -1.8673   YZ=     0.0001   ZZ=    36.6134
   Eigenvalues:    26.9684    27.9205    37.2326
     16  H    Isotropic =    30.1300   Anisotropy =     8.4141
   XX=    29.9753   YX=    -0.2310   ZX=    -0.6108
   XY=    -1.5097   YY=    33.8785   ZY=    -3.8708
   XZ=     0.1483   YZ=    -4.1741   ZZ=    26.5360
   Eigenvalues:    24.7007    29.9498    35.7394
     17  H    Isotropic =    29.9143   Anisotropy =     6.8750
   XX=    33.5047   YX=     1.7139   ZX=     1.1649
   XY=     2.4578   YY=    29.3444   ZY=    -3.9699
   XZ=     0.3899   YZ=    -3.9424   ZZ=    26.8939
   Eigenvalues:    23.6201    31.6253    34.4976
     18  C    Isotropic =   180.8868   Anisotropy =    24.8006
   XX=   174.9559   YX=    -1.0208   ZX=    -3.9166
   XY=     0.4434   YY=   174.1212   ZY=     9.5131
   XZ=    -4.0360   YZ=     7.4723   ZZ=   193.5833
   Eigenvalues:   170.6024   174.6375   197.4206
     19  H    Isotropic =    30.3448   Anisotropy =     7.9507
   XX=    33.3744   YX=     0.2066   ZX=     2.2994
   XY=     0.5089   YY=    28.9899   ZY=     4.5411
   XZ=     3.2988   YZ=     4.2229   ZZ=    28.6700
   Eigenvalues:    24.0885    31.3006    35.6452
     20  H    Isotropic =    30.5426   Anisotropy =     8.2513
   XX=    30.1074   YX=    -3.4267   ZX=     0.8424
   XY=    -3.8085   YY=    33.1720   ZY=     2.2555
   XZ=     0.6071   YZ=     3.1324   ZZ=    28.3485
   Eigenvalues:    25.7591    29.8253    36.0435
     21  H    Isotropic =    30.7380   Anisotropy =     7.5162
   XX=    29.7629   YX=     1.6663   ZX=    -2.7912
   XY=     1.2011   YY=    28.2961   ZY=    -0.4550
   XZ=    -2.8748   YZ=    -0.8699   ZZ=    34.1550
   Eigenvalues:    27.2406    29.2247    35.7488
     22  Cl   Isotropic =   852.0254   Anisotropy =   299.8660
   XX=   890.4723   YX=   -85.7867   ZX=    77.9272
   XY=  -122.2188   YY=   919.9293   ZY=  -112.9042
   XZ=    57.9452   YZ=   -68.3033   ZZ=   745.6746
   Eigenvalues:   703.4126   800.7275  1051.9360
     23  C    Isotropic =    66.6795   Anisotropy =   115.1176
   XX=   100.2668   YX=    26.2705   ZX=    33.2444
   XY=    20.3913   YY=     2.5982   ZY=    46.7868
   XZ=    17.4131   YZ=    52.6998   ZZ=    97.1736
   Eigenvalues:   -19.9125    76.5265   143.4246
     24  H    Isotropic =    25.5239   Anisotropy =     8.1792
   XX=    29.5010   YX=    -2.1534   ZX=    -2.8975
   XY=    -1.9486   YY=    23.5667   ZY=    -0.1641
   XZ=    -2.3517   YZ=     0.0210   ZZ=    23.5040
   Eigenvalues:    21.9825    23.6125    30.9767
     25  C    Isotropic =   150.3009   Anisotropy =    49.2058
   XX=   173.0706   YX=     8.6767   ZX=    16.0310
   XY=     6.3257   YY=   146.7024   ZY=    10.5828
   XZ=    19.0280   YZ=    14.4921   ZZ=   131.1296
   Eigenvalues:   121.1262   146.6716   183.1047
     26  H    Isotropic =    26.1107   Anisotropy =    12.8105
   XX=    29.8826   YX=     3.1385   ZX=    -5.0582
   XY=     3.5590   YY=    26.4530   ZY=    -4.2412
   XZ=    -5.0617   YZ=    -1.7042   ZZ=    21.9964
   Eigenvalues:    19.2740    24.4071    34.6510
     27  H    Isotropic =    27.6422   Anisotropy =     8.2087
   XX=    28.8193   YX=     1.0860   ZX=     1.4063
   XY=     0.6532   YY=    22.7212   ZY=     4.4004
   XZ=    -0.1216   YZ=     3.5074   ZZ=    31.3862
   Eigenvalues:    21.1442    28.6678    33.1147
     28  Cl   Isotropic =   843.1431   Anisotropy =   401.3541
   XX=  1083.8651   YX=    36.3051   ZX=    79.2608
   XY=    74.0726   YY=   760.8717   ZY=    59.8829
   XZ=    79.1018   YZ=    41.2069   ZZ=   684.6925
   Eigenvalues:   653.8032   764.9136  1110.7125
 End of Minotr Frequency-dependent properties file   721 does not exist.
 End of Minotr Frequency-dependent properties file   722 does not exist.

 **********************************************************************

            Population analysis using the SCF density.

 **********************************************************************

 Orbital symmetries:
       Occupied  (A) (A) (A) (A) (A) (A) (A) (A) (A) (A) (A) (A)
                 (A) (A) (A) (A) (A) (A) (A) (A) (A) (A) (A) (A)
                 (A) (A) (A) (A) (A) (A) (A) (A) (A) (A) (A) (A)
                 (A) (A) (A) (A) (A) (A) (A) (A) (A) (A) (A) (A)
                 (A) (A) (A) (A) (A) (A) (A) (A) (A) (A) (A) (A)
                 (A) (A) (A) (A) (A) (A) (A) (A) (A) (A) (A) (A)
                 (A) (A) (A) (A) (A) (A) (A) (A)
       Virtual   (A) (A) (A) (A) (A) (A) (A) (A) (A) (A) (A) (A)
                 (A) (A) (A) (A) (A) (A) (A) (A) (A) (A) (A) (A)
                 (A) (A) (A) (A) (A) (A) (A) (A) (A) (A) (A) (A)
                 (A) (A) (A) (A) (A) (A) (A) (A) (A) (A) (A) (A)
                 (A) (A) (A) (A) (A) (A) (A) (A) (A) (A) (A) (A)
                 (A) (A) (A) (A) (A) (A) (A) (A) (A) (A) (A) (A)
                 (A) (A) (A) (A) (A) (A) (A) (A) (A) (A) (A) (A)
                 (A) (A) (A) (A) (A) (A) (A) (A) (A) (A) (A) (A)
                 (A) (A) (A) (A) (A) (A) (A) (A) (A) (A) (A) (A)
                 (A) (A) (A) (A) (A) (A) (A) (A) (A) (A) (A) (A)
                 (A) (A) (A) (A) (A) (A) (A) (A) (A) (A) (A) (A)
                 (A) (A) (A) (A) (A) (A) (A) (A) (A) (A) (A) (A)
                 (A) (A) (A) (A) (A) (A) (A) (A) (A) (A) (A) (A)
                 (A) (A) (A) (A) (A) (A) (A) (A) (A) (A) (A) (A)
                 (A) (A) (A) (A) (A) (A) (A) (A) (A) (A) (A) (A)
                 (A) (A) (A) (A) (A) (A) (A) (A) (A) (A) (A) (A)
                 (A) (A) (A) (A) (A) (A) (A) (A) (A) (A) (A) (A)
                 (A) (A) (A) (A) (A) (A) (A) (A) (A) (A) (A) (A)
                 (A) (A) (A) (A) (A) (A) (A) (A) (A) (A) (A) (A)
                 (A) (A) (A) (A) (A) (A) (A) (A) (A) (A) (A) (A)
                 (A) (A) (A) (A) (A) (A) (A) (A) (A) (A) (A) (A)
                 (A) (A) (A) (A) (A) (A) (A) (A) (A) (A) (A) (A)
                 (A) (A) (A) (A) (A) (A) (A) (A) (A) (A) (A) (A)
                 (A) (A) (A) (A) (A) (A) (A)
 The electronic state is 1-A.
 Alpha  occ. eigenvalues -- -483.41802-101.76854-101.76436-101.75946 -62.05792
 Alpha  occ. eigenvalues --  -56.54357 -56.54019 -56.53996 -10.34270 -10.34244
 Alpha  occ. eigenvalues --  -10.33085 -10.32077 -10.30521 -10.30424 -10.29039
 Alpha  occ. eigenvalues --  -10.28277 -10.24759 -10.24636  -9.54580  -9.54190
 Alpha  occ. eigenvalues --   -9.53745  -8.67652  -7.28556  -7.28141  -7.27718
 Alpha  occ. eigenvalues --   -7.27613  -7.27607  -7.27234  -7.27222  -7.26777
 Alpha  occ. eigenvalues --   -7.26756  -6.61137  -6.59965  -6.59948  -2.69870
 Alpha  occ. eigenvalues --   -2.69541  -2.69526  -2.68574  -2.68573  -0.94182
 Alpha  occ. eigenvalues --   -0.89362  -0.89128  -0.86873  -0.82965  -0.80923
 Alpha  occ. eigenvalues --   -0.78169  -0.74357  -0.72441  -0.71708  -0.66858
 Alpha  occ. eigenvalues --   -0.63297  -0.59704  -0.56392  -0.52888  -0.51037
 Alpha  occ. eigenvalues --   -0.50303  -0.48489  -0.48088  -0.47105  -0.45020
 Alpha  occ. eigenvalues --   -0.44995  -0.43735  -0.42704  -0.41863  -0.40445
 Alpha  occ. eigenvalues --   -0.40306  -0.39097  -0.38680  -0.37930  -0.36154
 Alpha  occ. eigenvalues --   -0.35895  -0.34003  -0.33071  -0.32727  -0.32552
 Alpha  occ. eigenvalues --   -0.32014  -0.31168  -0.30233  -0.29994  -0.28974
 Alpha virt. eigenvalues --   -0.04808  -0.03335  -0.00131   0.00539   0.00801
 Alpha virt. eigenvalues --    0.01787   0.01903   0.02517   0.03095   0.04050
 Alpha virt. eigenvalues --    0.04266   0.04643   0.05068   0.05287   0.06420
 Alpha virt. eigenvalues --    0.06787   0.07066   0.07147   0.07670   0.08255
 Alpha virt. eigenvalues --    0.09002   0.09407   0.09763   0.10021   0.10413
 Alpha virt. eigenvalues --    0.10566   0.10986   0.11368   0.11747   0.12338
 Alpha virt. eigenvalues --    0.12840   0.13156   0.13211   0.13605   0.14537
 Alpha virt. eigenvalues --    0.14875   0.15085   0.15266   0.16046   0.16217
 Alpha virt. eigenvalues --    0.16929   0.17532   0.17697   0.18366   0.18906
 Alpha virt. eigenvalues --    0.19190   0.19439   0.19731   0.20017   0.20583
 Alpha virt. eigenvalues --    0.21373   0.21458   0.21665   0.22004   0.22632
 Alpha virt. eigenvalues --    0.22791   0.23364   0.23496   0.23954   0.25000
 Alpha virt. eigenvalues --    0.25239   0.25643   0.26158   0.26518   0.26748
 Alpha virt. eigenvalues --    0.27122   0.27719   0.28267   0.28977   0.29603
 Alpha virt. eigenvalues --    0.30263   0.30417   0.32241   0.32740   0.33356
 Alpha virt. eigenvalues --    0.34680   0.35422   0.36661   0.38194   0.39206
 Alpha virt. eigenvalues --    0.41069   0.41667   0.43778   0.46358   0.48017
 Alpha virt. eigenvalues --    0.49089   0.51891   0.52003   0.52799   0.56868
 Alpha virt. eigenvalues --    0.57711   0.58638   0.60288   0.61148   0.62546
 Alpha virt. eigenvalues --    0.63159   0.63734   0.64313   0.64466   0.64959
 Alpha virt. eigenvalues --    0.65733   0.65918   0.66264   0.66728   0.68182
 Alpha virt. eigenvalues --    0.68404   0.68811   0.70808   0.71677   0.72319
 Alpha virt. eigenvalues --    0.73109   0.73766   0.74590   0.75514   0.76583
 Alpha virt. eigenvalues --    0.76781   0.78142   0.79018   0.79192   0.80514
 Alpha virt. eigenvalues --    0.80989   0.81920   0.83085   0.84990   0.85303
 Alpha virt. eigenvalues --    0.86217   0.86980   0.88276   0.88731   0.89150
 Alpha virt. eigenvalues --    0.90448   0.91543   0.92569   0.93913   0.94673
 Alpha virt. eigenvalues --    0.96088   0.96908   0.97293   0.98162   0.99361
 Alpha virt. eigenvalues --    1.00214   1.01466   1.02689   1.03779   1.04399
 Alpha virt. eigenvalues --    1.04863   1.05183   1.06228   1.07899   1.08237
 Alpha virt. eigenvalues --    1.09579   1.11072   1.11566   1.13794   1.14008
 Alpha virt. eigenvalues --    1.15333   1.15605   1.16386   1.18302   1.20833
 Alpha virt. eigenvalues --    1.21059   1.21701   1.22608   1.27478   1.29590
 Alpha virt. eigenvalues --    1.30615   1.33119   1.35088   1.37450   1.40235
 Alpha virt. eigenvalues --    1.42531   1.46242   1.48170   1.49822   1.54382
 Alpha virt. eigenvalues --    1.56633   1.58301   1.59816   1.64080   1.67547
 Alpha virt. eigenvalues --    1.70436   1.73840   1.74179   1.77620   1.79841
 Alpha virt. eigenvalues --    1.83099   1.83711   1.84494   1.86327   1.87872
 Alpha virt. eigenvalues --    1.90441   1.90930   1.91596   1.94793   1.95083
 Alpha virt. eigenvalues --    1.97652   1.98301   1.98790   2.03064   2.05719
 Alpha virt. eigenvalues --    2.06007   2.06210   2.09088   2.11512   2.12247
 Alpha virt. eigenvalues --    2.12613   2.13966   2.15955   2.16510   2.17680
 Alpha virt. eigenvalues --    2.18088   2.18961   2.20349   2.21804   2.23823
 Alpha virt. eigenvalues --    2.24460   2.26691   2.32122   2.35439   2.37567
 Alpha virt. eigenvalues --    2.39977   2.41583   2.43825   2.46007   2.47112
 Alpha virt. eigenvalues --    2.50513   2.52474   2.53718   2.54176   2.56797
 Alpha virt. eigenvalues --    2.58767   2.61535   2.63003   2.63617   2.66474
 Alpha virt. eigenvalues --    2.68846   2.71304   2.72466   2.73963   2.74719
 Alpha virt. eigenvalues --    2.77097   2.77994   2.80464   2.82014   2.84198
 Alpha virt. eigenvalues --    2.84616   2.86773   2.89856   2.91051   2.95131
 Alpha virt. eigenvalues --    2.98071   3.00230   3.02771   3.11654   3.31125
 Alpha virt. eigenvalues --    3.31716   3.33306   3.35890   3.41354   3.44609
 Alpha virt. eigenvalues --    3.45069   3.47649   3.49369   3.49690   3.52987
 Alpha virt. eigenvalues --    3.53265   3.53863   3.55716   4.28399   4.31284
 Alpha virt. eigenvalues --    4.37412   4.41833   4.43849   4.46684   4.49304
 Alpha virt. eigenvalues --    4.56606   4.61952   4.68405   4.74783   4.78442
 Alpha virt. eigenvalues --    4.85871   9.06636  81.47781
          Condensed to atoms (all electrons):
              1          2          3          4          5          6
     1  C    7.826984  -0.610520  -2.702098   1.268669  -0.985790  -0.619100
     2  C   -0.610520  10.464208   1.959848  -2.719257   0.111378  -0.811875
     3  C   -2.702098   1.959848  18.323613  -4.937015   0.025766   0.960499
     4  C    1.268669  -2.719257  -4.937015  11.535080   0.243152  -0.479816
     5  C   -0.985790   0.111378   0.025766   0.243152  17.491562  -0.274943
     6  C   -0.619100  -0.811875   0.960499  -0.479816  -0.274943   7.074677
     7  H    0.039037  -0.059345   0.103893   0.088705   0.081893  -0.041511
     8  H    0.025824  -0.074838  -0.077931   0.069967   0.005718   0.357552
     9  H    0.310468   0.021456  -0.022622   0.004675  -0.248365   0.031709
    10  H    0.042126   0.326683  -0.056359   0.004318  -0.006076  -0.048703
    11  H   -0.079354  -0.103333   0.018964   0.052483   0.051546   0.406498
    12  Cl  -0.113678   0.069839  -0.088939   0.019991   0.519770  -0.080576
    13  Br   0.056865   0.412935   0.070751  -0.097996  -0.005019  -0.153723
    14  C   -0.015039  -0.720960  -0.263344  -0.311557  -0.122323   0.118047
    15  H    0.005878  -0.056588   0.000367  -0.085186  -0.015622   0.011988
    16  H    0.000167   0.021955  -0.064034  -0.051419   0.021931  -0.005024
    17  H   -0.005492   0.013130   0.065181  -0.142149  -0.012246   0.002781
    18  C    0.093471  -0.548888  -0.093559  -0.092399  -0.090628  -0.077860
    19  H   -0.003636  -0.019930   0.033380  -0.099476  -0.013113  -0.005474
    20  H   -0.008289   0.030321   0.069166  -0.142880  -0.007399   0.007572
    21  H   -0.004646   0.017677  -0.080798  -0.079647  -0.024149  -0.015243
    22  Cl   0.175804   0.001918  -0.556701   0.159168   0.260585  -0.022442
    23  C    1.462550  -1.280351  -6.387930   1.508955 -10.565793   0.042534
    24  H   -0.036249  -0.006560   0.035367  -0.008462   0.002934   0.040594
    25  C   -0.004516  -0.001711  -0.219490   0.125886  -0.487232  -0.103571
    26  H   -0.010135  -0.000528   0.026464  -0.026375   0.099187   0.001835
    27  H    0.009165   0.000460  -0.024994   0.004591   0.049579  -0.000816
    28  Cl  -0.022947   0.004338  -0.026800   0.009961   0.327294  -0.006292
              7          8          9         10         11         12
     1  C    0.039037   0.025824   0.310468   0.042126  -0.079354  -0.113678
     2  C   -0.059345  -0.074838   0.021456   0.326683  -0.103333   0.069839
     3  C    0.103893  -0.077931  -0.022622  -0.056359   0.018964  -0.088939
     4  C    0.088705   0.069967   0.004675   0.004318   0.052483   0.019991
     5  C    0.081893   0.005718  -0.248365  -0.006076   0.051546   0.519770
     6  C   -0.041511   0.357552   0.031709  -0.048703   0.406498  -0.080576
     7  H    0.484989   0.000042   0.000036   0.002843  -0.000021   0.013026
     8  H    0.000042   0.480643  -0.003678   0.003740  -0.021407   0.006793
     9  H    0.000036  -0.003678   0.501840  -0.000087  -0.002323  -0.018825
    10  H    0.002843   0.003740  -0.000087   0.491531  -0.003914   0.001436
    11  H   -0.000021  -0.021407  -0.002323  -0.003914   0.482377   0.014808
    12  Cl   0.013026   0.006793  -0.018825   0.001436   0.014808  17.120591
    13  Br   0.001303   0.002979   0.000710  -0.018642  -0.010048   0.004447
    14  C    0.006166   0.006144   0.001108   0.027981  -0.000915   0.010840
    15  H    0.003727  -0.000001   0.000000   0.003832  -0.000002   0.000992
    16  H    0.000088   0.000002   0.000000   0.000080   0.000001   0.000012
    17  H   -0.000046  -0.000002   0.000000  -0.000501  -0.000003  -0.000181
    18  C   -0.008851  -0.014629  -0.004288  -0.012605   0.005296  -0.023838
    19  H   -0.000105   0.000162   0.000001   0.000030   0.000002  -0.000051
    20  H   -0.000052  -0.000029   0.000000  -0.000094   0.000001   0.000185
    21  H   -0.000210  -0.001810   0.000002  -0.000218   0.000009  -0.001481
    22  Cl  -0.036644   0.001088   0.000124   0.003662  -0.000063  -0.000613
    23  C    0.075094   0.016369   0.187558   0.004165  -0.024670  -0.318037
    24  H   -0.000135   0.000004   0.005543   0.000000  -0.000012   0.003957
    25  C   -0.008220   0.000820   0.006543  -0.000541   0.000206  -0.029230
    26  H    0.000062   0.000000   0.000000   0.000000   0.000000   0.000642
    27  H   -0.000001   0.000003  -0.000019   0.000000   0.000000  -0.000712
    28  Cl   0.000883   0.000006  -0.000125   0.000002  -0.000002   0.003977
             13         14         15         16         17         18
     1  C    0.056865  -0.015039   0.005878   0.000167  -0.005492   0.093471
     2  C    0.412935  -0.720960  -0.056588   0.021955   0.013130  -0.548888
     3  C    0.070751  -0.263344   0.000367  -0.064034   0.065181  -0.093559
     4  C   -0.097996  -0.311557  -0.085186  -0.051419  -0.142149  -0.092399
     5  C   -0.005019  -0.122323  -0.015622   0.021931  -0.012246  -0.090628
     6  C   -0.153723   0.118047   0.011988  -0.005024   0.002781  -0.077860
     7  H    0.001303   0.006166   0.003727   0.000088  -0.000046  -0.008851
     8  H    0.002979   0.006144  -0.000001   0.000002  -0.000002  -0.014629
     9  H    0.000710   0.001108   0.000000   0.000000   0.000000  -0.004288
    10  H   -0.018642   0.027981   0.003832   0.000080  -0.000501  -0.012605
    11  H   -0.010048  -0.000915  -0.000002   0.000001  -0.000003   0.005296
    12  Cl   0.004447   0.010840   0.000992   0.000012  -0.000181  -0.023838
    13  Br  35.054786  -0.091197  -0.000490  -0.000337   0.007171  -0.108385
    14  C   -0.091197   6.346747   0.478171   0.435036   0.447985  -0.245071
    15  H   -0.000490   0.478171   0.518613  -0.023773  -0.025051   0.000725
    16  H   -0.000337   0.435036  -0.023773   0.496350  -0.023155  -0.016092
    17  H    0.007171   0.447985  -0.025051  -0.023155   0.500454  -0.011187
    18  C   -0.108385  -0.245071   0.000725  -0.016092  -0.011187   6.575740
    19  H    0.002084  -0.020005  -0.000005  -0.000057   0.001694   0.489336
    20  H   -0.001239  -0.037094   0.000054   0.002794   0.000046   0.474332
    21  H    0.002961   0.009632  -0.000157   0.000086   0.000042   0.433583
    22  Cl  -0.010823   0.031953   0.013214   0.012623  -0.005182  -0.004999
    23  C    0.013939   0.330102  -0.006421   0.002109  -0.000087  -0.124104
    24  H    0.000150   0.000856   0.000000   0.000000   0.000000  -0.000318
    25  C   -0.000034   0.013551  -0.000425   0.000424   0.000030   0.021762
    26  H   -0.000036   0.001148   0.000000   0.000001   0.000000   0.007495
    27  H    0.000001  -0.000711   0.000000   0.000000   0.000000   0.000053
    28  Cl   0.000123  -0.000491  -0.000001   0.000002   0.000002  -0.003632
             19         20         21         22         23         24
     1  C   -0.003636  -0.008289  -0.004646   0.175804   1.462550  -0.036249
     2  C   -0.019930   0.030321   0.017677   0.001918  -1.280351  -0.006560
     3  C    0.033380   0.069166  -0.080798  -0.556701  -6.387930   0.035367
     4  C   -0.099476  -0.142880  -0.079647   0.159168   1.508955  -0.008462
     5  C   -0.013113  -0.007399  -0.024149   0.260585 -10.565793   0.002934
     6  C   -0.005474   0.007572  -0.015243  -0.022442   0.042534   0.040594
     7  H   -0.000105  -0.000052  -0.000210  -0.036644   0.075094  -0.000135
     8  H    0.000162  -0.000029  -0.001810   0.001088   0.016369   0.000004
     9  H    0.000001   0.000000   0.000002   0.000124   0.187558   0.005543
    10  H    0.000030  -0.000094  -0.000218   0.003662   0.004165   0.000000
    11  H    0.000002   0.000001   0.000009  -0.000063  -0.024670  -0.000012
    12  Cl  -0.000051   0.000185  -0.001481  -0.000613  -0.318037   0.003957
    13  Br   0.002084  -0.001239   0.002961  -0.010823   0.013939   0.000150
    14  C   -0.020005  -0.037094   0.009632   0.031953   0.330102   0.000856
    15  H   -0.000005   0.000054  -0.000157   0.013214  -0.006421   0.000000
    16  H   -0.000057   0.002794   0.000086   0.012623   0.002109   0.000000
    17  H    0.001694   0.000046   0.000042  -0.005182  -0.000087   0.000000
    18  C    0.489336   0.474332   0.433583  -0.004999  -0.124104  -0.000318
    19  H    0.496620  -0.021757  -0.023662  -0.000676  -0.005279   0.000000
    20  H   -0.021757   0.500053  -0.023876   0.000010  -0.025801   0.000004
    21  H   -0.023662  -0.023876   0.519659  -0.005731   0.093320   0.000054
    22  Cl  -0.000676   0.000010  -0.005731  17.188391  -0.066995   0.000267
    23  C   -0.005279  -0.025801   0.093320  -0.066995  21.108048   0.312109
    24  H    0.000000   0.000004   0.000054   0.000267   0.312109   0.514442
    25  C    0.000034  -0.003517   0.008345  -0.146014   0.026764  -0.060935
    26  H    0.000002   0.000003   0.000001   0.003544  -0.132021   0.003613
    27  H    0.000001  -0.000004   0.000013   0.009653  -0.101355  -0.003578
    28  Cl  -0.000029   0.000224  -0.000113   0.022002  -0.375502   0.017120
             25         26         27         28
     1  C   -0.004516  -0.010135   0.009165  -0.022947
     2  C   -0.001711  -0.000528   0.000460   0.004338
     3  C   -0.219490   0.026464  -0.024994  -0.026800
     4  C    0.125886  -0.026375   0.004591   0.009961
     5  C   -0.487232   0.099187   0.049579   0.327294
     6  C   -0.103571   0.001835  -0.000816  -0.006292
     7  H   -0.008220   0.000062  -0.000001   0.000883
     8  H    0.000820   0.000000   0.000003   0.000006
     9  H    0.006543   0.000000  -0.000019  -0.000125
    10  H   -0.000541   0.000000   0.000000   0.000002
    11  H    0.000206   0.000000   0.000000  -0.000002
    12  Cl  -0.029230   0.000642  -0.000712   0.003977
    13  Br  -0.000034  -0.000036   0.000001   0.000123
    14  C    0.013551   0.001148  -0.000711  -0.000491
    15  H   -0.000425   0.000000   0.000000  -0.000001
    16  H    0.000424   0.000001   0.000000   0.000002
    17  H    0.000030   0.000000   0.000000   0.000002
    18  C    0.021762   0.007495   0.000053  -0.003632
    19  H    0.000034   0.000002   0.000001  -0.000029
    20  H   -0.003517   0.000003  -0.000004   0.000224
    21  H    0.008345   0.000001   0.000013  -0.000113
    22  Cl  -0.146014   0.003544   0.009653   0.022002
    23  C    0.026764  -0.132021  -0.101355  -0.375502
    24  H   -0.060935   0.003613  -0.003578   0.017120
    25  C    6.387799   0.358216   0.403440   0.197226
    26  H    0.358216   0.488779  -0.025126  -0.020189
    27  H    0.403440  -0.025126   0.490431  -0.049238
    28  Cl   0.197226  -0.020189  -0.049238  17.038175
 Mulliken atomic charges:
              1
     1  C   -0.095520
     2  C   -0.441460
     3  C   -0.090646
     4  C    0.178031
     5  C   -0.433596
     6  C   -0.309319
     7  H    0.253356
     8  H    0.216470
     9  H    0.228562
    10  H    0.235309
    11  H    0.213877
    12  Cl  -0.115144
    13  Br  -0.133236
    14  C   -0.436759
    15  H    0.176161
    16  H    0.190229
    17  H    0.186766
    18  C   -0.620454
    19  H    0.189908
    20  H    0.187265
    21  H    0.176356
    22  Cl  -0.027121
    23  C    0.230729
    24  H    0.179237
    25  C   -0.485607
    26  H    0.223416
    27  H    0.239162
    28  Cl  -0.115973
 Sum of Mulliken atomic charges =   0.00000
 Mulliken charges with hydrogens summed into heavy atoms:
              1
     1  C    0.133042
     2  C   -0.206151
     3  C    0.162710
     4  C    0.178031
     5  C   -0.433596
     6  C    0.121028
    12  Cl  -0.115144
    13  Br  -0.133236
    14  C    0.116397
    18  C   -0.066925
    22  Cl  -0.027121
    23  C    0.409966
    25  C   -0.023029
    28  Cl  -0.115973
 Sum of Mulliken charges with hydrogens summed into heavy atoms =   0.00000
 Electronic spatial extent (au):  <R**2>=           5858.1785
 Charge=              0.0000 electrons
 Dipole moment (field-independent basis, Debye):
    X=             -1.7261    Y=             -0.3861    Z=             -2.7344  Tot=              3.2566
 Quadrupole moment (field-independent basis, Debye-Ang):
   XX=           -143.3845   YY=           -120.3124   ZZ=           -116.3025
   XY=             -0.5505   XZ=             -6.3193   YZ=             -3.3112
 Traceless Quadrupole moment (field-independent basis, Debye-Ang):
   XX=            -16.7180   YY=              6.3541   ZZ=             10.3640
   XY=             -0.5505   XZ=             -6.3193   YZ=             -3.3112
 Octapole moment (field-independent basis, Debye-Ang**2):
  XXX=           -156.3288  YYY=            -13.1788  ZZZ=            -16.5188  XYY=            -30.9389
  XXY=             -6.2139  XXZ=             -3.9141  XZZ=            -26.2342  YZZ=              1.0703
  YYZ=            -20.6980  XYZ=              1.8793
 Hexadecapole moment (field-independent basis, Debye-Ang**3):
 XXXX=          -5189.0851 YYYY=          -1614.8194 ZZZZ=           -779.5340 XXXY=              7.8216
 XXXZ=            108.2953 YYYX=             -8.7565 YYYZ=            -29.8586 ZZZX=             29.3657
 ZZZY=             12.3981 XXYY=          -1029.5668 XXZZ=           -901.0782 YYZZ=           -397.9782
 XXYZ=             11.8251 YYXZ=              8.7297 ZZXY=             -1.0505
 N-N= 1.688483619246D+03 E-N=-1.369046279177D+04  KE= 4.317878940119D+03
 1\1\GINC-COMPUTE-9-5\SP\RmPW1PW91\6-31+G(d,p)\C10H14Br1Cl3\LPASSAGLIA.
 IQUIR\20-May-2022\0\\# mPW1PW91/6-31+G** scrf=(PCM,solvent=chloroform)
  nmr\\comment\\0,1\C,0,0.288661,1.785963,-0.259913\C,0,-1.720998,0.301
 008,0.155272\C,0,0.537569,-0.456405,0.799361\C,0,-0.848809,-0.984414,0
 .273568\C,0,1.170165,0.560381,-0.132326\C,0,-1.129328,1.412558,-0.7059
 57\H,0,0.355343,0.056329,1.747657\H,0,-1.067545,1.082458,-1.749793\H,0
 ,0.723493,2.497559,-0.96139\H,0,-1.933684,0.680656,1.15615\H,0,-1.7775
 59,2.292285,-0.681678\Cl,0,0.217926,2.730634,1.333013\Br,0,-3.543538,-
 0.100646,-0.559451\C,0,-1.485254,-1.919918,1.318506\H,0,-1.515363,-1.4
 47515,2.30798\H,0,-0.924372,-2.852702,1.405988\H,0,-2.511223,-2.158033
 ,1.026056\C,0,-0.688907,-1.719298,-1.0676\H,0,-1.665218,-2.036275,-1.4
 42888\H,0,-0.066123,-2.608773,-0.934552\H,0,-0.21884,-1.092345,-1.8318
 62\Cl,0,1.629129,-1.830533,1.304466\C,0,2.276261,0.535653,-0.896469\H,
 0,2.486735,1.44685,-1.455865\C,0,3.286936,-0.533802,-1.153988\H,0,3.10
 3911,-1.465337,-0.632053\H,0,3.366699,-0.721253,-2.227795\Cl,0,4.94999
 2,0.038625,-0.645002\\Version=EM64L-G09RevC.01\State=1-A\HF=-4341.9454
 929\RMSD=4.610e-09\Dipole=-0.6790951,-0.1518889,-1.0757868\Quadrupole=
 -12.4294521,4.7240994,7.7053527,-0.4093055,-4.6982782,-2.4617941\PG=C0
 1 [X(C10H14Br1Cl3)]\\@


 Fatherhood is pretending the present you love most is soap-on-a-rope.
 -- Bill Cosby
 Job cpu time:  0 days  0 hours 19 minutes 16.1 seconds.
 File lengths (MBytes):  RWF=    150 Int=      0 D2E=      0 Chk=      9 Scr=      1
 Normal termination of Gaussian 09 at Fri May 20 10:43:43 2022.
