 Entering Gaussian System, Link 0=g09
 Input=/home/lpassaglia.iquir/NMR_Tetrahalogenados/04_SRRE_Tetrahalogenado_001.gjc
 Output=/home/lpassaglia.iquir/NMR_Tetrahalogenados/04_SRRE_Tetrahalogenado_001.log
 Initial command:
 /share/apps/Gaussian09/EM64T.SSE4.2-enabled/g09/l1.exe /tmp/Gau-1770.inp -scrdir=/tmp/
 Entering Link 1 = /share/apps/Gaussian09/EM64T.SSE4.2-enabled/g09/l1.exe PID=      1771.
  
 Copyright (c) 1988,1990,1992,1993,1995,1998,2003,2009,2011,
            Gaussian, Inc.  All Rights Reserved.
  
 This is part of the Gaussian(R) 09 program.  It is based on
 the Gaussian(R) 03 system (copyright 2003, Gaussian, Inc.),
 the Gaussian(R) 98 system (copyright 1998, Gaussian, Inc.),
 the Gaussian(R) 94 system (copyright 1995, Gaussian, Inc.),
 the Gaussian 92(TM) system (copyright 1992, Gaussian, Inc.),
 the Gaussian 90(TM) system (copyright 1990, Gaussian, Inc.),
 the Gaussian 88(TM) system (copyright 1988, Gaussian, Inc.),
 the Gaussian 86(TM) system (copyright 1986, Carnegie Mellon
 University), and the Gaussian 82(TM) system (copyright 1983,
 Carnegie Mellon University). Gaussian is a federally registered
 trademark of Gaussian, Inc.
  
 This software contains proprietary and confidential information,
 including trade secrets, belonging to Gaussian, Inc.
  
 This software is provided under written license and may be
 used, copied, transmitted, or stored only in accord with that
 written license.
  
 The following legend is applicable only to US Government
 contracts under FAR:
  
                    RESTRICTED RIGHTS LEGEND
  
 Use, reproduction and disclosure by the US Government is
 subject to restrictions as set forth in subparagraphs (a)
 and (c) of the Commercial Computer Software - Restricted
 Rights clause in FAR 52.227-19.
  
 Gaussian, Inc.
 340 Quinnipiac St., Bldg. 40, Wallingford CT 06492
  
  
 ---------------------------------------------------------------
 Warning -- This program may not be used in any manner that
 competes with the business of Gaussian, Inc. or will provide
 assistance to any competitor of Gaussian, Inc.  The licensee
 of this program is prohibited from giving any competitor of
 Gaussian, Inc. access to this program.  By using this program,
 the user acknowledges that Gaussian, Inc. is engaged in the
 business of creating and licensing software in the field of
 computational chemistry and represents and warrants to the
 licensee that it is not a competitor of Gaussian, Inc. and that
 it will not use this program in any manner prohibited above.
 ---------------------------------------------------------------
  

 Cite this work as:
 Gaussian 09, Revision C.01,
 M. J. Frisch, G. W. Trucks, H. B. Schlegel, G. E. Scuseria, 
 M. A. Robb, J. R. Cheeseman, G. Scalmani, V. Barone, B. Mennucci, 
 G. A. Petersson, H. Nakatsuji, M. Caricato, X. Li, H. P. Hratchian, 
 A. F. Izmaylov, J. Bloino, G. Zheng, J. L. Sonnenberg, M. Hada, 
 M. Ehara, K. Toyota, R. Fukuda, J. Hasegawa, M. Ishida, T. Nakajima, 
 Y. Honda, O. Kitao, H. Nakai, T. Vreven, J. A. Montgomery, Jr., 
 J. E. Peralta, F. Ogliaro, M. Bearpark, J. J. Heyd, E. Brothers, 
 K. N. Kudin, V. N. Staroverov, T. Keith, R. Kobayashi, J. Normand, 
 K. Raghavachari, A. Rendell, J. C. Burant, S. S. Iyengar, J. Tomasi, 
 M. Cossi, N. Rega, J. M. Millam, M. Klene, J. E. Knox, J. B. Cross, 
 V. Bakken, C. Adamo, J. Jaramillo, R. Gomperts, R. E. Stratmann, 
 O. Yazyev, A. J. Austin, R. Cammi, C. Pomelli, J. W. Ochterski, 
 R. L. Martin, K. Morokuma, V. G. Zakrzewski, G. A. Voth, 
 P. Salvador, J. J. Dannenberg, S. Dapprich, A. D. Daniels, 
 O. Farkas, J. B. Foresman, J. V. Ortiz, J. Cioslowski, 
 and D. J. Fox, Gaussian, Inc., Wallingford CT, 2010.
 
 ******************************************
 Gaussian 09:  EM64L-G09RevC.01 23-Sep-2011
                20-May-2022 
 ******************************************
 %nprocshared=4
 Will use up to    4 processors via shared memory.
 -----------------------------------------------------
 # mPW1PW91/6-31+G** scrf=(PCM,solvent=chloroform) nmr
 -----------------------------------------------------
 1/38=1/1;
 2/12=2,17=6,18=5,40=1/2;
 3/5=1,6=6,7=111,11=2,16=1,25=1,30=1,70=2201,72=7,74=-7/1,2,8,3;
 4//1;
 5/5=2,38=5,53=7/2;
 8/6=1,10=90,11=11/1;
 10/13=100,45=16/2;
 6/7=2,8=2,9=2,10=2,28=1/1;
 99/9=1/99;
 -------
 comment
 -------
 Charge =  0 Multiplicity = 1
 Symbolic Z-Matrix:
 6                    -0.01688   1.5615    0.07945 
 6                     1.43736  -0.10514  -1.1431 
 6                    -0.4185   -0.90016   0.47002 
 6                     0.49524  -1.2643   -0.73772 
 6                    -1.03599   0.47949   0.38078 
 6                     0.74863   1.25963  -1.21455 
 1                    -1.19573  -1.66066   0.51786 
 1                     1.49105   2.03986  -1.39609 
 1                     0.69591   1.61518   0.90697 
 1                     1.89691  -0.34208  -2.1035 
 1                     0.04821   1.26842  -2.05799 
 17                   -0.71995   3.23635  -0.031 
 35                    3.04346   0.08361   0.0482 
 6                    -0.46903  -1.49791  -1.93833 
 1                    -1.13867  -0.65459  -2.12463 
 1                    -1.09424  -2.37634  -1.74774 
 1                     0.10612  -1.69115  -2.85047 
 6                     1.26073  -2.57637  -0.50066 
 1                     1.79076  -2.86701  -1.41498 
 1                     0.5631   -3.38197  -0.24621 
 1                     1.99207  -2.48459   0.30249 
 17                    0.40824  -1.05955   2.11964 
 6                    -2.34835   0.70366   0.54709 
 1                    -2.71701   1.71695   0.42176 
 6                    -3.38429  -0.30685   0.91076 
 1                    -2.98445  -1.2207    1.34751 
 1                    -4.11551   0.11906   1.59913 
 17                   -4.36318  -0.8314   -0.55707 
 
                          Input orientation:                          
 ---------------------------------------------------------------------
 Center     Atomic      Atomic             Coordinates (Angstroms)
 Number     Number       Type             X           Y           Z
 ---------------------------------------------------------------------
      1          6           0       -0.016877    1.561504    0.079447
      2          6           0        1.437364   -0.105142   -1.143099
      3          6           0       -0.418496   -0.900155    0.470015
      4          6           0        0.495243   -1.264302   -0.737722
      5          6           0       -1.035988    0.479490    0.380776
      6          6           0        0.748626    1.259627   -1.214551
      7          1           0       -1.195726   -1.660662    0.517861
      8          1           0        1.491045    2.039858   -1.396086
      9          1           0        0.695912    1.615180    0.906971
     10          1           0        1.896910   -0.342078   -2.103496
     11          1           0        0.048211    1.268416   -2.057994
     12         17           0       -0.719949    3.236346   -0.030998
     13         35           0        3.043461    0.083614    0.048198
     14          6           0       -0.469028   -1.497905   -1.938329
     15          1           0       -1.138673   -0.654588   -2.124634
     16          1           0       -1.094236   -2.376336   -1.747744
     17          1           0        0.106118   -1.691145   -2.850468
     18          6           0        1.260731   -2.576374   -0.500662
     19          1           0        1.790763   -2.867005   -1.414977
     20          1           0        0.563100   -3.381968   -0.246206
     21          1           0        1.992065   -2.484586    0.302492
     22         17           0        0.408236   -1.059551    2.119636
     23          6           0       -2.348354    0.703662    0.547085
     24          1           0       -2.717011    1.716945    0.421760
     25          6           0       -3.384287   -0.306848    0.910758
     26          1           0       -2.984452   -1.220702    1.347514
     27          1           0       -4.115511    0.119059    1.599126
     28         17           0       -4.363183   -0.831396   -0.557070
 ---------------------------------------------------------------------
                    Distance matrix (angstroms):
                    1          2          3          4          5
     1  C    0.000000
     2  C    2.527280   0.000000
     3  C    2.524600   2.584260   0.000000
     4  C    2.985835   1.547764   1.557611   0.000000
     5  C    1.516621   2.963353   1.514160   2.576144   0.000000
     6  C    1.533478   1.530379   2.977347   2.581044   2.517644
     7  H    3.458937   3.480171   1.088461   2.143121   2.150479
     8  H    2.163296   2.160534   3.971443   3.513195   3.460908
     9  H    1.093501   2.777057   2.785632   3.322153   2.136855
    10  H    3.471519   1.090726   3.506496   2.163448   3.930454
    11  H    2.158423   2.157183   3.363234   2.890954   2.783072
    12  Cl   1.819781   4.129929   4.177622   4.715080   2.805297
    13  Br   3.398647   2.008573   3.623655   2.987970   4.112083
    14  C    3.692674   2.491287   2.481931   1.557513   3.099965
    15  H    3.320762   2.810920   2.703916   2.228218   2.752046
    16  H    4.472797   3.454405   2.748489   2.187055   3.562265
    17  H    4.379413   2.683790   3.453475   2.190276   4.056723
    18  C    4.369307   2.559475   2.563538   1.537434   3.923029
    19  H    5.011243   2.797623   3.507495   2.169263   4.734372
    20  H    4.988020   3.508040   2.763313   2.175018   4.226233
    21  H    4.522880   2.838870   2.889514   2.193539   4.238040
    22  Cl   3.348585   3.551822   1.852064   2.866006   2.734605
    23  C    2.527917   4.224044   2.510482   3.689127   1.341721
    24  H    2.726181   4.798710   3.483491   4.533300   2.087777
    25  C    3.939704   5.244743   3.056499   4.322610   2.532532
    26  H    4.260888   5.196161   2.730730   4.056894   2.760751
    27  H    4.603137   6.197135   3.997700   5.351037   3.331328
    28  Cl   5.002150   5.875136   4.076786   4.881019   3.697053
                    6          7          8          9         10
     6  C    0.000000
     7  H    3.912780   0.000000
     8  H    1.092200   4.957396   0.000000
     9  H    2.151756   3.802741   2.473188   0.000000
    10  H    2.161999   4.263165   2.517692   3.786313   0.000000
    11  H    1.096382   4.094131   1.764940   3.054632   2.452234
    12  Cl   2.732202   4.950586   2.860689   2.347899   4.893702
    13  Br   2.871203   4.608014   2.884934   2.931582   2.474991
    14  C    3.100084   2.566603   4.080647   4.375399   2.638348
    15  H    2.838022   2.828112   3.834871   4.208109   3.051700
    16  H    4.111041   2.378120   5.129338   5.117064   3.634793
    17  H    3.434545   3.611283   4.237173   5.039642   2.363236
    18  C    3.935326   2.812490   4.707911   4.457530   2.822389
    19  H    4.260905   3.756360   4.916044   5.165281   2.619271
    20  H    4.745157   2.576851   5.619564   5.130199   3.803880
    21  H    4.226901   3.299583   4.858681   4.342060   3.223069
    22  Cl   4.075691   2.345146   4.810313   2.950847   4.534949
    23  C    3.606070   2.630482   4.505809   3.198115   5.112868
    24  H    3.859701   3.705641   4.595277   3.448743   5.648430
    25  C    4.904259   2.603263   5.881957   4.510236   6.080955
    26  H    5.162565   2.020255   6.179698   4.667053   6.042280
    27  H    5.733891   3.586319   6.640349   5.085985   7.076105
    28  Cl   5.561947   3.446149   6.574194   5.807202   6.466810
                   11         12         13         14         15
    11  H    0.000000
    12  Cl   2.927718   0.000000
    13  Br   3.848548   4.910117   0.000000
    14  C    2.816805   5.110186   4.334175   0.000000
    15  H    2.260770   4.438244   4.770365   1.092848   0.000000
    16  H    3.832187   5.881284   5.137830   1.094919   1.763076
    17  H    3.064371   5.736895   4.492217   1.095505   1.775046
    18  C    4.321793   6.158847   3.248832   2.494403   3.476735
    19  H    4.533394   6.743142   3.523675   2.693508   3.738983
    20  H    5.017346   6.744969   4.271899   2.734641   3.723322
    21  H    4.841021   6.339976   2.786710   3.471570   4.363640
    22  Cl   4.796003   4.934851   3.541482   4.174785   4.535499
    23  C    3.584537   3.066002   5.450231   3.815239   3.232066
    24  H    3.741231   2.549868   5.999196   4.578068   3.820922
    25  C    4.803851   4.532088   6.497108   4.246722   3.791742
    26  H    5.195213   5.185899   6.302793   4.147404   3.972807
    27  H    5.659693   4.889236   7.325129   5.331510   4.829750
    28  Cl   5.111006   5.486021   7.487454   4.185278   3.589705
                   16         17         18         19         20
    16  H    0.000000
    17  H    1.768145   0.000000
    18  C    2.672283   2.763756   0.000000
    19  H    2.945286   2.506254   1.096071   0.000000
    20  H    2.452076   3.138454   1.095636   1.771544   0.000000
    21  H    3.706810   3.758657   1.090106   1.771007   1.774346
    22  Cl   4.352927   5.019175   3.145387   4.203779   3.318857
    23  C    4.040475   4.827308   4.988176   5.807895   5.079198
    24  H    4.908676   5.503872   5.925022   6.686272   6.099526
    25  C    4.073665   5.314699   5.359015   6.224515   5.135834
    26  H    3.806446   5.234118   4.824436   5.757113   4.449285
    27  H    5.153313   6.395145   6.370121   7.272240   6.127956
    28  Cl   3.806647   5.096420   5.888679   6.538407   5.556106
                   21         22         23         24         25
    21  H    0.000000
    22  Cl   2.800223   0.000000
    23  C    5.391103   3.630513   0.000000
    24  H    6.312090   4.512082   1.085521   0.000000
    25  C    5.832469   4.051071   1.492161   2.186347   0.000000
    26  H    5.239771   3.483170   2.179102   3.091652   1.088923
    27  H    6.764814   4.703652   2.138082   2.428010   1.090842
    28  Cl   6.622768   5.475696   2.763168   3.187794   1.840627
                   26         27         28
    26  H    0.000000
    27  H    1.771317   0.000000
    28  Cl   2.383254   2.369364   0.000000
 Stoichiometry    C10H14BrCl3
 Framework group  C1[X(C10H14BrCl3)]
 Deg. of freedom    78
 Full point group                 C1      NOp   1
 Largest Abelian subgroup         C1      NOp   1
 Largest concise Abelian subgroup C1      NOp   1
                         Standard orientation:                         
 ---------------------------------------------------------------------
 Center     Atomic      Atomic             Coordinates (Angstroms)
 Number     Number       Type             X           Y           Z
 ---------------------------------------------------------------------
      1          6           0       -0.016877    1.561504    0.079447
      2          6           0        1.437364   -0.105142   -1.143099
      3          6           0       -0.418496   -0.900155    0.470015
      4          6           0        0.495243   -1.264302   -0.737722
      5          6           0       -1.035988    0.479490    0.380776
      6          6           0        0.748626    1.259627   -1.214551
      7          1           0       -1.195726   -1.660662    0.517861
      8          1           0        1.491045    2.039858   -1.396086
      9          1           0        0.695912    1.615180    0.906971
     10          1           0        1.896910   -0.342078   -2.103496
     11          1           0        0.048211    1.268416   -2.057994
     12         17           0       -0.719949    3.236346   -0.030998
     13         35           0        3.043461    0.083614    0.048198
     14          6           0       -0.469028   -1.497905   -1.938329
     15          1           0       -1.138673   -0.654588   -2.124634
     16          1           0       -1.094236   -2.376336   -1.747744
     17          1           0        0.106118   -1.691145   -2.850468
     18          6           0        1.260731   -2.576374   -0.500662
     19          1           0        1.790763   -2.867005   -1.414977
     20          1           0        0.563100   -3.381968   -0.246206
     21          1           0        1.992065   -2.484586    0.302492
     22         17           0        0.408236   -1.059551    2.119636
     23          6           0       -2.348354    0.703662    0.547085
     24          1           0       -2.717011    1.716945    0.421760
     25          6           0       -3.384287   -0.306848    0.910758
     26          1           0       -2.984452   -1.220702    1.347514
     27          1           0       -4.115511    0.119059    1.599126
     28         17           0       -4.363183   -0.831396   -0.557070
 ---------------------------------------------------------------------
 Rotational constants (GHZ):      0.5144817      0.2462469      0.2088759
 Standard basis: 6-31+G(d,p) (6D, 7F)
 There are   363 symmetry adapted basis functions of A   symmetry.
 Integral buffers will be    131072 words long.
 Raffenetti 2 integral format.
 Two-electron integral symmetry is turned on.
   363 basis functions,   673 primitive gaussians,   363 cartesian basis functions
    80 alpha electrons       80 beta electrons
       nuclear repulsion energy      1735.6736235097 Hartrees.
 NAtoms=   28 NActive=   28 NUniq=   28 SFac= 1.00D+00 NAtFMM=   60 NAOKFM=F Big=F
 ------------------------------------------------------------------------------
 Polarizable Continuum Model (PCM)
 =================================
 Model                : PCM.
 Atomic radii         : UFF (Universal Force Field).
 Polarization charges : Total charges.
 Charge compensation  : None.
 Solution method      : Matrix inversion.
 Cavity type          : Scaled VdW (van der Waals Surface) (Alpha=1.100).
 Cavity algorithm     : GePol (No added spheres)
                        Default sphere list used, NSphG=   28.
                        Lebedev-Laikov grids with approx.  5.0 points / Ang**2.
                        Smoothing algorithm: Karplus/York (Gamma=1.0000).
                        Polarization charges: spherical gaussians, with
                                              point-specific exponents (IZeta= 3).
                        Self-potential: point-specific (ISelfS= 7).
                        Self-field    : sphere-specific E.n sum rule (ISelfD= 2).
 Solvent              : Chloroform, Eps=   4.711300 Eps(inf)=   2.090627
 ------------------------------------------------------------------------------
 One-electron integrals computed using PRISM.
 NBasis=   363 RedAO= T  NBF=   363
 NBsUse=   363 1.00D-06 NBFU=   363
 Harris functional with IExCor=  908 diagonalized for initial guess.
 ExpMin= 3.50D-02 ExpMax= 5.74D+05 ExpMxC= 5.74D+03 IAcc=3 IRadAn=         5 AccDes= 0.00D+00
 HarFok:  IExCor=  908 AccDes= 0.00D+00 IRadAn=         5 IDoV= 1
 ScaDFX=  1.000000  1.000000  1.000000  1.000000
 FoFCou: FMM=F IPFlag=           0 FMFlag=      100000 FMFlg1=           0
         NFxFlg=           0 DoJE=T BraDBF=F KetDBF=T FulRan=T
         Omega=  0.000000  0.000000  1.000000  0.000000  0.000000 ICntrl=     500 IOpCl=  0
         NMat0=    1 NMatS0=    1 NMatT0=    0 NMatD0=    1 NMtDS0=    0 NMtDT0=    0
         I1Cent=           4 NGrid=           0.
 Petite list used in FoFCou.
 Initial guess orbital symmetries:
       Occupied  (A) (A) (A) (A) (A) (A) (A) (A) (A) (A) (A) (A)
                 (A) (A) (A) (A) (A) (A) (A) (A) (A) (A) (A) (A)
                 (A) (A) (A) (A) (A) (A) (A) (A) (A) (A) (A) (A)
                 (A) (A) (A) (A) (A) (A) (A) (A) (A) (A) (A) (A)
                 (A) (A) (A) (A) (A) (A) (A) (A) (A) (A) (A) (A)
                 (A) (A) (A) (A) (A) (A) (A) (A) (A) (A) (A) (A)
                 (A) (A) (A) (A) (A) (A) (A) (A)
       Virtual   (A) (A) (A) (A) (A) (A) (A) (A) (A) (A) (A) (A)
                 (A) (A) (A) (A) (A) (A) (A) (A) (A) (A) (A) (A)
                 (A) (A) (A) (A) (A) (A) (A) (A) (A) (A) (A) (A)
                 (A) (A) (A) (A) (A) (A) (A) (A) (A) (A) (A) (A)
                 (A) (A) (A) (A) (A) (A) (A) (A) (A) (A) (A) (A)
                 (A) (A) (A) (A) (A) (A) (A) (A) (A) (A) (A) (A)
                 (A) (A) (A) (A) (A) (A) (A) (A) (A) (A) (A) (A)
                 (A) (A) (A) (A) (A) (A) (A) (A) (A) (A) (A) (A)
                 (A) (A) (A) (A) (A) (A) (A) (A) (A) (A) (A) (A)
                 (A) (A) (A) (A) (A) (A) (A) (A) (A) (A) (A) (A)
                 (A) (A) (A) (A) (A) (A) (A) (A) (A) (A) (A) (A)
                 (A) (A) (A) (A) (A) (A) (A) (A) (A) (A) (A) (A)
                 (A) (A) (A) (A) (A) (A) (A) (A) (A) (A) (A) (A)
                 (A) (A) (A) (A) (A) (A) (A) (A) (A) (A) (A) (A)
                 (A) (A) (A) (A) (A) (A) (A) (A) (A) (A) (A) (A)
                 (A) (A) (A) (A) (A) (A) (A) (A) (A) (A) (A) (A)
                 (A) (A) (A) (A) (A) (A) (A) (A) (A) (A) (A) (A)
                 (A) (A) (A) (A) (A) (A) (A) (A) (A) (A) (A) (A)
                 (A) (A) (A) (A) (A) (A) (A) (A) (A) (A) (A) (A)
                 (A) (A) (A) (A) (A) (A) (A) (A) (A) (A) (A) (A)
                 (A) (A) (A) (A) (A) (A) (A) (A) (A) (A) (A) (A)
                 (A) (A) (A) (A) (A) (A) (A) (A) (A) (A) (A) (A)
                 (A) (A) (A) (A) (A) (A) (A) (A) (A) (A) (A) (A)
                 (A) (A) (A) (A) (A) (A) (A)
 The electronic state of the initial guess is 1-A.
 Requested convergence on RMS density matrix=1.00D-08 within 128 cycles.
 Requested convergence on MAX density matrix=1.00D-06.
 Requested convergence on             energy=1.00D-06.
 No special actions if energy rises.
 Error on total polarization charges =  0.01622
 SCF Done:  E(RmPW1PW91) =  -4341.94905315     A.U. after   14 cycles
             Convg  =    0.5558D-08             -V/T =  2.0056
 Range of M.O.s used for correlation:     1   363
 NBasis=   363 NAE=    80 NBE=    80 NFC=     0 NFV=     0
 NROrb=    363 NOA=    80 NOB=    80 NVA=   283 NVB=   283

 **** Warning!!: The largest alpha MO coefficient is  0.14165087D+03

 NEqPCM:  Using equilibrium solvation (IEInf=0, Eps=   4.7113, EpsInf=   2.0906)
          Differentiating once with respect to magnetic field using GIAOs.
          Electric field/nuclear overlap derivatives assumed to be zero.
 FoFCou: FMM=F IPFlag=           0 FMFlag=    10101102 FMFlg1=           0
         NFxFlg=    40000000 DoJE=F BraDBF=F KetDBF=T FulRan=T
         Omega=  0.000000  0.000000  1.000000  0.000000  0.000000 ICntrl=    6100 IOpCl=  0
         NMat0=    1 NMatS0=    1 NMatT0=    0 NMatD0=    1 NMtDS0=    0 NMtDT0=    0
         I1Cent=           7 NGrid=        2116.
 Symmetry not used in FoFCou.
          There are     3 degrees of freedom in the 1st order CPHF.  IDoFFX=0.
      3 vectors produced by pass  0 Test12= 7.55D-13 3.33D-08 XBig12= 9.24D+01 1.31D+00.
 AX will form     3 AO Fock derivatives at one time.
      3 vectors produced by pass  1 Test12= 7.55D-13 3.33D-08 XBig12= 3.03D-01 1.28D-01.
      3 vectors produced by pass  2 Test12= 7.55D-13 3.33D-08 XBig12= 1.25D-03 8.90D-03.
      3 vectors produced by pass  3 Test12= 7.55D-13 3.33D-08 XBig12= 7.36D-06 8.79D-04.
      3 vectors produced by pass  4 Test12= 7.55D-13 3.33D-08 XBig12= 3.56D-08 4.79D-05.
      3 vectors produced by pass  5 Test12= 7.55D-13 3.33D-08 XBig12= 1.19D-10 2.36D-06.
      3 vectors produced by pass  6 Test12= 7.55D-13 3.33D-08 XBig12= 5.71D-13 1.81D-07.
 Inverted reduced A of dimension    21 with in-core refinement.
 Calculating GIAO nuclear magnetic shielding tensors.
 SCF GIAO Magnetic shielding tensor (ppm):
      1  C    Isotropic =   131.4195   Anisotropy =    59.8333
   XX=   127.1635   YX=   -20.1629   ZX=   -12.6234
   XY=   -19.4621   YY=   161.8236   ZY=    -9.2729
   XZ=   -10.6310   YZ=   -13.3840   ZZ=   105.2715
   Eigenvalues:    94.8666   128.0835   171.3084
      2  C    Isotropic =   123.7113   Anisotropy =    50.0005
   XX=   125.3365   YX=    16.4517   ZX=    37.1031
   XY=    18.9012   YY=   131.3186   ZY=    -3.8108
   XZ=    30.6640   YZ=   -13.8752   ZZ=   114.4788
   Eigenvalues:    79.1468   134.9421   157.0450
      3  C    Isotropic =   125.8875   Anisotropy =    44.4861
   XX=   125.8230   YX=   -18.6232   ZX=     2.9193
   XY=   -12.9451   YY=   100.0065   ZY=     7.6215
   XZ=    16.9490   YZ=    11.5233   ZZ=   151.8331
   Eigenvalues:    89.8153   132.3024   155.5449
      4  C    Isotropic =   151.3132   Anisotropy =     2.2644
   XX=   150.5142   YX=     1.8717   ZX=    -0.9445
   XY=    -0.1994   YY=   151.4624   ZY=    -1.1501
   XZ=     3.1548   YZ=    -0.8335   ZZ=   151.9629
   Eigenvalues:   149.2406   151.8761   152.8228
      5  C    Isotropic =    53.2015   Anisotropy =   150.3149
   XX=    48.6224   YX=   -21.6561   ZX=    20.4625
   XY=    -8.9079   YY=   -36.5460   ZY=    23.7312
   XZ=    13.7271   YZ=    29.4605   ZZ=   147.5281
   Eigenvalues:   -43.6809    49.8740   153.4114
      6  C    Isotropic =   151.3327   Anisotropy =    31.3183
   XX=   151.5605   YX=   -14.9451   ZX=    -0.4903
   XY=   -16.4379   YY=   159.9447   ZY=    -4.5457
   XZ=    -9.1483   YZ=     3.4935   ZZ=   142.4929
   Eigenvalues:   136.5390   145.2475   172.2116
      7  H    Isotropic =    26.7295   Anisotropy =     8.2256
   XX=    31.7040   YX=     1.4681   ZX=     0.7299
   XY=     1.8593   YY=    22.6988   ZY=    -0.6894
   XZ=     1.5609   YZ=     1.1316   ZZ=    25.7857
   Eigenvalues:    22.4012    25.5741    32.2132
      8  H    Isotropic =    29.0234   Anisotropy =     7.2156
   XX=    29.9733   YX=     0.1427   ZX=    -2.2556
   XY=     0.6230   YY=    31.9085   ZY=    -2.8342
   XZ=    -2.8986   YZ=    -3.8852   ZZ=    25.1885
   Eigenvalues:    23.0564    30.1801    33.8338
      9  H    Isotropic =    25.9960   Anisotropy =     9.0518
   XX=    26.2557   YX=    -3.9232   ZX=     2.3055
   XY=    -4.0281   YY=    28.6734   ZY=    -0.1990
   XZ=     3.7948   YZ=     0.1260   ZZ=    23.0590
   Eigenvalues:    20.5849    25.3726    32.0305
     10  H    Isotropic =    27.0505   Anisotropy =     7.4391
   XX=    27.1722   YX=     1.3208   ZX=     1.2719
   XY=     0.6578   YY=    22.3709   ZY=     1.4613
   XZ=     0.0285   YZ=     1.7160   ZZ=    31.6085
   Eigenvalues:    21.9588    27.1828    32.0100
     11  H    Isotropic =    29.0778   Anisotropy =     5.6441
   XX=    27.2057   YX=    -1.3273   ZX=     2.5484
   XY=    -2.3083   YY=    29.2113   ZY=    -1.0653
   XZ=     1.7058   YZ=    -1.4176   ZZ=    30.8165
   Eigenvalues:    25.7737    28.6192    32.8406
     12  Cl   Isotropic =   849.9434   Anisotropy =   322.0349
   XX=   744.1671   YX=  -119.5576   ZX=   -42.0238
   XY=  -102.9714   YY=  1025.9978   ZY=   -10.3254
   XZ=   -41.1697   YZ=   -16.2149   ZZ=   779.6652
   Eigenvalues:   685.3380   799.8589  1064.6333
     13  Br   Isotropic =  2422.1392   Anisotropy =  1057.6112
   XX=  2748.0402   YX=   149.3355   ZX=   515.5396
   XY=   170.9809   YY=  2216.9845   ZY=    61.7541
   XZ=   541.4079   YZ=    40.2826   ZZ=  2301.3929
   Eigenvalues:  1942.5954  2196.6089  3127.2133
     14  C    Isotropic =   167.2598   Anisotropy =    42.4775
   XX=   169.4096   YX=     8.1861   ZX=    15.8842
   XY=     8.5772   YY=   149.7721   ZY=     7.4875
   XZ=    15.5265   YZ=     7.2133   ZZ=   182.5977
   Eigenvalues:   146.5938   159.6075   195.5781
     15  H    Isotropic =    30.2506   Anisotropy =     6.2762
   XX=    31.5934   YX=    -2.9091   ZX=     2.8697
   XY=    -1.5146   YY=    29.0536   ZY=     0.9435
   XZ=     3.2798   YZ=     0.0129   ZZ=    30.1048
   Eigenvalues:    26.4054    29.9117    34.4348
     16  H    Isotropic =    30.5162   Anisotropy =     9.3560
   XX=    32.2166   YX=     4.4673   ZX=     1.3028
   XY=     3.6349   YY=    31.3516   ZY=     1.4972
   XZ=     2.0389   YZ=     3.1498   ZZ=    27.9803
   Eigenvalues:    26.7388    28.0563    36.7535
     17  H    Isotropic =    30.6787   Anisotropy =    10.5355
   XX=    28.0209   YX=     0.1433   ZX=     0.1751
   XY=    -0.1231   YY=    27.3709   ZY=     2.9678
   XZ=    -1.6340   YZ=     3.4724   ZZ=    36.6442
   Eigenvalues:    26.3309    28.0027    37.7024
     18  C    Isotropic =   167.3162   Anisotropy =    35.1938
   XX=   164.5681   YX=    -9.8439   ZX=     5.4427
   XY=   -13.5141   YY=   185.0114   ZY=    -6.2541
   XZ=     2.4244   YZ=     0.5274   ZZ=   152.3692
   Eigenvalues:   151.1980   159.9719   190.7788
     19  H    Isotropic =    30.5329   Anisotropy =    10.2013
   XX=    29.7929   YX=    -3.1522   ZX=    -2.9480
   XY=    -3.3886   YY=    31.9625   ZY=     4.0102
   XZ=    -2.7808   YZ=     3.5667   ZZ=    29.8433
   Eigenvalues:    26.8203    27.4446    37.3337
     20  H    Isotropic =    30.6257   Anisotropy =    10.3082
   XX=    28.3011   YX=     1.6340   ZX=    -0.6155
   XY=     2.5133   YY=    36.8650   ZY=    -1.3816
   XZ=    -0.8019   YZ=    -0.9626   ZZ=    26.7110
   Eigenvalues:    26.4248    27.9545    37.4978
     21  H    Isotropic =    29.4164   Anisotropy =     4.8533
   XX=    29.9681   YX=    -0.3145   ZX=     3.3546
   XY=    -1.5282   YY=    30.7389   ZY=    -1.0805
   XZ=     2.8311   YZ=     0.0624   ZZ=    27.5423
   Eigenvalues:    25.4311    30.1662    32.6519
     22  Cl   Isotropic =   777.5622   Anisotropy =   428.9986
   XX=   688.1436   YX=   -98.4817   ZX=   162.0990
   XY=   -87.4542   YY=   651.2111   ZY=    -8.2598
   XZ=   138.9543   YZ=   -41.1950   ZZ=   993.3318
   Eigenvalues:   558.2438   710.8815  1063.5612
     23  C    Isotropic =    71.1418   Anisotropy =   139.2424
   XX=    73.1786   YX=     2.8345   ZX=    19.9868
   XY=     2.4567   YY=   -13.4897   ZY=    32.8712
   XZ=    15.9149   YZ=    34.9506   ZZ=   153.7365
   Eigenvalues:   -20.1123    69.5677   163.9701
     24  H    Isotropic =    25.1190   Anisotropy =    10.3523
   XX=    29.8949   YX=     2.8217   ZX=    -2.0940
   XY=     4.1538   YY=    25.1195   ZY=    -0.3497
   XZ=    -2.1871   YZ=     0.6744   ZZ=    20.3427
   Eigenvalues:    19.7034    23.6331    32.0206
     25  C    Isotropic =   150.6495   Anisotropy =    50.4754
   XX=   144.3885   YX=    18.0659   ZX=    15.4831
   XY=    18.4266   YY=   135.8145   ZY=     9.4340
   XZ=    18.7867   YZ=     3.7890   ZZ=   171.7454
   Eigenvalues:   120.6658   146.9829   184.2997
     26  H    Isotropic =    27.3531   Anisotropy =     7.0311
   XX=    29.6434   YX=     0.1545   ZX=     2.3533
   XY=    -0.4743   YY=    25.2072   ZY=    -2.2480
   XZ=     2.9330   YZ=    -4.6328   ZZ=    27.2086
   Eigenvalues:    22.3066    27.7122    32.0404
     27  H    Isotropic =    27.4458   Anisotropy =     9.7139
   XX=    28.2062   YX=    -0.0374   ZX=    -2.1519
   XY=    -0.0901   YY=    23.5657   ZY=     3.4497
   XZ=    -4.3468   YZ=     4.3836   ZZ=    30.5656
   Eigenvalues:    21.5372    26.8785    33.9218
     28  Cl   Isotropic =   819.4505   Anisotropy =   423.3431
   XX=   841.7322   YX=   155.6414   ZX=   139.0907
   XY=   137.8250   YY=   696.6688   ZY=    80.4158
   XZ=   161.4176   YZ=    99.6319   ZZ=   919.9507
   Eigenvalues:   605.4836   751.1887  1101.6792
 End of Minotr Frequency-dependent properties file   721 does not exist.
 End of Minotr Frequency-dependent properties file   722 does not exist.

 **********************************************************************

            Population analysis using the SCF density.

 **********************************************************************

 Orbital symmetries:
       Occupied  (A) (A) (A) (A) (A) (A) (A) (A) (A) (A) (A) (A)
                 (A) (A) (A) (A) (A) (A) (A) (A) (A) (A) (A) (A)
                 (A) (A) (A) (A) (A) (A) (A) (A) (A) (A) (A) (A)
                 (A) (A) (A) (A) (A) (A) (A) (A) (A) (A) (A) (A)
                 (A) (A) (A) (A) (A) (A) (A) (A) (A) (A) (A) (A)
                 (A) (A) (A) (A) (A) (A) (A) (A) (A) (A) (A) (A)
                 (A) (A) (A) (A) (A) (A) (A) (A)
       Virtual   (A) (A) (A) (A) (A) (A) (A) (A) (A) (A) (A) (A)
                 (A) (A) (A) (A) (A) (A) (A) (A) (A) (A) (A) (A)
                 (A) (A) (A) (A) (A) (A) (A) (A) (A) (A) (A) (A)
                 (A) (A) (A) (A) (A) (A) (A) (A) (A) (A) (A) (A)
                 (A) (A) (A) (A) (A) (A) (A) (A) (A) (A) (A) (A)
                 (A) (A) (A) (A) (A) (A) (A) (A) (A) (A) (A) (A)
                 (A) (A) (A) (A) (A) (A) (A) (A) (A) (A) (A) (A)
                 (A) (A) (A) (A) (A) (A) (A) (A) (A) (A) (A) (A)
                 (A) (A) (A) (A) (A) (A) (A) (A) (A) (A) (A) (A)
                 (A) (A) (A) (A) (A) (A) (A) (A) (A) (A) (A) (A)
                 (A) (A) (A) (A) (A) (A) (A) (A) (A) (A) (A) (A)
                 (A) (A) (A) (A) (A) (A) (A) (A) (A) (A) (A) (A)
                 (A) (A) (A) (A) (A) (A) (A) (A) (A) (A) (A) (A)
                 (A) (A) (A) (A) (A) (A) (A) (A) (A) (A) (A) (A)
                 (A) (A) (A) (A) (A) (A) (A) (A) (A) (A) (A) (A)
                 (A) (A) (A) (A) (A) (A) (A) (A) (A) (A) (A) (A)
                 (A) (A) (A) (A) (A) (A) (A) (A) (A) (A) (A) (A)
                 (A) (A) (A) (A) (A) (A) (A) (A) (A) (A) (A) (A)
                 (A) (A) (A) (A) (A) (A) (A) (A) (A) (A) (A) (A)
                 (A) (A) (A) (A) (A) (A) (A) (A) (A) (A) (A) (A)
                 (A) (A) (A) (A) (A) (A) (A) (A) (A) (A) (A) (A)
                 (A) (A) (A) (A) (A) (A) (A) (A) (A) (A) (A) (A)
                 (A) (A) (A) (A) (A) (A) (A) (A) (A) (A) (A) (A)
                 (A) (A) (A) (A) (A) (A) (A)
 The electronic state is 1-A.
 Alpha  occ. eigenvalues -- -483.41330-101.76623-101.76098-101.76090 -62.05283
 Alpha  occ. eigenvalues --  -56.53831 -56.53490 -56.53479 -10.33981 -10.33667
 Alpha  occ. eigenvalues --  -10.33115 -10.32528 -10.30594 -10.30164 -10.28253
 Alpha  occ. eigenvalues --  -10.28074 -10.25813 -10.24822  -9.54371  -9.53880
 Alpha  occ. eigenvalues --   -9.53795  -8.67089  -7.28341  -7.27851  -7.27766
 Alpha  occ. eigenvalues --   -7.27408  -7.27395  -7.26912  -7.26898  -7.26836
 Alpha  occ. eigenvalues --   -7.26819  -6.60560  -6.59399  -6.59378  -2.69292
 Alpha  occ. eigenvalues --   -2.68969  -2.68951  -2.68007  -2.68006  -0.93952
 Alpha  occ. eigenvalues --   -0.89354  -0.89073  -0.86554  -0.82446  -0.81585
 Alpha  occ. eigenvalues --   -0.77947  -0.73983  -0.72272  -0.70151  -0.68019
 Alpha  occ. eigenvalues --   -0.64615  -0.59537  -0.55397  -0.52985  -0.51428
 Alpha  occ. eigenvalues --   -0.49644  -0.48781  -0.47738  -0.45891  -0.45691
 Alpha  occ. eigenvalues --   -0.45291  -0.43988  -0.42587  -0.41976  -0.41143
 Alpha  occ. eigenvalues --   -0.40247  -0.39502  -0.38423  -0.37952  -0.36059
 Alpha  occ. eigenvalues --   -0.35179  -0.33721  -0.33006  -0.32807  -0.32664
 Alpha  occ. eigenvalues --   -0.32092  -0.31819  -0.29880  -0.28943  -0.28457
 Alpha virt. eigenvalues --   -0.05198  -0.02008  -0.00497   0.00282   0.00648
 Alpha virt. eigenvalues --    0.01362   0.02268   0.02678   0.03211   0.03803
 Alpha virt. eigenvalues --    0.04445   0.04741   0.05455   0.05549   0.06241
 Alpha virt. eigenvalues --    0.06683   0.07278   0.07647   0.08291   0.08436
 Alpha virt. eigenvalues --    0.08920   0.09036   0.09635   0.10084   0.10397
 Alpha virt. eigenvalues --    0.10681   0.10876   0.11500   0.11707   0.12226
 Alpha virt. eigenvalues --    0.12599   0.12924   0.13693   0.14306   0.14649
 Alpha virt. eigenvalues --    0.15033   0.15594   0.16085   0.16440   0.16767
 Alpha virt. eigenvalues --    0.16971   0.17689   0.17994   0.18123   0.18689
 Alpha virt. eigenvalues --    0.18959   0.19361   0.19637   0.19757   0.19908
 Alpha virt. eigenvalues --    0.20520   0.20887   0.21311   0.22197   0.22777
 Alpha virt. eigenvalues --    0.23343   0.23709   0.24053   0.24286   0.24583
 Alpha virt. eigenvalues --    0.25367   0.26276   0.26771   0.27017   0.27585
 Alpha virt. eigenvalues --    0.27737   0.28185   0.28592   0.29290   0.30054
 Alpha virt. eigenvalues --    0.30578   0.31128   0.31541   0.32359   0.33216
 Alpha virt. eigenvalues --    0.35038   0.35470   0.36255   0.37781   0.38524
 Alpha virt. eigenvalues --    0.41017   0.42615   0.44867   0.47480   0.47683
 Alpha virt. eigenvalues --    0.49771   0.53291   0.54112   0.54536   0.57612
 Alpha virt. eigenvalues --    0.58468   0.59422   0.59908   0.61350   0.61663
 Alpha virt. eigenvalues --    0.63201   0.64360   0.64723   0.64803   0.65438
 Alpha virt. eigenvalues --    0.65729   0.66159   0.66717   0.66960   0.68135
 Alpha virt. eigenvalues --    0.68409   0.70082   0.70723   0.71731   0.73031
 Alpha virt. eigenvalues --    0.73482   0.74484   0.75870   0.76327   0.77091
 Alpha virt. eigenvalues --    0.77990   0.78427   0.78788   0.79257   0.79775
 Alpha virt. eigenvalues --    0.80721   0.81968   0.82962   0.85054   0.85945
 Alpha virt. eigenvalues --    0.86934   0.87260   0.88184   0.89191   0.90236
 Alpha virt. eigenvalues --    0.91260   0.92630   0.92788   0.93169   0.94586
 Alpha virt. eigenvalues --    0.95303   0.97461   0.98647   0.99587   1.00672
 Alpha virt. eigenvalues --    1.01191   1.02412   1.02938   1.03976   1.05172
 Alpha virt. eigenvalues --    1.05336   1.06141   1.06407   1.07302   1.07583
 Alpha virt. eigenvalues --    1.09046   1.10779   1.12008   1.13074   1.14102
 Alpha virt. eigenvalues --    1.15142   1.16808   1.17815   1.19189   1.19706
 Alpha virt. eigenvalues --    1.20926   1.22944   1.23649   1.25928   1.29437
 Alpha virt. eigenvalues --    1.31122   1.33678   1.35253   1.38436   1.39013
 Alpha virt. eigenvalues --    1.42740   1.46544   1.48602   1.50183   1.54116
 Alpha virt. eigenvalues --    1.55434   1.57058   1.61536   1.66680   1.68934
 Alpha virt. eigenvalues --    1.71468   1.72530   1.73751   1.77132   1.80798
 Alpha virt. eigenvalues --    1.82713   1.83817   1.85253   1.87729   1.88739
 Alpha virt. eigenvalues --    1.89629   1.90610   1.93337   1.94719   1.96528
 Alpha virt. eigenvalues --    1.97334   1.99494   2.00160   2.00498   2.03239
 Alpha virt. eigenvalues --    2.04495   2.06095   2.09042   2.09479   2.11681
 Alpha virt. eigenvalues --    2.12011   2.15280   2.15575   2.17155   2.17708
 Alpha virt. eigenvalues --    2.18734   2.18931   2.19986   2.20853   2.23175
 Alpha virt. eigenvalues --    2.25406   2.27001   2.30851   2.33349   2.35842
 Alpha virt. eigenvalues --    2.40252   2.41074   2.43443   2.46095   2.47765
 Alpha virt. eigenvalues --    2.49330   2.51360   2.52881   2.55904   2.57227
 Alpha virt. eigenvalues --    2.59380   2.59537   2.61708   2.62818   2.68737
 Alpha virt. eigenvalues --    2.69003   2.69982   2.72770   2.74606   2.75670
 Alpha virt. eigenvalues --    2.78036   2.78844   2.80872   2.82174   2.84072
 Alpha virt. eigenvalues --    2.85735   2.88352   2.88801   2.90687   2.92384
 Alpha virt. eigenvalues --    2.96972   2.98823   3.01287   3.09567   3.30353
 Alpha virt. eigenvalues --    3.31614   3.32663   3.35302   3.41145   3.45555
 Alpha virt. eigenvalues --    3.46797   3.47642   3.48687   3.49692   3.51714
 Alpha virt. eigenvalues --    3.52089   3.54914   3.56844   4.29666   4.31850
 Alpha virt. eigenvalues --    4.40189   4.40732   4.42918   4.47730   4.52150
 Alpha virt. eigenvalues --    4.56281   4.61350   4.66630   4.73297   4.77451
 Alpha virt. eigenvalues --    4.83871   9.09155  81.85735
          Condensed to atoms (all electrons):
              1          2          3          4          5          6
     1  C   13.671037   1.264442  -0.110345  -1.782284  -3.464334  -1.248152
     2  C    1.264442  11.456709   1.403054  -5.048437   0.808818  -3.134456
     3  C   -0.110345   1.403054  12.396413  -3.278232  -1.508311  -0.958060
     4  C   -1.782284  -5.048437  -3.278232  14.587232  -0.302521   2.490901
     5  C   -3.464334   0.808818  -1.508311  -0.302521  16.694318  -0.591008
     6  C   -1.248152  -3.134456  -0.958060   2.490901  -0.591008   8.446088
     7  H   -0.030514   0.046547   0.270351  -0.103384   0.033274  -0.013535
     8  H   -0.152865  -0.041543   0.011959   0.022747   0.085848   0.402750
     9  H    0.371043   0.062460  -0.009630  -0.078523   0.086031  -0.125409
    10  H    0.054944   0.207175   0.055877   0.005083  -0.071135   0.051463
    11  H   -0.006203   0.055244   0.017516  -0.023261   0.042964   0.296333
    12  Cl  -0.411200  -0.182346   0.053888   0.178149   0.183182   0.265333
    13  Br   0.181527   0.472062   0.169550  -0.156087  -0.185094  -0.283393
    14  C    0.292114   0.356971   0.161751  -1.069898  -0.339621  -0.086138
    15  H    0.019913  -0.012972  -0.023354  -0.039949  -0.063639  -0.018717
    16  H    0.001203   0.031936  -0.041750  -0.076183   0.041467   0.000800
    17  H    0.002429  -0.000204   0.065736  -0.165839  -0.008945   0.016588
    18  C   -0.139512  -0.356093  -0.030620  -0.178454  -0.162857   0.013117
    19  H    0.003318   0.000063   0.067474  -0.154337  -0.024180   0.010699
    20  H   -0.007193   0.041121  -0.010734  -0.131674   0.012285  -0.009760
    21  H    0.000931  -0.055213  -0.056471   0.011724   0.010405   0.002692
    22  Cl  -0.364593  -0.111864  -0.487733   0.109149   0.669572  -0.009398
    23  C   -2.119987  -0.909979  -1.127751   1.068119  -6.563126   0.756094
    24  H   -0.114100  -0.006816   0.019052   0.009521   0.112939   0.006582
    25  C    0.372649   0.090691  -0.734834  -0.172661   0.134032  -0.018478
    26  H   -0.022166  -0.000092   0.021718   0.007555   0.003061  -0.002828
    27  H    0.007261   0.000504   0.002648  -0.004658   0.145147  -0.001271
    28  Cl  -0.002355  -0.009281   0.068796  -0.004543   0.145636   0.007300
              7          8          9         10         11         12
     1  C   -0.030514  -0.152865   0.371043   0.054944  -0.006203  -0.411200
     2  C    0.046547  -0.041543   0.062460   0.207175   0.055244  -0.182346
     3  C    0.270351   0.011959  -0.009630   0.055877   0.017516   0.053888
     4  C   -0.103384   0.022747  -0.078523   0.005083  -0.023261   0.178149
     5  C    0.033274   0.085848   0.086031  -0.071135   0.042964   0.183182
     6  C   -0.013535   0.402750  -0.125409   0.051463   0.296333   0.265333
     7  H    0.540245   0.000010  -0.000026  -0.000158  -0.000024  -0.001775
     8  H    0.000010   0.481940  -0.003097  -0.003280  -0.020944   0.006076
     9  H   -0.000026  -0.003097   0.469961  -0.000064   0.003892  -0.056710
    10  H   -0.000158  -0.003280  -0.000064   0.510625  -0.004206   0.002075
    11  H   -0.000024  -0.020944   0.003892  -0.004206   0.488236  -0.004873
    12  Cl  -0.001775   0.006076  -0.056710   0.002075  -0.004873  17.054244
    13  Br  -0.001848  -0.005761   0.003925  -0.025480   0.005010   0.011048
    14  C    0.007629   0.000205  -0.008367   0.044762  -0.027470  -0.009552
    15  H   -0.000624   0.000032  -0.000062  -0.000181  -0.001853  -0.001934
    16  H    0.004405   0.000000   0.000001   0.000106   0.000038   0.000158
    17  H    0.000154  -0.000008   0.000001   0.003873   0.000193   0.000058
    18  C   -0.033681  -0.000957   0.006741  -0.045495   0.009471  -0.004978
    19  H   -0.000054  -0.000002  -0.000001   0.002524   0.000002  -0.000003
    20  H    0.003231   0.000002  -0.000001  -0.000053  -0.000001  -0.000051
    21  H    0.000087  -0.000002   0.000028  -0.000105   0.000000   0.000132
    22  Cl  -0.025603   0.001932   0.013349  -0.006209  -0.000752  -0.004493
    23  C    0.097632   0.000827  -0.004809  -0.003159  -0.044513  -0.110803
    24  H    0.000206  -0.000003   0.000148   0.000000  -0.000008   0.015557
    25  C   -0.008300  -0.000177   0.005280  -0.000016   0.001971   0.003181
    26  H    0.005203   0.000000   0.000000   0.000000   0.000000   0.000162
    27  H   -0.000015   0.000000   0.000009   0.000000   0.000000   0.000287
    28  Cl   0.002782  -0.000039   0.000097   0.000016   0.000084   0.005090
             13         14         15         16         17         18
     1  C    0.181527   0.292114   0.019913   0.001203   0.002429  -0.139512
     2  C    0.472062   0.356971  -0.012972   0.031936  -0.000204  -0.356093
     3  C    0.169550   0.161751  -0.023354  -0.041750   0.065736  -0.030620
     4  C   -0.156087  -1.069898  -0.039949  -0.076183  -0.165839  -0.178454
     5  C   -0.185094  -0.339621  -0.063639   0.041467  -0.008945  -0.162857
     6  C   -0.283393  -0.086138  -0.018717   0.000800   0.016588   0.013117
     7  H   -0.001848   0.007629  -0.000624   0.004405   0.000154  -0.033681
     8  H   -0.005761   0.000205   0.000032   0.000000  -0.000008  -0.000957
     9  H    0.003925  -0.008367  -0.000062   0.000001   0.000001   0.006741
    10  H   -0.025480   0.044762  -0.000181   0.000106   0.003873  -0.045495
    11  H    0.005010  -0.027470  -0.001853   0.000038   0.000193   0.009471
    12  Cl   0.011048  -0.009552  -0.001934   0.000158   0.000058  -0.004978
    13  Br  35.128980   0.055170   0.000469  -0.002236   0.002627  -0.091069
    14  C    0.055170   6.544287   0.408239   0.435672   0.481563  -0.703082
    15  H    0.000469   0.408239   0.497535  -0.024028  -0.022936   0.027485
    16  H   -0.002236   0.435672  -0.024028   0.496942  -0.020414  -0.038167
    17  H    0.002627   0.481563  -0.022936  -0.020414   0.502685  -0.036653
    18  C   -0.091069  -0.703082   0.027485  -0.038167  -0.036653   6.628114
    19  H    0.001373   0.008289   0.000099  -0.000111   0.002259   0.444000
    20  H    0.000123  -0.010965   0.000059   0.002676   0.000059   0.451630
    21  H    0.002403  -0.001050  -0.000145   0.000106   0.000014   0.435967
    22  Cl  -0.066991  -0.155224  -0.002033   0.002718  -0.003200   0.193582
    23  C   -0.035354   0.144180   0.059754  -0.010937  -0.008364   0.096792
    24  H   -0.000074  -0.002971   0.000038   0.000002   0.000000   0.000359
    25  C   -0.000030   0.076700   0.001748   0.003156   0.000117  -0.059643
    26  H    0.000113  -0.000903   0.000038   0.000006   0.000000   0.001638
    27  H   -0.000052  -0.001370  -0.000003   0.000000   0.000000   0.000230
    28  Cl  -0.000394  -0.007791   0.000568  -0.000349  -0.000117   0.000754
             19         20         21         22         23         24
     1  C    0.003318  -0.007193   0.000931  -0.364593  -2.119987  -0.114100
     2  C    0.000063   0.041121  -0.055213  -0.111864  -0.909979  -0.006816
     3  C    0.067474  -0.010734  -0.056471  -0.487733  -1.127751   0.019052
     4  C   -0.154337  -0.131674   0.011724   0.109149   1.068119   0.009521
     5  C   -0.024180   0.012285   0.010405   0.669572  -6.563126   0.112939
     6  C    0.010699  -0.009760   0.002692  -0.009398   0.756094   0.006582
     7  H   -0.000054   0.003231   0.000087  -0.025603   0.097632   0.000206
     8  H   -0.000002   0.000002  -0.000002   0.001932   0.000827  -0.000003
     9  H   -0.000001  -0.000001   0.000028   0.013349  -0.004809   0.000148
    10  H    0.002524  -0.000053  -0.000105  -0.006209  -0.003159   0.000000
    11  H    0.000002  -0.000001   0.000000  -0.000752  -0.044513  -0.000008
    12  Cl  -0.000003  -0.000051   0.000132  -0.004493  -0.110803   0.015557
    13  Br   0.001373   0.000123   0.002403  -0.066991  -0.035354  -0.000074
    14  C    0.008289  -0.010965  -0.001050  -0.155224   0.144180  -0.002971
    15  H    0.000099   0.000059  -0.000145  -0.002033   0.059754   0.000038
    16  H   -0.000111   0.002676   0.000106   0.002718  -0.010937   0.000002
    17  H    0.002259   0.000059   0.000014  -0.003200  -0.008364   0.000000
    18  C    0.444000   0.451630   0.435967   0.193582   0.096792   0.000359
    19  H    0.513249  -0.024800  -0.024528  -0.006895   0.001496   0.000000
    20  H   -0.024800   0.514091  -0.022937   0.003990   0.009584   0.000000
    21  H   -0.024528  -0.022937   0.487519   0.015820  -0.005941   0.000000
    22  Cl  -0.006895   0.003990   0.015820  17.370152  -0.045052   0.001331
    23  C    0.001496   0.009584  -0.005941  -0.045052  15.301794   0.335240
    24  H    0.000000   0.000000   0.000000   0.001331   0.335240   0.490917
    25  C   -0.000207  -0.000174   0.000121  -0.026574  -0.387982  -0.077939
    26  H    0.000000   0.000001   0.000001   0.003075  -0.012110   0.003330
    27  H    0.000000   0.000000   0.000000   0.003789  -0.204529  -0.003796
    28  Cl   0.000009   0.000056  -0.000019   0.002880  -0.237890   0.018732
             25         26         27         28
     1  C    0.372649  -0.022166   0.007261  -0.002355
     2  C    0.090691  -0.000092   0.000504  -0.009281
     3  C   -0.734834   0.021718   0.002648   0.068796
     4  C   -0.172661   0.007555  -0.004658  -0.004543
     5  C    0.134032   0.003061   0.145147   0.145636
     6  C   -0.018478  -0.002828  -0.001271   0.007300
     7  H   -0.008300   0.005203  -0.000015   0.002782
     8  H   -0.000177   0.000000   0.000000  -0.000039
     9  H    0.005280   0.000000   0.000009   0.000097
    10  H   -0.000016   0.000000   0.000000   0.000016
    11  H    0.001971   0.000000   0.000000   0.000084
    12  Cl   0.003181   0.000162   0.000287   0.005090
    13  Br  -0.000030   0.000113  -0.000052  -0.000394
    14  C    0.076700  -0.000903  -0.001370  -0.007791
    15  H    0.001748   0.000038  -0.000003   0.000568
    16  H    0.003156   0.000006   0.000000  -0.000349
    17  H    0.000117   0.000000   0.000000  -0.000117
    18  C   -0.059643   0.001638   0.000230   0.000754
    19  H   -0.000207   0.000000   0.000000   0.000009
    20  H   -0.000174   0.000001   0.000000   0.000056
    21  H    0.000121   0.000001   0.000000  -0.000019
    22  Cl  -0.026574   0.003075   0.003789   0.002880
    23  C   -0.387982  -0.012110  -0.204529  -0.237890
    24  H   -0.077939   0.003330  -0.003796   0.018732
    25  C    6.419193   0.317800   0.392381   0.150859
    26  H    0.317800   0.505170  -0.024277  -0.026508
    27  H    0.392381  -0.024277   0.484970  -0.036375
    28  Cl   0.150859  -0.026508  -0.036375  17.026602
 Mulliken atomic charges:
              1
     1  C   -0.267008
     2  C   -0.428502
     3  C   -0.407957
     4  C    0.280745
     5  C    0.075791
     6  C   -0.266139
     7  H    0.207786
     8  H    0.214352
     9  H    0.263733
    10  H    0.221018
    11  H    0.213152
    12  Cl   0.010097
    13  Br  -0.180517
    14  C   -0.593128
    15  H    0.196454
    16  H    0.192782
    17  H    0.188325
    18  C   -0.428617
    19  H    0.180263
    20  H    0.179434
    21  H    0.198462
    22  Cl  -0.074726
    23  C   -0.039225
    24  H    0.191754
    25  C   -0.482863
    26  H    0.220013
    27  H    0.239121
    28  Cl  -0.104601
 Sum of Mulliken atomic charges =   0.00000
 Mulliken charges with hydrogens summed into heavy atoms:
              1
     1  C   -0.003275
     2  C   -0.207484
     3  C   -0.200171
     4  C    0.280745
     5  C    0.075791
     6  C    0.161365
    12  Cl   0.010097
    13  Br  -0.180517
    14  C   -0.015567
    18  C    0.129542
    22  Cl  -0.074726
    23  C    0.152529
    25  C   -0.023729
    28  Cl  -0.104601
 Sum of Mulliken charges with hydrogens summed into heavy atoms =   0.00000
 Electronic spatial extent (au):  <R**2>=           5178.4865
 Charge=              0.0000 electrons
 Dipole moment (field-independent basis, Debye):
    X=             -0.5707    Y=             -1.7951    Z=             -2.0696  Tot=              2.7984
 Quadrupole moment (field-independent basis, Debye-Ang):
   XX=           -131.2763   YY=           -121.9242   ZZ=           -116.4553
   XY=             -0.9942   XZ=             -9.7014   YZ=              2.2662
 Traceless Quadrupole moment (field-independent basis, Debye-Ang):
   XX=             -8.0577   YY=              1.2944   ZZ=              6.7633
   XY=             -0.9942   XZ=             -9.7014   YZ=              2.2662
 Octapole moment (field-independent basis, Debye-Ang**2):
  XXX=             99.0276  YYY=            -21.4056  ZZZ=            -11.7354  XYY=             29.8756
  XXY=             17.2178  XXZ=             32.8185  XZZ=             27.0512  YZZ=              1.9531
  YYZ=             -3.1874  XYZ=              3.3669
 Hexadecapole moment (field-independent basis, Debye-Ang**3):
 XXXX=          -3907.6905 YYYY=          -1841.0831 ZZZZ=           -902.6585 XXXY=            -67.8148
 XXXZ=            -73.0335 YYYX=             14.2550 YYYZ=             -1.9266 ZZZX=              1.7353
 ZZZY=              5.8377 XXYY=           -906.8111 XXZZ=           -710.9252 YYZZ=           -455.7319
 XXYZ=             -0.3686 YYXZ=             -4.4461 ZZXY=              6.8258
 N-N= 1.735673623510D+03 E-N=-1.378537507848D+04  KE= 4.317834700424D+03
 1\1\GINC-COMPUTE-7-0\SP\RmPW1PW91\6-31+G(d,p)\C10H14Br1Cl3\LPASSAGLIA.
 IQUIR\20-May-2022\0\\# mPW1PW91/6-31+G** scrf=(PCM,solvent=chloroform)
  nmr\\comment\\0,1\C,0,-0.016877,1.561504,0.079447\C,0,1.437364,-0.105
 142,-1.143099\C,0,-0.418496,-0.900155,0.470015\C,0,0.495243,-1.264302,
 -0.737722\C,0,-1.035988,0.47949,0.380776\C,0,0.748626,1.259627,-1.2145
 51\H,0,-1.195726,-1.660662,0.517861\H,0,1.491045,2.039858,-1.396086\H,
 0,0.695912,1.61518,0.906971\H,0,1.89691,-0.342078,-2.103496\H,0,0.0482
 11,1.268416,-2.057994\Cl,0,-0.719949,3.236346,-0.030998\Br,0,3.043461,
 0.083614,0.048198\C,0,-0.469028,-1.497905,-1.938329\H,0,-1.138673,-0.6
 54588,-2.124634\H,0,-1.094236,-2.376336,-1.747744\H,0,0.106118,-1.6911
 45,-2.850468\C,0,1.260731,-2.576374,-0.500662\H,0,1.790763,-2.867005,-
 1.414977\H,0,0.5631,-3.381968,-0.246206\H,0,1.992065,-2.484586,0.30249
 2\Cl,0,0.408236,-1.059551,2.119636\C,0,-2.348354,0.703662,0.547085\H,0
 ,-2.717011,1.716945,0.42176\C,0,-3.384287,-0.306848,0.910758\H,0,-2.98
 4452,-1.220702,1.347514\H,0,-4.115511,0.119059,1.599126\Cl,0,-4.363183
 ,-0.831396,-0.55707\\Version=EM64L-G09RevC.01\State=1-A\HF=-4341.94905
 31\RMSD=5.558e-09\Dipole=-0.2245119,-0.706252,-0.8142254\Quadrupole=-5
 .9907053,0.9623294,5.0283759,-0.7391458,-7.2127281,1.6848829\PG=C01 [X
 (C10H14Br1Cl3)]\\@


 ASKING DUMB QUESTIONS IS EASIER THAN CORECTING DUMB MISTAKES.
 Job cpu time:  0 days  0 hours 40 minutes 13.6 seconds.
 File lengths (MBytes):  RWF=    153 Int=      0 D2E=      0 Chk=      9 Scr=      1
 Normal termination of Gaussian 09 at Fri May 20 10:47:13 2022.
