 Entering Gaussian System, Link 0=g09
 Input=/home/lpassaglia.iquir/NMR_Tetrahalogenados/01_SSSE_Tetrahalogenado_001.gjc
 Output=/home/lpassaglia.iquir/NMR_Tetrahalogenados/01_SSSE_Tetrahalogenado_001.log
 Initial command:
 /share/apps/Gaussian09/EM64T.SSE4.2-enabled/g09/l1.exe /tmp/Gau-8165.inp -scrdir=/tmp/
 Entering Link 1 = /share/apps/Gaussian09/EM64T.SSE4.2-enabled/g09/l1.exe PID=      8166.
  
 Copyright (c) 1988,1990,1992,1993,1995,1998,2003,2009,2011,
            Gaussian, Inc.  All Rights Reserved.
  
 This is part of the Gaussian(R) 09 program.  It is based on
 the Gaussian(R) 03 system (copyright 2003, Gaussian, Inc.),
 the Gaussian(R) 98 system (copyright 1998, Gaussian, Inc.),
 the Gaussian(R) 94 system (copyright 1995, Gaussian, Inc.),
 the Gaussian 92(TM) system (copyright 1992, Gaussian, Inc.),
 the Gaussian 90(TM) system (copyright 1990, Gaussian, Inc.),
 the Gaussian 88(TM) system (copyright 1988, Gaussian, Inc.),
 the Gaussian 86(TM) system (copyright 1986, Carnegie Mellon
 University), and the Gaussian 82(TM) system (copyright 1983,
 Carnegie Mellon University). Gaussian is a federally registered
 trademark of Gaussian, Inc.
  
 This software contains proprietary and confidential information,
 including trade secrets, belonging to Gaussian, Inc.
  
 This software is provided under written license and may be
 used, copied, transmitted, or stored only in accord with that
 written license.
  
 The following legend is applicable only to US Government
 contracts under FAR:
  
                    RESTRICTED RIGHTS LEGEND
  
 Use, reproduction and disclosure by the US Government is
 subject to restrictions as set forth in subparagraphs (a)
 and (c) of the Commercial Computer Software - Restricted
 Rights clause in FAR 52.227-19.
  
 Gaussian, Inc.
 340 Quinnipiac St., Bldg. 40, Wallingford CT 06492
  
  
 ---------------------------------------------------------------
 Warning -- This program may not be used in any manner that
 competes with the business of Gaussian, Inc. or will provide
 assistance to any competitor of Gaussian, Inc.  The licensee
 of this program is prohibited from giving any competitor of
 Gaussian, Inc. access to this program.  By using this program,
 the user acknowledges that Gaussian, Inc. is engaged in the
 business of creating and licensing software in the field of
 computational chemistry and represents and warrants to the
 licensee that it is not a competitor of Gaussian, Inc. and that
 it will not use this program in any manner prohibited above.
 ---------------------------------------------------------------
  

 Cite this work as:
 Gaussian 09, Revision C.01,
 M. J. Frisch, G. W. Trucks, H. B. Schlegel, G. E. Scuseria, 
 M. A. Robb, J. R. Cheeseman, G. Scalmani, V. Barone, B. Mennucci, 
 G. A. Petersson, H. Nakatsuji, M. Caricato, X. Li, H. P. Hratchian, 
 A. F. Izmaylov, J. Bloino, G. Zheng, J. L. Sonnenberg, M. Hada, 
 M. Ehara, K. Toyota, R. Fukuda, J. Hasegawa, M. Ishida, T. Nakajima, 
 Y. Honda, O. Kitao, H. Nakai, T. Vreven, J. A. Montgomery, Jr., 
 J. E. Peralta, F. Ogliaro, M. Bearpark, J. J. Heyd, E. Brothers, 
 K. N. Kudin, V. N. Staroverov, T. Keith, R. Kobayashi, J. Normand, 
 K. Raghavachari, A. Rendell, J. C. Burant, S. S. Iyengar, J. Tomasi, 
 M. Cossi, N. Rega, J. M. Millam, M. Klene, J. E. Knox, J. B. Cross, 
 V. Bakken, C. Adamo, J. Jaramillo, R. Gomperts, R. E. Stratmann, 
 O. Yazyev, A. J. Austin, R. Cammi, C. Pomelli, J. W. Ochterski, 
 R. L. Martin, K. Morokuma, V. G. Zakrzewski, G. A. Voth, 
 P. Salvador, J. J. Dannenberg, S. Dapprich, A. D. Daniels, 
 O. Farkas, J. B. Foresman, J. V. Ortiz, J. Cioslowski, 
 and D. J. Fox, Gaussian, Inc., Wallingford CT, 2010.
 
 ******************************************
 Gaussian 09:  EM64L-G09RevC.01 23-Sep-2011
                20-May-2022 
 ******************************************
 %nprocshared=4
 Will use up to    4 processors via shared memory.
 -----------------------------------------------------
 # mPW1PW91/6-31+G** scrf=(PCM,solvent=chloroform) nmr
 -----------------------------------------------------
 1/38=1/1;
 2/12=2,17=6,18=5,40=1/2;
 3/5=1,6=6,7=111,11=2,16=1,25=1,30=1,70=2201,72=7,74=-7/1,2,8,3;
 4//1;
 5/5=2,38=5,53=7/2;
 8/6=1,10=90,11=11/1;
 10/13=100,45=16/2;
 6/7=2,8=2,9=2,10=2,28=1/1;
 99/9=1/99;
 -------
 comment
 -------
 Charge =  0 Multiplicity = 1
 Symbolic Z-Matrix:
 6                    -0.39712   1.36778  -1.15515 
 6                     1.53362   0.13657  -0.0659 
 6                    -0.7557   -0.16634   0.90496 
 6                     0.59882  -0.88836   0.61526 
 6                    -1.33504   0.56035  -0.28748 
 6                     0.96975   0.70519  -1.36393 
 1                    -1.45078  -0.92677   1.25892 
 1                     1.66539   1.42678  -1.79813 
 1                    -0.86443   1.55636  -2.12238 
 1                     1.77339   0.93778   0.63445 
 1                     0.84603  -0.10118  -2.0959 
 17                   -0.15545   3.06929  -0.46577 
 35                    3.32072  -0.65459  -0.48115 
 6                     0.26752  -2.08446  -0.30985 
 1                    -0.34424  -1.8051   -1.17274 
 1                    -0.285    -2.84683   0.2494 
 1                     1.19448  -2.53421  -0.67664 
 6                     1.2159   -1.43524   1.91424 
 1                     2.06467  -2.08199   1.67837 
 1                     0.47737  -2.02487   2.4691 
 1                     1.5679   -0.63306   2.56745 
 17                   -0.64611   0.99977   2.33866 
 6                    -2.63297   0.49005  -0.63232 
 1                    -2.95364   1.00937  -1.53418 
 6                    -3.72576  -0.2143    0.09811 
 1                    -3.44811  -0.55418   1.09426 
 1                    -4.61092   0.41965   0.17678 
 17                   -4.27441  -1.70191  -0.8256 
 
                          Input orientation:                          
 ---------------------------------------------------------------------
 Center     Atomic      Atomic             Coordinates (Angstroms)
 Number     Number       Type             X           Y           Z
 ---------------------------------------------------------------------
      1          6           0       -0.397120    1.367775   -1.155147
      2          6           0        1.533622    0.136570   -0.065899
      3          6           0       -0.755700   -0.166344    0.904960
      4          6           0        0.598822   -0.888361    0.615255
      5          6           0       -1.335038    0.560353   -0.287482
      6          6           0        0.969746    0.705188   -1.363931
      7          1           0       -1.450784   -0.926774    1.258921
      8          1           0        1.665390    1.426779   -1.798131
      9          1           0       -0.864434    1.556355   -2.122382
     10          1           0        1.773386    0.937779    0.634446
     11          1           0        0.846031   -0.101181   -2.095902
     12         17           0       -0.155447    3.069290   -0.465765
     13         35           0        3.320722   -0.654588   -0.481153
     14          6           0        0.267515   -2.084459   -0.309845
     15          1           0       -0.344239   -1.805102   -1.172741
     16          1           0       -0.285003   -2.846830    0.249396
     17          1           0        1.194483   -2.534213   -0.676636
     18          6           0        1.215904   -1.435241    1.914239
     19          1           0        2.064671   -2.081994    1.678374
     20          1           0        0.477370   -2.024872    2.469102
     21          1           0        1.567898   -0.633061    2.567451
     22         17           0       -0.646113    0.999769    2.338655
     23          6           0       -2.632970    0.490048   -0.632322
     24          1           0       -2.953644    1.009370   -1.534183
     25          6           0       -3.725755   -0.214304    0.098106
     26          1           0       -3.448108   -0.554182    1.094260
     27          1           0       -4.610923    0.419653    0.176783
     28         17           0       -4.274412   -1.701914   -0.825598
 ---------------------------------------------------------------------
                    Distance matrix (angstroms):
                    1          2          3          4          5
     1  C    0.000000
     2  C    2.535763   0.000000
     3  C    2.593481   2.505059   0.000000
     4  C    3.035848   1.545414   1.562039   0.000000
     5  C    1.511444   2.908247   1.511833   2.579442   0.000000
     6  C    1.533276   1.525179   2.980704   2.567910   2.547891
     7  H    3.493263   3.434025   1.089350   2.148643   2.148559
     8  H    2.161217   2.163938   3.963132   3.510252   3.469196
     9  H    1.090637   3.463464   3.484869   3.951254   2.140174
    10  H    2.845810   1.090828   2.772822   2.171349   3.264154
    11  H    2.142026   2.156437   3.402199   2.833926   2.909480
    12  Cl   1.851704   3.407887   3.564901   4.171394   2.778126
    13  Br   4.285624   1.998022   4.333233   2.943722   4.815568
    14  C    3.615826   2.568172   2.490358   1.547974   3.092524
    15  H    3.173366   2.919170   2.677997   2.219619   2.713069
    16  H    4.443895   3.508202   2.799344   2.179587   3.605511
    17  H    4.241189   2.760633   3.451299   2.175459   4.015751
    18  C    4.458685   2.548035   2.552639   1.538580   3.916283
    19  H    5.098055   2.871677   3.496052   2.168800   4.733351
    20  H    5.040830   3.494815   2.724175   2.177879   4.191297
    21  H    4.660727   2.743727   2.894963   2.194392   4.242867
    22  Cl   3.521942   3.358309   1.851300   2.843414   2.750327
    23  C    2.458206   4.219748   2.513609   3.728396   1.344799
    24  H    2.609202   4.801374   3.487503   4.565247   2.091833
    25  C    3.892740   5.273619   3.078074   4.407240   2.542499
    26  H    4.249974   5.161467   2.726777   4.088858   2.759794
    27  H    4.519857   6.155848   3.966910   5.389304   3.311610
    28  Cl   4.956308   6.139253   4.211192   5.146488   3.747978
                    6          7          8          9         10
     6  C    0.000000
     7  H    3.924490   0.000000
     8  H    1.092311   4.959367   0.000000
     9  H    2.159618   4.235911   2.553809   0.000000
    10  H    2.166436   3.776480   2.483589   3.865337   0.000000
    11  H    1.096046   4.148711   1.759170   2.381978   3.065000
    12  Cl   2.767985   4.541032   2.790786   2.352874   3.078019
    13  Br   2.855762   5.086179   2.967599   5.009734   2.484843
    14  C    3.063716   2.598810   4.061754   4.221626   3.506174
    15  H    2.839836   2.812273   3.856783   3.531546   3.908153
    16  H    4.098055   2.462682   5.124464   5.034790   4.325332
    17  H    3.319126   3.650709   4.143545   4.802298   3.756167
    18  C    3.922809   2.792706   4.709022   5.437992   2.753158
    19  H    4.268825   3.724097   4.955502   6.021876   3.208374
    20  H    4.731575   2.527476   5.615564   5.975563   3.717919
    21  H    4.195767   3.303174   4.828121   5.718769   2.499254
    22  Cl   4.050546   2.350508   4.757981   4.500922   2.960092
    23  C    3.682540   2.642300   4.551096   2.546568   4.606641
    24  H    3.938845   3.716002   4.645360   2.238296   5.201239
    25  C    5.003074   2.651527   5.945865   4.031496   5.644068
    26  H    5.210197   2.038441   6.199838   4.634277   5.449897
    27  H    5.796481   3.601440   6.656327   4.540312   6.421628
    28  Cl   5.795268   3.594292   6.783494   4.891412   6.758370
                   11         12         13         14         15
    11  H    0.000000
    12  Cl   3.702998   0.000000
    13  Br   3.006288   5.094237   0.000000
    14  C    2.730947   5.173426   3.375789   0.000000
    15  H    2.274273   4.929012   3.903065   1.094017   0.000000
    16  H    3.783946   5.960597   4.282625   1.095096   1.763854
    17  H    2.838200   5.767671   2.844661   1.093656   1.773524
    18  C    4.242376   5.275966   3.282923   2.503493   3.478547
    19  H    4.433268   6.005163   2.877275   2.680073   3.742776
    20  H    4.967470   5.913069   4.320455   2.787496   3.739834
    21  H    4.748773   5.087015   3.516652   3.475109   4.361076
    22  Cl   4.806650   3.519722   5.140427   4.166741   4.504257
    23  C    3.820349   3.580272   6.064610   3.891644   3.286040
    24  H    3.998297   3.635202   6.576116   4.631052   3.854982
    25  C    5.072248   4.883343   7.083942   4.428330   3.947194
    26  H    5.368610   5.138564   6.950472   4.256655   4.042041
    27  H    5.934199   5.223477   8.031056   5.505138   4.997534
    28  Cl   5.513162   6.313457   7.674737   4.587095   3.946824
                   16         17         18         19         20
    16  H    0.000000
    17  H    1.773173   0.000000
    18  C    2.648963   2.814397   0.000000
    19  H    2.854456   2.551039   1.092853   0.000000
    20  H    2.486749   3.266397   1.095888   1.774271   0.000000
    21  H    3.702350   3.778613   1.092739   1.771058   1.770893
    22  Cl   4.392235   4.996879   3.094594   4.157112   3.229192
    23  C    4.174342   4.878270   5.000554   5.832885   5.061410
    24  H    5.017278   5.522619   5.937413   6.712715   6.083155
    25  C    4.334957   5.494629   5.404537   6.286060   5.154225
    26  H    3.996907   5.348855   4.816808   5.750316   4.411632
    27  H    5.421141   6.569352   6.356988   7.285367   6.092713
    28  Cl   4.287404   5.533871   6.141774   6.826295   5.791268
                   21         22         23         24         25
    21  H    0.000000
    22  Cl   2.760494   0.000000
    23  C    5.398816   3.610280   0.000000
    24  H    6.321813   4.508178   1.088981   0.000000
    25  C    5.856260   3.997278   1.491246   2.181261   0.000000
    26  H    5.228463   3.437217   2.176224   3.098048   1.088544
    27  H    6.708303   4.553015   2.138201   2.453924   1.091611
    28  Cl   6.840162   5.520520   2.745248   3.097996   1.835003
                   26         27         28
    26  H    0.000000
    27  H    1.772641   0.000000
    28  Cl   2.384517   2.370454   0.000000
 Stoichiometry    C10H14BrCl3
 Framework group  C1[X(C10H14BrCl3)]
 Deg. of freedom    78
 Full point group                 C1      NOp   1
 Largest Abelian subgroup         C1      NOp   1
 Largest concise Abelian subgroup C1      NOp   1
                         Standard orientation:                         
 ---------------------------------------------------------------------
 Center     Atomic      Atomic             Coordinates (Angstroms)
 Number     Number       Type             X           Y           Z
 ---------------------------------------------------------------------
      1          6           0       -0.397120    1.367775   -1.155147
      2          6           0        1.533622    0.136570   -0.065899
      3          6           0       -0.755700   -0.166344    0.904960
      4          6           0        0.598822   -0.888361    0.615255
      5          6           0       -1.335038    0.560353   -0.287482
      6          6           0        0.969746    0.705188   -1.363931
      7          1           0       -1.450784   -0.926774    1.258921
      8          1           0        1.665390    1.426779   -1.798131
      9          1           0       -0.864434    1.556355   -2.122382
     10          1           0        1.773386    0.937779    0.634446
     11          1           0        0.846031   -0.101181   -2.095902
     12         17           0       -0.155447    3.069290   -0.465765
     13         35           0        3.320722   -0.654588   -0.481153
     14          6           0        0.267515   -2.084459   -0.309845
     15          1           0       -0.344239   -1.805102   -1.172741
     16          1           0       -0.285003   -2.846830    0.249396
     17          1           0        1.194483   -2.534213   -0.676636
     18          6           0        1.215904   -1.435241    1.914239
     19          1           0        2.064671   -2.081994    1.678374
     20          1           0        0.477370   -2.024872    2.469102
     21          1           0        1.567898   -0.633061    2.567451
     22         17           0       -0.646113    0.999769    2.338655
     23          6           0       -2.632970    0.490048   -0.632322
     24          1           0       -2.953644    1.009370   -1.534183
     25          6           0       -3.725755   -0.214304    0.098106
     26          1           0       -3.448108   -0.554182    1.094260
     27          1           0       -4.610923    0.419653    0.176783
     28         17           0       -4.274412   -1.701914   -0.825598
 ---------------------------------------------------------------------
 Rotational constants (GHZ):      0.4876470      0.2194164      0.1956697
 Standard basis: 6-31+G(d,p) (6D, 7F)
 There are   363 symmetry adapted basis functions of A   symmetry.
 Integral buffers will be    131072 words long.
 Raffenetti 2 integral format.
 Two-electron integral symmetry is turned on.
   363 basis functions,   673 primitive gaussians,   363 cartesian basis functions
    80 alpha electrons       80 beta electrons
       nuclear repulsion energy      1703.3265064604 Hartrees.
 NAtoms=   28 NActive=   28 NUniq=   28 SFac= 1.00D+00 NAtFMM=   60 NAOKFM=F Big=F
 ------------------------------------------------------------------------------
 Polarizable Continuum Model (PCM)
 =================================
 Model                : PCM.
 Atomic radii         : UFF (Universal Force Field).
 Polarization charges : Total charges.
 Charge compensation  : None.
 Solution method      : Matrix inversion.
 Cavity type          : Scaled VdW (van der Waals Surface) (Alpha=1.100).
 Cavity algorithm     : GePol (No added spheres)
                        Default sphere list used, NSphG=   28.
                        Lebedev-Laikov grids with approx.  5.0 points / Ang**2.
                        Smoothing algorithm: Karplus/York (Gamma=1.0000).
                        Polarization charges: spherical gaussians, with
                                              point-specific exponents (IZeta= 3).
                        Self-potential: point-specific (ISelfS= 7).
                        Self-field    : sphere-specific E.n sum rule (ISelfD= 2).
 Solvent              : Chloroform, Eps=   4.711300 Eps(inf)=   2.090627
 ------------------------------------------------------------------------------
 One-electron integrals computed using PRISM.
 NBasis=   363 RedAO= T  NBF=   363
 NBsUse=   363 1.00D-06 NBFU=   363
 Harris functional with IExCor=  908 diagonalized for initial guess.
 ExpMin= 3.50D-02 ExpMax= 5.74D+05 ExpMxC= 5.74D+03 IAcc=3 IRadAn=         5 AccDes= 0.00D+00
 HarFok:  IExCor=  908 AccDes= 0.00D+00 IRadAn=         5 IDoV= 1
 ScaDFX=  1.000000  1.000000  1.000000  1.000000
 FoFCou: FMM=F IPFlag=           0 FMFlag=      100000 FMFlg1=           0
         NFxFlg=           0 DoJE=T BraDBF=F KetDBF=T FulRan=T
         Omega=  0.000000  0.000000  1.000000  0.000000  0.000000 ICntrl=     500 IOpCl=  0
         NMat0=    1 NMatS0=    1 NMatT0=    0 NMatD0=    1 NMtDS0=    0 NMtDT0=    0
         I1Cent=           4 NGrid=           0.
 Petite list used in FoFCou.
 Initial guess orbital symmetries:
       Occupied  (A) (A) (A) (A) (A) (A) (A) (A) (A) (A) (A) (A)
                 (A) (A) (A) (A) (A) (A) (A) (A) (A) (A) (A) (A)
                 (A) (A) (A) (A) (A) (A) (A) (A) (A) (A) (A) (A)
                 (A) (A) (A) (A) (A) (A) (A) (A) (A) (A) (A) (A)
                 (A) (A) (A) (A) (A) (A) (A) (A) (A) (A) (A) (A)
                 (A) (A) (A) (A) (A) (A) (A) (A) (A) (A) (A) (A)
                 (A) (A) (A) (A) (A) (A) (A) (A)
       Virtual   (A) (A) (A) (A) (A) (A) (A) (A) (A) (A) (A) (A)
                 (A) (A) (A) (A) (A) (A) (A) (A) (A) (A) (A) (A)
                 (A) (A) (A) (A) (A) (A) (A) (A) (A) (A) (A) (A)
                 (A) (A) (A) (A) (A) (A) (A) (A) (A) (A) (A) (A)
                 (A) (A) (A) (A) (A) (A) (A) (A) (A) (A) (A) (A)
                 (A) (A) (A) (A) (A) (A) (A) (A) (A) (A) (A) (A)
                 (A) (A) (A) (A) (A) (A) (A) (A) (A) (A) (A) (A)
                 (A) (A) (A) (A) (A) (A) (A) (A) (A) (A) (A) (A)
                 (A) (A) (A) (A) (A) (A) (A) (A) (A) (A) (A) (A)
                 (A) (A) (A) (A) (A) (A) (A) (A) (A) (A) (A) (A)
                 (A) (A) (A) (A) (A) (A) (A) (A) (A) (A) (A) (A)
                 (A) (A) (A) (A) (A) (A) (A) (A) (A) (A) (A) (A)
                 (A) (A) (A) (A) (A) (A) (A) (A) (A) (A) (A) (A)
                 (A) (A) (A) (A) (A) (A) (A) (A) (A) (A) (A) (A)
                 (A) (A) (A) (A) (A) (A) (A) (A) (A) (A) (A) (A)
                 (A) (A) (A) (A) (A) (A) (A) (A) (A) (A) (A) (A)
                 (A) (A) (A) (A) (A) (A) (A) (A) (A) (A) (A) (A)
                 (A) (A) (A) (A) (A) (A) (A) (A) (A) (A) (A) (A)
                 (A) (A) (A) (A) (A) (A) (A) (A) (A) (A) (A) (A)
                 (A) (A) (A) (A) (A) (A) (A) (A) (A) (A) (A) (A)
                 (A) (A) (A) (A) (A) (A) (A) (A) (A) (A) (A) (A)
                 (A) (A) (A) (A) (A) (A) (A) (A) (A) (A) (A) (A)
                 (A) (A) (A) (A) (A) (A) (A) (A) (A) (A) (A) (A)
                 (A) (A) (A) (A) (A) (A) (A)
 The electronic state of the initial guess is 1-A.
 Requested convergence on RMS density matrix=1.00D-08 within 128 cycles.
 Requested convergence on MAX density matrix=1.00D-06.
 Requested convergence on             energy=1.00D-06.
 No special actions if energy rises.
 Error on total polarization charges =  0.01635
 SCF Done:  E(RmPW1PW91) =  -4341.95069880     A.U. after   14 cycles
             Convg  =    0.7935D-08             -V/T =  2.0056
 Range of M.O.s used for correlation:     1   363
 NBasis=   363 NAE=    80 NBE=    80 NFC=     0 NFV=     0
 NROrb=    363 NOA=    80 NOB=    80 NVA=   283 NVB=   283

 **** Warning!!: The largest alpha MO coefficient is  0.18600820D+03

 NEqPCM:  Using equilibrium solvation (IEInf=0, Eps=   4.7113, EpsInf=   2.0906)
          Differentiating once with respect to magnetic field using GIAOs.
          Electric field/nuclear overlap derivatives assumed to be zero.
 FoFCou: FMM=F IPFlag=           0 FMFlag=    10101102 FMFlg1=           0
         NFxFlg=    40000000 DoJE=F BraDBF=F KetDBF=T FulRan=T
         Omega=  0.000000  0.000000  1.000000  0.000000  0.000000 ICntrl=    6100 IOpCl=  0
         NMat0=    1 NMatS0=    1 NMatT0=    0 NMatD0=    1 NMtDS0=    0 NMtDT0=    0
         I1Cent=           7 NGrid=        2123.
 Symmetry not used in FoFCou.
          There are     3 degrees of freedom in the 1st order CPHF.  IDoFFX=0.
      3 vectors produced by pass  0 Test12= 7.55D-13 3.33D-08 XBig12= 9.19D+01 1.69D+00.
 AX will form     3 AO Fock derivatives at one time.
      3 vectors produced by pass  1 Test12= 7.55D-13 3.33D-08 XBig12= 3.25D-01 1.36D-01.
      3 vectors produced by pass  2 Test12= 7.55D-13 3.33D-08 XBig12= 1.48D-03 1.43D-02.
      3 vectors produced by pass  3 Test12= 7.55D-13 3.33D-08 XBig12= 1.01D-05 1.15D-03.
      3 vectors produced by pass  4 Test12= 7.55D-13 3.33D-08 XBig12= 3.60D-08 4.45D-05.
      3 vectors produced by pass  5 Test12= 7.55D-13 3.33D-08 XBig12= 1.09D-10 2.23D-06.
      3 vectors produced by pass  6 Test12= 7.55D-13 3.33D-08 XBig12= 4.90D-13 1.31D-07.
 Inverted reduced A of dimension    21 with in-core refinement.
 Calculating GIAO nuclear magnetic shielding tensors.
 SCF GIAO Magnetic shielding tensor (ppm):
      1  C    Isotropic =   128.0837   Anisotropy =    29.7424
   XX=   129.6898   YX=     5.6629   ZX=    -6.4172
   XY=    10.9616   YY=   138.5805   ZY=    20.6318
   XZ=    -7.0753   YZ=    11.0617   ZZ=   115.9809
   Eigenvalues:   104.0107   132.3285   147.9120
      2  C    Isotropic =   127.3800   Anisotropy =    63.3236
   XX=   150.7821   YX=   -22.7086   ZX=   -24.9970
   XY=   -29.2014   YY=   125.5743   ZY=   -16.2840
   XZ=   -22.5058   YZ=   -15.9107   ZZ=   105.7837
   Eigenvalues:    80.4082   132.1361   169.5958
      3  C    Isotropic =   126.7054   Anisotropy =    46.5060
   XX=   126.4115   YX=   -19.4909   ZX=     7.6297
   XY=   -11.2381   YY=   127.8944   ZY=    28.4404
   XZ=    11.4083   YZ=    31.7382   ZZ=   125.8102
   Eigenvalues:    88.5702   133.8365   157.7094
      4  C    Isotropic =   150.6021   Anisotropy =    16.8232
   XX=   154.2008   YX=    -8.7618   ZX=   -11.3024
   XY=     1.5808   YY=   145.8459   ZY=     2.0581
   XZ=    -3.8234   YZ=     2.8768   ZZ=   151.7596
   Eigenvalues:   144.4529   145.5358   161.8176
      5  C    Isotropic =    56.2102   Anisotropy =   152.9513
   XX=    54.2683   YX=   -32.9263   ZX=    10.4364
   XY=   -29.7198   YY=    87.5988   ZY=    89.1703
   XZ=    -4.9033   YZ=    91.7152   ZZ=    26.7637
   Eigenvalues:   -42.7183    53.1713   158.1778
      6  C    Isotropic =   152.5920   Anisotropy =    41.7176
   XX=   167.9538   YX=   -19.5602   ZX=    -5.9577
   XY=   -19.1663   YY=   150.1696   ZY=    -0.1957
   XZ=     3.2548   YZ=    -8.3958   ZZ=   139.6525
   Eigenvalues:   134.2434   143.1288   180.4037
      7  H    Isotropic =    26.6681   Anisotropy =     7.6073
   XX=    30.1497   YX=     2.1577   ZX=     0.2590
   XY=     3.3138   YY=    25.9570   ZY=     1.4292
   XZ=     0.4707   YZ=     3.0924   ZZ=    23.8976
   Eigenvalues:    22.2377    26.0269    31.7397
      8  H    Isotropic =    29.1081   Anisotropy =     6.6413
   XX=    30.3220   YX=    -0.2891   ZX=    -2.5783
   XY=    -1.6384   YY=    29.2710   ZY=    -4.2441
   XZ=    -3.0546   YZ=    -4.7287   ZZ=    27.7313
   Eigenvalues:    22.8963    30.8924    33.5356
      9  H    Isotropic =    26.7911   Anisotropy =     7.0838
   XX=    25.6658   YX=     0.1449   ZX=     3.3512
   XY=     0.4575   YY=    25.9032   ZY=     1.9191
   XZ=     4.2084   YZ=     0.1325   ZZ=    28.8043
   Eigenvalues:    23.1044    25.7553    31.5136
     10  H    Isotropic =    26.3647   Anisotropy =     8.6249
   XX=    28.1650   YX=    -2.9380   ZX=    -2.2466
   XY=    -2.4676   YY=    27.7441   ZY=     2.9435
   XZ=    -2.3343   YZ=     2.6766   ZZ=    23.1849
   Eigenvalues:    21.6789    25.3005    32.1146
     11  H    Isotropic =    29.0033   Anisotropy =     4.3032
   XX=    27.5632   YX=    -1.9952   ZX=     0.1478
   XY=    -2.1465   YY=    28.0447   ZY=     1.4476
   XZ=     0.4396   YZ=     1.0928   ZZ=    31.4020
   Eigenvalues:    25.5223    29.6156    31.8721
     12  Cl   Isotropic =   708.9561   Anisotropy =   523.9327
   XX=   638.8515   YX=    98.6737   ZX=   -92.2615
   XY=   105.3432   YY=   999.0278   ZY=   137.0188
   XZ=   -88.4513   YZ=   182.0042   ZZ=   488.9888
   Eigenvalues:   388.5963   680.0273  1058.2445
     13  Br   Isotropic =  2449.7385   Anisotropy =  1045.1841
   XX=  2922.1187   YX=  -416.2619   ZX=  -155.6489
   XY=  -436.6146   YY=  2239.2384   ZY=   -24.2800
   XZ=  -147.7634   YZ=    23.8828   ZZ=  2187.8583
   Eigenvalues:  2007.8286  2194.8589  3146.5279
     14  C    Isotropic =   174.8613   Anisotropy =    31.9281
   XX=   165.4213   YX=     4.5070   ZX=     2.9850
   XY=     4.9302   YY=   182.7935   ZY=    16.3743
   XZ=     1.1310   YZ=    14.4910   ZZ=   176.3690
   Eigenvalues:   162.7975   165.6397   196.1467
     15  H    Isotropic =    30.6489   Anisotropy =     7.7210
   XX=    30.5343   YX=     0.4183   ZX=     4.2145
   XY=     0.4611   YY=    29.5034   ZY=     2.2152
   XZ=     3.8445   YZ=     1.5899   ZZ=    31.9091
   Eigenvalues:    26.7965    29.3540    35.7963
     16  H    Isotropic =    30.8828   Anisotropy =     9.6264
   XX=    29.8954   YX=     3.8176   ZX=    -0.5256
   XY=     3.9383   YY=    35.1086   ZY=    -1.7107
   XZ=    -0.4993   YZ=    -0.2415   ZZ=    27.6445
   Eigenvalues:    27.5185    27.8296    37.3004
     17  H    Isotropic =    29.9598   Anisotropy =     7.7384
   XX=    32.0474   YX=    -0.2142   ZX=    -1.9610
   XY=    -1.4133   YY=    31.9041   ZY=     3.8484
   XZ=    -3.3968   YZ=     3.7998   ZZ=    25.9280
   Eigenvalues:    23.5465    31.2142    35.1187
     18  C    Isotropic =   167.8980   Anisotropy =    34.2152
   XX=   159.6733   YX=     0.3819   ZX=    11.1346
   XY=    -2.1147   YY=   161.1973   ZY=   -12.3313
   XZ=    10.2533   YZ=    -9.3282   ZZ=   182.8234
   Eigenvalues:   153.3586   159.6273   190.7082
     19  H    Isotropic =    29.9856   Anisotropy =     7.4182
   XX=    31.5135   YX=    -3.6016   ZX=    -0.8852
   XY=    -4.0188   YY=    29.0796   ZY=    -3.4843
   XZ=    -0.1220   YZ=    -3.5743   ZZ=    29.3637
   Eigenvalues:    24.2486    30.7772    34.9311
     20  H    Isotropic =    30.7362   Anisotropy =    10.2592
   XX=    28.7068   YX=     1.0849   ZX=    -1.6869
   XY=     1.6865   YY=    30.7919   ZY=    -4.9526
   XZ=    -2.3304   YZ=    -5.1840   ZZ=    32.7098
   Eigenvalues:    26.5634    28.0695    37.5756
     21  H    Isotropic =    30.1310   Anisotropy =     7.7927
   XX=    28.9716   YX=    -0.1345   ZX=     3.0607
   XY=    -0.8018   YY=    28.0301   ZY=     1.5293
   XZ=     2.8566   YZ=     2.9303   ZZ=    33.3911
   Eigenvalues:    26.1565    28.9103    35.3261
     22  Cl   Isotropic =   772.7578   Anisotropy =   429.7586
   XX=   615.4644   YX=   -47.1066   ZX=    72.0750
   XY=   -70.2632   YY=   765.3032   ZY=   209.3592
   XZ=    57.5574   YZ=   166.3231   ZZ=   937.5059
   Eigenvalues:   543.8630   715.1469  1059.2636
     23  C    Isotropic =    61.6732   Anisotropy =   131.0373
   XX=    70.6388   YX=   -11.8206   ZX=     2.0416
   XY=   -20.5758   YY=    90.8634   ZY=    81.9717
   XZ=    -4.1344   YZ=    83.4878   ZZ=    23.5174
   Eigenvalues:   -32.7824    68.7706   149.0314
     24  H    Isotropic =    25.2621   Anisotropy =     7.5021
   XX=    29.5029   YX=     1.4698   ZX=     1.0273
   XY=     2.6254   YY=    24.6070   ZY=    -0.9000
   XZ=     0.3074   YZ=    -0.5486   ZZ=    21.6762
   Eigenvalues:    21.3337    24.1890    30.2635
     25  C    Isotropic =   150.4190   Anisotropy =    49.0126
   XX=   137.0046   YX=    14.7302   ZX=    -6.2829
   XY=    18.7266   YY=   165.9105   ZY=    24.0016
   XZ=    -3.1853   YZ=    18.4611   ZZ=   148.3419
   Eigenvalues:   121.2597   146.9033   183.0941
     26  H    Isotropic =    27.3072   Anisotropy =     8.0954
   XX=    28.1216   YX=     3.4647   ZX=     1.4164
   XY=     2.7857   YY=    23.4394   ZY=     2.3729
   XZ=     3.0788   YZ=     0.5126   ZZ=    30.3604
   Eigenvalues:    21.8651    27.3523    32.7041
     27  H    Isotropic =    27.4569   Anisotropy =     9.3277
   XX=    30.0981   YX=    -2.1503   ZX=    -0.7833
   XY=    -3.6327   YY=    29.3260   ZY=     3.0897
   XZ=    -2.0598   YZ=     3.6568   ZZ=    22.9466
   Eigenvalues:    21.4902    27.2051    33.6754
     28  Cl   Isotropic =   828.1297   Anisotropy =   407.7103
   XX=   770.0590   YX=   151.9623   ZX=     8.5122
   XY=   151.5796   YY=   955.1511   ZY=   132.5413
   XZ=    27.6660   YZ=   169.9892   ZZ=   759.1790
   Eigenvalues:   637.7836   746.6689  1099.9366
 End of Minotr Frequency-dependent properties file   721 does not exist.
 End of Minotr Frequency-dependent properties file   722 does not exist.

 **********************************************************************

            Population analysis using the SCF density.

 **********************************************************************

 Orbital symmetries:
       Occupied  (A) (A) (A) (A) (A) (A) (A) (A) (A) (A) (A) (A)
                 (A) (A) (A) (A) (A) (A) (A) (A) (A) (A) (A) (A)
                 (A) (A) (A) (A) (A) (A) (A) (A) (A) (A) (A) (A)
                 (A) (A) (A) (A) (A) (A) (A) (A) (A) (A) (A) (A)
                 (A) (A) (A) (A) (A) (A) (A) (A) (A) (A) (A) (A)
                 (A) (A) (A) (A) (A) (A) (A) (A) (A) (A) (A) (A)
                 (A) (A) (A) (A) (A) (A) (A) (A)
       Virtual   (A) (A) (A) (A) (A) (A) (A) (A) (A) (A) (A) (A)
                 (A) (A) (A) (A) (A) (A) (A) (A) (A) (A) (A) (A)
                 (A) (A) (A) (A) (A) (A) (A) (A) (A) (A) (A) (A)
                 (A) (A) (A) (A) (A) (A) (A) (A) (A) (A) (A) (A)
                 (A) (A) (A) (A) (A) (A) (A) (A) (A) (A) (A) (A)
                 (A) (A) (A) (A) (A) (A) (A) (A) (A) (A) (A) (A)
                 (A) (A) (A) (A) (A) (A) (A) (A) (A) (A) (A) (A)
                 (A) (A) (A) (A) (A) (A) (A) (A) (A) (A) (A) (A)
                 (A) (A) (A) (A) (A) (A) (A) (A) (A) (A) (A) (A)
                 (A) (A) (A) (A) (A) (A) (A) (A) (A) (A) (A) (A)
                 (A) (A) (A) (A) (A) (A) (A) (A) (A) (A) (A) (A)
                 (A) (A) (A) (A) (A) (A) (A) (A) (A) (A) (A) (A)
                 (A) (A) (A) (A) (A) (A) (A) (A) (A) (A) (A) (A)
                 (A) (A) (A) (A) (A) (A) (A) (A) (A) (A) (A) (A)
                 (A) (A) (A) (A) (A) (A) (A) (A) (A) (A) (A) (A)
                 (A) (A) (A) (A) (A) (A) (A) (A) (A) (A) (A) (A)
                 (A) (A) (A) (A) (A) (A) (A) (A) (A) (A) (A) (A)
                 (A) (A) (A) (A) (A) (A) (A) (A) (A) (A) (A) (A)
                 (A) (A) (A) (A) (A) (A) (A) (A) (A) (A) (A) (A)
                 (A) (A) (A) (A) (A) (A) (A) (A) (A) (A) (A) (A)
                 (A) (A) (A) (A) (A) (A) (A) (A) (A) (A) (A) (A)
                 (A) (A) (A) (A) (A) (A) (A) (A) (A) (A) (A) (A)
                 (A) (A) (A) (A) (A) (A) (A) (A) (A) (A) (A) (A)
                 (A) (A) (A) (A) (A) (A) (A)
 The electronic state is 1-A.
 Alpha  occ. eigenvalues -- -483.41540-101.76492-101.76115-101.75861 -62.05523
 Alpha  occ. eigenvalues --  -56.54091 -56.53752 -56.53734 -10.34088 -10.33997
 Alpha  occ. eigenvalues --  -10.32901 -10.32585 -10.30416 -10.30192 -10.29369
 Alpha  occ. eigenvalues --  -10.27920 -10.25145 -10.24595  -9.54283  -9.53825
 Alpha  occ. eigenvalues --   -9.53614  -8.67379  -7.28262  -7.27797  -7.27581
 Alpha  occ. eigenvalues --   -7.27311  -7.27294  -7.26869  -7.26847  -7.26649
 Alpha  occ. eigenvalues --   -7.26638  -6.60857  -6.59695  -6.59683  -2.69592
 Alpha  occ. eigenvalues --   -2.69264  -2.69254  -2.68309  -2.68308  -0.93910
 Alpha  occ. eigenvalues --   -0.89605  -0.88680  -0.86565  -0.83026  -0.80966
 Alpha  occ. eigenvalues --   -0.78105  -0.73867  -0.72161  -0.71328  -0.67462
 Alpha  occ. eigenvalues --   -0.64141  -0.59814  -0.55425  -0.53664  -0.50622
 Alpha  occ. eigenvalues --   -0.49951  -0.48885  -0.47846  -0.46281  -0.45397
 Alpha  occ. eigenvalues --   -0.45076  -0.44089  -0.42731  -0.42278  -0.40587
 Alpha  occ. eigenvalues --   -0.39840  -0.39362  -0.38648  -0.37061  -0.36314
 Alpha  occ. eigenvalues --   -0.35754  -0.34000  -0.33298  -0.32563  -0.32288
 Alpha  occ. eigenvalues --   -0.32099  -0.30691  -0.29861  -0.29721  -0.29302
 Alpha virt. eigenvalues --   -0.06556  -0.02206  -0.00018   0.00028   0.00701
 Alpha virt. eigenvalues --    0.01530   0.01739   0.02808   0.03384   0.03786
 Alpha virt. eigenvalues --    0.03879   0.04986   0.05470   0.05785   0.06215
 Alpha virt. eigenvalues --    0.06430   0.07297   0.07655   0.07958   0.08433
 Alpha virt. eigenvalues --    0.08553   0.08886   0.09428   0.10122   0.10476
 Alpha virt. eigenvalues --    0.10686   0.11035   0.11594   0.12101   0.12273
 Alpha virt. eigenvalues --    0.12581   0.12860   0.13393   0.13638   0.14515
 Alpha virt. eigenvalues --    0.14828   0.15014   0.15641   0.16184   0.16558
 Alpha virt. eigenvalues --    0.16742   0.17524   0.17831   0.18187   0.18496
 Alpha virt. eigenvalues --    0.18968   0.19405   0.19623   0.19894   0.20045
 Alpha virt. eigenvalues --    0.20384   0.21066   0.21560   0.21766   0.22194
 Alpha virt. eigenvalues --    0.22428   0.23145   0.24118   0.24413   0.24966
 Alpha virt. eigenvalues --    0.25701   0.25982   0.26205   0.26601   0.27288
 Alpha virt. eigenvalues --    0.28002   0.28546   0.28728   0.29322   0.29866
 Alpha virt. eigenvalues --    0.30462   0.31003   0.31276   0.32540   0.33708
 Alpha virt. eigenvalues --    0.34910   0.35608   0.36589   0.38718   0.39577
 Alpha virt. eigenvalues --    0.40171   0.43108   0.44223   0.47291   0.48399
 Alpha virt. eigenvalues --    0.49821   0.52262   0.53138   0.54709   0.56859
 Alpha virt. eigenvalues --    0.57729   0.59287   0.60820   0.61150   0.62742
 Alpha virt. eigenvalues --    0.63259   0.63575   0.64146   0.64714   0.65377
 Alpha virt. eigenvalues --    0.65700   0.65993   0.66514   0.67089   0.67663
 Alpha virt. eigenvalues --    0.68706   0.69307   0.71221   0.72258   0.72560
 Alpha virt. eigenvalues --    0.73577   0.74951   0.75318   0.75361   0.76769
 Alpha virt. eigenvalues --    0.77381   0.77880   0.78465   0.79794   0.80033
 Alpha virt. eigenvalues --    0.81124   0.82532   0.83496   0.84289   0.85176
 Alpha virt. eigenvalues --    0.87156   0.87619   0.88095   0.88524   0.89355
 Alpha virt. eigenvalues --    0.90711   0.91820   0.93398   0.94064   0.95121
 Alpha virt. eigenvalues --    0.95583   0.97622   0.98603   0.99060   0.99923
 Alpha virt. eigenvalues --    1.00741   1.01214   1.02362   1.02560   1.04003
 Alpha virt. eigenvalues --    1.04801   1.06543   1.06954   1.07573   1.08487
 Alpha virt. eigenvalues --    1.10083   1.10969   1.11176   1.13385   1.14238
 Alpha virt. eigenvalues --    1.15235   1.15948   1.17926   1.18697   1.20276
 Alpha virt. eigenvalues --    1.20977   1.24113   1.26120   1.26467   1.29415
 Alpha virt. eigenvalues --    1.32597   1.34027   1.35224   1.36353   1.38401
 Alpha virt. eigenvalues --    1.41693   1.45266   1.46200   1.51093   1.52976
 Alpha virt. eigenvalues --    1.56584   1.58345   1.60300   1.64547   1.67942
 Alpha virt. eigenvalues --    1.71004   1.73241   1.74606   1.80090   1.80724
 Alpha virt. eigenvalues --    1.82337   1.82860   1.84885   1.86179   1.88584
 Alpha virt. eigenvalues --    1.89714   1.90634   1.91007   1.92532   1.96790
 Alpha virt. eigenvalues --    1.97368   1.98906   2.00532   2.02566   2.03299
 Alpha virt. eigenvalues --    2.04986   2.06876   2.09361   2.09808   2.12483
 Alpha virt. eigenvalues --    2.12976   2.14085   2.14998   2.15828   2.17786
 Alpha virt. eigenvalues --    2.18930   2.19550   2.20400   2.22162   2.23215
 Alpha virt. eigenvalues --    2.23695   2.25629   2.30942   2.33219   2.36261
 Alpha virt. eigenvalues --    2.39723   2.40310   2.44621   2.45782   2.47901
 Alpha virt. eigenvalues --    2.50294   2.52347   2.54178   2.55523   2.56402
 Alpha virt. eigenvalues --    2.57680   2.59771   2.61854   2.64811   2.66450
 Alpha virt. eigenvalues --    2.67226   2.68681   2.70338   2.71544   2.74070
 Alpha virt. eigenvalues --    2.76870   2.78523   2.80866   2.82694   2.84202
 Alpha virt. eigenvalues --    2.85690   2.87425   2.89726   2.91321   2.93344
 Alpha virt. eigenvalues --    2.97194   2.99687   3.00815   3.09211   3.31212
 Alpha virt. eigenvalues --    3.31374   3.32643   3.36471   3.40530   3.44576
 Alpha virt. eigenvalues --    3.46598   3.47776   3.48522   3.49812   3.51327
 Alpha virt. eigenvalues --    3.52996   3.55074   3.56654   4.29662   4.34279
 Alpha virt. eigenvalues --    4.35861   4.41004   4.43715   4.49205   4.50831
 Alpha virt. eigenvalues --    4.55112   4.60311   4.67723   4.73298   4.76708
 Alpha virt. eigenvalues --    4.80793   9.06763  81.45319
          Condensed to atoms (all electrons):
              1          2          3          4          5          6
     1  C    8.363154  -0.583945  -2.098538   0.776856  -0.511308  -0.446506
     2  C   -0.583945  10.742484   0.705419  -2.266486   0.069388  -0.974903
     3  C   -2.098538   0.705419  14.042775  -3.346642  -0.578128   0.765276
     4  C    0.776856  -2.266486  -3.346642  11.053086   0.300863  -0.183722
     5  C   -0.511308   0.069388  -0.578128   0.300863  12.575004  -0.172875
     6  C   -0.446506  -0.974903   0.765276  -0.183722  -0.172875   7.099925
     7  H    0.028369   0.013156   0.112616   0.018788  -0.009557  -0.012738
     8  H   -0.099971  -0.105160   0.036775   0.028745   0.056238   0.419829
     9  H    0.233962   0.028978   0.026535  -0.033867  -0.177643   0.022254
    10  H    0.014601   0.399395   0.024263  -0.057659  -0.030756  -0.038903
    11  H    0.022713  -0.036725  -0.047440   0.052422  -0.002796   0.331261
    12  Cl  -0.075644   0.149362  -0.009944  -0.087984   0.143237  -0.074204
    13  Br   0.031743   0.327217   0.167187  -0.098946  -0.037325  -0.074529
    14  C    0.277371  -0.662382  -0.344793  -0.308235  -0.186140  -0.116497
    15  H   -0.004291  -0.040451   0.030079  -0.073472  -0.047220  -0.004209
    16  H   -0.001752   0.050024  -0.031628  -0.137215   0.045866  -0.000274
    17  H   -0.001364   0.005443   0.037392  -0.123855  -0.010460  -0.004816
    18  C   -0.102423  -0.588366   0.403368  -0.513844  -0.234216   0.165997
    19  H   -0.003030  -0.035084   0.056003  -0.101217  -0.018033   0.005257
    20  H   -0.004223   0.040005   0.010914  -0.134468   0.005222  -0.003076
    21  H    0.002689  -0.019515  -0.054028  -0.049264   0.006849   0.006176
    22  Cl  -0.020671  -0.015760  -0.650883   0.203584   0.376323  -0.075390
    23  C    0.306197  -0.777795  -2.742129   0.817892  -5.205463  -0.192583
    24  H   -0.054146   0.002145   0.029861  -0.006116   0.029427   0.017927
    25  C   -0.116454  -0.032046  -0.226019  -0.032244  -0.218323  -0.069369
    26  H   -0.014438   0.001052   0.034613  -0.001889   0.000291   0.002848
    27  H   -0.008184   0.001079  -0.000688  -0.004095   0.076072  -0.003203
    28  Cl  -0.001646   0.008453   0.033599  -0.008856   0.168313  -0.004357
              7          8          9         10         11         12
     1  C    0.028369  -0.099971   0.233962   0.014601   0.022713  -0.075644
     2  C    0.013156  -0.105160   0.028978   0.399395  -0.036725   0.149362
     3  C    0.112616   0.036775   0.026535   0.024263  -0.047440  -0.009944
     4  C    0.018788   0.028745  -0.033867  -0.057659   0.052422  -0.087984
     5  C   -0.009557   0.056238  -0.177643  -0.030756  -0.002796   0.143237
     6  C   -0.012738   0.419829   0.022254  -0.038903   0.331261  -0.074204
     7  H    0.535164   0.000008  -0.000095  -0.000050  -0.000027  -0.001869
     8  H    0.000008   0.483635  -0.001750  -0.003627  -0.021616   0.005863
     9  H   -0.000095  -0.001750   0.506715  -0.000076  -0.003949  -0.017716
    10  H   -0.000050  -0.003627  -0.000076   0.474375   0.003446   0.001743
    11  H   -0.000027  -0.021616  -0.003949   0.003446   0.481803   0.006103
    12  Cl  -0.001869   0.005863  -0.017716   0.001743   0.006103  17.052888
    13  Br  -0.000333  -0.009504  -0.000151  -0.017028  -0.001045   0.000590
    14  C    0.049293   0.005278   0.004098  -0.012439  -0.015744  -0.018673
    15  H   -0.000889   0.000055   0.000026  -0.000185  -0.002423  -0.001248
    16  H    0.003928   0.000000   0.000001  -0.000095   0.000029   0.000019
    17  H    0.000098   0.000002   0.000002   0.000066   0.000206   0.000312
    18  C   -0.047349  -0.000937  -0.000340   0.004046   0.008424   0.007637
    19  H   -0.000020   0.000000   0.000000   0.000033   0.000005   0.000014
    20  H    0.003405   0.000002   0.000000   0.000039   0.000000   0.000015
    21  H    0.000021  -0.000005   0.000000   0.003379  -0.000002   0.000042
    22  Cl  -0.023543   0.000168  -0.004578  -0.002688   0.000170  -0.003725
    23  C    0.138593  -0.005905   0.173226  -0.004706   0.008229   0.034172
    24  H    0.000166  -0.000006   0.003752  -0.000001  -0.000020   0.008086
    25  C   -0.026364   0.000339   0.010678  -0.000270   0.000897  -0.009481
    26  H    0.005004   0.000000  -0.000002   0.000000   0.000000  -0.000180
    27  H   -0.000004   0.000000  -0.000017   0.000000   0.000000   0.000510
    28  Cl   0.002897  -0.000019  -0.000431   0.000003   0.000121  -0.000230
             13         14         15         16         17         18
     1  C    0.031743   0.277371  -0.004291  -0.001752  -0.001364  -0.102423
     2  C    0.327217  -0.662382  -0.040451   0.050024   0.005443  -0.588366
     3  C    0.167187  -0.344793   0.030079  -0.031628   0.037392   0.403368
     4  C   -0.098946  -0.308235  -0.073472  -0.137215  -0.123855  -0.513844
     5  C   -0.037325  -0.186140  -0.047220   0.045866  -0.010460  -0.234216
     6  C   -0.074529  -0.116497  -0.004209  -0.000274  -0.004816   0.165997
     7  H   -0.000333   0.049293  -0.000889   0.003928   0.000098  -0.047349
     8  H   -0.009504   0.005278   0.000055   0.000000   0.000002  -0.000937
     9  H   -0.000151   0.004098   0.000026   0.000001   0.000002  -0.000340
    10  H   -0.017028  -0.012439  -0.000185  -0.000095   0.000066   0.004046
    11  H   -0.001045  -0.015744  -0.002423   0.000029   0.000206   0.008424
    12  Cl   0.000590  -0.018673  -0.001248   0.000019   0.000312   0.007637
    13  Br  35.057095  -0.103783   0.002013  -0.000235   0.003141  -0.084425
    14  C   -0.103783   6.801487   0.434733   0.475035   0.473161  -0.324910
    15  H    0.002013   0.434733   0.510784  -0.024149  -0.023037   0.014427
    16  H   -0.000235   0.475035  -0.024149   0.507163  -0.020701  -0.051125
    17  H    0.003141   0.473161  -0.023037  -0.020701   0.488504  -0.011791
    18  C   -0.084425  -0.324910   0.014427  -0.051125  -0.011791   6.349828
    19  H    0.004202   0.021508   0.000134  -0.000293   0.001886   0.431417
    20  H   -0.001453  -0.033158   0.000015   0.002736   0.000049   0.458112
    21  H    0.000932  -0.003800  -0.000152   0.000105   0.000008   0.456925
    22  Cl  -0.003662  -0.088319  -0.002615   0.003335  -0.002793   0.033023
    23  C   -0.038427   0.277365   0.046898  -0.006287  -0.008611   0.026493
    24  H    0.000091  -0.001747   0.000040   0.000001   0.000000   0.000347
    25  C    0.000359   0.007139  -0.001587   0.002137   0.000327   0.004514
    26  H    0.000116   0.001118   0.000025  -0.000004   0.000000   0.001049
    27  H   -0.000013  -0.000809  -0.000002   0.000000   0.000000  -0.000110
    28  Cl  -0.000118  -0.004552   0.000948  -0.000612  -0.000113  -0.000766
             19         20         21         22         23         24
     1  C   -0.003030  -0.004223   0.002689  -0.020671   0.306197  -0.054146
     2  C   -0.035084   0.040005  -0.019515  -0.015760  -0.777795   0.002145
     3  C    0.056003   0.010914  -0.054028  -0.650883  -2.742129   0.029861
     4  C   -0.101217  -0.134468  -0.049264   0.203584   0.817892  -0.006116
     5  C   -0.018033   0.005222   0.006849   0.376323  -5.205463   0.029427
     6  C    0.005257  -0.003076   0.006176  -0.075390  -0.192583   0.017927
     7  H   -0.000020   0.003405   0.000021  -0.023543   0.138593   0.000166
     8  H    0.000000   0.000002  -0.000005   0.000168  -0.005905  -0.000006
     9  H    0.000000   0.000000   0.000000  -0.004578   0.173226   0.003752
    10  H    0.000033   0.000039   0.003379  -0.002688  -0.004706  -0.000001
    11  H    0.000005   0.000000  -0.000002   0.000170   0.008229  -0.000020
    12  Cl   0.000014   0.000015   0.000042  -0.003725   0.034172   0.008086
    13  Br   0.004202  -0.001453   0.000932  -0.003662  -0.038427   0.000091
    14  C    0.021508  -0.033158  -0.003800  -0.088319   0.277365  -0.001747
    15  H    0.000134   0.000015  -0.000152  -0.002615   0.046898   0.000040
    16  H   -0.000293   0.002736   0.000105   0.003335  -0.006287   0.000001
    17  H    0.001886   0.000049   0.000008  -0.002793  -0.008611   0.000000
    18  C    0.431417   0.458112   0.456925   0.033023   0.026493   0.000347
    19  H    0.501313  -0.024154  -0.024529  -0.005187   0.000481   0.000000
    20  H   -0.024154   0.514471  -0.023200   0.006904   0.002669   0.000000
    21  H   -0.024529  -0.023200   0.499994   0.009446  -0.003496   0.000000
    22  Cl  -0.005187   0.006904   0.009446  17.256526   0.089777  -0.000694
    23  C    0.000481   0.002669  -0.003496   0.089777  12.872928   0.330228
    24  H    0.000000   0.000000   0.000000  -0.000694   0.330228   0.495353
    25  C   -0.000211   0.000300   0.000098  -0.001038   0.118850  -0.061268
    26  H    0.000000   0.000001   0.000001   0.002097  -0.031742   0.003302
    27  H    0.000000   0.000000   0.000000   0.004533  -0.124661  -0.003569
    28  Cl   0.000005   0.000088  -0.000020   0.002742  -0.210683   0.017566
             25         26         27         28
     1  C   -0.116454  -0.014438  -0.008184  -0.001646
     2  C   -0.032046   0.001052   0.001079   0.008453
     3  C   -0.226019   0.034613  -0.000688   0.033599
     4  C   -0.032244  -0.001889  -0.004095  -0.008856
     5  C   -0.218323   0.000291   0.076072   0.168313
     6  C   -0.069369   0.002848  -0.003203  -0.004357
     7  H   -0.026364   0.005004  -0.000004   0.002897
     8  H    0.000339   0.000000   0.000000  -0.000019
     9  H    0.010678  -0.000002  -0.000017  -0.000431
    10  H   -0.000270   0.000000   0.000000   0.000003
    11  H    0.000897   0.000000   0.000000   0.000121
    12  Cl  -0.009481  -0.000180   0.000510  -0.000230
    13  Br   0.000359   0.000116  -0.000013  -0.000118
    14  C    0.007139   0.001118  -0.000809  -0.004552
    15  H   -0.001587   0.000025  -0.000002   0.000948
    16  H    0.002137  -0.000004   0.000000  -0.000612
    17  H    0.000327   0.000000   0.000000  -0.000113
    18  C    0.004514   0.001049  -0.000110  -0.000766
    19  H   -0.000211   0.000000   0.000000   0.000005
    20  H    0.000300   0.000001   0.000000   0.000088
    21  H    0.000098   0.000001   0.000000  -0.000020
    22  Cl  -0.001038   0.002097   0.004533   0.002742
    23  C    0.118850  -0.031742  -0.124661  -0.210683
    24  H   -0.061268   0.003302  -0.003569   0.017566
    25  C    6.175047   0.323480   0.401392   0.147688
    26  H    0.323480   0.499645  -0.023747  -0.023974
    27  H    0.401392  -0.023747   0.479303  -0.038039
    28  Cl   0.147688  -0.023974  -0.038039  17.008816
 Mulliken atomic charges:
              1
     1  C    0.090880
     2  C   -0.404983
     3  C   -0.385814
     4  C    0.317842
     5  C   -0.412851
     6  C   -0.384594
     7  H    0.211333
     8  H    0.211564
     9  H    0.230387
    10  H    0.243095
    11  H    0.215959
    12  Cl  -0.109694
    13  Br  -0.123708
    14  C   -0.601606
    15  H    0.185753
    16  H    0.183991
    17  H    0.196945
    18  C   -0.405007
    19  H    0.189502
    20  H    0.178785
    21  H    0.191346
    22  Cl  -0.087080
    23  C    0.108489
    24  H    0.189274
    25  C   -0.398571
    26  H    0.221336
    27  H    0.244251
    28  Cl  -0.096823
 Sum of Mulliken atomic charges =   0.00000
 Mulliken charges with hydrogens summed into heavy atoms:
              1
     1  C    0.321267
     2  C   -0.161888
     3  C   -0.174481
     4  C    0.317842
     5  C   -0.412851
     6  C    0.042930
    12  Cl  -0.109694
    13  Br  -0.123708
    14  C   -0.034917
    18  C    0.154626
    22  Cl  -0.087080
    23  C    0.297763
    25  C    0.067015
    28  Cl  -0.096823
 Sum of Mulliken charges with hydrogens summed into heavy atoms =   0.00000
 Electronic spatial extent (au):  <R**2>=           5545.4523
 Charge=              0.0000 electrons
 Dipole moment (field-independent basis, Debye):
    X=             -1.9171    Y=             -1.3587    Z=             -1.1151  Tot=              2.6009
 Quadrupole moment (field-independent basis, Debye-Ang):
   XX=           -125.6435   YY=           -127.8529   ZZ=           -118.3853
   XY=             -5.3719   XZ=             -1.0517   YZ=             -6.0993
 Traceless Quadrupole moment (field-independent basis, Debye-Ang):
   XX=             -1.6829   YY=             -3.8923   ZZ=              5.5752
   XY=             -5.3719   XZ=             -1.0517   YZ=             -6.0993
 Octapole moment (field-independent basis, Debye-Ang**2):
  XXX=             67.7886  YYY=            -38.9249  ZZZ=            -26.7400  XYY=             42.3007
  XXY=             32.9092  XXZ=             14.7749  XZZ=             29.2984  YZZ=             -3.6400
  YYZ=              1.2598  XYZ=             11.0100
 Hexadecapole moment (field-independent basis, Debye-Ang**3):
 XXXX=          -4060.3079 YYYY=          -1738.4020 ZZZZ=          -1072.3858 XXXY=           -217.6571
 XXXZ=           -115.3082 YYYX=            -46.2487 YYYZ=             35.9616 ZZZX=            -30.1266
 ZZZY=              0.3215 XXYY=           -975.4489 XXZZ=           -841.2616 YYZZ=           -449.7669
 XXYZ=            -25.3321 YYXZ=            -13.7424 ZZXY=            -15.1560
 N-N= 1.703326506460D+03 E-N=-1.372059162150D+04  KE= 4.317881636272D+03
 1\1\GINC-COMPUTE-7-5\SP\RmPW1PW91\6-31+G(d,p)\C10H14Br1Cl3\LPASSAGLIA.
 IQUIR\20-May-2022\0\\# mPW1PW91/6-31+G** scrf=(PCM,solvent=chloroform)
  nmr\\comment\\0,1\C,0,-0.39712,1.367775,-1.155147\C,0,1.533622,0.1365
 7,-0.065899\C,0,-0.7557,-0.166344,0.90496\C,0,0.598822,-0.888361,0.615
 255\C,0,-1.335038,0.560353,-0.287482\C,0,0.969746,0.705188,-1.363931\H
 ,0,-1.450784,-0.926774,1.258921\H,0,1.66539,1.426779,-1.798131\H,0,-0.
 864434,1.556355,-2.122382\H,0,1.773386,0.937779,0.634446\H,0,0.846031,
 -0.101181,-2.095902\Cl,0,-0.155447,3.06929,-0.465765\Br,0,3.320722,-0.
 654588,-0.481153\C,0,0.267515,-2.084459,-0.309845\H,0,-0.344239,-1.805
 102,-1.172741\H,0,-0.285003,-2.84683,0.249396\H,0,1.194483,-2.534213,-
 0.676636\C,0,1.215904,-1.435241,1.914239\H,0,2.064671,-2.081994,1.6783
 74\H,0,0.47737,-2.024872,2.469102\H,0,1.567898,-0.633061,2.567451\Cl,0
 ,-0.646113,0.999769,2.338655\C,0,-2.63297,0.490048,-0.632322\H,0,-2.95
 3644,1.00937,-1.534183\C,0,-3.725755,-0.214304,0.098106\H,0,-3.448108,
 -0.554182,1.09426\H,0,-4.610923,0.419653,0.176783\Cl,0,-4.274412,-1.70
 1914,-0.825598\\Version=EM64L-G09RevC.01\State=1-A\HF=-4341.9506988\RM
 SD=7.935e-09\Dipole=-0.7542472,-0.5345507,-0.4387062\Quadrupole=-1.251
 2191,-2.8938414,4.1450605,-3.99385,-0.781882,-4.5346603\PG=C01 [X(C10H
 14Br1Cl3)]\\@


 THERE'S NOTHING SO GREAT AS THE GREAT OUTDOORS.

                                       -- ZIGGY
 Job cpu time:  0 days  0 hours 38 minutes 23.6 seconds.
 File lengths (MBytes):  RWF=    154 Int=      0 D2E=      0 Chk=      9 Scr=      1
 Normal termination of Gaussian 09 at Fri May 20 10:26:53 2022.
