 Entering Gaussian System, Link 0=g09
 Input=/home/lpassaglia.iquir/NMR_Tetrahalogenados/02_SSSZ_Tetrahalogenado_002.gjc
 Output=/home/lpassaglia.iquir/NMR_Tetrahalogenados/02_SSSZ_Tetrahalogenado_002.log
 Initial command:
 /share/apps/Gaussian09/EM64T.SSE4.2-enabled/g09/l1.exe /tmp/Gau-29664.inp -scrdir=/tmp/
 Entering Link 1 = /share/apps/Gaussian09/EM64T.SSE4.2-enabled/g09/l1.exe PID=     29665.
  
 Copyright (c) 1988,1990,1992,1993,1995,1998,2003,2009,2011,
            Gaussian, Inc.  All Rights Reserved.
  
 This is part of the Gaussian(R) 09 program.  It is based on
 the Gaussian(R) 03 system (copyright 2003, Gaussian, Inc.),
 the Gaussian(R) 98 system (copyright 1998, Gaussian, Inc.),
 the Gaussian(R) 94 system (copyright 1995, Gaussian, Inc.),
 the Gaussian 92(TM) system (copyright 1992, Gaussian, Inc.),
 the Gaussian 90(TM) system (copyright 1990, Gaussian, Inc.),
 the Gaussian 88(TM) system (copyright 1988, Gaussian, Inc.),
 the Gaussian 86(TM) system (copyright 1986, Carnegie Mellon
 University), and the Gaussian 82(TM) system (copyright 1983,
 Carnegie Mellon University). Gaussian is a federally registered
 trademark of Gaussian, Inc.
  
 This software contains proprietary and confidential information,
 including trade secrets, belonging to Gaussian, Inc.
  
 This software is provided under written license and may be
 used, copied, transmitted, or stored only in accord with that
 written license.
  
 The following legend is applicable only to US Government
 contracts under FAR:
  
                    RESTRICTED RIGHTS LEGEND
  
 Use, reproduction and disclosure by the US Government is
 subject to restrictions as set forth in subparagraphs (a)
 and (c) of the Commercial Computer Software - Restricted
 Rights clause in FAR 52.227-19.
  
 Gaussian, Inc.
 340 Quinnipiac St., Bldg. 40, Wallingford CT 06492
  
  
 ---------------------------------------------------------------
 Warning -- This program may not be used in any manner that
 competes with the business of Gaussian, Inc. or will provide
 assistance to any competitor of Gaussian, Inc.  The licensee
 of this program is prohibited from giving any competitor of
 Gaussian, Inc. access to this program.  By using this program,
 the user acknowledges that Gaussian, Inc. is engaged in the
 business of creating and licensing software in the field of
 computational chemistry and represents and warrants to the
 licensee that it is not a competitor of Gaussian, Inc. and that
 it will not use this program in any manner prohibited above.
 ---------------------------------------------------------------
  

 Cite this work as:
 Gaussian 09, Revision C.01,
 M. J. Frisch, G. W. Trucks, H. B. Schlegel, G. E. Scuseria, 
 M. A. Robb, J. R. Cheeseman, G. Scalmani, V. Barone, B. Mennucci, 
 G. A. Petersson, H. Nakatsuji, M. Caricato, X. Li, H. P. Hratchian, 
 A. F. Izmaylov, J. Bloino, G. Zheng, J. L. Sonnenberg, M. Hada, 
 M. Ehara, K. Toyota, R. Fukuda, J. Hasegawa, M. Ishida, T. Nakajima, 
 Y. Honda, O. Kitao, H. Nakai, T. Vreven, J. A. Montgomery, Jr., 
 J. E. Peralta, F. Ogliaro, M. Bearpark, J. J. Heyd, E. Brothers, 
 K. N. Kudin, V. N. Staroverov, T. Keith, R. Kobayashi, J. Normand, 
 K. Raghavachari, A. Rendell, J. C. Burant, S. S. Iyengar, J. Tomasi, 
 M. Cossi, N. Rega, J. M. Millam, M. Klene, J. E. Knox, J. B. Cross, 
 V. Bakken, C. Adamo, J. Jaramillo, R. Gomperts, R. E. Stratmann, 
 O. Yazyev, A. J. Austin, R. Cammi, C. Pomelli, J. W. Ochterski, 
 R. L. Martin, K. Morokuma, V. G. Zakrzewski, G. A. Voth, 
 P. Salvador, J. J. Dannenberg, S. Dapprich, A. D. Daniels, 
 O. Farkas, J. B. Foresman, J. V. Ortiz, J. Cioslowski, 
 and D. J. Fox, Gaussian, Inc., Wallingford CT, 2010.
 
 ******************************************
 Gaussian 09:  EM64L-G09RevC.01 23-Sep-2011
                20-May-2022 
 ******************************************
 %nprocshared=4
 Will use up to    4 processors via shared memory.
 -----------------------------------------------------
 # mPW1PW91/6-31+G** scrf=(PCM,solvent=chloroform) nmr
 -----------------------------------------------------
 1/38=1/1;
 2/12=2,17=6,18=5,40=1/2;
 3/5=1,6=6,7=111,11=2,16=1,25=1,30=1,70=2201,72=7,74=-7/1,2,8,3;
 4//1;
 5/5=2,38=5,53=7/2;
 8/6=1,10=90,11=11/1;
 10/13=100,45=16/2;
 6/7=2,8=2,9=2,10=2,28=1/1;
 99/9=1/99;
 -------
 comment
 -------
 Charge =  0 Multiplicity = 1
 Symbolic Z-Matrix:
 6                     0.78216  -1.21487  -0.0702 
 6                    -1.57509  -0.27281   0.15722 
 6                     0.33074   1.33348   0.07031 
 6                    -1.15389   1.12158  -0.35832 
 6                     1.25903   0.19876  -0.30983 
 6                    -0.70982  -1.40846  -0.37986 
 1                     0.68658   2.25931  -0.38519 
 1                    -1.04372  -2.36553   0.02718 
 1                     1.3515   -1.9203   -0.67294 
 1                    -1.58161  -0.27454   1.24778 
 1                    -0.82188  -1.46863  -1.46883 
 17                    1.1387   -1.75957   1.65882 
 35                   -3.47118  -0.69256  -0.31211 
 6                    -1.18928   1.21041  -1.90249 
 1                    -0.44284   0.57337  -2.38613 
 1                    -1.00005   2.24103  -2.22163 
 1                    -2.17799   0.9168   -2.26621 
 6                    -2.0578    2.22957   0.21083 
 1                    -3.05286   2.16749  -0.23739 
 1                    -1.63899   3.21668  -0.01575 
 1                    -2.16568   2.14989   1.29511 
 17                    0.48819   1.67223   1.88282 
 6                     2.43416   0.49678  -0.89142 
 1                     2.67502   1.54648  -1.05269 
 6                     3.49941  -0.44787  -1.34316 
 1                     3.70068  -0.34035  -2.41214 
 1                     3.29066  -1.49303  -1.12075 
 17                    5.07869  -0.0567   -0.51253 
 
                          Input orientation:                          
 ---------------------------------------------------------------------
 Center     Atomic      Atomic             Coordinates (Angstroms)
 Number     Number       Type             X           Y           Z
 ---------------------------------------------------------------------
      1          6           0        0.782156   -1.214873   -0.070197
      2          6           0       -1.575087   -0.272813    0.157219
      3          6           0        0.330737    1.333479    0.070309
      4          6           0       -1.153891    1.121579   -0.358320
      5          6           0        1.259033    0.198763   -0.309833
      6          6           0       -0.709819   -1.408460   -0.379858
      7          1           0        0.686578    2.259311   -0.385187
      8          1           0       -1.043724   -2.365533    0.027178
      9          1           0        1.351498   -1.920299   -0.672944
     10          1           0       -1.581605   -0.274540    1.247779
     11          1           0       -0.821880   -1.468627   -1.468833
     12         17           0        1.138703   -1.759565    1.658816
     13         35           0       -3.471184   -0.692561   -0.312108
     14          6           0       -1.189279    1.210409   -1.902494
     15          1           0       -0.442836    0.573370   -2.386131
     16          1           0       -1.000051    2.241028   -2.221631
     17          1           0       -2.177994    0.916798   -2.266207
     18          6           0       -2.057795    2.229574    0.210831
     19          1           0       -3.052864    2.167486   -0.237391
     20          1           0       -1.638992    3.216681   -0.015750
     21          1           0       -2.165678    2.149889    1.295110
     22         17           0        0.488186    1.672232    1.882824
     23          6           0        2.434159    0.496783   -0.891417
     24          1           0        2.675020    1.546481   -1.052690
     25          6           0        3.499405   -0.447868   -1.343163
     26          1           0        3.700682   -0.340349   -2.412144
     27          1           0        3.290660   -1.493033   -1.120751
     28         17           0        5.078694   -0.056696   -0.512527
 ---------------------------------------------------------------------
                    Distance matrix (angstroms):
                    1          2          3          4          5
     1  C    0.000000
     2  C    2.548684   0.000000
     3  C    2.591837   2.493971   0.000000
     4  C    3.047999   1.545159   1.559726   0.000000
     5  C    1.511027   2.910800   1.514537   2.583823   0.000000
     6  C    1.536019   1.525397   2.967092   2.568805   2.542528
     7  H    3.489743   3.438166   1.091451   2.163904   2.139916
     8  H    2.160402   2.163038   3.946352   3.510085   3.462929
     9  H    1.088614   3.459520   3.490193   3.953351   2.151935
    10  H    2.865075   1.090581   2.762103   2.170632   3.274049
    11  H    2.143246   2.154376   3.398423   2.837717   2.907519
    12  Cl   1.847512   3.439459   3.569746   4.198311   2.779408
    13  Br   4.292113   1.997909   4.325007   2.943312   4.813462
    14  C    3.622963   2.567336   2.493501   1.547132   3.090991
    15  H    3.172061   2.909750   2.685196   2.217690   2.710664
    16  H    4.443893   3.508417   2.801362   2.179165   3.595731
    17  H    4.257813   2.766164   3.453500   2.175030   4.019469
    18  C    4.473088   2.549083   2.554959   1.539035   3.923854
    19  H    5.116218   2.880035   3.498429   2.171323   4.740630
    20  H    5.050108   3.494363   2.726479   2.177643   4.194385
    21  H    4.677116   2.741000   2.898060   2.194303   4.255747
    22  Cl   3.498012   3.319339   1.850609   2.832377   2.751919
    23  C    2.516601   4.214970   2.459545   3.680851   1.344610
    24  H    3.489026   4.778820   2.608095   3.914492   2.091220
    25  C    3.097125   5.294550   3.900200   5.008617   2.550523
    26  H    3.842825   5.868554   4.507860   5.470128   3.266803
    27  H    2.733794   5.176644   4.262504   5.212632   2.765370
    28  Cl   4.471831   6.690894   4.981504   6.344858   3.833556
                    6          7          8          9         10
     6  C    0.000000
     7  H    3.924602   0.000000
     8  H    1.092318   4.955116   0.000000
     9  H    2.144040   4.241941   2.534856   0.000000
    10  H    2.166792   3.772484   2.480209   3.873086   0.000000
    11  H    1.096378   4.165004   1.758324   2.358181   3.063169
    12  Cl   2.774257   4.531416   2.791492   2.346960   3.126392
    13  Br   2.853461   5.099595   2.967577   4.989570   2.485658
    14  C    3.067047   2.630828   4.065979   4.215290   3.504742
    15  H    2.832677   2.849868   3.849971   3.517532   3.901416
    16  H    4.098186   2.493507   5.126349   5.024426   4.324707
    17  H    3.334768   3.680537   4.161716   4.800512   3.758066
    18  C    3.924442   2.808506   4.709254   5.442957   2.751837
    19  H    4.277563   3.743488   4.965370   6.024790   3.214627
    20  H    4.731582   2.541912   5.614027   5.980259   3.713277
    21  H    4.193673   3.312210   4.822392   5.728018   2.494241
    22  Cl   4.005697   2.351148   4.700395   4.492609   2.911570
    23  C    3.711636   2.533143   4.596992   2.657474   4.614917
    24  H    4.543293   2.215308   5.504455   3.730212   5.169829
    25  C    4.423603   4.019768   5.118134   2.689006   5.706110
    26  H    4.972280   4.466722   5.706229   3.322608   6.426657
    27  H    4.069387   4.626271   4.567919   2.035543   5.552803
    28  Cl   5.945734   4.966970   6.565517   4.170221   6.892439
                   11         12         13         14         15
    11  H    0.000000
    12  Cl   3.702799   0.000000
    13  Br   2.993176   5.125826   0.000000
    14  C    2.738664   5.188755   3.370121   0.000000
    15  H    2.270432   4.930056   3.882659   1.094030   0.000000
    16  H    3.789458   5.969663   4.284708   1.095368   1.765965
    17  H    2.857464   5.793894   2.842689   1.093642   1.772878
    18  C    4.245639   5.312955   3.287857   2.501831   3.477832
    19  H    4.440164   6.048683   2.891443   2.676100   3.737718
    20  H    4.973051   5.939931   4.327462   2.790550   3.746544
    21  H    4.747508   5.131768   3.516677   3.472845   4.359488
    22  Cl   4.776492   3.500083   5.107503   4.166029   4.505361
    23  C    3.846822   3.643213   6.051712   3.828948   3.243013
    24  H    4.635985   4.543399   6.583130   3.970884   3.527894
    25  C    4.441987   4.037987   7.050678   5.004647   4.203805
    26  H    4.755672   5.015040   7.481301   5.155222   4.243147
    27  H    4.127317   3.525330   6.856908   5.290517   4.450865
    28  Cl   6.142055   4.810200   8.575833   6.544085   5.864697
                   16         17         18         19         20
    16  H    0.000000
    17  H    1.772885   0.000000
    18  C    2.652513   2.805984   0.000000
    19  H    2.855986   2.538841   1.093124   0.000000
    20  H    2.495206   3.262597   1.095954   1.774533   0.000000
    21  H    3.706003   3.768772   1.092543   1.770866   1.770253
    22  Cl   4.402832   4.989354   3.096483   4.156877   3.242652
    23  C    4.075004   4.830985   4.939146   5.772904   4.975459
    24  H    3.918541   5.041911   4.945972   5.818850   4.740835
    25  C    5.314788   5.911614   6.361294   7.141081   6.449346
    26  H    5.366255   6.013364   6.829682   7.525236   6.848889
    27  H    5.793561   6.084861   6.651081   7.376993   6.906801
    28  Cl   6.719502   7.528785   7.528596   8.434745   7.489265
                   21         22         23         24         25
    21  H    0.000000
    22  Cl   2.759811   0.000000
    23  C    5.354639   3.586768   0.000000
    24  H    5.413744   3.662690   1.088985   0.000000
    25  C    6.767717   4.895841   1.493717   2.177479   0.000000
    26  H    7.372869   5.728644   2.148832   2.541697   1.093066
    27  H    6.991344   5.185964   2.178430   3.101982   1.088766
    28  Cl   7.785724   5.458907   2.728271   2.939320   1.826780
                   26         27         28
    26  H    0.000000
    27  H    1.778903   0.000000
    28  Cl   2.363878   2.372776   0.000000
 Stoichiometry    C10H14BrCl3
 Framework group  C1[X(C10H14BrCl3)]
 Deg. of freedom    78
 Full point group                 C1      NOp   1
 Largest Abelian subgroup         C1      NOp   1
 Largest concise Abelian subgroup C1      NOp   1
                         Standard orientation:                         
 ---------------------------------------------------------------------
 Center     Atomic      Atomic             Coordinates (Angstroms)
 Number     Number       Type             X           Y           Z
 ---------------------------------------------------------------------
      1          6           0        0.782156   -1.214873   -0.070197
      2          6           0       -1.575087   -0.272813    0.157219
      3          6           0        0.330737    1.333479    0.070309
      4          6           0       -1.153891    1.121579   -0.358320
      5          6           0        1.259033    0.198763   -0.309833
      6          6           0       -0.709819   -1.408460   -0.379858
      7          1           0        0.686578    2.259311   -0.385187
      8          1           0       -1.043724   -2.365533    0.027178
      9          1           0        1.351498   -1.920299   -0.672944
     10          1           0       -1.581605   -0.274540    1.247779
     11          1           0       -0.821880   -1.468627   -1.468833
     12         17           0        1.138703   -1.759565    1.658816
     13         35           0       -3.471184   -0.692561   -0.312108
     14          6           0       -1.189279    1.210409   -1.902494
     15          1           0       -0.442836    0.573370   -2.386131
     16          1           0       -1.000051    2.241028   -2.221631
     17          1           0       -2.177994    0.916798   -2.266207
     18          6           0       -2.057795    2.229574    0.210831
     19          1           0       -3.052864    2.167486   -0.237391
     20          1           0       -1.638992    3.216681   -0.015750
     21          1           0       -2.165678    2.149889    1.295110
     22         17           0        0.488186    1.672232    1.882824
     23          6           0        2.434159    0.496783   -0.891417
     24          1           0        2.675020    1.546481   -1.052690
     25          6           0        3.499405   -0.447868   -1.343163
     26          1           0        3.700682   -0.340349   -2.412144
     27          1           0        3.290660   -1.493033   -1.120751
     28         17           0        5.078694   -0.056696   -0.512527
 ---------------------------------------------------------------------
 Rotational constants (GHZ):      0.6327103      0.1886431      0.1814582
 Standard basis: 6-31+G(d,p) (6D, 7F)
 There are   363 symmetry adapted basis functions of A   symmetry.
 Integral buffers will be    131072 words long.
 Raffenetti 2 integral format.
 Two-electron integral symmetry is turned on.
   363 basis functions,   673 primitive gaussians,   363 cartesian basis functions
    80 alpha electrons       80 beta electrons
       nuclear repulsion energy      1693.6207116043 Hartrees.
 NAtoms=   28 NActive=   28 NUniq=   28 SFac= 1.00D+00 NAtFMM=   60 NAOKFM=F Big=F
 ------------------------------------------------------------------------------
 Polarizable Continuum Model (PCM)
 =================================
 Model                : PCM.
 Atomic radii         : UFF (Universal Force Field).
 Polarization charges : Total charges.
 Charge compensation  : None.
 Solution method      : Matrix inversion.
 Cavity type          : Scaled VdW (van der Waals Surface) (Alpha=1.100).
 Cavity algorithm     : GePol (No added spheres)
                        Default sphere list used, NSphG=   28.
                        Lebedev-Laikov grids with approx.  5.0 points / Ang**2.
                        Smoothing algorithm: Karplus/York (Gamma=1.0000).
                        Polarization charges: spherical gaussians, with
                                              point-specific exponents (IZeta= 3).
                        Self-potential: point-specific (ISelfS= 7).
                        Self-field    : sphere-specific E.n sum rule (ISelfD= 2).
 Solvent              : Chloroform, Eps=   4.711300 Eps(inf)=   2.090627
 ------------------------------------------------------------------------------
 One-electron integrals computed using PRISM.
 NBasis=   363 RedAO= T  NBF=   363
 NBsUse=   363 1.00D-06 NBFU=   363
 Harris functional with IExCor=  908 diagonalized for initial guess.
 ExpMin= 3.50D-02 ExpMax= 5.74D+05 ExpMxC= 5.74D+03 IAcc=3 IRadAn=         5 AccDes= 0.00D+00
 HarFok:  IExCor=  908 AccDes= 0.00D+00 IRadAn=         5 IDoV= 1
 ScaDFX=  1.000000  1.000000  1.000000  1.000000
 FoFCou: FMM=F IPFlag=           0 FMFlag=      100000 FMFlg1=           0
         NFxFlg=           0 DoJE=T BraDBF=F KetDBF=T FulRan=T
         Omega=  0.000000  0.000000  1.000000  0.000000  0.000000 ICntrl=     500 IOpCl=  0
         NMat0=    1 NMatS0=    1 NMatT0=    0 NMatD0=    1 NMtDS0=    0 NMtDT0=    0
         I1Cent=           4 NGrid=           0.
 Petite list used in FoFCou.
 Initial guess orbital symmetries:
       Occupied  (A) (A) (A) (A) (A) (A) (A) (A) (A) (A) (A) (A)
                 (A) (A) (A) (A) (A) (A) (A) (A) (A) (A) (A) (A)
                 (A) (A) (A) (A) (A) (A) (A) (A) (A) (A) (A) (A)
                 (A) (A) (A) (A) (A) (A) (A) (A) (A) (A) (A) (A)
                 (A) (A) (A) (A) (A) (A) (A) (A) (A) (A) (A) (A)
                 (A) (A) (A) (A) (A) (A) (A) (A) (A) (A) (A) (A)
                 (A) (A) (A) (A) (A) (A) (A) (A)
       Virtual   (A) (A) (A) (A) (A) (A) (A) (A) (A) (A) (A) (A)
                 (A) (A) (A) (A) (A) (A) (A) (A) (A) (A) (A) (A)
                 (A) (A) (A) (A) (A) (A) (A) (A) (A) (A) (A) (A)
                 (A) (A) (A) (A) (A) (A) (A) (A) (A) (A) (A) (A)
                 (A) (A) (A) (A) (A) (A) (A) (A) (A) (A) (A) (A)
                 (A) (A) (A) (A) (A) (A) (A) (A) (A) (A) (A) (A)
                 (A) (A) (A) (A) (A) (A) (A) (A) (A) (A) (A) (A)
                 (A) (A) (A) (A) (A) (A) (A) (A) (A) (A) (A) (A)
                 (A) (A) (A) (A) (A) (A) (A) (A) (A) (A) (A) (A)
                 (A) (A) (A) (A) (A) (A) (A) (A) (A) (A) (A) (A)
                 (A) (A) (A) (A) (A) (A) (A) (A) (A) (A) (A) (A)
                 (A) (A) (A) (A) (A) (A) (A) (A) (A) (A) (A) (A)
                 (A) (A) (A) (A) (A) (A) (A) (A) (A) (A) (A) (A)
                 (A) (A) (A) (A) (A) (A) (A) (A) (A) (A) (A) (A)
                 (A) (A) (A) (A) (A) (A) (A) (A) (A) (A) (A) (A)
                 (A) (A) (A) (A) (A) (A) (A) (A) (A) (A) (A) (A)
                 (A) (A) (A) (A) (A) (A) (A) (A) (A) (A) (A) (A)
                 (A) (A) (A) (A) (A) (A) (A) (A) (A) (A) (A) (A)
                 (A) (A) (A) (A) (A) (A) (A) (A) (A) (A) (A) (A)
                 (A) (A) (A) (A) (A) (A) (A) (A) (A) (A) (A) (A)
                 (A) (A) (A) (A) (A) (A) (A) (A) (A) (A) (A) (A)
                 (A) (A) (A) (A) (A) (A) (A) (A) (A) (A) (A) (A)
                 (A) (A) (A) (A) (A) (A) (A) (A) (A) (A) (A) (A)
                 (A) (A) (A) (A) (A) (A) (A)
 The electronic state of the initial guess is 1-A.
 Requested convergence on RMS density matrix=1.00D-08 within 128 cycles.
 Requested convergence on MAX density matrix=1.00D-06.
 Requested convergence on             energy=1.00D-06.
 No special actions if energy rises.
 Error on total polarization charges =  0.01644
 SCF Done:  E(RmPW1PW91) =  -4341.94950874     A.U. after   14 cycles
             Convg  =    0.5671D-08             -V/T =  2.0056
 Range of M.O.s used for correlation:     1   363
 NBasis=   363 NAE=    80 NBE=    80 NFC=     0 NFV=     0
 NROrb=    363 NOA=    80 NOB=    80 NVA=   283 NVB=   283

 **** Warning!!: The largest alpha MO coefficient is  0.13541225D+03

 NEqPCM:  Using equilibrium solvation (IEInf=0, Eps=   4.7113, EpsInf=   2.0906)
          Differentiating once with respect to magnetic field using GIAOs.
          Electric field/nuclear overlap derivatives assumed to be zero.
 FoFCou: FMM=F IPFlag=           0 FMFlag=    10101102 FMFlg1=           0
         NFxFlg=    40000000 DoJE=F BraDBF=F KetDBF=T FulRan=T
         Omega=  0.000000  0.000000  1.000000  0.000000  0.000000 ICntrl=    6100 IOpCl=  0
         NMat0=    1 NMatS0=    1 NMatT0=    0 NMatD0=    1 NMtDS0=    0 NMtDT0=    0
         I1Cent=           7 NGrid=        2112.
 Symmetry not used in FoFCou.
          There are     3 degrees of freedom in the 1st order CPHF.  IDoFFX=0.
      3 vectors produced by pass  0 Test12= 7.55D-13 3.33D-08 XBig12= 1.02D+02 1.64D+00.
 AX will form     3 AO Fock derivatives at one time.
      3 vectors produced by pass  1 Test12= 7.55D-13 3.33D-08 XBig12= 2.64D-01 1.06D-01.
      3 vectors produced by pass  2 Test12= 7.55D-13 3.33D-08 XBig12= 1.21D-03 9.60D-03.
      3 vectors produced by pass  3 Test12= 7.55D-13 3.33D-08 XBig12= 7.88D-06 9.63D-04.
      3 vectors produced by pass  4 Test12= 7.55D-13 3.33D-08 XBig12= 3.41D-08 6.65D-05.
      3 vectors produced by pass  5 Test12= 7.55D-13 3.33D-08 XBig12= 1.10D-10 2.53D-06.
      3 vectors produced by pass  6 Test12= 7.55D-13 3.33D-08 XBig12= 4.87D-13 1.32D-07.
 Inverted reduced A of dimension    21 with in-core refinement.
 Calculating GIAO nuclear magnetic shielding tensors.
 SCF GIAO Magnetic shielding tensor (ppm):
      1  C    Isotropic =   137.8830   Anisotropy =    46.0425
   XX=   134.2495   YX=    10.6226   ZX=    16.7051
   XY=     9.8908   YY=   118.1243   ZY=   -16.0604
   XZ=    11.2655   YZ=    -9.7402   ZZ=   161.2753
   Eigenvalues:   107.1741   137.8969   168.5780
      2  C    Isotropic =   127.6005   Anisotropy =    62.6863
   XX=   161.1986   YX=    11.5093   ZX=    21.9898
   XY=     3.7166   YY=   132.9496   ZY=    -3.4665
   XZ=    25.5428   YZ=    -3.4805   ZZ=    88.6532
   Eigenvalues:    80.9723   132.4377   169.3913
      3  C    Isotropic =   117.0586   Anisotropy =    25.4161
   XX=   129.9564   YX=    -7.3415   ZX=     5.4545
   XY=    -6.5914   YY=    89.0411   ZY=     9.4367
   XZ=    -0.0488   YZ=     1.4494   ZZ=   132.1783
   Eigenvalues:    87.1364   130.0366   134.0027
      4  C    Isotropic =   150.8753   Anisotropy =    16.1653
   XX=   154.2479   YX=     5.2542   ZX=    10.7662
   XY=     6.8004   YY=   149.9732   ZY=     6.7472
   XZ=    -0.8883   YZ=     1.6319   ZZ=   148.4048
   Eigenvalues:   144.9255   146.0482   161.6522
      5  C    Isotropic =    59.6341   Anisotropy =   148.3991
   XX=    72.6001   YX=    29.1832   ZX=    37.0398
   XY=    19.0808   YY=   -30.7879   ZY=    -2.3304
   XZ=    48.4124   YZ=    -8.3764   ZZ=   137.0901
   Eigenvalues:   -37.4518    57.7872   158.5668
      6  C    Isotropic =   152.9113   Anisotropy =    43.5174
   XX=   179.6658   YX=     1.6555   ZX=    14.2741
   XY=    -6.8251   YY=   142.5917   ZY=    -1.8707
   XZ=     5.2365   YZ=     2.3615   ZZ=   136.4763
   Eigenvalues:   134.2998   142.5112   181.9229
      7  H    Isotropic =    27.0843   Anisotropy =     5.5211
   XX=    26.7561   YX=     1.9845   ZX=    -0.6619
   XY=     2.9829   YY=    25.5345   ZY=    -1.1275
   XZ=    -1.0324   YZ=    -2.7194   ZZ=    28.9623
   Eigenvalues:    23.3883    27.0997    30.7650
      8  H    Isotropic =    29.0702   Anisotropy =     6.3397
   XX=    30.9951   YX=     0.7327   ZX=     0.7255
   XY=    -0.0386   YY=    33.1346   ZY=    -1.6322
   XZ=     2.1963   YZ=    -0.8274   ZZ=    23.0808
   Eigenvalues:    22.6653    31.2486    33.2966
      9  H    Isotropic =    26.5162   Anisotropy =     7.6666
   XX=    27.7596   YX=    -1.0574   ZX=    -2.8643
   XY=    -2.2611   YY=    23.7989   ZY=     1.0686
   XZ=    -3.0108   YZ=     2.7377   ZZ=    27.9901
   Eigenvalues:    22.9795    24.9419    31.6273
     10  H    Isotropic =    26.3766   Anisotropy =     8.8315
   XX=    29.2658   YX=     1.7561   ZX=     3.8594
   XY=     2.1040   YY=    22.7981   ZY=    -0.6633
   XZ=     3.6771   YZ=    -0.2872   ZZ=    27.0660
   Eigenvalues:    21.7103    25.1553    32.2642
     11  H    Isotropic =    29.1091   Anisotropy =     4.4203
   XX=    29.6968   YX=    -1.0151   ZX=     1.4863
   XY=    -1.5324   YY=    27.5215   ZY=     2.6331
   XZ=     1.5911   YZ=     2.8385   ZZ=    30.1091
   Eigenvalues:    25.0100    30.2614    32.0560
     12  Cl   Isotropic =   720.7784   Anisotropy =   511.7006
   XX=   586.5554   YX=    79.3265   ZX=   122.4426
   XY=    84.6076   YY=   643.9729   ZY=  -198.6838
   XZ=   137.4367   YZ=  -236.9954   ZZ=   931.8068
   Eigenvalues:   416.0408   684.3822  1061.9121
     13  Br   Isotropic =  2447.9614   Anisotropy =  1020.1293
   XX=  3067.8576   YX=   114.3752   ZX=   201.7088
   XY=   112.4796   YY=  2194.4034   ZY=   114.3058
   XZ=   213.8323   YZ=    76.2686   ZZ=  2081.6231
   Eigenvalues:  2009.8907  2205.9459  3128.0476
     14  C    Isotropic =   174.5874   Anisotropy =    32.2135
   XX=   163.2658   YX=     0.2073   ZX=     3.0049
   XY=     0.3323   YY=   164.6782   ZY=    -2.8903
   XZ=     2.0111   YZ=     0.2657   ZZ=   195.8181
   Eigenvalues:   162.9905   164.7086   196.0631
     15  H    Isotropic =    30.7335   Anisotropy =     7.5706
   XX=    30.4127   YX=    -2.7372   ZX=    -2.4676
   XY=    -2.5075   YY=    27.8138   ZY=     0.6705
   XZ=    -2.4109   YZ=     1.2668   ZZ=    33.9740
   Eigenvalues:    26.1545    30.2655    35.7805
     16  H    Isotropic =    30.9406   Anisotropy =    10.3630
   XX=    27.2700   YX=     0.5712   ZX=    -0.6497
   XY=     0.9790   YY=    33.2862   ZY=    -4.2754
   XZ=    -0.2915   YZ=    -5.6690   ZZ=    32.2656
   Eigenvalues:    27.1493    27.8233    37.8493
     17  H    Isotropic =    30.0151   Anisotropy =     7.6376
   XX=    31.7100   YX=     2.8128   ZX=     2.2330
   XY=     3.1517   YY=    26.2122   ZY=    -2.3745
   XZ=     4.0464   YZ=    -1.7061   ZZ=    32.1232
   Eigenvalues:    23.6799    31.2587    35.1069
     18  C    Isotropic =   167.7138   Anisotropy =    34.4226
   XX=   163.1283   YX=   -13.1719   ZX=   -10.9710
   XY=   -14.4848   YY=   177.2387   ZY=     9.7780
   XZ=    -7.0624   YZ=     6.5848   ZZ=   162.7745
   Eigenvalues:   152.6953   159.7840   190.6622
     19  H    Isotropic =    30.0303   Anisotropy =     7.6056
   XX=    33.8332   YX=    -1.5395   ZX=     1.7846
   XY=    -2.4110   YY=    31.5529   ZY=     0.6347
   XZ=     1.5491   YZ=     0.6351   ZZ=    24.7049
   Eigenvalues:    24.2746    30.7157    35.1007
     20  H    Isotropic =    30.7414   Anisotropy =    10.6469
   XX=    27.8530   YX=    -0.8356   ZX=     0.1738
   XY=    -0.0763   YY=    37.8059   ZY=    -0.5811
   XZ=     0.0089   YZ=    -0.1634   ZZ=    26.5652
   Eigenvalues:    26.5484    27.8364    37.8393
     21  H    Isotropic =    30.1552   Anisotropy =     7.5561
   XX=    29.6040   YX=    -1.7288   ZX=    -2.1347
   XY=    -1.7518   YY=    27.8487   ZY=     3.4753
   XZ=    -1.0664   YZ=     2.3715   ZZ=    33.0129
   Eigenvalues:    26.2224    29.0507    35.1926
     22  Cl   Isotropic =   772.1852   Anisotropy =   408.8883
   XX=   676.4452   YX=   -47.3245   ZX=    26.8492
   XY=   -67.8924   YY=   634.0202   ZY=    90.9629
   XZ=    27.0507   YZ=   160.3687   ZZ=  1006.0902
   Eigenvalues:   561.1183   710.6599  1044.7774
     23  C    Isotropic =    61.6692   Anisotropy =   125.4489
   XX=    88.6574   YX=    10.9686   ZX=    40.7066
   XY=    15.7020   YY=   -27.9048   ZY=     3.2833
   XZ=    26.8739   YZ=     5.4106   ZZ=   124.2549
   Eigenvalues:   -29.4129    69.1186   145.3018
     24  H    Isotropic =    25.4472   Anisotropy =     8.9006
   XX=    30.3647   YX=    -1.2241   ZX=    -2.6573
   XY=    -1.7102   YY=    22.3848   ZY=    -0.1209
   XZ=    -2.4308   YZ=    -0.9750   ZZ=    23.5920
   Eigenvalues:    21.4708    23.4898    31.3809
     25  C    Isotropic =   150.3002   Anisotropy =    46.4349
   XX=   170.3545   YX=    -0.3955   ZX=    18.3512
   XY=    -2.6390   YY=   138.8080   ZY=    12.0738
   XZ=    21.3099   YZ=    17.5819   ZZ=   141.7381
   Eigenvalues:   120.6633   148.9805   181.2568
     26  H    Isotropic =    27.4135   Anisotropy =     8.7779
   XX=    28.0146   YX=     0.0194   ZX=     1.2733
   XY=     0.1528   YY=    21.0959   ZY=     1.5384
   XZ=    -0.8001   YZ=     0.9176   ZZ=    33.1301
   Eigenvalues:    20.9713    28.0038    33.2655
     27  H    Isotropic =    27.3016   Anisotropy =     8.4975
   XX=    31.1330   YX=     2.4338   ZX=    -0.7234
   XY=     3.0326   YY=    28.8921   ZY=     0.2867
   XZ=    -0.7642   YZ=     2.0879   ZZ=    21.8799
   Eigenvalues:    21.5253    27.4130    32.9666
     28  Cl   Isotropic =   838.9245   Anisotropy =   401.7425
   XX=  1040.2123   YX=    15.5718   ZX=   148.8426
   XY=    50.9644   YY=   721.3040   ZY=    76.8669
   XZ=   135.2581   YZ=    47.8837   ZZ=   755.2572
   Eigenvalues:   659.7057   750.3150  1106.7529
 End of Minotr Frequency-dependent properties file   721 does not exist.
 End of Minotr Frequency-dependent properties file   722 does not exist.

 **********************************************************************

            Population analysis using the SCF density.

 **********************************************************************

 Orbital symmetries:
       Occupied  (A) (A) (A) (A) (A) (A) (A) (A) (A) (A) (A) (A)
                 (A) (A) (A) (A) (A) (A) (A) (A) (A) (A) (A) (A)
                 (A) (A) (A) (A) (A) (A) (A) (A) (A) (A) (A) (A)
                 (A) (A) (A) (A) (A) (A) (A) (A) (A) (A) (A) (A)
                 (A) (A) (A) (A) (A) (A) (A) (A) (A) (A) (A) (A)
                 (A) (A) (A) (A) (A) (A) (A) (A) (A) (A) (A) (A)
                 (A) (A) (A) (A) (A) (A) (A) (A)
       Virtual   (A) (A) (A) (A) (A) (A) (A) (A) (A) (A) (A) (A)
                 (A) (A) (A) (A) (A) (A) (A) (A) (A) (A) (A) (A)
                 (A) (A) (A) (A) (A) (A) (A) (A) (A) (A) (A) (A)
                 (A) (A) (A) (A) (A) (A) (A) (A) (A) (A) (A) (A)
                 (A) (A) (A) (A) (A) (A) (A) (A) (A) (A) (A) (A)
                 (A) (A) (A) (A) (A) (A) (A) (A) (A) (A) (A) (A)
                 (A) (A) (A) (A) (A) (A) (A) (A) (A) (A) (A) (A)
                 (A) (A) (A) (A) (A) (A) (A) (A) (A) (A) (A) (A)
                 (A) (A) (A) (A) (A) (A) (A) (A) (A) (A) (A) (A)
                 (A) (A) (A) (A) (A) (A) (A) (A) (A) (A) (A) (A)
                 (A) (A) (A) (A) (A) (A) (A) (A) (A) (A) (A) (A)
                 (A) (A) (A) (A) (A) (A) (A) (A) (A) (A) (A) (A)
                 (A) (A) (A) (A) (A) (A) (A) (A) (A) (A) (A) (A)
                 (A) (A) (A) (A) (A) (A) (A) (A) (A) (A) (A) (A)
                 (A) (A) (A) (A) (A) (A) (A) (A) (A) (A) (A) (A)
                 (A) (A) (A) (A) (A) (A) (A) (A) (A) (A) (A) (A)
                 (A) (A) (A) (A) (A) (A) (A) (A) (A) (A) (A) (A)
                 (A) (A) (A) (A) (A) (A) (A) (A) (A) (A) (A) (A)
                 (A) (A) (A) (A) (A) (A) (A) (A) (A) (A) (A) (A)
                 (A) (A) (A) (A) (A) (A) (A) (A) (A) (A) (A) (A)
                 (A) (A) (A) (A) (A) (A) (A) (A) (A) (A) (A) (A)
                 (A) (A) (A) (A) (A) (A) (A) (A) (A) (A) (A) (A)
                 (A) (A) (A) (A) (A) (A) (A) (A) (A) (A) (A) (A)
                 (A) (A) (A) (A) (A) (A) (A)
 The electronic state is 1-A.
 Alpha  occ. eigenvalues -- -483.41560-101.76386-101.75947-101.75826 -62.05545
 Alpha  occ. eigenvalues --  -56.54115 -56.53775 -56.53759 -10.34153 -10.33851
 Alpha  occ. eigenvalues --  -10.32928 -10.32586 -10.30320 -10.30088 -10.29394
 Alpha  occ. eigenvalues --  -10.28055 -10.25238 -10.24564  -9.54188  -9.53691
 Alpha  occ. eigenvalues --   -9.53551  -8.67404  -7.28175  -7.27665  -7.27519
 Alpha  occ. eigenvalues --   -7.27212  -7.27190  -7.26724  -7.26711  -7.26591
 Alpha  occ. eigenvalues --   -7.26576  -6.60882  -6.59721  -6.59710  -2.69619
 Alpha  occ. eigenvalues --   -2.69288  -2.69279  -2.68336  -2.68336  -0.93859
 Alpha  occ. eigenvalues --   -0.89752  -0.88598  -0.86519  -0.83007  -0.80950
 Alpha  occ. eigenvalues --   -0.78076  -0.74094  -0.72047  -0.70923  -0.66850
 Alpha  occ. eigenvalues --   -0.65477  -0.58905  -0.55509  -0.54009  -0.51013
 Alpha  occ. eigenvalues --   -0.49430  -0.48590  -0.48193  -0.46876  -0.45126
 Alpha  occ. eigenvalues --   -0.44876  -0.44045  -0.43222  -0.41715  -0.40579
 Alpha  occ. eigenvalues --   -0.39846  -0.39494  -0.38644  -0.37132  -0.36248
 Alpha  occ. eigenvalues --   -0.35736  -0.33974  -0.33047  -0.32487  -0.32423
 Alpha  occ. eigenvalues --   -0.31835  -0.30568  -0.29843  -0.29740  -0.29232
 Alpha virt. eigenvalues --   -0.06177  -0.02229  -0.00536   0.00209   0.00967
 Alpha virt. eigenvalues --    0.01492   0.01954   0.02782   0.03442   0.03581
 Alpha virt. eigenvalues --    0.04282   0.04746   0.04965   0.05632   0.06350
 Alpha virt. eigenvalues --    0.06544   0.07217   0.07354   0.07730   0.08557
 Alpha virt. eigenvalues --    0.08782   0.09260   0.09432   0.10002   0.10534
 Alpha virt. eigenvalues --    0.10977   0.11173   0.11668   0.11805   0.11958
 Alpha virt. eigenvalues --    0.12510   0.12720   0.13156   0.13920   0.14463
 Alpha virt. eigenvalues --    0.14696   0.14996   0.15726   0.16054   0.16313
 Alpha virt. eigenvalues --    0.16576   0.17151   0.17685   0.17923   0.18044
 Alpha virt. eigenvalues --    0.18861   0.19255   0.19458   0.19979   0.20239
 Alpha virt. eigenvalues --    0.20300   0.20990   0.22121   0.22222   0.23093
 Alpha virt. eigenvalues --    0.23582   0.23710   0.24086   0.24454   0.24950
 Alpha virt. eigenvalues --    0.25502   0.25781   0.26249   0.26483   0.27223
 Alpha virt. eigenvalues --    0.27607   0.27959   0.28136   0.29485   0.29926
 Alpha virt. eigenvalues --    0.30244   0.30735   0.31267   0.32322   0.33102
 Alpha virt. eigenvalues --    0.35437   0.35910   0.37548   0.38456   0.39429
 Alpha virt. eigenvalues --    0.40201   0.42434   0.44871   0.47136   0.48620
 Alpha virt. eigenvalues --    0.49164   0.52260   0.52776   0.54819   0.56663
 Alpha virt. eigenvalues --    0.58363   0.59300   0.60918   0.61250   0.61868
 Alpha virt. eigenvalues --    0.63110   0.63451   0.63856   0.64765   0.65286
 Alpha virt. eigenvalues --    0.65609   0.66240   0.66851   0.67536   0.67863
 Alpha virt. eigenvalues --    0.68424   0.69419   0.70441   0.71264   0.71912
 Alpha virt. eigenvalues --    0.73397   0.74149   0.75482   0.75846   0.76216
 Alpha virt. eigenvalues --    0.76998   0.77612   0.78365   0.78927   0.79909
 Alpha virt. eigenvalues --    0.81532   0.81751   0.84184   0.85110   0.85604
 Alpha virt. eigenvalues --    0.86256   0.87307   0.87960   0.88637   0.89614
 Alpha virt. eigenvalues --    0.90232   0.91665   0.92524   0.94047   0.95193
 Alpha virt. eigenvalues --    0.95949   0.97458   0.98488   0.98804   0.99555
 Alpha virt. eigenvalues --    1.00601   1.00844   1.01597   1.02895   1.04245
 Alpha virt. eigenvalues --    1.05475   1.06774   1.07041   1.07699   1.08349
 Alpha virt. eigenvalues --    1.09316   1.11061   1.12314   1.12821   1.14500
 Alpha virt. eigenvalues --    1.14973   1.16596   1.17627   1.18685   1.19327
 Alpha virt. eigenvalues --    1.21279   1.23595   1.24730   1.27244   1.28279
 Alpha virt. eigenvalues --    1.31359   1.33881   1.35005   1.36660   1.39336
 Alpha virt. eigenvalues --    1.41364   1.44958   1.48241   1.51379   1.52628
 Alpha virt. eigenvalues --    1.56955   1.58345   1.60378   1.65153   1.66086
 Alpha virt. eigenvalues --    1.70583   1.73340   1.75520   1.79082   1.80250
 Alpha virt. eigenvalues --    1.81522   1.83277   1.84330   1.87048   1.87708
 Alpha virt. eigenvalues --    1.89819   1.90151   1.91469   1.92804   1.95747
 Alpha virt. eigenvalues --    1.97236   1.97366   2.00922   2.01866   2.02913
 Alpha virt. eigenvalues --    2.05353   2.06474   2.09404   2.10149   2.11611
 Alpha virt. eigenvalues --    2.12079   2.13278   2.15489   2.15874   2.16008
 Alpha virt. eigenvalues --    2.18267   2.20095   2.22056   2.23738   2.23806
 Alpha virt. eigenvalues --    2.24981   2.26780   2.31177   2.32980   2.35671
 Alpha virt. eigenvalues --    2.37018   2.39772   2.43327   2.45651   2.47370
 Alpha virt. eigenvalues --    2.48907   2.53080   2.53431   2.56594   2.57631
 Alpha virt. eigenvalues --    2.57831   2.60157   2.61739   2.64294   2.66104
 Alpha virt. eigenvalues --    2.67416   2.68680   2.70739   2.73592   2.74672
 Alpha virt. eigenvalues --    2.76515   2.78728   2.80495   2.82281   2.83429
 Alpha virt. eigenvalues --    2.84568   2.87414   2.89307   2.92049   2.93352
 Alpha virt. eigenvalues --    2.97025   2.98290   3.01252   3.08307   3.30752
 Alpha virt. eigenvalues --    3.31487   3.32335   3.36583   3.41343   3.42399
 Alpha virt. eigenvalues --    3.47355   3.47447   3.48181   3.49018   3.51715
 Alpha virt. eigenvalues --    3.52508   3.54801   3.56863   4.29110   4.34613
 Alpha virt. eigenvalues --    4.36286   4.41091   4.43047   4.49044   4.50507
 Alpha virt. eigenvalues --    4.56158   4.59916   4.67852   4.72646   4.76998
 Alpha virt. eigenvalues --    4.80865   9.06566  81.41140
          Condensed to atoms (all electrons):
              1          2          3          4          5          6
     1  C    9.856317  -0.564823  -1.780577   0.937208   0.425133  -0.738562
     2  C   -0.564823  11.061451   0.052748  -2.109949   0.514263  -1.310522
     3  C   -1.780577   0.052748  13.345150  -2.722565  -3.746837   0.449179
     4  C    0.937208  -2.109949  -2.722565  10.670731   0.247650   0.032579
     5  C    0.425133   0.514263  -3.746837   0.247650  14.916713  -0.383224
     6  C   -0.738562  -1.310522   0.449179   0.032579  -0.383224   7.296140
     7  H    0.006998   0.001178   0.205426   0.042936  -0.126403  -0.010649
     8  H   -0.087787  -0.106836   0.028683   0.038007   0.051048   0.396226
     9  H    0.079311   0.050923   0.080456  -0.060455  -0.063417   0.054385
    10  H    0.001279   0.373305   0.040569  -0.071439  -0.039149  -0.004776
    11  H    0.016487  -0.055901  -0.038163   0.042175  -0.015596   0.370510
    12  Cl  -0.256651   0.165358   0.007126  -0.148463   0.231193  -0.047338
    13  Br   0.038795   0.296825   0.110581  -0.054322  -0.025264  -0.064444
    14  C    0.161486  -0.652788   0.151899  -0.474488  -0.274742  -0.064202
    15  H    0.004546  -0.033832   0.034759  -0.087959  -0.032315  -0.004512
    16  H   -0.004263   0.048836  -0.031300  -0.129683   0.039723  -0.002173
    17  H   -0.001386   0.001139   0.035471  -0.117972  -0.012488  -0.005772
    18  C    0.029629  -0.663857   0.295240  -0.423096  -0.347703   0.125007
    19  H   -0.002783  -0.039070   0.065089  -0.113984  -0.020326   0.007758
    20  H   -0.004851   0.036899  -0.003333  -0.118272  -0.000659  -0.002926
    21  H    0.003021  -0.020779  -0.062851  -0.038218   0.011885   0.005262
    22  Cl  -0.083007   0.071906  -0.688835   0.166351   0.471148  -0.037326
    23  C   -2.061657  -0.790234   1.176925   0.242896  -6.557835   0.567383
    24  H    0.010158  -0.003881  -0.012325   0.021131  -0.023789  -0.003084
    25  C   -0.171337   0.012950  -0.767681  -0.049761   0.934084  -0.107034
    26  H    0.037868  -0.000537  -0.011603   0.003196   0.060740   0.003176
    27  H   -0.055179   0.003217   0.000587  -0.002891   0.057878   0.012900
    28  Cl   0.010380   0.000798  -0.061439   0.003291   0.235396   0.002961
              7          8          9         10         11         12
     1  C    0.006998  -0.087787   0.079311   0.001279   0.016487  -0.256651
     2  C    0.001178  -0.106836   0.050923   0.373305  -0.055901   0.165358
     3  C    0.205426   0.028683   0.080456   0.040569  -0.038163   0.007126
     4  C    0.042936   0.038007  -0.060455  -0.071439   0.042175  -0.148463
     5  C   -0.126403   0.051048  -0.063417  -0.039149  -0.015596   0.231193
     6  C   -0.010649   0.396226   0.054385  -0.004776   0.370510  -0.047338
     7  H    0.514206   0.000007  -0.000103  -0.000041  -0.000027  -0.002196
     8  H    0.000007   0.483543  -0.001639  -0.003683  -0.021933   0.010596
     9  H   -0.000103  -0.001639   0.533357  -0.000088  -0.004137  -0.017554
    10  H   -0.000041  -0.003683  -0.000088   0.474151   0.003480   0.003484
    11  H   -0.000027  -0.021933  -0.004137   0.003480   0.483997   0.007635
    12  Cl  -0.002196   0.010596  -0.017554   0.003484   0.007635  17.090499
    13  Br  -0.000671  -0.010569   0.000128  -0.017439  -0.000003   0.002199
    14  C    0.021313   0.005788   0.006927  -0.016420  -0.020621  -0.019109
    15  H   -0.000773   0.000055   0.000017  -0.000182  -0.002272  -0.001419
    16  H    0.003278   0.000000   0.000001  -0.000092   0.000028   0.000048
    17  H    0.000081   0.000005   0.000002   0.000063   0.000210   0.000343
    18  C   -0.035006  -0.000939  -0.001039   0.010259   0.009172   0.002486
    19  H   -0.000019   0.000001   0.000000   0.000036   0.000005   0.000021
    20  H    0.003082   0.000002   0.000000   0.000047   0.000000   0.000002
    21  H    0.000017  -0.000006   0.000000   0.003463  -0.000001   0.000013
    22  Cl  -0.020369   0.000438  -0.004496  -0.006208  -0.000431  -0.005448
    23  C    0.158385   0.008243   0.149230   0.006320   0.008192   0.036640
    24  H    0.004443   0.000002   0.000116   0.000000  -0.000006  -0.001568
    25  C    0.013027  -0.001357  -0.021125  -0.000059   0.002279   0.068916
    26  H   -0.000005  -0.000001  -0.000377   0.000000  -0.000001  -0.002257
    27  H    0.000000   0.000015   0.007425   0.000000  -0.000008   0.007234
    28  Cl   0.000087  -0.000044   0.000926   0.000015   0.000020   0.000556
             13         14         15         16         17         18
     1  C    0.038795   0.161486   0.004546  -0.004263  -0.001386   0.029629
     2  C    0.296825  -0.652788  -0.033832   0.048836   0.001139  -0.663857
     3  C    0.110581   0.151899   0.034759  -0.031300   0.035471   0.295240
     4  C   -0.054322  -0.474488  -0.087959  -0.129683  -0.117972  -0.423096
     5  C   -0.025264  -0.274742  -0.032315   0.039723  -0.012488  -0.347703
     6  C   -0.064444  -0.064202  -0.004512  -0.002173  -0.005772   0.125007
     7  H   -0.000671   0.021313  -0.000773   0.003278   0.000081  -0.035006
     8  H   -0.010569   0.005788   0.000055   0.000000   0.000005  -0.000939
     9  H    0.000128   0.006927   0.000017   0.000001   0.000002  -0.001039
    10  H   -0.017439  -0.016420  -0.000182  -0.000092   0.000063   0.010259
    11  H   -0.000003  -0.020621  -0.002272   0.000028   0.000210   0.009172
    12  Cl   0.002199  -0.019109  -0.001419   0.000048   0.000343   0.002486
    13  Br  35.060439  -0.089722   0.002385  -0.000511   0.002548  -0.099876
    14  C   -0.089722   6.685820   0.440561   0.474912   0.474317  -0.244075
    15  H    0.002385   0.440561   0.517643  -0.024631  -0.023485   0.014206
    16  H   -0.000511   0.474912  -0.024631   0.507810  -0.020850  -0.053133
    17  H    0.002548   0.474317  -0.023485  -0.020850   0.489079  -0.011949
    18  C   -0.099876  -0.244075   0.014206  -0.053133  -0.011949   6.387323
    19  H    0.003978   0.019306   0.000143  -0.000292   0.001908   0.440126
    20  H   -0.001350  -0.034301   0.000005   0.002588   0.000056   0.459529
    21  H    0.000535  -0.002759  -0.000154   0.000109   0.000014   0.452365
    22  Cl  -0.003102  -0.107709  -0.002530   0.003515  -0.002579   0.022519
    23  C   -0.026576   0.115833   0.024125   0.001535  -0.005278   0.069103
    24  H    0.000120   0.009037  -0.000015  -0.000032   0.000002   0.002780
    25  C    0.000093   0.012170  -0.004317   0.001613  -0.000120  -0.040124
    26  H    0.000014   0.000727   0.000000   0.000000   0.000000   0.000008
    27  H    0.000102   0.000912  -0.000003   0.000000   0.000000  -0.000097
    28  Cl   0.000156   0.000122   0.000005  -0.000020  -0.000002  -0.000019
             19         20         21         22         23         24
     1  C   -0.002783  -0.004851   0.003021  -0.083007  -2.061657   0.010158
     2  C   -0.039070   0.036899  -0.020779   0.071906  -0.790234  -0.003881
     3  C    0.065089  -0.003333  -0.062851  -0.688835   1.176925  -0.012325
     4  C   -0.113984  -0.118272  -0.038218   0.166351   0.242896   0.021131
     5  C   -0.020326  -0.000659   0.011885   0.471148  -6.557835  -0.023789
     6  C    0.007758  -0.002926   0.005262  -0.037326   0.567383  -0.003084
     7  H   -0.000019   0.003082   0.000017  -0.020369   0.158385   0.004443
     8  H    0.000001   0.000002  -0.000006   0.000438   0.008243   0.000002
     9  H    0.000000   0.000000   0.000000  -0.004496   0.149230   0.000116
    10  H    0.000036   0.000047   0.003463  -0.006208   0.006320   0.000000
    11  H    0.000005   0.000000  -0.000001  -0.000431   0.008192  -0.000006
    12  Cl   0.000021   0.000002   0.000013  -0.005448   0.036640  -0.001568
    13  Br   0.003978  -0.001350   0.000535  -0.003102  -0.026576   0.000120
    14  C    0.019306  -0.034301  -0.002759  -0.107709   0.115833   0.009037
    15  H    0.000143   0.000005  -0.000154  -0.002530   0.024125  -0.000015
    16  H   -0.000292   0.002588   0.000109   0.003515   0.001535  -0.000032
    17  H    0.001908   0.000056   0.000014  -0.002579  -0.005278   0.000002
    18  C    0.440126   0.459529   0.452365   0.022519   0.069103   0.002780
    19  H    0.502365  -0.024237  -0.024512  -0.005088   0.000974   0.000000
    20  H   -0.024237   0.514095  -0.023153   0.008586   0.009037   0.000000
    21  H   -0.024512  -0.023153   0.499680   0.008489  -0.003996   0.000000
    22  Cl  -0.005088   0.008586   0.008489  17.236067   0.019071   0.005881
    23  C    0.000974   0.009037  -0.003996   0.019071  13.837020   0.383622
    24  H    0.000000   0.000000   0.000000   0.005881   0.383622   0.500601
    25  C   -0.000122   0.000003   0.000118   0.021856  -1.045031  -0.098504
    26  H    0.000000   0.000000   0.000000  -0.000925  -0.131926  -0.002178
    27  H    0.000000   0.000000   0.000000   0.000308  -0.038391   0.003418
    28  Cl   0.000000   0.000000   0.000000  -0.000417  -0.277042   0.015922
             25         26         27         28
     1  C   -0.171337   0.037868  -0.055179   0.010380
     2  C    0.012950  -0.000537   0.003217   0.000798
     3  C   -0.767681  -0.011603   0.000587  -0.061439
     4  C   -0.049761   0.003196  -0.002891   0.003291
     5  C    0.934084   0.060740   0.057878   0.235396
     6  C   -0.107034   0.003176   0.012900   0.002961
     7  H    0.013027  -0.000005   0.000000   0.000087
     8  H   -0.001357  -0.000001   0.000015  -0.000044
     9  H   -0.021125  -0.000377   0.007425   0.000926
    10  H   -0.000059   0.000000   0.000000   0.000015
    11  H    0.002279  -0.000001  -0.000008   0.000020
    12  Cl   0.068916  -0.002257   0.007234   0.000556
    13  Br   0.000093   0.000014   0.000102   0.000156
    14  C    0.012170   0.000727   0.000912   0.000122
    15  H   -0.004317   0.000000  -0.000003   0.000005
    16  H    0.001613   0.000000   0.000000  -0.000020
    17  H   -0.000120   0.000000   0.000000  -0.000002
    18  C   -0.040124   0.000008  -0.000097  -0.000019
    19  H   -0.000122   0.000000   0.000000   0.000000
    20  H    0.000003   0.000000   0.000000   0.000000
    21  H    0.000118   0.000000   0.000000   0.000000
    22  Cl   0.021856  -0.000925   0.000308  -0.000417
    23  C   -1.045031  -0.131926  -0.038391  -0.277042
    24  H   -0.098504  -0.002178   0.003418   0.015922
    25  C    6.789944   0.376040   0.333574   0.247433
    26  H    0.376040   0.487763  -0.025496  -0.037772
    27  H    0.333574  -0.025496   0.503215  -0.024572
    28  Cl   0.247433  -0.037772  -0.024572  16.979117
 Mulliken atomic charges:
              1
     1  C    0.194248
     2  C   -0.338787
     3  C   -0.152379
     4  C    0.275369
     5  C   -0.527107
     6  C   -0.536923
     7  H    0.221796
     8  H    0.212134
     9  H    0.211226
    10  H    0.243105
    11  H    0.214908
    12  Cl  -0.132346
    13  Br  -0.125047
    14  C   -0.580195
    15  H    0.179949
    16  H    0.182984
    17  H    0.196643
    18  C   -0.398838
    19  H    0.188723
    20  H    0.179152
    21  H    0.191459
    22  Cl  -0.067667
    23  C    0.123433
    24  H    0.188147
    25  C   -0.507528
    26  H    0.243544
    27  H    0.215854
    28  Cl  -0.095859
 Sum of Mulliken atomic charges =   0.00000
 Mulliken charges with hydrogens summed into heavy atoms:
              1
     1  C    0.405474
     2  C   -0.095682
     3  C    0.069417
     4  C    0.275369
     5  C   -0.527107
     6  C   -0.109881
    12  Cl  -0.132346
    13  Br  -0.125047
    14  C   -0.020618
    18  C    0.160496
    22  Cl  -0.067667
    23  C    0.311580
    25  C   -0.048129
    28  Cl  -0.095859
 Sum of Mulliken charges with hydrogens summed into heavy atoms =   0.00000
 Electronic spatial extent (au):  <R**2>=           5848.8791
 Charge=              0.0000 electrons
 Dipole moment (field-independent basis, Debye):
    X=             -0.4780    Y=              0.5884    Z=             -5.4427  Tot=              5.4952
 Quadrupole moment (field-independent basis, Debye-Ang):
   XX=           -138.8939   YY=           -115.9673   ZZ=           -119.4141
   XY=             -3.1795   XZ=             -8.2065   YZ=              0.0201
 Traceless Quadrupole moment (field-independent basis, Debye-Ang):
   XX=            -14.1354   YY=              8.7911   ZZ=              5.3443
   XY=             -3.1795   XZ=             -8.2065   YZ=              0.0201
 Octapole moment (field-independent basis, Debye-Ang**2):
  XXX=           -143.8801  YYY=            -16.4025  ZZZ=            -11.5030  XYY=            -26.3777
  XXY=             -0.8948  XXZ=            -12.8289  XZZ=            -21.6903  YZZ=             -9.6135
  YYZ=            -17.4775  XYZ=              4.8711
 Hexadecapole moment (field-independent basis, Debye-Ang**3):
 XXXX=          -5306.9648 YYYY=          -1248.5517 ZZZZ=           -956.0993 XXXY=             57.7938
 XXXZ=             54.1764 YYYX=             64.4868 YYYZ=              0.0066 ZZZX=              1.7357
 ZZZY=              9.6084 XXYY=          -1008.7825 XXZZ=           -935.1701 YYZZ=           -382.5215
 XXYZ=             14.4626 YYXZ=             -6.1898 ZZXY=             14.4694
 N-N= 1.693620711604D+03 E-N=-1.370125066125D+04  KE= 4.317886278490D+03
 1\1\GINC-COMPUTE-6-34\SP\RmPW1PW91\6-31+G(d,p)\C10H14Br1Cl3\LPASSAGLIA
 .IQUIR\20-May-2022\0\\# mPW1PW91/6-31+G** scrf=(PCM,solvent=chloroform
 ) nmr\\comment\\0,1\C,0,0.782156,-1.214873,-0.070197\C,0,-1.575087,-0.
 272813,0.157219\C,0,0.330737,1.333479,0.070309\C,0,-1.153891,1.121579,
 -0.35832\C,0,1.259033,0.198763,-0.309833\C,0,-0.709819,-1.40846,-0.379
 858\H,0,0.686578,2.259311,-0.385187\H,0,-1.043724,-2.365533,0.027178\H
 ,0,1.351498,-1.920299,-0.672944\H,0,-1.581605,-0.27454,1.247779\H,0,-0
 .82188,-1.468627,-1.468833\Cl,0,1.138703,-1.759565,1.658816\Br,0,-3.47
 1184,-0.692561,-0.312108\C,0,-1.189279,1.210409,-1.902494\H,0,-0.44283
 6,0.57337,-2.386131\H,0,-1.000051,2.241028,-2.221631\H,0,-2.177994,0.9
 16798,-2.266207\C,0,-2.057795,2.229574,0.210831\H,0,-3.052864,2.167486
 ,-0.237391\H,0,-1.638992,3.216681,-0.01575\H,0,-2.165678,2.149889,1.29
 511\Cl,0,0.488186,1.672232,1.882824\C,0,2.434159,0.496783,-0.891417\H,
 0,2.67502,1.546481,-1.05269\C,0,3.499405,-0.447868,-1.343163\H,0,3.700
 682,-0.340349,-2.412144\H,0,3.29066,-1.493033,-1.120751\Cl,0,5.078694,
 -0.056696,-0.512527\\Version=EM64L-G09RevC.01\State=1-A\HF=-4341.94950
 87\RMSD=5.671e-09\Dipole=-0.1880466,0.2315131,-2.1413174\Quadrupole=-1
 0.5093434,6.5359532,3.9733902,-2.363892,-6.1013353,0.0149534\PG=C01 [X
 (C10H14Br1Cl3)]\\@


 A HARD FALL SHOULD MEAN A HIGH BOUNCE 
 IF ONE IS MADE OF THE RIGHT MATERIAL.

                -- THE CHEMIST ANALYST, MARCH 1950
 Job cpu time:  0 days  0 hours 15 minutes  8.3 seconds.
 File lengths (MBytes):  RWF=    153 Int=      0 D2E=      0 Chk=      9 Scr=      1
 Normal termination of Gaussian 09 at Fri May 20 18:28:35 2022.
