 Entering Gaussian System, Link 0=g09
 Input=/home/lpassaglia.iquir/NMR_Tetrahalogenados/03_SRSE_Tetrahalogenado_004.gjc
 Output=/home/lpassaglia.iquir/NMR_Tetrahalogenados/03_SRSE_Tetrahalogenado_004.log
 Initial command:
 /share/apps/Gaussian09/EM64T.SSE4.2-enabled/g09/l1.exe /tmp/Gau-30331.inp -scrdir=/tmp/
 Entering Link 1 = /share/apps/Gaussian09/EM64T.SSE4.2-enabled/g09/l1.exe PID=     30332.
  
 Copyright (c) 1988,1990,1992,1993,1995,1998,2003,2009,2011,
            Gaussian, Inc.  All Rights Reserved.
  
 This is part of the Gaussian(R) 09 program.  It is based on
 the Gaussian(R) 03 system (copyright 2003, Gaussian, Inc.),
 the Gaussian(R) 98 system (copyright 1998, Gaussian, Inc.),
 the Gaussian(R) 94 system (copyright 1995, Gaussian, Inc.),
 the Gaussian 92(TM) system (copyright 1992, Gaussian, Inc.),
 the Gaussian 90(TM) system (copyright 1990, Gaussian, Inc.),
 the Gaussian 88(TM) system (copyright 1988, Gaussian, Inc.),
 the Gaussian 86(TM) system (copyright 1986, Carnegie Mellon
 University), and the Gaussian 82(TM) system (copyright 1983,
 Carnegie Mellon University). Gaussian is a federally registered
 trademark of Gaussian, Inc.
  
 This software contains proprietary and confidential information,
 including trade secrets, belonging to Gaussian, Inc.
  
 This software is provided under written license and may be
 used, copied, transmitted, or stored only in accord with that
 written license.
  
 The following legend is applicable only to US Government
 contracts under FAR:
  
                    RESTRICTED RIGHTS LEGEND
  
 Use, reproduction and disclosure by the US Government is
 subject to restrictions as set forth in subparagraphs (a)
 and (c) of the Commercial Computer Software - Restricted
 Rights clause in FAR 52.227-19.
  
 Gaussian, Inc.
 340 Quinnipiac St., Bldg. 40, Wallingford CT 06492
  
  
 ---------------------------------------------------------------
 Warning -- This program may not be used in any manner that
 competes with the business of Gaussian, Inc. or will provide
 assistance to any competitor of Gaussian, Inc.  The licensee
 of this program is prohibited from giving any competitor of
 Gaussian, Inc. access to this program.  By using this program,
 the user acknowledges that Gaussian, Inc. is engaged in the
 business of creating and licensing software in the field of
 computational chemistry and represents and warrants to the
 licensee that it is not a competitor of Gaussian, Inc. and that
 it will not use this program in any manner prohibited above.
 ---------------------------------------------------------------
  

 Cite this work as:
 Gaussian 09, Revision C.01,
 M. J. Frisch, G. W. Trucks, H. B. Schlegel, G. E. Scuseria, 
 M. A. Robb, J. R. Cheeseman, G. Scalmani, V. Barone, B. Mennucci, 
 G. A. Petersson, H. Nakatsuji, M. Caricato, X. Li, H. P. Hratchian, 
 A. F. Izmaylov, J. Bloino, G. Zheng, J. L. Sonnenberg, M. Hada, 
 M. Ehara, K. Toyota, R. Fukuda, J. Hasegawa, M. Ishida, T. Nakajima, 
 Y. Honda, O. Kitao, H. Nakai, T. Vreven, J. A. Montgomery, Jr., 
 J. E. Peralta, F. Ogliaro, M. Bearpark, J. J. Heyd, E. Brothers, 
 K. N. Kudin, V. N. Staroverov, T. Keith, R. Kobayashi, J. Normand, 
 K. Raghavachari, A. Rendell, J. C. Burant, S. S. Iyengar, J. Tomasi, 
 M. Cossi, N. Rega, J. M. Millam, M. Klene, J. E. Knox, J. B. Cross, 
 V. Bakken, C. Adamo, J. Jaramillo, R. Gomperts, R. E. Stratmann, 
 O. Yazyev, A. J. Austin, R. Cammi, C. Pomelli, J. W. Ochterski, 
 R. L. Martin, K. Morokuma, V. G. Zakrzewski, G. A. Voth, 
 P. Salvador, J. J. Dannenberg, S. Dapprich, A. D. Daniels, 
 O. Farkas, J. B. Foresman, J. V. Ortiz, J. Cioslowski, 
 and D. J. Fox, Gaussian, Inc., Wallingford CT, 2010.
 
 ******************************************
 Gaussian 09:  EM64L-G09RevC.01 23-Sep-2011
                20-May-2022 
 ******************************************
 %nprocshared=4
 Will use up to    4 processors via shared memory.
 -----------------------------------------------------
 # mPW1PW91/6-31+G** scrf=(PCM,solvent=chloroform) nmr
 -----------------------------------------------------
 1/38=1/1;
 2/12=2,17=6,18=5,40=1/2;
 3/5=1,6=6,7=111,11=2,16=1,25=1,30=1,70=2201,72=7,74=-7/1,2,8,3;
 4//1;
 5/5=2,38=5,53=7/2;
 8/6=1,10=90,11=11/1;
 10/13=100,45=16/2;
 6/7=2,8=2,9=2,10=2,28=1/1;
 99/9=1/99;
 -------
 comment
 -------
 Charge =  0 Multiplicity = 1
 Symbolic Z-Matrix:
 6                    -0.37175   1.08685  -1.46347 
 6                     1.28348  -0.52263  -0.38143 
 6                    -0.71754   0.05371   0.91003 
 6                     0.84551  -0.05914   1.02982 
 6                    -1.26835   0.41215  -0.45821 
 6                     1.07788   0.53793  -1.46573 
 1                    -1.12592  -0.92002   1.18364 
 1                     1.79171   1.35077  -1.32442 
 1                    -0.81241   0.98247  -2.45414 
 1                     0.76496  -1.44911  -0.64117 
 1                     1.29328   0.09609  -2.44311 
 17                   -0.38144   2.92417  -1.21441 
 35                    3.20263  -1.06764  -0.44024 
 6                     1.1504   -1.13524   2.08956 
 1                     0.78166  -2.12107   1.78028 
 1                     0.67072  -0.87079   3.03776 
 1                     2.22646  -1.21877   2.25952 
 6                     1.54752   1.25304   1.42969 
 1                     2.62637   1.13516   1.2876 
 1                     1.36351   1.4743    2.48329 
 1                     1.2102    2.11327   0.84818 
 17                   -1.42209   1.16362   2.2085 
 6                    -2.50971   0.06556  -0.84282 
 1                    -2.82327   0.30457  -1.8577 
 6                    -3.54998  -0.60861  -0.01381 
 1                    -3.26934  -0.74356   1.02856 
 1                    -4.4958   -0.06435  -0.05554 
 17                   -3.91524  -2.27621  -0.68385 
 
                          Input orientation:                          
 ---------------------------------------------------------------------
 Center     Atomic      Atomic             Coordinates (Angstroms)
 Number     Number       Type             X           Y           Z
 ---------------------------------------------------------------------
      1          6           0       -0.371751    1.086850   -1.463470
      2          6           0        1.283480   -0.522633   -0.381434
      3          6           0       -0.717543    0.053710    0.910031
      4          6           0        0.845508   -0.059141    1.029816
      5          6           0       -1.268347    0.412152   -0.458205
      6          6           0        1.077877    0.537925   -1.465733
      7          1           0       -1.125916   -0.920021    1.183640
      8          1           0        1.791706    1.350766   -1.324424
      9          1           0       -0.812409    0.982472   -2.454139
     10          1           0        0.764959   -1.449113   -0.641168
     11          1           0        1.293282    0.096087   -2.443112
     12         17           0       -0.381442    2.924169   -1.214414
     13         35           0        3.202635   -1.067641   -0.440241
     14          6           0        1.150398   -1.135237    2.089556
     15          1           0        0.781662   -2.121071    1.780276
     16          1           0        0.670723   -0.870788    3.037764
     17          1           0        2.226460   -1.218773    2.259524
     18          6           0        1.547522    1.253040    1.429685
     19          1           0        2.626365    1.135157    1.287597
     20          1           0        1.363512    1.474295    2.483287
     21          1           0        1.210198    2.113270    0.848175
     22         17           0       -1.422088    1.163619    2.208496
     23          6           0       -2.509708    0.065563   -0.842817
     24          1           0       -2.823273    0.304566   -1.857703
     25          6           0       -3.549977   -0.608610   -0.013812
     26          1           0       -3.269337   -0.743563    1.028564
     27          1           0       -4.495805   -0.064345   -0.055535
     28         17           0       -3.915241   -2.276212   -0.683846
 ---------------------------------------------------------------------
                    Distance matrix (angstroms):
                    1          2          3          4          5
     1  C    0.000000
     2  C    2.549711   0.000000
     3  C    2.611601   2.450336   0.000000
     4  C    3.001914   1.548635   1.571691   0.000000
     5  C    1.506539   2.718738   1.517872   2.627681   0.000000
     6  C    1.550079   1.530608   3.016994   2.576480   2.556501
     7  H    3.406389   2.900442   1.090771   2.156685   2.119110
     8  H    2.183926   2.158043   3.601593   2.902684   3.315910
     9  H    1.089265   3.309713   3.491309   3.996447   2.125299
    10  H    2.898172   1.093019   2.619639   2.175017   2.762628
    11  H    2.171093   2.152540   3.910087   3.505114   3.256025
    12  Cl   1.854148   3.917431   3.586888   3.929645   2.769239
    13  Br   4.297100   1.995908   4.295167   2.955366   4.709542
    14  C    4.458543   2.549272   2.508800   1.540776   3.838727
    15  H    4.705636   2.734925   2.781117   2.195182   3.953549
    16  H    5.017988   3.491074   2.703558   2.172827   4.198539
    17  H    5.091884   2.889374   3.479583   2.182649   4.718013
    18  C    3.475856   2.550075   2.615139   1.540954   3.492898
    19  H    4.069325   2.708740   3.534658   2.159688   4.328896
    20  H    4.328758   3.492958   2.970519   2.175392   4.087445
    21  H    2.983254   2.909518   2.821666   2.210285   3.277746
    22  Cl   3.820005   4.107467   1.847781   2.833094   2.774821
    23  C    2.449305   3.866151   2.506885   3.844448   1.345001
    24  H    2.603334   4.441739   3.486743   4.682948   2.094747
    25  C    3.882939   4.848180   3.052022   4.550974   2.538755
    26  H    4.237529   4.771273   2.676069   4.171377   2.747748
    27  H    4.507256   5.806580   3.901476   5.450471   3.287199
    28  Cl   4.947153   5.494833   4.265472   5.524199   3.779453
                    6          7          8          9         10
     6  C    0.000000
     7  H    3.741856   0.000000
     8  H    1.090977   4.467592   0.000000
     9  H    2.178933   4.117184   2.862396   0.000000
    10  H    2.173970   2.680536   3.059472   3.418707   0.000000
    11  H    1.094025   4.476419   1.753314   2.284674   2.431825
    12  Cl   2.808368   4.591590   2.685195   2.343680   4.557241
    13  Br   2.853782   4.625488   2.936187   4.937543   2.475511
    14  C    3.929989   2.459392   4.271621   5.383537   2.775596
    15  H    4.206492   2.331812   4.765816   5.486649   2.513006
    16  H    4.736215   2.582269   5.022010   5.982913   3.725303
    17  H    4.275836   3.533441   4.431278   6.024850   3.256233
    18  C    3.019172   3.453984   2.766639   4.552644   3.493203
    19  H    3.214860   4.279507   2.750599   5.084198   3.723361
    20  H    4.068554   3.690404   3.833702   5.417998   4.320509
    21  H    2.802390   3.843282   2.374816   4.034219   3.886766
    22  Cl   4.487903   2.340855   4.779646   4.705814   4.441861
    23  C    3.671773   2.644387   4.515070   2.513544   3.613634
    24  H    3.927731   3.691937   4.762032   2.204284   4.175016
    25  C    4.983939   2.721569   5.838702   3.997626   4.440574
    26  H    5.173200   2.156256   5.961285   4.598360   4.422821
    27  H    5.780771   3.691055   6.568517   4.518466   5.471397
    28  Cl   5.784630   3.620372   6.792242   4.835341   4.752913
                   11         12         13         14         15
    11  H    0.000000
    12  Cl   3.508910   0.000000
    13  Br   3.001897   5.420286   0.000000
    14  C    4.699112   5.453579   3.258239   0.000000
    15  H    4.797348   5.981256   3.449858   1.097036   0.000000
    16  H    5.600217   5.795668   4.306489   1.095043   1.776736
    17  H    4.971364   6.002780   2.874803   1.092601   1.769537
    18  C    4.049906   3.674892   3.409044   2.509383   3.477654
    19  H    4.095725   4.302037   2.858291   2.824235   3.774743
    20  H    5.116033   4.338201   4.288453   2.647659   3.709371
    21  H    3.861153   2.728580   3.968377   3.478132   4.356845
    22  Cl   5.490930   3.987329   5.777750   3.452039   3.978577
    23  C    4.126089   3.583187   5.837558   4.841189   4.742900
    24  H    4.163195   3.638500   6.340640   5.783074   5.666936
    25  C    5.463996   4.895057   6.781616   5.176390   4.926397
    26  H    5.794397   5.179107   6.644459   4.562145   4.344329
    27  H    6.264167   5.215573   7.773068   6.134153   5.954157
    28  Cl   5.987615   6.309770   7.223859   5.886789   5.306304
                   16         17         18         19         20
    16  H    0.000000
    17  H    1.773998   0.000000
    18  C    2.804521   2.694336   0.000000
    19  H    3.303246   2.577897   1.094526   0.000000
    20  H    2.507352   2.836788   1.092195   1.771860   0.000000
    21  H    3.740312   3.758617   1.091759   1.776324   1.762210
    22  Cl   3.034198   4.357786   3.071339   4.151968   2.816309
    23  C    5.103999   5.805629   4.799529   5.662326   5.296162
    24  H    6.128219   6.691183   5.550709   6.346759   6.143422
    25  C    5.214898   6.237594   5.615507   6.548404   5.892060
    26  H    4.424607   5.651979   5.229670   6.193221   5.338390
    27  H    6.075513   7.202850   6.361068   7.346299   6.568457
    28  Cl   6.070969   6.892176   6.838451   7.636533   7.208486
                   21         22         23         24         25
    21  H    0.000000
    22  Cl   3.111469   0.000000
    23  C    4.570586   3.420403   0.000000
    24  H    5.182864   4.385803   1.088779   0.000000
    25  C    5.550758   3.550684   1.491281   2.182183   0.000000
    26  H    5.316039   2.905497   2.175727   3.102916   1.087897
    27  H    6.173910   4.010171   2.140390   2.486216   1.092042
    28  Cl   6.919882   5.139445   2.735819   3.038215   1.833919
                   26         27         28
    26  H    0.000000
    27  H    1.772239   0.000000
    28  Cl   2.387164   2.371536   0.000000
 Stoichiometry    C10H14BrCl3
 Framework group  C1[X(C10H14BrCl3)]
 Deg. of freedom    78
 Full point group                 C1      NOp   1
 Largest Abelian subgroup         C1      NOp   1
 Largest concise Abelian subgroup C1      NOp   1
                         Standard orientation:                         
 ---------------------------------------------------------------------
 Center     Atomic      Atomic             Coordinates (Angstroms)
 Number     Number       Type             X           Y           Z
 ---------------------------------------------------------------------
      1          6           0       -0.371751    1.086850   -1.463470
      2          6           0        1.283480   -0.522633   -0.381434
      3          6           0       -0.717543    0.053710    0.910031
      4          6           0        0.845508   -0.059141    1.029816
      5          6           0       -1.268347    0.412152   -0.458205
      6          6           0        1.077877    0.537925   -1.465733
      7          1           0       -1.125916   -0.920021    1.183640
      8          1           0        1.791706    1.350766   -1.324424
      9          1           0       -0.812409    0.982472   -2.454139
     10          1           0        0.764959   -1.449113   -0.641168
     11          1           0        1.293282    0.096087   -2.443112
     12         17           0       -0.381442    2.924169   -1.214414
     13         35           0        3.202635   -1.067641   -0.440241
     14          6           0        1.150398   -1.135237    2.089556
     15          1           0        0.781662   -2.121071    1.780276
     16          1           0        0.670723   -0.870788    3.037764
     17          1           0        2.226460   -1.218773    2.259524
     18          6           0        1.547522    1.253040    1.429685
     19          1           0        2.626365    1.135157    1.287597
     20          1           0        1.363512    1.474295    2.483287
     21          1           0        1.210198    2.113270    0.848175
     22         17           0       -1.422088    1.163619    2.208496
     23          6           0       -2.509708    0.065563   -0.842817
     24          1           0       -2.823273    0.304566   -1.857703
     25          6           0       -3.549977   -0.608610   -0.013812
     26          1           0       -3.269337   -0.743563    1.028564
     27          1           0       -4.495805   -0.064345   -0.055535
     28         17           0       -3.915241   -2.276212   -0.683846
 ---------------------------------------------------------------------
 Rotational constants (GHZ):      0.4345549      0.2209213      0.2001527
 Standard basis: 6-31+G(d,p) (6D, 7F)
 There are   363 symmetry adapted basis functions of A   symmetry.
 Integral buffers will be    131072 words long.
 Raffenetti 2 integral format.
 Two-electron integral symmetry is turned on.
   363 basis functions,   673 primitive gaussians,   363 cartesian basis functions
    80 alpha electrons       80 beta electrons
       nuclear repulsion energy      1692.6961159138 Hartrees.
 NAtoms=   28 NActive=   28 NUniq=   28 SFac= 1.00D+00 NAtFMM=   60 NAOKFM=F Big=F
 ------------------------------------------------------------------------------
 Polarizable Continuum Model (PCM)
 =================================
 Model                : PCM.
 Atomic radii         : UFF (Universal Force Field).
 Polarization charges : Total charges.
 Charge compensation  : None.
 Solution method      : Matrix inversion.
 Cavity type          : Scaled VdW (van der Waals Surface) (Alpha=1.100).
 Cavity algorithm     : GePol (No added spheres)
                        Default sphere list used, NSphG=   28.
                        Lebedev-Laikov grids with approx.  5.0 points / Ang**2.
                        Smoothing algorithm: Karplus/York (Gamma=1.0000).
                        Polarization charges: spherical gaussians, with
                                              point-specific exponents (IZeta= 3).
                        Self-potential: point-specific (ISelfS= 7).
                        Self-field    : sphere-specific E.n sum rule (ISelfD= 2).
 Solvent              : Chloroform, Eps=   4.711300 Eps(inf)=   2.090627
 ------------------------------------------------------------------------------
 One-electron integrals computed using PRISM.
 NBasis=   363 RedAO= T  NBF=   363
 NBsUse=   363 1.00D-06 NBFU=   363
 Harris functional with IExCor=  908 diagonalized for initial guess.
 ExpMin= 3.50D-02 ExpMax= 5.74D+05 ExpMxC= 5.74D+03 IAcc=3 IRadAn=         5 AccDes= 0.00D+00
 HarFok:  IExCor=  908 AccDes= 0.00D+00 IRadAn=         5 IDoV= 1
 ScaDFX=  1.000000  1.000000  1.000000  1.000000
 FoFCou: FMM=F IPFlag=           0 FMFlag=      100000 FMFlg1=           0
         NFxFlg=           0 DoJE=T BraDBF=F KetDBF=T FulRan=T
         Omega=  0.000000  0.000000  1.000000  0.000000  0.000000 ICntrl=     500 IOpCl=  0
         NMat0=    1 NMatS0=    1 NMatT0=    0 NMatD0=    1 NMtDS0=    0 NMtDT0=    0
         I1Cent=           4 NGrid=           0.
 Petite list used in FoFCou.
 Initial guess orbital symmetries:
       Occupied  (A) (A) (A) (A) (A) (A) (A) (A) (A) (A) (A) (A)
                 (A) (A) (A) (A) (A) (A) (A) (A) (A) (A) (A) (A)
                 (A) (A) (A) (A) (A) (A) (A) (A) (A) (A) (A) (A)
                 (A) (A) (A) (A) (A) (A) (A) (A) (A) (A) (A) (A)
                 (A) (A) (A) (A) (A) (A) (A) (A) (A) (A) (A) (A)
                 (A) (A) (A) (A) (A) (A) (A) (A) (A) (A) (A) (A)
                 (A) (A) (A) (A) (A) (A) (A) (A)
       Virtual   (A) (A) (A) (A) (A) (A) (A) (A) (A) (A) (A) (A)
                 (A) (A) (A) (A) (A) (A) (A) (A) (A) (A) (A) (A)
                 (A) (A) (A) (A) (A) (A) (A) (A) (A) (A) (A) (A)
                 (A) (A) (A) (A) (A) (A) (A) (A) (A) (A) (A) (A)
                 (A) (A) (A) (A) (A) (A) (A) (A) (A) (A) (A) (A)
                 (A) (A) (A) (A) (A) (A) (A) (A) (A) (A) (A) (A)
                 (A) (A) (A) (A) (A) (A) (A) (A) (A) (A) (A) (A)
                 (A) (A) (A) (A) (A) (A) (A) (A) (A) (A) (A) (A)
                 (A) (A) (A) (A) (A) (A) (A) (A) (A) (A) (A) (A)
                 (A) (A) (A) (A) (A) (A) (A) (A) (A) (A) (A) (A)
                 (A) (A) (A) (A) (A) (A) (A) (A) (A) (A) (A) (A)
                 (A) (A) (A) (A) (A) (A) (A) (A) (A) (A) (A) (A)
                 (A) (A) (A) (A) (A) (A) (A) (A) (A) (A) (A) (A)
                 (A) (A) (A) (A) (A) (A) (A) (A) (A) (A) (A) (A)
                 (A) (A) (A) (A) (A) (A) (A) (A) (A) (A) (A) (A)
                 (A) (A) (A) (A) (A) (A) (A) (A) (A) (A) (A) (A)
                 (A) (A) (A) (A) (A) (A) (A) (A) (A) (A) (A) (A)
                 (A) (A) (A) (A) (A) (A) (A) (A) (A) (A) (A) (A)
                 (A) (A) (A) (A) (A) (A) (A) (A) (A) (A) (A) (A)
                 (A) (A) (A) (A) (A) (A) (A) (A) (A) (A) (A) (A)
                 (A) (A) (A) (A) (A) (A) (A) (A) (A) (A) (A) (A)
                 (A) (A) (A) (A) (A) (A) (A) (A) (A) (A) (A) (A)
                 (A) (A) (A) (A) (A) (A) (A) (A) (A) (A) (A) (A)
                 (A) (A) (A) (A) (A) (A) (A)
 The electronic state of the initial guess is 1-A.
 Requested convergence on RMS density matrix=1.00D-08 within 128 cycles.
 Requested convergence on MAX density matrix=1.00D-06.
 Requested convergence on             energy=1.00D-06.
 No special actions if energy rises.
 Error on total polarization charges =  0.01650
 SCF Done:  E(RmPW1PW91) =  -4341.94082416     A.U. after   14 cycles
             Convg  =    0.7357D-08             -V/T =  2.0056
 Range of M.O.s used for correlation:     1   363
 NBasis=   363 NAE=    80 NBE=    80 NFC=     0 NFV=     0
 NROrb=    363 NOA=    80 NOB=    80 NVA=   283 NVB=   283

 **** Warning!!: The largest alpha MO coefficient is  0.14715887D+03

 NEqPCM:  Using equilibrium solvation (IEInf=0, Eps=   4.7113, EpsInf=   2.0906)
          Differentiating once with respect to magnetic field using GIAOs.
          Electric field/nuclear overlap derivatives assumed to be zero.
 FoFCou: FMM=F IPFlag=           0 FMFlag=    10101102 FMFlg1=           0
         NFxFlg=    40000000 DoJE=F BraDBF=F KetDBF=T FulRan=T
         Omega=  0.000000  0.000000  1.000000  0.000000  0.000000 ICntrl=    6100 IOpCl=  0
         NMat0=    1 NMatS0=    1 NMatT0=    0 NMatD0=    1 NMtDS0=    0 NMtDT0=    0
         I1Cent=           7 NGrid=        2094.
 Symmetry not used in FoFCou.
          There are     3 degrees of freedom in the 1st order CPHF.  IDoFFX=0.
      3 vectors produced by pass  0 Test12= 7.55D-13 3.33D-08 XBig12= 8.39D+01 2.11D+00.
 AX will form     3 AO Fock derivatives at one time.
      3 vectors produced by pass  1 Test12= 7.55D-13 3.33D-08 XBig12= 2.86D-01 1.02D-01.
      3 vectors produced by pass  2 Test12= 7.55D-13 3.33D-08 XBig12= 1.38D-03 1.15D-02.
      3 vectors produced by pass  3 Test12= 7.55D-13 3.33D-08 XBig12= 9.81D-06 1.06D-03.
      3 vectors produced by pass  4 Test12= 7.55D-13 3.33D-08 XBig12= 3.65D-08 4.21D-05.
      3 vectors produced by pass  5 Test12= 7.55D-13 3.33D-08 XBig12= 1.11D-10 2.76D-06.
      3 vectors produced by pass  6 Test12= 7.55D-13 3.33D-08 XBig12= 5.77D-13 1.71D-07.
 Inverted reduced A of dimension    21 with in-core refinement.
 Calculating GIAO nuclear magnetic shielding tensors.
 SCF GIAO Magnetic shielding tensor (ppm):
      1  C    Isotropic =   128.0164   Anisotropy =    28.7293
   XX=   130.3465   YX=     3.7322   ZX=    -9.3082
   XY=     7.5838   YY=   145.1403   ZY=     9.9488
   XZ=    -8.0750   YZ=     0.0435   ZZ=   108.5622
   Eigenvalues:   104.4415   132.4383   147.1692
      2  C    Isotropic =   124.4085   Anisotropy =    59.0093
   XX=   158.3719   YX=   -20.3122   ZX=    -2.4899
   XY=   -21.3531   YY=    82.0691   ZY=    -2.7415
   XZ=     3.7220   YZ=    -3.3312   ZZ=   132.7846
   Eigenvalues:    76.6132   132.8643   163.7481
      3  C    Isotropic =   126.0850   Anisotropy =    39.7068
   XX=   139.7002   YX=   -16.2556   ZX=     4.3961
   XY=   -17.0070   YY=   116.8712   ZY=    22.7086
   XZ=    -0.0066   YZ=    24.5464   ZZ=   121.6836
   Eigenvalues:    91.4263   134.2726   152.5562
      4  C    Isotropic =   151.3224   Anisotropy =    24.4450
   XX=   159.3323   YX=    -5.2809   ZX=   -10.1127
   XY=    -8.8403   YY=   149.9433   ZY=     4.8602
   XZ=    -8.3825   YZ=     3.6305   ZZ=   144.6917
   Eigenvalues:   140.1376   146.2105   167.6191
      5  C    Isotropic =    56.0720   Anisotropy =   148.7840
   XX=    65.2727   YX=   -40.9363   ZX=    13.8908
   XY=   -46.4369   YY=   112.8514   ZY=    64.4932
   XZ=     0.6144   YZ=    60.6916   ZZ=    -9.9080
   Eigenvalues:   -41.8030    54.7578   155.2614
      6  C    Isotropic =   153.3169   Anisotropy =    53.8561
   XX=   173.8282   YX=   -18.2548   ZX=     1.5917
   XY=   -22.5852   YY=   157.3155   ZY=   -10.0257
   XZ=     7.3543   YZ=   -11.8541   ZZ=   128.8071
   Eigenvalues:   124.9460   145.7838   189.2210
      7  H    Isotropic =    26.7798   Anisotropy =     5.2797
   XX=    29.2254   YX=     0.9489   ZX=     1.1419
   XY=     1.8768   YY=    27.4877   ZY=     0.0792
   XZ=     0.7714   YZ=     2.1163   ZZ=    23.6262
   Eigenvalues:    23.2768    26.7629    30.2996
      8  H    Isotropic =    28.9917   Anisotropy =     4.5090
   XX=    30.5722   YX=    -0.2839   ZX=    -0.1314
   XY=    -1.6202   YY=    30.2392   ZY=    -2.5002
   XZ=    -0.9676   YZ=    -3.2582   ZZ=    26.1636
   Eigenvalues:    24.5311    30.4463    31.9977
      9  H    Isotropic =    26.8090   Anisotropy =     6.5183
   XX=    25.5705   YX=     0.6762   ZX=     2.6157
   XY=     0.8419   YY=    26.5170   ZY=     2.9149
   XZ=     3.1525   YZ=     1.2040   ZZ=    28.3396
   Eigenvalues:    23.6597    25.6128    31.1546
     10  H    Isotropic =    27.5245   Anisotropy =     7.2791
   XX=    32.2598   YX=     1.0942   ZX=     1.0759
   XY=    -0.2425   YY=    26.7285   ZY=     2.1244
   XZ=     0.1262   YZ=     3.2035   ZZ=    23.5851
   Eigenvalues:    22.0542    28.1419    32.3772
     11  H    Isotropic =    28.6936   Anisotropy =     7.2174
   XX=    27.7890   YX=    -4.0530   ZX=    -1.1235
   XY=    -4.0101   YY=    25.0319   ZY=     0.9852
   XZ=    -0.2912   YZ=    -0.0980   ZZ=    33.2599
   Eigenvalues:    22.1495    30.4261    33.5052
     12  Cl   Isotropic =   678.2109   Anisotropy =   541.3424
   XX=   650.2193   YX=    16.1731   ZX=   -33.2631
   XY=    19.0801   YY=  1037.6109   ZY=     5.5610
   XZ=   -43.6011   YZ=    41.7042   ZZ=   346.8025
   Eigenvalues:   341.0661   654.4608  1039.1058
     13  Br   Isotropic =  2385.8668   Anisotropy =  1077.7524
   XX=  3030.1229   YX=  -265.8318   ZX=   -13.9363
   XY=  -266.4137   YY=  2141.5003   ZY=   -62.4637
   XZ=    29.8828   YZ=   -80.8227   ZZ=  1985.9773
   Eigenvalues:  1947.9999  2105.2322  3104.3685
     14  C    Isotropic =   166.1483   Anisotropy =    41.8439
   XX=   155.9660   YX=     0.6718   ZX=     4.6267
   XY=     2.2022   YY=   176.8697   ZY=   -20.7542
   XZ=     9.4543   YZ=   -22.8830   ZZ=   165.6093
   Eigenvalues:   144.8854   159.5153   194.0442
     15  H    Isotropic =    30.8391   Anisotropy =     9.5490
   XX=    28.1938   YX=     1.0988   ZX=    -0.2354
   XY=     1.6450   YY=    36.3756   ZY=    -1.8165
   XZ=    -1.3685   YZ=    -2.7144   ZZ=    27.9477
   Eigenvalues:    27.1379    28.1742    37.2050
     16  H    Isotropic =    30.0555   Anisotropy =     8.7435
   XX=    27.8105   YX=    -1.9014   ZX=    -1.4738
   XY=    -1.4613   YY=    27.3660   ZY=    -3.1025
   XZ=    -2.0634   YZ=    -1.7052   ZZ=    34.9898
   Eigenvalues:    25.0054    29.2764    35.8845
     17  H    Isotropic =    30.0546   Anisotropy =     7.7893
   XX=    32.7242   YX=    -2.4146   ZX=     0.9207
   XY=    -2.9565   YY=    26.2119   ZY=    -2.8392
   XZ=     1.9948   YZ=    -2.9188   ZZ=    31.2275
   Eigenvalues:    24.4522    30.4640    35.2474
     18  C    Isotropic =   175.7304   Anisotropy =    23.3514
   XX=   173.1004   YX=    11.7028   ZX=     4.7194
   XY=     7.3436   YY=   185.8121   ZY=     1.4604
   XZ=     0.7897   YZ=     2.3947   ZZ=   168.2787
   Eigenvalues:   166.4384   169.4548   191.2980
     19  H    Isotropic =    30.0621   Anisotropy =     7.1507
   XX=    34.6734   YX=     0.6571   ZX=    -0.3872
   XY=     1.2321   YY=    28.6223   ZY=     2.9930
   XZ=    -0.0467   YZ=     3.4711   ZZ=    26.8907
   Eigenvalues:    24.3560    31.0011    34.8292
     20  H    Isotropic =    30.3448   Anisotropy =     8.5413
   XX=    28.7617   YX=     1.3738   ZX=     0.7485
   XY=     0.8015   YY=    28.3879   ZY=     3.9922
   XZ=     0.0937   YZ=     3.8693   ZZ=    33.8848
   Eigenvalues:    26.1097    28.8857    36.0390
     21  H    Isotropic =    29.5043   Anisotropy =     9.1033
   XX=    26.5294   YX=    -0.7660   ZX=     2.0778
   XY=    -1.0521   YY=    33.6537   ZY=    -3.7092
   XZ=     2.5253   YZ=    -2.8055   ZZ=    28.3297
   Eigenvalues:    24.7865    28.1532    35.5732
     22  Cl   Isotropic =   746.8811   Anisotropy =   477.2533
   XX=   699.9360   YX=  -151.7630   ZX=   -61.9721
   XY=  -146.5348   YY=   652.9516   ZY=   231.1284
   XZ=   -66.5567   YZ=   199.2275   ZZ=   887.7557
   Eigenvalues:   477.3909   698.2024  1065.0499
     23  C    Isotropic =    58.5677   Anisotropy =   130.5861
   XX=    76.3192   YX=   -18.4877   ZX=     2.4256
   XY=   -31.2174   YY=   117.6896   ZY=    52.0783
   XZ=    -3.9878   YZ=    59.0466   ZZ=   -18.3058
   Eigenvalues:   -38.6380    68.7160   145.6251
     24  H    Isotropic =    25.3613   Anisotropy =     7.6829
   XX=    28.6895   YX=     2.5450   ZX=     1.0335
   XY=     3.6944   YY=    25.0570   ZY=    -1.2372
   XZ=     0.1166   YZ=    -0.8837   ZZ=    22.3374
   Eigenvalues:    21.5086    24.0921    30.4833
     25  C    Isotropic =   149.9791   Anisotropy =    50.3256
   XX=   132.0668   YX=     9.7673   ZX=   -10.3714
   XY=    13.7967   YY=   176.0525   ZY=    18.2533
   XZ=    -7.0767   YZ=    13.4753   ZZ=   141.8180
   Eigenvalues:   120.7132   145.6947   183.5295
     26  H    Isotropic =    27.1412   Anisotropy =    10.8078
   XX=    26.5654   YX=     5.0531   ZX=     1.4164
   XY=     4.6734   YY=    25.3446   ZY=     4.0987
   XZ=     3.3359   YZ=     2.8281   ZZ=    29.5136
   Eigenvalues:    20.9023    26.1749    34.3464
     27  H    Isotropic =    27.4438   Anisotropy =     8.8367
   XX=    30.6862   YX=    -1.8590   ZX=    -0.1447
   XY=    -3.7352   YY=    29.6211   ZY=     2.0400
   XZ=    -1.1512   YZ=     2.4144   ZZ=    22.0242
   Eigenvalues:    21.4180    27.5785    33.3350
     28  Cl   Isotropic =   837.3320   Anisotropy =   402.1281
   XX=   748.4650   YX=   116.5747   ZX=   -30.1491
   XY=   117.2106   YY=  1035.0932   ZY=    91.1981
   XZ=    -2.1879   YZ=   138.9984   ZZ=   728.4377
   Eigenvalues:   651.2991   755.2794  1105.4174
 End of Minotr Frequency-dependent properties file   721 does not exist.
 End of Minotr Frequency-dependent properties file   722 does not exist.

 **********************************************************************

            Population analysis using the SCF density.

 **********************************************************************

 Orbital symmetries:
       Occupied  (A) (A) (A) (A) (A) (A) (A) (A) (A) (A) (A) (A)
                 (A) (A) (A) (A) (A) (A) (A) (A) (A) (A) (A) (A)
                 (A) (A) (A) (A) (A) (A) (A) (A) (A) (A) (A) (A)
                 (A) (A) (A) (A) (A) (A) (A) (A) (A) (A) (A) (A)
                 (A) (A) (A) (A) (A) (A) (A) (A) (A) (A) (A) (A)
                 (A) (A) (A) (A) (A) (A) (A) (A) (A) (A) (A) (A)
                 (A) (A) (A) (A) (A) (A) (A) (A)
       Virtual   (A) (A) (A) (A) (A) (A) (A) (A) (A) (A) (A) (A)
                 (A) (A) (A) (A) (A) (A) (A) (A) (A) (A) (A) (A)
                 (A) (A) (A) (A) (A) (A) (A) (A) (A) (A) (A) (A)
                 (A) (A) (A) (A) (A) (A) (A) (A) (A) (A) (A) (A)
                 (A) (A) (A) (A) (A) (A) (A) (A) (A) (A) (A) (A)
                 (A) (A) (A) (A) (A) (A) (A) (A) (A) (A) (A) (A)
                 (A) (A) (A) (A) (A) (A) (A) (A) (A) (A) (A) (A)
                 (A) (A) (A) (A) (A) (A) (A) (A) (A) (A) (A) (A)
                 (A) (A) (A) (A) (A) (A) (A) (A) (A) (A) (A) (A)
                 (A) (A) (A) (A) (A) (A) (A) (A) (A) (A) (A) (A)
                 (A) (A) (A) (A) (A) (A) (A) (A) (A) (A) (A) (A)
                 (A) (A) (A) (A) (A) (A) (A) (A) (A) (A) (A) (A)
                 (A) (A) (A) (A) (A) (A) (A) (A) (A) (A) (A) (A)
                 (A) (A) (A) (A) (A) (A) (A) (A) (A) (A) (A) (A)
                 (A) (A) (A) (A) (A) (A) (A) (A) (A) (A) (A) (A)
                 (A) (A) (A) (A) (A) (A) (A) (A) (A) (A) (A) (A)
                 (A) (A) (A) (A) (A) (A) (A) (A) (A) (A) (A) (A)
                 (A) (A) (A) (A) (A) (A) (A) (A) (A) (A) (A) (A)
                 (A) (A) (A) (A) (A) (A) (A) (A) (A) (A) (A) (A)
                 (A) (A) (A) (A) (A) (A) (A) (A) (A) (A) (A) (A)
                 (A) (A) (A) (A) (A) (A) (A) (A) (A) (A) (A) (A)
                 (A) (A) (A) (A) (A) (A) (A) (A) (A) (A) (A) (A)
                 (A) (A) (A) (A) (A) (A) (A) (A) (A) (A) (A) (A)
                 (A) (A) (A) (A) (A) (A) (A)
 The electronic state is 1-A.
 Alpha  occ. eigenvalues -- -483.41767-101.76495-101.76372-101.76111 -62.05750
 Alpha  occ. eigenvalues --  -56.54322 -56.53980 -56.53965 -10.34129 -10.34113
 Alpha  occ. eigenvalues --  -10.33079 -10.32793 -10.30354 -10.30145 -10.29339
 Alpha  occ. eigenvalues --  -10.28017 -10.24759 -10.24261  -9.54288  -9.54084
 Alpha  occ. eigenvalues --   -9.53858  -8.67610  -7.28266  -7.28059  -7.27822
 Alpha  occ. eigenvalues --   -7.27315  -7.27299  -7.27122  -7.27106  -7.26891
 Alpha  occ. eigenvalues --   -7.26890  -6.61098  -6.59924  -6.59910  -2.69832
 Alpha  occ. eigenvalues --   -2.69500  -2.69488  -2.68534  -2.68534  -0.93805
 Alpha  occ. eigenvalues --   -0.89606  -0.88830  -0.86838  -0.83049  -0.80770
 Alpha  occ. eigenvalues --   -0.78120  -0.73987  -0.72123  -0.71524  -0.66896
 Alpha  occ. eigenvalues --   -0.64141  -0.59745  -0.55807  -0.53430  -0.51288
 Alpha  occ. eigenvalues --   -0.49490  -0.48357  -0.47643  -0.46575  -0.45530
 Alpha  occ. eigenvalues --   -0.45002  -0.43883  -0.43021  -0.41724  -0.40337
 Alpha  occ. eigenvalues --   -0.39948  -0.39816  -0.38552  -0.36913  -0.36370
 Alpha  occ. eigenvalues --   -0.35748  -0.33453  -0.33109  -0.32703  -0.32340
 Alpha  occ. eigenvalues --   -0.32303  -0.31204  -0.30097  -0.29988  -0.29090
 Alpha virt. eigenvalues --   -0.07047  -0.02078  -0.00424  -0.00060   0.00892
 Alpha virt. eigenvalues --    0.01580   0.02010   0.02657   0.03456   0.03870
 Alpha virt. eigenvalues --    0.03909   0.04670   0.05197   0.05909   0.06171
 Alpha virt. eigenvalues --    0.06698   0.07092   0.07464   0.07974   0.08207
 Alpha virt. eigenvalues --    0.08559   0.08573   0.09520   0.10092   0.10577
 Alpha virt. eigenvalues --    0.10785   0.11323   0.11879   0.12041   0.12328
 Alpha virt. eigenvalues --    0.12749   0.12867   0.13006   0.13551   0.13906
 Alpha virt. eigenvalues --    0.14679   0.15172   0.15277   0.15649   0.16263
 Alpha virt. eigenvalues --    0.16787   0.17075   0.17679   0.17916   0.18474
 Alpha virt. eigenvalues --    0.18786   0.18878   0.19908   0.20099   0.20628
 Alpha virt. eigenvalues --    0.20645   0.21091   0.21617   0.21688   0.22239
 Alpha virt. eigenvalues --    0.22427   0.23189   0.23575   0.23860   0.24520
 Alpha virt. eigenvalues --    0.25091   0.25384   0.26190   0.27008   0.27493
 Alpha virt. eigenvalues --    0.27841   0.28337   0.28852   0.30289   0.30514
 Alpha virt. eigenvalues --    0.30910   0.31828   0.32679   0.33495   0.34338
 Alpha virt. eigenvalues --    0.35464   0.36455   0.38022   0.38498   0.39873
 Alpha virt. eigenvalues --    0.41827   0.42319   0.44526   0.46652   0.48680
 Alpha virt. eigenvalues --    0.49439   0.50511   0.52094   0.52929   0.56890
 Alpha virt. eigenvalues --    0.58239   0.59397   0.59959   0.61511   0.61948
 Alpha virt. eigenvalues --    0.63158   0.63361   0.64366   0.64637   0.65535
 Alpha virt. eigenvalues --    0.65964   0.66508   0.66952   0.67640   0.67757
 Alpha virt. eigenvalues --    0.69108   0.69493   0.70146   0.70908   0.72438
 Alpha virt. eigenvalues --    0.73322   0.73791   0.75260   0.76010   0.76360
 Alpha virt. eigenvalues --    0.77029   0.77368   0.78324   0.79029   0.80750
 Alpha virt. eigenvalues --    0.81578   0.82150   0.82723   0.83822   0.84861
 Alpha virt. eigenvalues --    0.85803   0.87265   0.87467   0.89221   0.89615
 Alpha virt. eigenvalues --    0.90038   0.91983   0.92890   0.93885   0.94905
 Alpha virt. eigenvalues --    0.95787   0.96932   0.97640   0.98961   1.00145
 Alpha virt. eigenvalues --    1.00848   1.01253   1.01884   1.03285   1.03984
 Alpha virt. eigenvalues --    1.04700   1.05611   1.06702   1.07880   1.09079
 Alpha virt. eigenvalues --    1.09546   1.10070   1.10538   1.11594   1.13473
 Alpha virt. eigenvalues --    1.14541   1.16716   1.17965   1.18794   1.19102
 Alpha virt. eigenvalues --    1.20919   1.22482   1.24654   1.26778   1.29919
 Alpha virt. eigenvalues --    1.32164   1.33427   1.34824   1.38382   1.39733
 Alpha virt. eigenvalues --    1.40891   1.44549   1.46952   1.50773   1.54584
 Alpha virt. eigenvalues --    1.55906   1.58090   1.60017   1.64883   1.65567
 Alpha virt. eigenvalues --    1.70251   1.72848   1.75630   1.78814   1.79912
 Alpha virt. eigenvalues --    1.81496   1.82943   1.84811   1.86057   1.87008
 Alpha virt. eigenvalues --    1.88517   1.90062   1.91319   1.94255   1.94821
 Alpha virt. eigenvalues --    1.95864   1.97933   1.99909   2.03134   2.05492
 Alpha virt. eigenvalues --    2.05952   2.07865   2.09411   2.11383   2.12968
 Alpha virt. eigenvalues --    2.13415   2.13786   2.15409   2.16978   2.18689
 Alpha virt. eigenvalues --    2.19807   2.20489   2.21849   2.23915   2.24424
 Alpha virt. eigenvalues --    2.29402   2.31090   2.32665   2.33307   2.37911
 Alpha virt. eigenvalues --    2.39073   2.41033   2.43452   2.45159   2.47863
 Alpha virt. eigenvalues --    2.48490   2.51589   2.53004   2.54040   2.56869
 Alpha virt. eigenvalues --    2.58626   2.61466   2.62448   2.65353   2.66860
 Alpha virt. eigenvalues --    2.67558   2.67843   2.70873   2.72504   2.74429
 Alpha virt. eigenvalues --    2.77248   2.78223   2.78767   2.81562   2.83422
 Alpha virt. eigenvalues --    2.84312   2.85414   2.90006   2.92633   2.94540
 Alpha virt. eigenvalues --    2.96929   2.99417   3.00841   3.10426   3.30921
 Alpha virt. eigenvalues --    3.32137   3.32999   3.35310   3.40106   3.43461
 Alpha virt. eigenvalues --    3.46678   3.47694   3.48696   3.50088   3.50624
 Alpha virt. eigenvalues --    3.52990   3.55146   3.56584   4.29366   4.33146
 Alpha virt. eigenvalues --    4.36188   4.41951   4.42906   4.49981   4.50963
 Alpha virt. eigenvalues --    4.53455   4.59838   4.62524   4.73133   4.77515
 Alpha virt. eigenvalues --    4.88810   9.06344  81.40749
          Condensed to atoms (all electrons):
              1          2          3          4          5          6
     1  C    8.092867   0.309607   0.143754  -0.290130  -1.940662  -0.742283
     2  C    0.309607  11.014178   3.720082  -4.218394  -2.662646  -1.168886
     3  C    0.143754   3.720082  16.854446  -5.926929  -3.413553   0.171042
     4  C   -0.290130  -4.218394  -5.926929  13.745799   2.193606   0.087397
     5  C   -1.940662  -2.662646  -3.413553   2.193606  14.529491   0.529553
     6  C   -0.742283  -1.168886   0.171042   0.087397   0.529553   7.105256
     7  H    0.005020  -0.065176   0.304786  -0.024929  -0.010075   0.012051
     8  H   -0.119108  -0.062540  -0.028039   0.009911   0.043575   0.483407
     9  H    0.307793   0.023572  -0.001577   0.000337  -0.141545   0.019430
    10  H   -0.031854   0.308248   0.025121  -0.023871   0.057472   0.030557
    11  H   -0.044150  -0.135607  -0.015866   0.071826   0.059152   0.400632
    12  Cl  -0.225848   0.066815  -0.226320   0.086661   0.248551  -0.014761
    13  Br   0.036304   0.349839   0.184483  -0.159429  -0.106997  -0.086439
    14  C    0.042644  -0.057039   0.241260  -0.490041  -0.230305   0.096194
    15  H   -0.004067  -0.032428  -0.052277  -0.047471   0.027122   0.010267
    16  H    0.002448   0.053533   0.091379  -0.204138  -0.018437  -0.005520
    17  H   -0.000267  -0.036339   0.009815  -0.056126  -0.010812   0.006710
    18  C    0.037695  -0.733299  -0.824722   0.104622   0.485843  -0.139365
    19  H   -0.005300   0.009580   0.034657  -0.128876   0.002174  -0.006492
    20  H   -0.001380   0.052538   0.050367  -0.175809  -0.027442  -0.007183
    21  H    0.017236  -0.021329  -0.118133   0.026468   0.010585  -0.005785
    22  Cl  -0.105308  -0.086027  -0.724108   0.163185   0.327259  -0.015855
    23  C    0.459887  -0.189298  -2.980289   0.530453  -4.357152  -0.141765
    24  H   -0.023849   0.009856   0.009118  -0.010204  -0.020558   0.009385
    25  C   -0.174129  -0.068362  -0.708998   0.082865   0.512608  -0.048427
    26  H   -0.011294   0.003729   0.113370  -0.019260   0.032481   0.002592
    27  H   -0.018069  -0.006037  -0.051179   0.007930   0.035998   0.000765
    28  Cl  -0.021051  -0.016168   0.013830   0.027898   0.198861  -0.001954
              7          8          9         10         11         12
     1  C    0.005020  -0.119108   0.307793  -0.031854  -0.044150  -0.225848
     2  C   -0.065176  -0.062540   0.023572   0.308248  -0.135607   0.066815
     3  C    0.304786  -0.028039  -0.001577   0.025121  -0.015866  -0.226320
     4  C   -0.024929   0.009911   0.000337  -0.023871   0.071826   0.086661
     5  C   -0.010075   0.043575  -0.141545   0.057472   0.059152   0.248551
     6  C    0.012051   0.483407   0.019430   0.030557   0.400632  -0.014761
     7  H    0.518757   0.000006  -0.000119   0.002622  -0.000002  -0.002153
     8  H    0.000006   0.469108   0.002006   0.003701  -0.021510   0.003163
     9  H   -0.000119   0.002006   0.500051   0.000107  -0.006493  -0.015906
    10  H    0.002622   0.003701   0.000107   0.502031  -0.004910  -0.000462
    11  H   -0.000002  -0.021510  -0.006493  -0.004910   0.482400   0.011384
    12  Cl  -0.002153   0.003163  -0.015906  -0.000462   0.011384  17.115060
    13  Br  -0.002650   0.000305   0.001938  -0.020617  -0.011137  -0.007409
    14  C    0.037962   0.000529   0.003388  -0.011669   0.000528   0.003736
    15  H    0.004058   0.000001   0.000001   0.003644  -0.000006   0.000078
    16  H   -0.000899   0.000000   0.000000  -0.000011   0.000002   0.000111
    17  H    0.000339   0.000004   0.000000   0.000165   0.000000  -0.000085
    18  C   -0.012801   0.004011  -0.009395  -0.017137   0.000536  -0.089479
    19  H   -0.000085   0.000234  -0.000001   0.000072  -0.000005   0.002250
    20  H   -0.000075   0.000058   0.000001  -0.000104  -0.000001   0.000935
    21  H   -0.000143  -0.002954   0.000017  -0.000220   0.000029  -0.012248
    22  Cl  -0.034029   0.000841  -0.002320  -0.000100   0.000111   0.040474
    23  C    0.038204  -0.004970   0.079624  -0.048662   0.004425   0.132872
    24  H    0.000129  -0.000007   0.004395  -0.000015  -0.000024   0.007632
    25  C   -0.016623   0.000773   0.007847   0.000353   0.000267  -0.015848
    26  H    0.001030   0.000000   0.000001  -0.000005   0.000000   0.000073
    27  H    0.000063   0.000000  -0.000019   0.000001   0.000000   0.000989
    28  Cl   0.005377  -0.000015  -0.000372   0.000533   0.000053  -0.000284
             13         14         15         16         17         18
     1  C    0.036304   0.042644  -0.004067   0.002448  -0.000267   0.037695
     2  C    0.349839  -0.057039  -0.032428   0.053533  -0.036339  -0.733299
     3  C    0.184483   0.241260  -0.052277   0.091379   0.009815  -0.824722
     4  C   -0.159429  -0.490041  -0.047471  -0.204138  -0.056126   0.104622
     5  C   -0.106997  -0.230305   0.027122  -0.018437  -0.010812   0.485843
     6  C   -0.086439   0.096194   0.010267  -0.005520   0.006710  -0.139365
     7  H   -0.002650   0.037962   0.004058  -0.000899   0.000339  -0.012801
     8  H    0.000305   0.000529   0.000001   0.000000   0.000004   0.004011
     9  H    0.001938   0.003388   0.000001   0.000000   0.000000  -0.009395
    10  H   -0.020617  -0.011669   0.003644  -0.000011   0.000165  -0.017137
    11  H   -0.011137   0.000528  -0.000006   0.000002   0.000000   0.000536
    12  Cl  -0.007409   0.003736   0.000078   0.000111  -0.000085  -0.089479
    13  Br  35.061066  -0.054987  -0.000047  -0.000958   0.003039  -0.084219
    14  C   -0.054987   6.219454   0.433951   0.473770   0.443910  -0.624797
    15  H   -0.000047   0.433951   0.519219  -0.024291  -0.023681   0.004185
    16  H   -0.000958   0.473770  -0.024291   0.500922  -0.022569  -0.042968
    17  H    0.003039   0.443910  -0.023681  -0.022569   0.495872  -0.000087
    18  C   -0.084219  -0.624797   0.004185  -0.042968  -0.000087   7.237774
    19  H    0.000403  -0.033430   0.000000   0.000074   0.001873   0.482706
    20  H    0.000402  -0.043099   0.000091   0.002392  -0.000398   0.510770
    21  H    0.004380   0.023210  -0.000158   0.000068   0.000091   0.399480
    22  Cl  -0.018408   0.010316   0.005165   0.003620  -0.001800  -0.109795
    23  C   -0.032251   0.029592  -0.000842   0.002467  -0.001258  -0.039772
    24  H    0.000154   0.000616   0.000000   0.000000   0.000000  -0.001271
    25  C    0.003087  -0.026849   0.001326  -0.000563  -0.000334   0.050946
    26  H    0.000020   0.005043   0.000004   0.000000   0.000000  -0.002759
    27  H   -0.000108  -0.000131   0.000000   0.000000   0.000000  -0.000200
    28  Cl  -0.000366   0.000202  -0.000027  -0.000081   0.000017  -0.000526
             19         20         21         22         23         24
     1  C   -0.005300  -0.001380   0.017236  -0.105308   0.459887  -0.023849
     2  C    0.009580   0.052538  -0.021329  -0.086027  -0.189298   0.009856
     3  C    0.034657   0.050367  -0.118133  -0.724108  -2.980289   0.009118
     4  C   -0.128876  -0.175809   0.026468   0.163185   0.530453  -0.010204
     5  C    0.002174  -0.027442   0.010585   0.327259  -4.357152  -0.020558
     6  C   -0.006492  -0.007183  -0.005785  -0.015855  -0.141765   0.009385
     7  H   -0.000085  -0.000075  -0.000143  -0.034029   0.038204   0.000129
     8  H    0.000234   0.000058  -0.002954   0.000841  -0.004970  -0.000007
     9  H   -0.000001   0.000001   0.000017  -0.002320   0.079624   0.004395
    10  H    0.000072  -0.000104  -0.000220  -0.000100  -0.048662  -0.000015
    11  H   -0.000005  -0.000001   0.000029   0.000111   0.004425  -0.000024
    12  Cl   0.002250   0.000935  -0.012248   0.040474   0.132872   0.007632
    13  Br   0.000403   0.000402   0.004380  -0.018408  -0.032251   0.000154
    14  C   -0.033430  -0.043099   0.023210   0.010316   0.029592   0.000616
    15  H    0.000000   0.000091  -0.000158   0.005165  -0.000842   0.000000
    16  H    0.000074   0.002392   0.000068   0.003620   0.002467   0.000000
    17  H    0.001873  -0.000398   0.000091  -0.001800  -0.001258   0.000000
    18  C    0.482706   0.510770   0.399480  -0.109795  -0.039772  -0.001271
    19  H    0.505101  -0.022424  -0.024389  -0.002397  -0.004366   0.000000
    20  H   -0.022424   0.502839  -0.021439  -0.010338   0.000132   0.000000
    21  H   -0.024389  -0.021439   0.495710   0.002893   0.030117   0.000001
    22  Cl  -0.002397  -0.010338   0.002893  17.210003   0.360979  -0.000916
    23  C   -0.004366   0.000132   0.030117   0.360979  12.370634   0.360559
    24  H    0.000000   0.000000   0.000001  -0.000916   0.360559   0.494576
    25  C    0.000226   0.000045  -0.001122   0.007524  -0.324829  -0.046009
    26  H    0.000000   0.000000   0.000000  -0.003883  -0.118242   0.003347
    27  H    0.000000   0.000000   0.000000   0.008703  -0.050326  -0.003094
    28  Cl  -0.000005  -0.000009   0.000012   0.003041  -0.224413   0.016171
             25         26         27         28
     1  C   -0.174129  -0.011294  -0.018069  -0.021051
     2  C   -0.068362   0.003729  -0.006037  -0.016168
     3  C   -0.708998   0.113370  -0.051179   0.013830
     4  C    0.082865  -0.019260   0.007930   0.027898
     5  C    0.512608   0.032481   0.035998   0.198861
     6  C   -0.048427   0.002592   0.000765  -0.001954
     7  H   -0.016623   0.001030   0.000063   0.005377
     8  H    0.000773   0.000000   0.000000  -0.000015
     9  H    0.007847   0.000001  -0.000019  -0.000372
    10  H    0.000353  -0.000005   0.000001   0.000533
    11  H    0.000267   0.000000   0.000000   0.000053
    12  Cl  -0.015848   0.000073   0.000989  -0.000284
    13  Br   0.003087   0.000020  -0.000108  -0.000366
    14  C   -0.026849   0.005043  -0.000131   0.000202
    15  H    0.001326   0.000004   0.000000  -0.000027
    16  H   -0.000563   0.000000   0.000000  -0.000081
    17  H   -0.000334   0.000000   0.000000   0.000017
    18  C    0.050946  -0.002759  -0.000200  -0.000526
    19  H    0.000226   0.000000   0.000000  -0.000005
    20  H    0.000045   0.000000   0.000000  -0.000009
    21  H   -0.001122   0.000000   0.000000   0.000012
    22  Cl   0.007524  -0.003883   0.008703   0.003041
    23  C   -0.324829  -0.118242  -0.050326  -0.224413
    24  H   -0.046009   0.003347  -0.003094   0.016171
    25  C    6.252052   0.319035   0.413589   0.160700
    26  H    0.319035   0.494138  -0.023150  -0.023748
    27  H    0.413589  -0.023150   0.477523  -0.039040
    28  Cl   0.160700  -0.023748  -0.039040  17.022226
 Mulliken atomic charges:
              1
     1  C    0.303498
     2  C   -0.362002
     3  C   -0.895520
     4  C    0.636649
     5  C   -0.354145
     6  C   -0.580521
     7  H    0.239355
     8  H    0.217512
     9  H    0.227243
    10  H    0.225011
    11  H    0.208367
    12  Cl  -0.109979
    13  Br  -0.059395
    14  C   -0.493957
    15  H    0.176184
    16  H    0.189650
    17  H    0.191919
    18  C   -0.585975
    19  H    0.188423
    20  H    0.189130
    21  H    0.197623
    22  Cl  -0.028832
    23  C    0.118493
    24  H    0.190008
    25  C   -0.381149
    26  H    0.227480
    27  H    0.245792
    28  Cl  -0.120862
 Sum of Mulliken atomic charges =   0.00000
 Mulliken charges with hydrogens summed into heavy atoms:
              1
     1  C    0.530740
     2  C   -0.136991
     3  C   -0.656165
     4  C    0.636649
     5  C   -0.354145
     6  C   -0.154641
    12  Cl  -0.109979
    13  Br  -0.059395
    14  C    0.063796
    18  C   -0.010799
    22  Cl  -0.028832
    23  C    0.308501
    25  C    0.092122
    28  Cl  -0.120862
 Sum of Mulliken charges with hydrogens summed into heavy atoms =   0.00000
 Electronic spatial extent (au):  <R**2>=           5593.4022
 Charge=              0.0000 electrons
 Dipole moment (field-independent basis, Debye):
    X=             -0.6999    Y=             -0.8679    Z=             -0.7849  Tot=              1.3635
 Quadrupole moment (field-independent basis, Debye-Ang):
   XX=           -124.5489   YY=           -132.5339   ZZ=           -116.7276
   XY=             -2.1447   XZ=              2.0908   YZ=             -2.8266
 Traceless Quadrupole moment (field-independent basis, Debye-Ang):
   XX=              0.0546   YY=             -7.9305   ZZ=              7.8759
   XY=             -2.1447   XZ=              2.0908   YZ=             -2.8266
 Octapole moment (field-independent basis, Debye-Ang**2):
  XXX=             63.2359  YYY=            -38.6317  ZZZ=            -26.1602  XYY=             48.2015
  XXY=             27.2712  XXZ=              5.0775  XZZ=             29.3790  YZZ=            -12.7684
  YYZ=              8.0993  XYZ=              7.5660
 Hexadecapole moment (field-independent basis, Debye-Ang**3):
 XXXX=          -3778.7487 YYYY=          -1733.6225 ZZZZ=          -1276.1235 XXXY=           -213.7590
 XXXZ=            -60.9409 YYYX=            -94.2219 YYYZ=             45.5222 ZZZX=            -25.5100
 ZZZY=             13.1112 XXYY=           -998.7043 XXZZ=           -850.0845 YYZZ=           -516.7083
 XXYZ=            -26.2327 YYXZ=            -24.1139 ZZXY=            -29.1506
 N-N= 1.692696115914D+03 E-N=-1.369909033563D+04  KE= 4.317878425151D+03
 1\1\GINC-COMPUTE-9-6\SP\RmPW1PW91\6-31+G(d,p)\C10H14Br1Cl3\LPASSAGLIA.
 IQUIR\20-May-2022\0\\# mPW1PW91/6-31+G** scrf=(PCM,solvent=chloroform)
  nmr\\comment\\0,1\C,0,-0.371751,1.08685,-1.46347\C,0,1.28348,-0.52263
 3,-0.381434\C,0,-0.717543,0.05371,0.910031\C,0,0.845508,-0.059141,1.02
 9816\C,0,-1.268347,0.412152,-0.458205\C,0,1.077877,0.537925,-1.465733\
 H,0,-1.125916,-0.920021,1.18364\H,0,1.791706,1.350766,-1.324424\H,0,-0
 .812409,0.982472,-2.454139\H,0,0.764959,-1.449113,-0.641168\H,0,1.2932
 82,0.096087,-2.443112\Cl,0,-0.381442,2.924169,-1.214414\Br,0,3.202635,
 -1.067641,-0.440241\C,0,1.150398,-1.135237,2.089556\H,0,0.781662,-2.12
 1071,1.780276\H,0,0.670723,-0.870788,3.037764\H,0,2.22646,-1.218773,2.
 259524\C,0,1.547522,1.25304,1.429685\H,0,2.626365,1.135157,1.287597\H,
 0,1.363512,1.474295,2.483287\H,0,1.210198,2.11327,0.848175\Cl,0,-1.422
 088,1.163619,2.208496\C,0,-2.509708,0.065563,-0.842817\H,0,-2.823273,0
 .304566,-1.857703\C,0,-3.549977,-0.60861,-0.013812\H,0,-3.269337,-0.74
 3563,1.028564\H,0,-4.495805,-0.064345,-0.055535\Cl,0,-3.915241,-2.2762
 12,-0.683846\\Version=EM64L-G09RevC.01\State=1-A\HF=-4341.9408242\RMSD
 =7.357e-09\Dipole=-0.2753518,-0.3414566,-0.3088128\Quadrupole=0.040577
 9,-5.8961027,5.8555248,-1.5945273,1.5544901,-2.1014962\PG=C01 [X(C10H1
 4Br1Cl3)]\\@


 KNIGHT- SIRE, I'VE JUST RETURNED FROM THE FRONT
 KING-   HOW GOES THE BATTLE                    
 KNIGHT- THE SITUATION IS QUITE FLUID           
 KING-   WHAT DOES *THAT* MEAN                  
 KNIGHT- WE'RE UP THE CREEK                     
                THE WIZARD OF ID                
 Job cpu time:  0 days  0 hours 16 minutes 57.1 seconds.
 File lengths (MBytes):  RWF=    152 Int=      0 D2E=      0 Chk=      9 Scr=      1
 Normal termination of Gaussian 09 at Fri May 20 10:38:48 2022.
