 Entering Gaussian System, Link 0=g09
 Input=/home/lpassaglia.iquir/NMR_Tetrahalogenados/03_SRSE_Tetrahalogenado_005.gjc
 Output=/home/lpassaglia.iquir/NMR_Tetrahalogenados/03_SRSE_Tetrahalogenado_005.log
 Initial command:
 /share/apps/Gaussian09/EM64T.SSE4.2-enabled/g09/l1.exe /tmp/Gau-30068.inp -scrdir=/tmp/
 Entering Link 1 = /share/apps/Gaussian09/EM64T.SSE4.2-enabled/g09/l1.exe PID=     30069.
  
 Copyright (c) 1988,1990,1992,1993,1995,1998,2003,2009,2011,
            Gaussian, Inc.  All Rights Reserved.
  
 This is part of the Gaussian(R) 09 program.  It is based on
 the Gaussian(R) 03 system (copyright 2003, Gaussian, Inc.),
 the Gaussian(R) 98 system (copyright 1998, Gaussian, Inc.),
 the Gaussian(R) 94 system (copyright 1995, Gaussian, Inc.),
 the Gaussian 92(TM) system (copyright 1992, Gaussian, Inc.),
 the Gaussian 90(TM) system (copyright 1990, Gaussian, Inc.),
 the Gaussian 88(TM) system (copyright 1988, Gaussian, Inc.),
 the Gaussian 86(TM) system (copyright 1986, Carnegie Mellon
 University), and the Gaussian 82(TM) system (copyright 1983,
 Carnegie Mellon University). Gaussian is a federally registered
 trademark of Gaussian, Inc.
  
 This software contains proprietary and confidential information,
 including trade secrets, belonging to Gaussian, Inc.
  
 This software is provided under written license and may be
 used, copied, transmitted, or stored only in accord with that
 written license.
  
 The following legend is applicable only to US Government
 contracts under FAR:
  
                    RESTRICTED RIGHTS LEGEND
  
 Use, reproduction and disclosure by the US Government is
 subject to restrictions as set forth in subparagraphs (a)
 and (c) of the Commercial Computer Software - Restricted
 Rights clause in FAR 52.227-19.
  
 Gaussian, Inc.
 340 Quinnipiac St., Bldg. 40, Wallingford CT 06492
  
  
 ---------------------------------------------------------------
 Warning -- This program may not be used in any manner that
 competes with the business of Gaussian, Inc. or will provide
 assistance to any competitor of Gaussian, Inc.  The licensee
 of this program is prohibited from giving any competitor of
 Gaussian, Inc. access to this program.  By using this program,
 the user acknowledges that Gaussian, Inc. is engaged in the
 business of creating and licensing software in the field of
 computational chemistry and represents and warrants to the
 licensee that it is not a competitor of Gaussian, Inc. and that
 it will not use this program in any manner prohibited above.
 ---------------------------------------------------------------
  

 Cite this work as:
 Gaussian 09, Revision C.01,
 M. J. Frisch, G. W. Trucks, H. B. Schlegel, G. E. Scuseria, 
 M. A. Robb, J. R. Cheeseman, G. Scalmani, V. Barone, B. Mennucci, 
 G. A. Petersson, H. Nakatsuji, M. Caricato, X. Li, H. P. Hratchian, 
 A. F. Izmaylov, J. Bloino, G. Zheng, J. L. Sonnenberg, M. Hada, 
 M. Ehara, K. Toyota, R. Fukuda, J. Hasegawa, M. Ishida, T. Nakajima, 
 Y. Honda, O. Kitao, H. Nakai, T. Vreven, J. A. Montgomery, Jr., 
 J. E. Peralta, F. Ogliaro, M. Bearpark, J. J. Heyd, E. Brothers, 
 K. N. Kudin, V. N. Staroverov, T. Keith, R. Kobayashi, J. Normand, 
 K. Raghavachari, A. Rendell, J. C. Burant, S. S. Iyengar, J. Tomasi, 
 M. Cossi, N. Rega, J. M. Millam, M. Klene, J. E. Knox, J. B. Cross, 
 V. Bakken, C. Adamo, J. Jaramillo, R. Gomperts, R. E. Stratmann, 
 O. Yazyev, A. J. Austin, R. Cammi, C. Pomelli, J. W. Ochterski, 
 R. L. Martin, K. Morokuma, V. G. Zakrzewski, G. A. Voth, 
 P. Salvador, J. J. Dannenberg, S. Dapprich, A. D. Daniels, 
 O. Farkas, J. B. Foresman, J. V. Ortiz, J. Cioslowski, 
 and D. J. Fox, Gaussian, Inc., Wallingford CT, 2010.
 
 ******************************************
 Gaussian 09:  EM64L-G09RevC.01 23-Sep-2011
                20-May-2022 
 ******************************************
 %nprocshared=4
 Will use up to    4 processors via shared memory.
 -----------------------------------------------------
 # mPW1PW91/6-31+G** scrf=(PCM,solvent=chloroform) nmr
 -----------------------------------------------------
 1/38=1/1;
 2/12=2,17=6,18=5,40=1/2;
 3/5=1,6=6,7=111,11=2,16=1,25=1,30=1,70=2201,72=7,74=-7/1,2,8,3;
 4//1;
 5/5=2,38=5,53=7/2;
 8/6=1,10=90,11=11/1;
 10/13=100,45=16/2;
 6/7=2,8=2,9=2,10=2,28=1/1;
 99/9=1/99;
 -------
 comment
 -------
 Charge =  0 Multiplicity = 1
 Symbolic Z-Matrix:
 6                    -0.24759   1.612    -0.7791 
 6                     1.77957   0.15239  -0.46038 
 6                    -0.44548  -0.82134  -0.82431 
 6                     0.92792  -1.10406  -0.11341 
 6                    -1.12043   0.44666  -0.31814 
 6                     1.14339   1.50364  -0.1277 
 1                    -0.22946  -0.67066  -1.8878 
 1                     1.03968   1.62473   0.95451 
 1                    -0.1486    1.58299  -1.86944 
 1                     2.0356    0.11707  -1.52277 
 1                     1.78802   2.30939  -0.48853 
 17                   -0.9194    3.26787  -0.44692 
 35                    3.57144   0.10018   0.4194 
 6                     1.60025  -2.34533  -0.72826 
 1                     1.63948  -2.27672  -1.82253 
 1                     1.05748  -3.25616  -0.46717 
 1                     2.62505  -2.43332  -0.35757 
 6                     0.74252  -1.29886   1.39987 
 1                     1.70696  -1.49569   1.87447 
 1                     0.08714  -2.15484   1.58807 
 1                     0.3006   -0.42146   1.8807 
 17                   -1.51118  -2.30296  -0.86699 
 6                    -2.19593   0.63317   0.45952 
 1                    -2.46609   1.66649   0.65793 
 6                    -3.09875  -0.34461   1.13722 
 1                    -2.80888  -1.38386   1.03612 
 1                    -3.18962  -0.08906   2.19563 
 17                   -4.8018   -0.21355   0.47141 
 
                          Input orientation:                          
 ---------------------------------------------------------------------
 Center     Atomic      Atomic             Coordinates (Angstroms)
 Number     Number       Type             X           Y           Z
 ---------------------------------------------------------------------
      1          6           0       -0.247585    1.612001   -0.779098
      2          6           0        1.779566    0.152391   -0.460376
      3          6           0       -0.445482   -0.821339   -0.824313
      4          6           0        0.927920   -1.104057   -0.113406
      5          6           0       -1.120434    0.446655   -0.318137
      6          6           0        1.143391    1.503644   -0.127702
      7          1           0       -0.229457   -0.670661   -1.887799
      8          1           0        1.039678    1.624731    0.954512
      9          1           0       -0.148604    1.582986   -1.869440
     10          1           0        2.035601    0.117069   -1.522771
     11          1           0        1.788020    2.309387   -0.488528
     12         17           0       -0.919402    3.267865   -0.446920
     13         35           0        3.571438    0.100175    0.419397
     14          6           0        1.600245   -2.345329   -0.728260
     15          1           0        1.639480   -2.276716   -1.822530
     16          1           0        1.057481   -3.256163   -0.467171
     17          1           0        2.625050   -2.433324   -0.357573
     18          6           0        0.742515   -1.298858    1.399865
     19          1           0        1.706959   -1.495690    1.874465
     20          1           0        0.087137   -2.154839    1.588069
     21          1           0        0.300596   -0.421458    1.880695
     22         17           0       -1.511175   -2.302964   -0.866989
     23          6           0       -2.195927    0.633167    0.459520
     24          1           0       -2.466092    1.666490    0.657934
     25          6           0       -3.098753   -0.344612    1.137223
     26          1           0       -2.808882   -1.383855    1.036117
     27          1           0       -3.189625   -0.089061    2.195629
     28         17           0       -4.801799   -0.213547    0.471414
 ---------------------------------------------------------------------
                    Distance matrix (angstroms):
                    1          2          3          4          5
     1  C    0.000000
     2  C    2.518211   0.000000
     3  C    2.441793   2.455899   0.000000
     4  C    3.033468   1.557033   1.572117   0.000000
     5  C    1.527214   2.918360   1.523018   2.577281   0.000000
     6  C    1.539764   1.530123   2.900919   2.616627   2.505673
     7  H    2.537734   2.598293   1.095615   2.162365   2.122751
     8  H    2.159308   2.171895   3.369448   2.932443   2.770123
     9  H    1.095210   2.783865   2.638410   3.385670   2.154586
    10  H    2.828570   1.093382   2.743032   2.168966   3.394161
    11  H    2.171282   2.157196   3.860405   3.540069   3.458021
    12  Cl   1.817571   4.121988   4.133838   4.757892   2.831294
    13  Br   4.278662   1.996881   4.304840   2.953344   4.762107
    14  C    4.367782   2.518437   2.552797   1.539748   3.919881
    15  H    4.446559   2.788485   2.731598   2.191472   4.158975
    16  H    5.049705   3.484206   2.883542   2.184833   4.298417
    17  H    4.979394   2.722376   3.499215   2.169520   4.724879
    18  C    3.768458   2.577226   2.566384   1.536981   3.077162
    19  H    4.529832   2.858833   3.517265   2.170693   4.071162
    20  H    4.461457   3.519056   2.807400   2.169349   3.443780
    21  H    3.392633   2.827944   2.834362   2.199072   2.758226
    22  Cl   4.114770   4.125903   1.825578   2.820363   2.830958
    23  C    2.507654   4.108759   2.613020   3.620029   1.340232
    24  H    2.643824   4.644214   3.531177   4.448619   2.061918
    25  C    3.953452   5.157260   3.333877   4.284265   2.580295
    26  H    4.339401   5.064918   3.059948   3.919615   2.834718
    27  H    4.516438   5.639638   4.145673   4.828668   3.299631
    28  Cl   5.063326   6.657065   4.585392   5.827924   3.822526
                    6          7          8          9         10
     6  C    0.000000
     7  H    3.116128   0.000000
     8  H    1.093895   3.867591   0.000000
     9  H    2.170069   2.255172   3.064060   0.000000
    10  H    2.159826   2.425748   3.066242   2.653270   0.000000
    11  H    1.093144   3.861199   1.763841   2.486984   2.436640
    12  Cl   2.733037   4.250193   2.915801   2.335917   4.451630
    13  Br   2.857351   4.512665   3.003403   4.612615   2.476105
    14  C    3.922242   2.738038   4.348256   4.448868   2.623773
    15  H    4.172489   2.465076   4.826284   4.254027   2.444785
    16  H    4.772670   3.218573   5.083761   5.180575   3.667384
    17  H    4.212822   3.687382   4.550031   5.109760   2.865247
    18  C    3.216859   3.485412   2.972208   4.448311   3.495529
    19  H    3.649971   4.311034   3.320934   5.190201   3.774945
    20  H    4.176606   3.792713   3.948908   5.097183   4.316874
    21  H    2.906885   3.813739   2.364518   4.275873   3.857957
    22  Cl   4.699312   2.312848   5.025088   4.238174   4.343527
    23  C    3.500515   3.328194   3.420140   3.243107   4.701241
    24  H    3.697582   4.116499   3.518540   3.430065   5.236547
    25  C    4.797069   4.182096   4.586753   4.632390   5.800889
    26  H    5.031162   3.963756   4.885659   4.931682   5.680642
    27  H    5.168133   5.076932   4.729108   5.344936   6.416539
    28  Cl   6.217151   5.165380   6.142923   5.509932   7.129945
                   11         12         13         14         15
    11  H    0.000000
    12  Cl   2.872376   0.000000
    13  Br   2.980860   5.563489   0.000000
    14  C    4.664666   6.159198   3.344130   0.000000
    15  H    4.778490   6.259597   3.795828   1.097121   0.000000
    16  H    5.613331   6.816995   4.286139   1.091961   1.770604
    17  H    4.817787   6.713768   2.813885   1.093333   1.772561
    18  C    4.204586   5.198802   3.304757   2.521848   3.484908
    19  H    4.479835   5.914225   2.853119   2.739973   3.779197
    20  H    5.209086   5.878777   4.311756   2.773294   3.749241
    21  H    3.909369   4.529602   3.620207   3.492422   4.352984
    22  Cl   5.683459   5.617899   5.767393   3.114799   3.292472
    23  C    4.424968   3.064765   5.792080   4.969223   5.327806
    24  H    4.452545   2.485428   6.241956   5.878037   6.209452
    25  C    5.793732   4.506559   6.723433   5.437231   5.911346
    26  H    6.090656   5.235268   6.579603   4.845396   5.362554
    27  H    6.142817   4.837968   6.993053   6.048366   6.652194
    28  Cl   7.121264   5.294957   8.379274   6.853457   7.142053
                   16         17         18         19         20
    16  H    0.000000
    17  H    1.773795   0.000000
    18  C    2.723246   2.814168   0.000000
    19  H    3.000724   2.589217   1.092767   0.000000
    20  H    2.525568   3.209997   1.094369   1.772096   0.000000
    21  H    3.757779   3.802701   1.093764   1.769709   1.770820
    22  Cl   2.768833   4.169515   3.350519   4.303911   2.933232
    23  C    5.154639   5.771727   3.640249   4.665471   3.776107
    24  H    6.157430   6.615093   4.431581   5.375285   4.688996
    25  C    5.322170   6.273679   3.966725   4.996336   3.691894
    26  H    4.551283   5.707134   3.570988   4.594361   3.047293
    27  H    5.929498   6.769406   4.190295   5.104732   3.920936
    28  Cl   6.668554   7.795686   5.725324   6.780588   5.377474
                   21         22         23         24         25
    21  H    0.000000
    22  Cl   3.791088   0.000000
    23  C    3.060163   3.293839   0.000000
    24  H    3.675491   4.358190   1.086330   0.000000
    25  C    3.480550   3.220623   1.493462   2.162061   0.000000
    26  H    3.362793   2.480044   2.185533   3.092755   1.083639
    27  H    3.520130   4.134996   2.126764   2.443351   1.092606
    28  Cl   5.297522   4.121310   2.740006   3.004140   1.833261
                   26         27         28
    26  H    0.000000
    27  H    1.779305   0.000000
    28  Cl   2.379123   2.363793   0.000000
 Stoichiometry    C10H14BrCl3
 Framework group  C1[X(C10H14BrCl3)]
 Deg. of freedom    78
 Full point group                 C1      NOp   1
 Largest Abelian subgroup         C1      NOp   1
 Largest concise Abelian subgroup C1      NOp   1
                         Standard orientation:                         
 ---------------------------------------------------------------------
 Center     Atomic      Atomic             Coordinates (Angstroms)
 Number     Number       Type             X           Y           Z
 ---------------------------------------------------------------------
      1          6           0       -0.247585    1.612001   -0.779098
      2          6           0        1.779566    0.152391   -0.460376
      3          6           0       -0.445482   -0.821339   -0.824313
      4          6           0        0.927920   -1.104057   -0.113406
      5          6           0       -1.120434    0.446655   -0.318137
      6          6           0        1.143391    1.503644   -0.127702
      7          1           0       -0.229457   -0.670661   -1.887799
      8          1           0        1.039678    1.624731    0.954512
      9          1           0       -0.148604    1.582986   -1.869440
     10          1           0        2.035601    0.117069   -1.522771
     11          1           0        1.788020    2.309387   -0.488528
     12         17           0       -0.919402    3.267865   -0.446920
     13         35           0        3.571438    0.100175    0.419397
     14          6           0        1.600245   -2.345329   -0.728260
     15          1           0        1.639480   -2.276716   -1.822530
     16          1           0        1.057481   -3.256163   -0.467171
     17          1           0        2.625050   -2.433324   -0.357573
     18          6           0        0.742515   -1.298858    1.399865
     19          1           0        1.706959   -1.495690    1.874465
     20          1           0        0.087137   -2.154839    1.588069
     21          1           0        0.300596   -0.421458    1.880695
     22         17           0       -1.511175   -2.302964   -0.866989
     23          6           0       -2.195927    0.633167    0.459520
     24          1           0       -2.466092    1.666490    0.657934
     25          6           0       -3.098753   -0.344612    1.137223
     26          1           0       -2.808882   -1.383855    1.036117
     27          1           0       -3.189625   -0.089061    2.195629
     28         17           0       -4.801799   -0.213547    0.471414
 ---------------------------------------------------------------------
 Rotational constants (GHZ):      0.5409479      0.2094330      0.1661013
 Standard basis: 6-31+G(d,p) (6D, 7F)
 There are   363 symmetry adapted basis functions of A   symmetry.
 Integral buffers will be    131072 words long.
 Raffenetti 2 integral format.
 Two-electron integral symmetry is turned on.
   363 basis functions,   673 primitive gaussians,   363 cartesian basis functions
    80 alpha electrons       80 beta electrons
       nuclear repulsion energy      1679.8607414148 Hartrees.
 NAtoms=   28 NActive=   28 NUniq=   28 SFac= 1.00D+00 NAtFMM=   60 NAOKFM=F Big=F
 ------------------------------------------------------------------------------
 Polarizable Continuum Model (PCM)
 =================================
 Model                : PCM.
 Atomic radii         : UFF (Universal Force Field).
 Polarization charges : Total charges.
 Charge compensation  : None.
 Solution method      : Matrix inversion.
 Cavity type          : Scaled VdW (van der Waals Surface) (Alpha=1.100).
 Cavity algorithm     : GePol (No added spheres)
                        Default sphere list used, NSphG=   28.
                        Lebedev-Laikov grids with approx.  5.0 points / Ang**2.
                        Smoothing algorithm: Karplus/York (Gamma=1.0000).
                        Polarization charges: spherical gaussians, with
                                              point-specific exponents (IZeta= 3).
                        Self-potential: point-specific (ISelfS= 7).
                        Self-field    : sphere-specific E.n sum rule (ISelfD= 2).
 Solvent              : Chloroform, Eps=   4.711300 Eps(inf)=   2.090627
 ------------------------------------------------------------------------------
 One-electron integrals computed using PRISM.
 NBasis=   363 RedAO= T  NBF=   363
 NBsUse=   363 1.00D-06 NBFU=   363
 Harris functional with IExCor=  908 diagonalized for initial guess.
 ExpMin= 3.50D-02 ExpMax= 5.74D+05 ExpMxC= 5.74D+03 IAcc=3 IRadAn=         5 AccDes= 0.00D+00
 HarFok:  IExCor=  908 AccDes= 0.00D+00 IRadAn=         5 IDoV= 1
 ScaDFX=  1.000000  1.000000  1.000000  1.000000
 FoFCou: FMM=F IPFlag=           0 FMFlag=      100000 FMFlg1=           0
         NFxFlg=           0 DoJE=T BraDBF=F KetDBF=T FulRan=T
         Omega=  0.000000  0.000000  1.000000  0.000000  0.000000 ICntrl=     500 IOpCl=  0
         NMat0=    1 NMatS0=    1 NMatT0=    0 NMatD0=    1 NMtDS0=    0 NMtDT0=    0
         I1Cent=           4 NGrid=           0.
 Petite list used in FoFCou.
 Initial guess orbital symmetries:
       Occupied  (A) (A) (A) (A) (A) (A) (A) (A) (A) (A) (A) (A)
                 (A) (A) (A) (A) (A) (A) (A) (A) (A) (A) (A) (A)
                 (A) (A) (A) (A) (A) (A) (A) (A) (A) (A) (A) (A)
                 (A) (A) (A) (A) (A) (A) (A) (A) (A) (A) (A) (A)
                 (A) (A) (A) (A) (A) (A) (A) (A) (A) (A) (A) (A)
                 (A) (A) (A) (A) (A) (A) (A) (A) (A) (A) (A) (A)
                 (A) (A) (A) (A) (A) (A) (A) (A)
       Virtual   (A) (A) (A) (A) (A) (A) (A) (A) (A) (A) (A) (A)
                 (A) (A) (A) (A) (A) (A) (A) (A) (A) (A) (A) (A)
                 (A) (A) (A) (A) (A) (A) (A) (A) (A) (A) (A) (A)
                 (A) (A) (A) (A) (A) (A) (A) (A) (A) (A) (A) (A)
                 (A) (A) (A) (A) (A) (A) (A) (A) (A) (A) (A) (A)
                 (A) (A) (A) (A) (A) (A) (A) (A) (A) (A) (A) (A)
                 (A) (A) (A) (A) (A) (A) (A) (A) (A) (A) (A) (A)
                 (A) (A) (A) (A) (A) (A) (A) (A) (A) (A) (A) (A)
                 (A) (A) (A) (A) (A) (A) (A) (A) (A) (A) (A) (A)
                 (A) (A) (A) (A) (A) (A) (A) (A) (A) (A) (A) (A)
                 (A) (A) (A) (A) (A) (A) (A) (A) (A) (A) (A) (A)
                 (A) (A) (A) (A) (A) (A) (A) (A) (A) (A) (A) (A)
                 (A) (A) (A) (A) (A) (A) (A) (A) (A) (A) (A) (A)
                 (A) (A) (A) (A) (A) (A) (A) (A) (A) (A) (A) (A)
                 (A) (A) (A) (A) (A) (A) (A) (A) (A) (A) (A) (A)
                 (A) (A) (A) (A) (A) (A) (A) (A) (A) (A) (A) (A)
                 (A) (A) (A) (A) (A) (A) (A) (A) (A) (A) (A) (A)
                 (A) (A) (A) (A) (A) (A) (A) (A) (A) (A) (A) (A)
                 (A) (A) (A) (A) (A) (A) (A) (A) (A) (A) (A) (A)
                 (A) (A) (A) (A) (A) (A) (A) (A) (A) (A) (A) (A)
                 (A) (A) (A) (A) (A) (A) (A) (A) (A) (A) (A) (A)
                 (A) (A) (A) (A) (A) (A) (A) (A) (A) (A) (A) (A)
                 (A) (A) (A) (A) (A) (A) (A) (A) (A) (A) (A) (A)
                 (A) (A) (A) (A) (A) (A) (A)
 The electronic state of the initial guess is 1-A.
 Requested convergence on RMS density matrix=1.00D-08 within 128 cycles.
 Requested convergence on MAX density matrix=1.00D-06.
 Requested convergence on             energy=1.00D-06.
 No special actions if energy rises.
 Error on total polarization charges =  0.01663
 SCF Done:  E(RmPW1PW91) =  -4341.94214576     A.U. after   14 cycles
             Convg  =    0.4725D-08             -V/T =  2.0056
 Range of M.O.s used for correlation:     1   363
 NBasis=   363 NAE=    80 NBE=    80 NFC=     0 NFV=     0
 NROrb=    363 NOA=    80 NOB=    80 NVA=   283 NVB=   283

 **** Warning!!: The largest alpha MO coefficient is  0.12566727D+03

 NEqPCM:  Using equilibrium solvation (IEInf=0, Eps=   4.7113, EpsInf=   2.0906)
          Differentiating once with respect to magnetic field using GIAOs.
          Electric field/nuclear overlap derivatives assumed to be zero.
 FoFCou: FMM=F IPFlag=           0 FMFlag=    10101102 FMFlg1=           0
         NFxFlg=    40000000 DoJE=F BraDBF=F KetDBF=T FulRan=T
         Omega=  0.000000  0.000000  1.000000  0.000000  0.000000 ICntrl=    6100 IOpCl=  0
         NMat0=    1 NMatS0=    1 NMatT0=    0 NMatD0=    1 NMtDS0=    0 NMtDT0=    0
         I1Cent=           7 NGrid=        2093.
 Symmetry not used in FoFCou.
          There are     3 degrees of freedom in the 1st order CPHF.  IDoFFX=0.
      3 vectors produced by pass  0 Test12= 7.55D-13 3.33D-08 XBig12= 1.16D+02 2.32D+00.
 AX will form     3 AO Fock derivatives at one time.
      3 vectors produced by pass  1 Test12= 7.55D-13 3.33D-08 XBig12= 3.62D-01 1.17D-01.
      3 vectors produced by pass  2 Test12= 7.55D-13 3.33D-08 XBig12= 1.63D-03 7.41D-03.
      3 vectors produced by pass  3 Test12= 7.55D-13 3.33D-08 XBig12= 8.15D-06 8.20D-04.
      3 vectors produced by pass  4 Test12= 7.55D-13 3.33D-08 XBig12= 4.48D-08 6.05D-05.
      3 vectors produced by pass  5 Test12= 7.55D-13 3.33D-08 XBig12= 1.67D-10 3.20D-06.
      3 vectors produced by pass  6 Test12= 7.55D-13 3.33D-08 XBig12= 8.33D-13 2.02D-07.
 Inverted reduced A of dimension    21 with in-core refinement.
 Calculating GIAO nuclear magnetic shielding tensors.
 SCF GIAO Magnetic shielding tensor (ppm):
      1  C    Isotropic =   127.8736   Anisotropy =    49.8523
   XX=   129.7817   YX=    -3.7576   ZX=    -9.2472
   XY=   -11.0378   YY=   157.2048   ZY=    10.2635
   XZ=    -7.4950   YZ=     8.9538   ZZ=    96.6341
   Eigenvalues:    93.6878   128.8244   161.1084
      2  C    Isotropic =   124.5023   Anisotropy =    46.0047
   XX=   141.0187   YX=     9.0829   ZX=    27.2830
   XY=     5.1411   YY=   133.4155   ZY=    -9.7885
   XZ=    28.8048   YZ=   -12.1742   ZZ=    99.0726
   Eigenvalues:    81.7519   136.5829   155.1720
      3  C    Isotropic =   120.1146   Anisotropy =    31.0998
   XX=   132.3749   YX=    -3.8207   ZX=     2.2680
   XY=     9.3909   YY=   139.8131   ZY=    -5.9254
   XZ=     8.6517   YZ=    -2.5052   ZZ=    88.1557
   Eigenvalues:    87.1030   132.3930   140.8477
      4  C    Isotropic =   145.9552   Anisotropy =    29.0322
   XX=   159.7692   YX=     8.4689   ZX=     7.5744
   XY=     8.5837   YY=   143.6020   ZY=     1.0205
   XZ=     6.9335   YZ=     3.7153   ZZ=   134.4944
   Eigenvalues:   132.5595   139.9961   165.3100
      5  C    Isotropic =    60.0288   Anisotropy =   136.7395
   XX=    88.9665   YX=   -24.0158   ZX=    45.6320
   XY=    -6.6649   YY=   -22.9859   ZY=    -4.4828
   XZ=    50.0576   YZ=    13.9423   ZZ=   114.1058
   Eigenvalues:   -26.0583    54.9561   151.1885
      6  C    Isotropic =   148.9257   Anisotropy =    56.5311
   XX=   172.6451   YX=   -17.4895   ZX=    15.5668
   XY=   -22.2421   YY=   150.4517   ZY=     3.6617
   XZ=    16.4950   YZ=     4.4066   ZZ=   123.6802
   Eigenvalues:   115.8062   144.3577   186.6130
      7  H    Isotropic =    27.2503   Anisotropy =     5.9732
   XX=    25.6020   YX=     4.2081   ZX=     0.1496
   XY=     3.3590   YY=    28.3305   ZY=    -1.6201
   XZ=    -0.0966   YZ=    -0.6308   ZZ=    27.8185
   Eigenvalues:    22.8524    27.6662    31.2324
      8  H    Isotropic =    29.3816   Anisotropy =     4.3623
   XX=    29.9799   YX=    -1.9587   ZX=     1.8015
   XY=    -2.6440   YY=    29.9641   ZY=     2.3872
   XZ=     1.5978   YZ=     1.6112   ZZ=    28.2009
   Eigenvalues:    25.3037    30.5513    32.2899
      9  H    Isotropic =    27.2146   Anisotropy =     4.8706
   XX=    23.2244   YX=    -2.9804   ZX=    -0.2008
   XY=    -2.8757   YY=    29.0984   ZY=     0.3828
   XZ=    -0.7918   YZ=     0.1049   ZZ=    29.3211
   Eigenvalues:    21.9959    29.1863    30.4617
     10  H    Isotropic =    27.3518   Anisotropy =     4.9433
   XX=    28.6288   YX=     0.1044   ZX=     1.2521
   XY=     0.4169   YY=    23.7664   ZY=    -1.0936
   XZ=     1.4256   YZ=    -0.8992   ZZ=    29.6602
   Eigenvalues:    23.5557    27.8523    30.6473
     11  H    Isotropic =    28.9971   Anisotropy =     6.1072
   XX=    32.3557   YX=     0.5991   ZX=    -0.4948
   XY=     0.0562   YY=    32.5462   ZY=    -2.6558
   XZ=     0.9349   YZ=    -1.5747   ZZ=    22.0894
   Eigenvalues:    21.6704    32.2523    33.0685
     12  Cl   Isotropic =   810.8796   Anisotropy =   371.4069
   XX=   784.5081   YX=  -113.6906   ZX=    17.1602
   XY=  -127.9152   YY=  1002.7220   ZY=    36.3943
   XZ=    38.7295   YZ=    52.2620   ZZ=   645.4088
   Eigenvalues:   625.4495   748.7052  1058.4842
     13  Br   Isotropic =  2355.2582   Anisotropy =  1158.1941
   XX=  2892.2580   YX=   -75.2187   ZX=   491.4132
   XY=   -50.1601   YY=  2046.9016   ZY=    18.5098
   XZ=   474.1891   YZ=    38.7561   ZZ=  2126.6150
   Eigenvalues:  1876.5974  2061.7897  3127.3876
     14  C    Isotropic =   168.8040   Anisotropy =    39.3844
   XX=   159.5097   YX=   -14.5144   ZX=   -10.6407
   XY=   -10.2188   YY=   177.9946   ZY=    13.5865
   XZ=   -11.3408   YZ=    12.8516   ZZ=   168.9077
   Eigenvalues:   151.5700   159.7817   195.0603
     15  H    Isotropic =    30.8233   Anisotropy =    10.1576
   XX=    28.8236   YX=    -0.7988   ZX=    -2.6820
   XY=    -1.2073   YY=    28.7457   ZY=     4.5998
   XZ=    -1.9654   YZ=     3.3911   ZZ=    34.9006
   Eigenvalues:    26.7688    28.1061    37.5950
     16  H    Isotropic =    30.1549   Anisotropy =     8.5589
   XX=    29.8135   YX=    -0.1919   ZX=    -0.6317
   XY=     1.2047   YY=    35.8007   ZY=     0.2515
   XZ=    -0.3910   YZ=     0.7161   ZZ=    24.8505
   Eigenvalues:    24.7725    29.8313    35.8608
     17  H    Isotropic =    29.8661   Anisotropy =     7.1480
   XX=    33.5680   YX=    -1.3289   ZX=     1.7927
   XY=    -2.2770   YY=    31.5644   ZY=     2.0924
   XZ=     1.1522   YZ=     2.3201   ZZ=    24.4659
   Eigenvalues:    23.4671    31.4997    34.6314
     18  C    Isotropic =   180.2881   Anisotropy =    22.8660
   XX=   174.5424   YX=    -0.8647   ZX=    -3.5071
   XY=    -2.0790   YY=   171.6217   ZY=    -0.9796
   XZ=    -4.7593   YZ=     1.7068   ZZ=   194.7003
   Eigenvalues:   170.9303   174.4019   195.5322
     19  H    Isotropic =    30.3497   Anisotropy =     7.9553
   XX=    33.2124   YX=     0.3203   ZX=     2.3804
   XY=     0.5210   YY=    26.3832   ZY=    -3.6647
   XZ=     3.2581   YZ=    -3.1987   ZZ=    31.4535
   Eigenvalues:    24.3247    31.0712    35.6532
     20  H    Isotropic =    30.5289   Anisotropy =     8.2300
   XX=    30.4347   YX=     3.3699   ZX=    -0.6694
   XY=     3.8261   YY=    30.5737   ZY=    -3.1581
   XZ=    -0.9891   YZ=    -3.9191   ZZ=    30.5785
   Eigenvalues:    25.8924    29.6789    36.0156
     21  H    Isotropic =    30.6178   Anisotropy =     6.9529
   XX=    29.7703   YX=    -2.8475   ZX=    -1.5519
   XY=    -2.1063   YY=    29.8111   ZY=     2.0446
   XZ=    -2.2493   YZ=     2.5750   ZZ=    32.2719
   Eigenvalues:    27.2897    29.3105    35.2530
     22  Cl   Isotropic =   833.2672   Anisotropy =   332.8262
   XX=   862.5126   YX=   116.1534   ZX=    49.7296
   XY=   147.4399   YY=   958.8085   ZY=    54.4649
   XZ=     8.2645   YZ=     1.7307   ZZ=   678.4804
   Eigenvalues:   673.7074   770.9429  1055.1513
     23  C    Isotropic =    70.9395   Anisotropy =   135.5524
   XX=   101.9558   YX=    -4.2676   ZX=    53.6568
   XY=    -5.5867   YY=   -17.8810   ZY=     2.7460
   XZ=    34.1240   YZ=    -4.2241   ZZ=   128.7436
   Eigenvalues:   -18.0918    69.6025   161.3077
     24  H    Isotropic =    25.2134   Anisotropy =    11.3364
   XX=    28.7338   YX=     3.3684   ZX=    -4.6475
   XY=     3.8839   YY=    25.2109   ZY=    -2.0596
   XZ=    -3.3706   YZ=    -1.7893   ZZ=    21.6954
   Eigenvalues:    19.8626    23.0066    32.7710
     25  C    Isotropic =   150.2192   Anisotropy =    50.0321
   XX=   173.1897   YX=     0.7036   ZX=    18.8022
   XY=     5.0940   YY=   135.0584   ZY=    -9.9564
   XZ=    22.0607   YZ=   -15.0176   ZZ=   142.4097
   Eigenvalues:   121.0274   146.0564   183.5740
     26  H    Isotropic =    26.1899   Anisotropy =    11.5674
   XX=    30.1019   YX=    -4.4810   ZX=    -3.4780
   XY=    -4.3902   YY=    27.1221   ZY=     1.4062
   XZ=    -3.1882   YZ=    -1.3335   ZZ=    21.3458
   Eigenvalues:    19.8840    24.7843    33.9015
     27  H    Isotropic =    27.6000   Anisotropy =     7.9346
   XX=    28.5117   YX=     0.5314   ZX=     1.7952
   XY=     0.4228   YY=    21.5874   ZY=     0.0540
   XZ=    -0.1432   YZ=     0.9847   ZZ=    32.7009
   Eigenvalues:    21.5354    28.3749    32.8898
     28  Cl   Isotropic =   843.9509   Anisotropy =   400.7060
   XX=  1084.6982   YX=    46.8059   ZX=    87.7560
   XY=     6.9861   YY=   705.8472   ZY=   -58.5913
   XZ=   108.2020   YZ=   -45.8084   ZZ=   741.3073
   Eigenvalues:   652.8484   767.9161  1111.0882
 End of Minotr Frequency-dependent properties file   721 does not exist.
 End of Minotr Frequency-dependent properties file   722 does not exist.

 **********************************************************************

            Population analysis using the SCF density.

 **********************************************************************

 Orbital symmetries:
       Occupied  (A) (A) (A) (A) (A) (A) (A) (A) (A) (A) (A) (A)
                 (A) (A) (A) (A) (A) (A) (A) (A) (A) (A) (A) (A)
                 (A) (A) (A) (A) (A) (A) (A) (A) (A) (A) (A) (A)
                 (A) (A) (A) (A) (A) (A) (A) (A) (A) (A) (A) (A)
                 (A) (A) (A) (A) (A) (A) (A) (A) (A) (A) (A) (A)
                 (A) (A) (A) (A) (A) (A) (A) (A) (A) (A) (A) (A)
                 (A) (A) (A) (A) (A) (A) (A) (A)
       Virtual   (A) (A) (A) (A) (A) (A) (A) (A) (A) (A) (A) (A)
                 (A) (A) (A) (A) (A) (A) (A) (A) (A) (A) (A) (A)
                 (A) (A) (A) (A) (A) (A) (A) (A) (A) (A) (A) (A)
                 (A) (A) (A) (A) (A) (A) (A) (A) (A) (A) (A) (A)
                 (A) (A) (A) (A) (A) (A) (A) (A) (A) (A) (A) (A)
                 (A) (A) (A) (A) (A) (A) (A) (A) (A) (A) (A) (A)
                 (A) (A) (A) (A) (A) (A) (A) (A) (A) (A) (A) (A)
                 (A) (A) (A) (A) (A) (A) (A) (A) (A) (A) (A) (A)
                 (A) (A) (A) (A) (A) (A) (A) (A) (A) (A) (A) (A)
                 (A) (A) (A) (A) (A) (A) (A) (A) (A) (A) (A) (A)
                 (A) (A) (A) (A) (A) (A) (A) (A) (A) (A) (A) (A)
                 (A) (A) (A) (A) (A) (A) (A) (A) (A) (A) (A) (A)
                 (A) (A) (A) (A) (A) (A) (A) (A) (A) (A) (A) (A)
                 (A) (A) (A) (A) (A) (A) (A) (A) (A) (A) (A) (A)
                 (A) (A) (A) (A) (A) (A) (A) (A) (A) (A) (A) (A)
                 (A) (A) (A) (A) (A) (A) (A) (A) (A) (A) (A) (A)
                 (A) (A) (A) (A) (A) (A) (A) (A) (A) (A) (A) (A)
                 (A) (A) (A) (A) (A) (A) (A) (A) (A) (A) (A) (A)
                 (A) (A) (A) (A) (A) (A) (A) (A) (A) (A) (A) (A)
                 (A) (A) (A) (A) (A) (A) (A) (A) (A) (A) (A) (A)
                 (A) (A) (A) (A) (A) (A) (A) (A) (A) (A) (A) (A)
                 (A) (A) (A) (A) (A) (A) (A) (A) (A) (A) (A) (A)
                 (A) (A) (A) (A) (A) (A) (A) (A) (A) (A) (A) (A)
                 (A) (A) (A) (A) (A) (A) (A)
 The electronic state is 1-A.
 Alpha  occ. eigenvalues -- -483.41960-101.77007-101.76969-101.75657 -62.05947
 Alpha  occ. eigenvalues --  -56.54517 -56.54177 -56.54154 -10.34613 -10.34370
 Alpha  occ. eigenvalues --  -10.33433 -10.31832 -10.30548 -10.30379 -10.28273
 Alpha  occ. eigenvalues --  -10.28095 -10.24820 -10.24795  -9.54726  -9.54723
 Alpha  occ. eigenvalues --   -9.53454  -8.67809  -7.28709  -7.28698  -7.27757
 Alpha  occ. eigenvalues --   -7.27753  -7.27752  -7.27740  -7.27423  -7.26488
 Alpha  occ. eigenvalues --   -7.26469  -6.61304  -6.60119  -6.60102  -2.70035
 Alpha  occ. eigenvalues --   -2.69703  -2.69688  -2.68725  -2.68724  -0.94263
 Alpha  occ. eigenvalues --   -0.90014  -0.88793  -0.87107  -0.82630  -0.81064
 Alpha  occ. eigenvalues --   -0.78581  -0.74271  -0.72490  -0.70717  -0.67253
 Alpha  occ. eigenvalues --   -0.63800  -0.58921  -0.57075  -0.53063  -0.50628
 Alpha  occ. eigenvalues --   -0.50377  -0.48922  -0.47439  -0.46984  -0.45768
 Alpha  occ. eigenvalues --   -0.44711  -0.43509  -0.42632  -0.41947  -0.40586
 Alpha  occ. eigenvalues --   -0.40227  -0.39123  -0.38856  -0.38060  -0.36277
 Alpha  occ. eigenvalues --   -0.35877  -0.33584  -0.33190  -0.32873  -0.32621
 Alpha  occ. eigenvalues --   -0.31971  -0.31286  -0.30322  -0.30241  -0.28556
 Alpha virt. eigenvalues --   -0.04555  -0.03526  -0.00213   0.00510   0.01510
 Alpha virt. eigenvalues --    0.01610   0.02284   0.02605   0.03146   0.03645
 Alpha virt. eigenvalues --    0.04502   0.04785   0.05039   0.05786   0.06633
 Alpha virt. eigenvalues --    0.07022   0.07287   0.07442   0.07768   0.07943
 Alpha virt. eigenvalues --    0.08531   0.09500   0.09660   0.10349   0.10408
 Alpha virt. eigenvalues --    0.10523   0.10940   0.11463   0.11918   0.12353
 Alpha virt. eigenvalues --    0.12727   0.13080   0.13524   0.13754   0.14288
 Alpha virt. eigenvalues --    0.14627   0.15355   0.15619   0.15987   0.16658
 Alpha virt. eigenvalues --    0.16944   0.17624   0.18020   0.18215   0.18695
 Alpha virt. eigenvalues --    0.19040   0.19387   0.19429   0.19650   0.20526
 Alpha virt. eigenvalues --    0.20865   0.21375   0.21696   0.22000   0.22773
 Alpha virt. eigenvalues --    0.23103   0.23448   0.23567   0.24425   0.24775
 Alpha virt. eigenvalues --    0.24824   0.25563   0.25925   0.26611   0.26804
 Alpha virt. eigenvalues --    0.27295   0.27830   0.28119   0.29292   0.29399
 Alpha virt. eigenvalues --    0.30276   0.30612   0.32296   0.32949   0.33702
 Alpha virt. eigenvalues --    0.35182   0.35714   0.36703   0.38178   0.38441
 Alpha virt. eigenvalues --    0.40805   0.41076   0.44457   0.46455   0.47860
 Alpha virt. eigenvalues --    0.49138   0.51773   0.52237   0.53165   0.56300
 Alpha virt. eigenvalues --    0.57771   0.58998   0.59360   0.60649   0.62536
 Alpha virt. eigenvalues --    0.62941   0.63457   0.63873   0.64138   0.65003
 Alpha virt. eigenvalues --    0.65541   0.65909   0.66075   0.67126   0.67581
 Alpha virt. eigenvalues --    0.67926   0.68652   0.68775   0.71086   0.72230
 Alpha virt. eigenvalues --    0.72662   0.73389   0.74392   0.74755   0.75587
 Alpha virt. eigenvalues --    0.77159   0.77937   0.78655   0.79633   0.79803
 Alpha virt. eigenvalues --    0.81347   0.82653   0.83242   0.83825   0.85235
 Alpha virt. eigenvalues --    0.86465   0.87050   0.88054   0.88478   0.89642
 Alpha virt. eigenvalues --    0.89969   0.90354   0.92513   0.93954   0.94269
 Alpha virt. eigenvalues --    0.94994   0.97082   0.97894   0.98428   0.99461
 Alpha virt. eigenvalues --    1.00737   1.02135   1.03019   1.03456   1.03880
 Alpha virt. eigenvalues --    1.05830   1.05884   1.06380   1.07837   1.09022
 Alpha virt. eigenvalues --    1.09960   1.11270   1.12485   1.13329   1.14334
 Alpha virt. eigenvalues --    1.14556   1.16802   1.17487   1.18013   1.19825
 Alpha virt. eigenvalues --    1.21392   1.21791   1.23324   1.27304   1.28899
 Alpha virt. eigenvalues --    1.30485   1.33764   1.35120   1.37807   1.39016
 Alpha virt. eigenvalues --    1.45019   1.45456   1.50419   1.50632   1.53214
 Alpha virt. eigenvalues --    1.56498   1.57303   1.59226   1.64401   1.65853
 Alpha virt. eigenvalues --    1.70422   1.73149   1.74462   1.76519   1.77838
 Alpha virt. eigenvalues --    1.80540   1.84390   1.85024   1.86957   1.88858
 Alpha virt. eigenvalues --    1.89351   1.91001   1.93787   1.94326   1.95573
 Alpha virt. eigenvalues --    1.97009   1.97472   1.98607   2.02925   2.04284
 Alpha virt. eigenvalues --    2.05683   2.06935   2.09134   2.11444   2.12346
 Alpha virt. eigenvalues --    2.13175   2.13825   2.15578   2.17021   2.17827
 Alpha virt. eigenvalues --    2.18610   2.19779   2.21200   2.21748   2.24059
 Alpha virt. eigenvalues --    2.25886   2.26743   2.31809   2.34689   2.37454
 Alpha virt. eigenvalues --    2.39265   2.40900   2.43063   2.43704   2.47441
 Alpha virt. eigenvalues --    2.49469   2.51606   2.54344   2.55449   2.57869
 Alpha virt. eigenvalues --    2.59299   2.61841   2.63493   2.65558   2.66877
 Alpha virt. eigenvalues --    2.69234   2.71123   2.72294   2.74816   2.76237
 Alpha virt. eigenvalues --    2.77832   2.80154   2.80869   2.82372   2.83702
 Alpha virt. eigenvalues --    2.84240   2.87042   2.89756   2.90693   2.95034
 Alpha virt. eigenvalues --    2.98799   3.00411   3.03663   3.11392   3.30983
 Alpha virt. eigenvalues --    3.31843   3.33612   3.35827   3.42108   3.43683
 Alpha virt. eigenvalues --    3.44304   3.47657   3.49325   3.49561   3.52564
 Alpha virt. eigenvalues --    3.53214   3.53960   3.57051   4.25749   4.31205
 Alpha virt. eigenvalues --    4.37855   4.41053   4.44253   4.46915   4.47556
 Alpha virt. eigenvalues --    4.57277   4.61709   4.67911   4.73511   4.80122
 Alpha virt. eigenvalues --    4.86867   9.06280  81.43180
          Condensed to atoms (all electrons):
              1          2          3          4          5          6
     1  C    7.957615  -0.379433  -0.277088   0.727023  -1.019060  -0.089978
     2  C   -0.379433  12.030030   2.441153  -3.666221   0.518357  -2.362985
     3  C   -0.277088   2.441153  14.666542  -4.602042  -1.383202  -0.711321
     4  C    0.727023  -3.666221  -4.602042  12.043239   0.735275   0.600258
     5  C   -1.019060   0.518357  -1.383202   0.735275  15.149944  -0.578636
     6  C   -0.089978  -2.362985  -0.711321   0.600258  -0.578636   7.912255
     7  H    0.044208  -0.065385   0.088179   0.124371   0.080289   0.013298
     8  H   -0.051702  -0.090388  -0.057706   0.062502   0.030212   0.459663
     9  H    0.389184   0.020417  -0.109938   0.022753   0.019697  -0.025910
    10  H    0.027528   0.253411  -0.061119   0.047327  -0.011079  -0.002362
    11  H   -0.062407  -0.089416   0.008711   0.062987   0.037003   0.377334
    12  Cl   0.047267  -0.089213  -0.131958   0.102922  -0.009267   0.079194
    13  Br   0.014503   0.367419  -0.016847  -0.046244   0.045874  -0.067026
    14  C    0.011277  -0.728043   0.007440  -0.328951  -0.186054   0.053646
    15  H    0.015740  -0.080427  -0.004404  -0.055170  -0.027856   0.013958
    16  H   -0.003438   0.033424  -0.050810  -0.074033   0.023159  -0.008863
    17  H   -0.007008   0.017680   0.053146  -0.132885  -0.005533   0.005816
    18  C    0.093015  -0.510401  -0.139633  -0.148229  -0.180671  -0.050205
    19  H   -0.004064  -0.015531   0.031774  -0.112325  -0.007895  -0.004670
    20  H   -0.005387   0.025695   0.066750  -0.140980  -0.012343   0.008924
    21  H   -0.006177   0.034929  -0.075323  -0.068782  -0.013448  -0.033787
    22  Cl   0.029001  -0.001910  -0.220487   0.086986   0.331734  -0.069800
    23  C   -1.069067  -1.173171  -2.701701   0.445809  -7.752218   0.785915
    24  H   -0.065024  -0.013271   0.047167  -0.000205   0.151962   0.011030
    25  C    0.144201  -0.052185  -0.758580   0.199557  -0.806007   0.045274
    26  H   -0.006438  -0.004083   0.071944  -0.026346   0.100328   0.000874
    27  H    0.005410   0.001692  -0.036956   0.000826   0.053394   0.000054
    28  Cl   0.030601   0.000769  -0.064077   0.027853   0.367130   0.002562
              7          8          9         10         11         12
     1  C    0.044208  -0.051702   0.389184   0.027528  -0.062407   0.047267
     2  C   -0.065385  -0.090388   0.020417   0.253411  -0.089416  -0.089213
     3  C    0.088179  -0.057706  -0.109938  -0.061119   0.008711  -0.131958
     4  C    0.124371   0.062502   0.022753   0.047327   0.062987   0.102922
     5  C    0.080289   0.030212   0.019697  -0.011079   0.037003  -0.009267
     6  C    0.013298   0.459663  -0.025910  -0.002362   0.377334   0.079194
     7  H    0.506116   0.000089   0.004175   0.003592  -0.000085   0.002889
     8  H    0.000089   0.470355   0.003712   0.003671  -0.023783   0.005531
     9  H    0.004175   0.003712   0.496234   0.002040  -0.003676  -0.032343
    10  H    0.003592   0.003671   0.002040   0.507467  -0.004725   0.000275
    11  H   -0.000085  -0.023783  -0.003676  -0.004725   0.486274   0.008721
    12  Cl   0.002889   0.005531  -0.032343   0.000275   0.008721  16.913501
    13  Br   0.004446   0.006628   0.005214  -0.017571  -0.011101  -0.001102
    14  C    0.000968   0.003337   0.002134   0.034268   0.001479  -0.000833
    15  H    0.003745   0.000000   0.000011   0.003941  -0.000003   0.000063
    16  H    0.000064   0.000002   0.000000   0.000087   0.000001  -0.000010
    17  H   -0.000051  -0.000002   0.000001  -0.000545  -0.000002   0.000005
    18  C   -0.016610  -0.026460  -0.010945  -0.015983   0.005238  -0.010161
    19  H   -0.000110   0.000195   0.000002   0.000014   0.000004  -0.000096
    20  H   -0.000061  -0.000035   0.000000  -0.000100   0.000001   0.000019
    21  H   -0.000229  -0.001688  -0.000070  -0.000233   0.000004  -0.000467
    22  Cl  -0.036107   0.001324   0.000987   0.005876   0.000398  -0.000477
    23  C    0.006477  -0.017792  -0.030429  -0.000877  -0.006687   0.036654
    24  H   -0.000119   0.000091   0.000319   0.000001  -0.000005   0.016896
    25  C   -0.004034   0.000653   0.000700   0.000100  -0.000170   0.004853
    26  H    0.000050   0.000001   0.000001   0.000000   0.000000   0.000401
    27  H    0.000002   0.000002  -0.000001   0.000000   0.000000   0.000292
    28  Cl   0.001308   0.000051   0.000812   0.000006  -0.000001   0.004389
             13         14         15         16         17         18
     1  C    0.014503   0.011277   0.015740  -0.003438  -0.007008   0.093015
     2  C    0.367419  -0.728043  -0.080427   0.033424   0.017680  -0.510401
     3  C   -0.016847   0.007440  -0.004404  -0.050810   0.053146  -0.139633
     4  C   -0.046244  -0.328951  -0.055170  -0.074033  -0.132885  -0.148229
     5  C    0.045874  -0.186054  -0.027856   0.023159  -0.005533  -0.180671
     6  C   -0.067026   0.053646   0.013958  -0.008863   0.005816  -0.050205
     7  H    0.004446   0.000968   0.003745   0.000064  -0.000051  -0.016610
     8  H    0.006628   0.003337   0.000000   0.000002  -0.000002  -0.026460
     9  H    0.005214   0.002134   0.000011   0.000000   0.000001  -0.010945
    10  H   -0.017571   0.034268   0.003941   0.000087  -0.000545  -0.015983
    11  H   -0.011101   0.001479  -0.000003   0.000001  -0.000002   0.005238
    12  Cl  -0.001102  -0.000833   0.000063  -0.000010   0.000005  -0.010161
    13  Br  35.041594  -0.118888  -0.000877   0.000079   0.006094  -0.103914
    14  C   -0.118888   6.401308   0.474640   0.438428   0.440745  -0.252879
    15  H   -0.000877   0.474640   0.520113  -0.023746  -0.025183   0.005389
    16  H    0.000079   0.438428  -0.023746   0.494860  -0.022782  -0.016050
    17  H    0.006094   0.440745  -0.025183  -0.022782   0.499551  -0.014645
    18  C   -0.103914  -0.252879   0.005389  -0.016050  -0.014645   6.607707
    19  H    0.002053  -0.023299   0.000015  -0.000098   0.001798   0.492355
    20  H   -0.001561  -0.036508   0.000039   0.002707   0.000086   0.474949
    21  H    0.001814   0.012746  -0.000159   0.000085   0.000039   0.419411
    22  Cl  -0.009154   0.022480   0.013608   0.011558  -0.004799   0.025759
    23  C    0.018325   0.191059  -0.008496   0.003125   0.001012  -0.047903
    24  H   -0.000191   0.001013   0.000000   0.000000   0.000000   0.001113
    25  C   -0.001263  -0.013040  -0.000358   0.000418  -0.000120   0.031098
    26  H   -0.000179   0.003795   0.000001  -0.000001   0.000000   0.008190
    27  H    0.000012  -0.001404   0.000000   0.000000   0.000000   0.001407
    28  Cl   0.000252  -0.000819   0.000003  -0.000003   0.000002  -0.007590
             19         20         21         22         23         24
     1  C   -0.004064  -0.005387  -0.006177   0.029001  -1.069067  -0.065024
     2  C   -0.015531   0.025695   0.034929  -0.001910  -1.173171  -0.013271
     3  C    0.031774   0.066750  -0.075323  -0.220487  -2.701701   0.047167
     4  C   -0.112325  -0.140980  -0.068782   0.086986   0.445809  -0.000205
     5  C   -0.007895  -0.012343  -0.013448   0.331734  -7.752218   0.151962
     6  C   -0.004670   0.008924  -0.033787  -0.069800   0.785915   0.011030
     7  H   -0.000110  -0.000061  -0.000229  -0.036107   0.006477  -0.000119
     8  H    0.000195  -0.000035  -0.001688   0.001324  -0.017792   0.000091
     9  H    0.000002   0.000000  -0.000070   0.000987  -0.030429   0.000319
    10  H    0.000014  -0.000100  -0.000233   0.005876  -0.000877   0.000001
    11  H    0.000004   0.000001   0.000004   0.000398  -0.006687  -0.000005
    12  Cl  -0.000096   0.000019  -0.000467  -0.000477   0.036654   0.016896
    13  Br   0.002053  -0.001561   0.001814  -0.009154   0.018325  -0.000191
    14  C   -0.023299  -0.036508   0.012746   0.022480   0.191059   0.001013
    15  H    0.000015   0.000039  -0.000159   0.013608  -0.008496   0.000000
    16  H   -0.000098   0.002707   0.000085   0.011558   0.003125   0.000000
    17  H    0.001798   0.000086   0.000039  -0.004799   0.001012   0.000000
    18  C    0.492355   0.474949   0.419411   0.025759  -0.047903   0.001113
    19  H    0.497356  -0.021988  -0.022936  -0.000741  -0.000729   0.000000
    20  H   -0.021988   0.500327  -0.024009   0.000388  -0.014956   0.000008
    21  H   -0.022936  -0.024009   0.514381  -0.005559   0.075324   0.000042
    22  Cl  -0.000741   0.000388  -0.005559  17.191203  -0.241575   0.000830
    23  C   -0.000729  -0.014956   0.075324  -0.241575  17.866718   0.214659
    24  H    0.000000   0.000008   0.000042   0.000830   0.214659   0.508791
    25  C   -0.000828  -0.009637   0.013407  -0.163596   0.371426  -0.079619
    26  H    0.000004   0.000079  -0.000031   0.002310  -0.169493   0.003715
    27  H    0.000001   0.000003   0.000019   0.009374  -0.108399  -0.003969
    28  Cl  -0.000048   0.000446  -0.000230   0.021747  -0.488301   0.021029
             25         26         27         28
     1  C    0.144201  -0.006438   0.005410   0.030601
     2  C   -0.052185  -0.004083   0.001692   0.000769
     3  C   -0.758580   0.071944  -0.036956  -0.064077
     4  C    0.199557  -0.026346   0.000826   0.027853
     5  C   -0.806007   0.100328   0.053394   0.367130
     6  C    0.045274   0.000874   0.000054   0.002562
     7  H   -0.004034   0.000050   0.000002   0.001308
     8  H    0.000653   0.000001   0.000002   0.000051
     9  H    0.000700   0.000001  -0.000001   0.000812
    10  H    0.000100   0.000000   0.000000   0.000006
    11  H   -0.000170   0.000000   0.000000  -0.000001
    12  Cl   0.004853   0.000401   0.000292   0.004389
    13  Br  -0.001263  -0.000179   0.000012   0.000252
    14  C   -0.013040   0.003795  -0.001404  -0.000819
    15  H   -0.000358   0.000001   0.000000   0.000003
    16  H    0.000418  -0.000001   0.000000  -0.000003
    17  H   -0.000120   0.000000   0.000000   0.000002
    18  C    0.031098   0.008190   0.001407  -0.007590
    19  H   -0.000828   0.000004   0.000001  -0.000048
    20  H   -0.009637   0.000079   0.000003   0.000446
    21  H    0.013407  -0.000031   0.000019  -0.000230
    22  Cl  -0.163596   0.002310   0.009374   0.021747
    23  C    0.371426  -0.169493  -0.108399  -0.488301
    24  H   -0.079619   0.003715  -0.003969   0.021029
    25  C    6.720065   0.344526   0.424596   0.188672
    26  H    0.344526   0.497358  -0.025681  -0.019521
    27  H    0.424596  -0.025681   0.491926  -0.049316
    28  Cl   0.188672  -0.019521  -0.049316  17.085870
 Mulliken atomic charges:
              1
     1  C   -0.490302
     2  C   -0.422914
     3  C   -0.079616
     4  C    0.112726
     5  C    0.348910
     6  C   -0.364512
     7  H    0.238523
     8  H    0.221536
     9  H    0.244919
    10  H    0.224991
    11  H    0.213905
    12  Cl   0.052056
    13  Br  -0.118390
    14  C   -0.410045
    15  H    0.175412
    16  H    0.191834
    17  H    0.187583
    18  C   -0.613351
    19  H    0.189789
    20  H    0.187144
    21  H    0.180925
    22  Cl  -0.001357
    23  C   -0.184709
    24  H    0.183737
    25  C   -0.600109
    26  H    0.218196
    27  H    0.236715
    28  Cl  -0.123596
 Sum of Mulliken atomic charges =   0.00000
 Mulliken charges with hydrogens summed into heavy atoms:
              1
     1  C   -0.245383
     2  C   -0.197923
     3  C    0.158907
     4  C    0.112726
     5  C    0.348910
     6  C    0.070929
    12  Cl   0.052056
    13  Br  -0.118390
    14  C    0.144784
    18  C   -0.055493
    22  Cl  -0.001357
    23  C   -0.000972
    25  C   -0.145198
    28  Cl  -0.123596
 Sum of Mulliken charges with hydrogens summed into heavy atoms =   0.00000
 Electronic spatial extent (au):  <R**2>=           5925.0823
 Charge=              0.0000 electrons
 Dipole moment (field-independent basis, Debye):
    X=              3.0272    Y=             -0.6610    Z=             -0.1911  Tot=              3.1044
 Quadrupole moment (field-independent basis, Debye-Ang):
   XX=           -144.4983   YY=           -125.0295   ZZ=           -113.0266
   XY=             -1.0848   XZ=             -6.0692   YZ=             -1.6737
 Traceless Quadrupole moment (field-independent basis, Debye-Ang):
   XX=            -16.9802   YY=              2.4887   ZZ=             14.4915
   XY=             -1.0848   XZ=             -6.0692   YZ=             -1.6737
 Octapole moment (field-independent basis, Debye-Ang**2):
  XXX=            157.6650  YYY=            -13.5208  ZZZ=              7.5538  XYY=             39.5228
  XXY=              4.0348  XXZ=              7.0929  XZZ=             28.1055  YZZ=              3.1522
  YYZ=             11.2302  XYZ=             -0.4860
 Hexadecapole moment (field-independent basis, Debye-Ang**3):
 XXXX=          -5073.8466 YYYY=          -2055.9101 ZZZZ=           -520.2169 XXXY=            -14.6755
 XXXZ=             92.2382 YYYX=             26.9535 YYYZ=              7.7199 ZZZX=             18.4393
 ZZZY=             -1.5200 XXYY=          -1097.2573 XXZZ=           -836.8105 YYZZ=           -433.8819
 XXYZ=             -1.2912 YYXZ=             -1.3171 ZZXY=              3.8059
 N-N= 1.679860741415D+03 E-N=-1.367300500672D+04  KE= 4.317871437856D+03
 1\1\GINC-COMPUTE-6-34\SP\RmPW1PW91\6-31+G(d,p)\C10H14Br1Cl3\LPASSAGLIA
 .IQUIR\20-May-2022\0\\# mPW1PW91/6-31+G** scrf=(PCM,solvent=chloroform
 ) nmr\\comment\\0,1\C,0,-0.247585,1.612001,-0.779098\C,0,1.779566,0.15
 2391,-0.460376\C,0,-0.445482,-0.821339,-0.824313\C,0,0.92792,-1.104057
 ,-0.113406\C,0,-1.120434,0.446655,-0.318137\C,0,1.143391,1.503644,-0.1
 27702\H,0,-0.229457,-0.670661,-1.887799\H,0,1.039678,1.624731,0.954512
 \H,0,-0.148604,1.582986,-1.86944\H,0,2.035601,0.117069,-1.522771\H,0,1
 .78802,2.309387,-0.488528\Cl,0,-0.919402,3.267865,-0.44692\Br,0,3.5714
 38,0.100175,0.419397\C,0,1.600245,-2.345329,-0.72826\H,0,1.63948,-2.27
 6716,-1.82253\H,0,1.057481,-3.256163,-0.467171\H,0,2.62505,-2.433324,-
 0.357573\C,0,0.742515,-1.298858,1.399865\H,0,1.706959,-1.49569,1.87446
 5\H,0,0.087137,-2.154839,1.588069\H,0,0.300596,-0.421458,1.880695\Cl,0
 ,-1.511175,-2.302964,-0.866989\C,0,-2.195927,0.633167,0.45952\H,0,-2.4
 66092,1.66649,0.657934\C,0,-3.098753,-0.344612,1.137223\H,0,-2.808882,
 -1.383855,1.036117\H,0,-3.189625,-0.089061,2.195629\Cl,0,-4.801799,-0.
 213547,0.471414\\Version=EM64L-G09RevC.01\State=1-A\HF=-4341.9421458\R
 MSD=4.725e-09\Dipole=1.1909802,-0.2600387,-0.0752\Quadrupole=-12.62436
 58,1.8502663,10.7740995,-0.8064938,-4.512279,-1.2443357\PG=C01 [X(C10H
 14Br1Cl3)]\\@


 STEINBACH'S GUIDELINES FOR SYSTEMS PROGRAMMING:
 NEVER TEST FOR AN ERROR CONDITION YOU DON'T KNOW HOW
 TO HANDLE.
 Job cpu time:  0 days  0 hours 15 minutes 32.5 seconds.
 File lengths (MBytes):  RWF=    152 Int=      0 D2E=      0 Chk=      9 Scr=      1
 Normal termination of Gaussian 09 at Fri May 20 18:37:11 2022.
