 Entering Gaussian System, Link 0=g09
 Input=/home/lpassaglia.iquir/NMR_Tetrahalogenados/03_SRSE_Tetrahalogenado_003.gjc
 Output=/home/lpassaglia.iquir/NMR_Tetrahalogenados/03_SRSE_Tetrahalogenado_003.log
 Initial command:
 /share/apps/Gaussian09/EM64T.SSE4.2-enabled/g09/l1.exe /tmp/Gau-12536.inp -scrdir=/tmp/
 Entering Link 1 = /share/apps/Gaussian09/EM64T.SSE4.2-enabled/g09/l1.exe PID=     12537.
  
 Copyright (c) 1988,1990,1992,1993,1995,1998,2003,2009,2011,
            Gaussian, Inc.  All Rights Reserved.
  
 This is part of the Gaussian(R) 09 program.  It is based on
 the Gaussian(R) 03 system (copyright 2003, Gaussian, Inc.),
 the Gaussian(R) 98 system (copyright 1998, Gaussian, Inc.),
 the Gaussian(R) 94 system (copyright 1995, Gaussian, Inc.),
 the Gaussian 92(TM) system (copyright 1992, Gaussian, Inc.),
 the Gaussian 90(TM) system (copyright 1990, Gaussian, Inc.),
 the Gaussian 88(TM) system (copyright 1988, Gaussian, Inc.),
 the Gaussian 86(TM) system (copyright 1986, Carnegie Mellon
 University), and the Gaussian 82(TM) system (copyright 1983,
 Carnegie Mellon University). Gaussian is a federally registered
 trademark of Gaussian, Inc.
  
 This software contains proprietary and confidential information,
 including trade secrets, belonging to Gaussian, Inc.
  
 This software is provided under written license and may be
 used, copied, transmitted, or stored only in accord with that
 written license.
  
 The following legend is applicable only to US Government
 contracts under FAR:
  
                    RESTRICTED RIGHTS LEGEND
  
 Use, reproduction and disclosure by the US Government is
 subject to restrictions as set forth in subparagraphs (a)
 and (c) of the Commercial Computer Software - Restricted
 Rights clause in FAR 52.227-19.
  
 Gaussian, Inc.
 340 Quinnipiac St., Bldg. 40, Wallingford CT 06492
  
  
 ---------------------------------------------------------------
 Warning -- This program may not be used in any manner that
 competes with the business of Gaussian, Inc. or will provide
 assistance to any competitor of Gaussian, Inc.  The licensee
 of this program is prohibited from giving any competitor of
 Gaussian, Inc. access to this program.  By using this program,
 the user acknowledges that Gaussian, Inc. is engaged in the
 business of creating and licensing software in the field of
 computational chemistry and represents and warrants to the
 licensee that it is not a competitor of Gaussian, Inc. and that
 it will not use this program in any manner prohibited above.
 ---------------------------------------------------------------
  

 Cite this work as:
 Gaussian 09, Revision C.01,
 M. J. Frisch, G. W. Trucks, H. B. Schlegel, G. E. Scuseria, 
 M. A. Robb, J. R. Cheeseman, G. Scalmani, V. Barone, B. Mennucci, 
 G. A. Petersson, H. Nakatsuji, M. Caricato, X. Li, H. P. Hratchian, 
 A. F. Izmaylov, J. Bloino, G. Zheng, J. L. Sonnenberg, M. Hada, 
 M. Ehara, K. Toyota, R. Fukuda, J. Hasegawa, M. Ishida, T. Nakajima, 
 Y. Honda, O. Kitao, H. Nakai, T. Vreven, J. A. Montgomery, Jr., 
 J. E. Peralta, F. Ogliaro, M. Bearpark, J. J. Heyd, E. Brothers, 
 K. N. Kudin, V. N. Staroverov, T. Keith, R. Kobayashi, J. Normand, 
 K. Raghavachari, A. Rendell, J. C. Burant, S. S. Iyengar, J. Tomasi, 
 M. Cossi, N. Rega, J. M. Millam, M. Klene, J. E. Knox, J. B. Cross, 
 V. Bakken, C. Adamo, J. Jaramillo, R. Gomperts, R. E. Stratmann, 
 O. Yazyev, A. J. Austin, R. Cammi, C. Pomelli, J. W. Ochterski, 
 R. L. Martin, K. Morokuma, V. G. Zakrzewski, G. A. Voth, 
 P. Salvador, J. J. Dannenberg, S. Dapprich, A. D. Daniels, 
 O. Farkas, J. B. Foresman, J. V. Ortiz, J. Cioslowski, 
 and D. J. Fox, Gaussian, Inc., Wallingford CT, 2010.
 
 ******************************************
 Gaussian 09:  EM64L-G09RevC.01 23-Sep-2011
                20-May-2022 
 ******************************************
 %nprocshared=4
 Will use up to    4 processors via shared memory.
 -----------------------------------------------------
 # mPW1PW91/6-31+G** scrf=(PCM,solvent=chloroform) nmr
 -----------------------------------------------------
 1/38=1/1;
 2/12=2,17=6,18=5,40=1/2;
 3/5=1,6=6,7=111,11=2,16=1,25=1,30=1,70=2201,72=7,74=-7/1,2,8,3;
 4//1;
 5/5=2,38=5,53=7/2;
 8/6=1,10=90,11=11/1;
 10/13=100,45=16/2;
 6/7=2,8=2,9=2,10=2,28=1/1;
 99/9=1/99;
 -------
 comment
 -------
 Charge =  0 Multiplicity = 1
 Symbolic Z-Matrix:
 6                    -0.28201   1.57254  -1.08877 
 6                     1.71435   0.19881  -0.40502 
 6                    -0.36078  -0.86561  -1.16763 
 6                     0.87168  -1.09871  -0.21977 
 6                    -1.16823   0.36719  -0.78584 
 6                     0.96825   1.51796  -0.1915 
 1                     0.03519  -0.69948  -2.17559 
 1                     0.65938   1.6217    0.8527 
 1                     0.01712   1.55412  -2.14214 
 1                     2.15998   0.18473  -1.40338 
 1                     1.63204   2.35452  -0.42507 
 17                   -1.07759   3.19395  -0.88882 
 35                    3.31855   0.21759   0.78357 
 6                     1.70077  -2.30099  -0.70703 
 1                     1.94415  -2.21302  -1.7733 
 1                     1.15957  -3.23808  -0.56014 
 1                     2.63936  -2.35168  -0.14887 
 6                     0.42367  -1.31922   1.23351 
 1                     1.29655  -1.45213   1.87748 
 1                    -0.19136  -2.22168   1.30141 
 1                    -0.1631   -0.48256   1.62278 
 17                   -1.34589  -2.38836  -1.40262 
 6                    -2.36841   0.49465  -0.20596 
 1                    -2.7202    1.51061  -0.05095 
 6                    -3.33326  -0.53716   0.28897 
 1                    -4.25822  -0.52737  -0.29323 
 1                    -2.94225  -1.54646   0.32995 
 17                   -3.83615  -0.11651   2.00071 
 
                          Input orientation:                          
 ---------------------------------------------------------------------
 Center     Atomic      Atomic             Coordinates (Angstroms)
 Number     Number       Type             X           Y           Z
 ---------------------------------------------------------------------
      1          6           0       -0.282005    1.572540   -1.088772
      2          6           0        1.714349    0.198808   -0.405018
      3          6           0       -0.360783   -0.865610   -1.167627
      4          6           0        0.871682   -1.098709   -0.219765
      5          6           0       -1.168232    0.367185   -0.785843
      6          6           0        0.968250    1.517963   -0.191495
      7          1           0        0.035190   -0.699481   -2.175595
      8          1           0        0.659384    1.621698    0.852695
      9          1           0        0.017121    1.554119   -2.142139
     10          1           0        2.159977    0.184727   -1.403376
     11          1           0        1.632040    2.354521   -0.425066
     12         17           0       -1.077590    3.193945   -0.888822
     13         35           0        3.318552    0.217592    0.783570
     14          6           0        1.700767   -2.300987   -0.707027
     15          1           0        1.944146   -2.213018   -1.773297
     16          1           0        1.159566   -3.238079   -0.560142
     17          1           0        2.639355   -2.351682   -0.148869
     18          6           0        0.423671   -1.319222    1.233513
     19          1           0        1.296550   -1.452128    1.877475
     20          1           0       -0.191362   -2.221683    1.301412
     21          1           0       -0.163104   -0.482564    1.622784
     22         17           0       -1.345894   -2.388357   -1.402615
     23          6           0       -2.368410    0.494654   -0.205964
     24          1           0       -2.720201    1.510610   -0.050952
     25          6           0       -3.333259   -0.537156    0.288966
     26          1           0       -4.258223   -0.527365   -0.293234
     27          1           0       -2.942245   -1.546455    0.329948
     28         17           0       -3.836145   -0.116513    2.000708
 ---------------------------------------------------------------------
                    Distance matrix (angstroms):
                    1          2          3          4          5
     1  C    0.000000
     2  C    2.517953   0.000000
     3  C    2.440697   2.453718   0.000000
     4  C    3.036731   1.558190   1.572179   0.000000
     5  C    1.526448   2.912499   1.522339   2.574983   0.000000
     6  C    1.539877   1.530499   2.898376   2.618606   2.498418
     7  H    2.538479   2.600277   1.095624   2.164341   2.125420
     8  H    2.158222   2.172420   3.362907   2.931869   2.756590
     9  H    1.095170   2.781194   2.635825   3.385748   2.157177
    10  H    2.826354   1.093390   2.740988   2.169757   3.389928
    11  H    2.171536   2.157377   3.859013   3.541905   3.452707
    12  Cl   1.817110   4.123086   4.131771   4.761741   2.830087
    13  Br   4.278500   1.996638   4.303255   2.954065   4.755698
    14  C    4.368218   2.518009   2.553908   1.539571   3.918738
    15  H    4.444634   2.782427   2.737707   2.192105   4.161659
    16  H    5.049716   3.484830   2.882552   2.185323   4.297384
    17  H    4.981695   2.725114   3.499587   2.167864   4.721831
    18  C    3.775351   2.579738   2.566438   1.536671   3.075048
    19  H    4.520959   2.847792   3.516163   2.168832   4.059349
    20  H    4.485234   3.521706   2.822019   2.169127   3.465999
    21  H    3.404427   2.846239   2.823508   2.201228   2.744784
    22  Cl   4.113279   4.129614   1.828776   2.824884   2.829308
    23  C    2.508839   4.098301   2.608770   3.610705   1.339005
    24  H    2.650605   4.638041   3.529906   4.442822   2.063030
    25  C    3.957162   5.147971   3.326433   4.272666   2.580773
    26  H    4.566486   6.017594   4.008617   5.162147   3.254371
    27  H    4.337946   5.026926   3.061083   3.879265   2.837980
    28  Cl   5.002969   6.057634   4.762104   5.297060   3.888006
                    6          7          8          9         10
     6  C    0.000000
     7  H    3.118383   0.000000
     8  H    1.093843   3.866268   0.000000
     9  H    2.170476   2.253921   3.063674   0.000000
    10  H    2.160182   2.427523   3.067005   2.648176   0.000000
    11  H    1.093161   3.865386   1.765152   2.489367   2.437994
    12  Cl   2.735076   4.248862   2.919233   2.336284   4.449944
    13  Br   2.857558   4.514216   3.007901   4.609287   2.475098
    14  C    3.922593   2.737820   4.347950   4.444778   2.621936
    15  H    4.168296   2.469160   4.821980   4.247445   2.435694
    16  H    4.774143   3.212225   5.085639   5.174269   3.664351
    17  H    4.215277   3.690401   4.550952   5.109258   2.870011
    18  C    3.221309   3.486691   2.974827   4.451561   3.497114
    19  H    3.634537   4.311019   3.302205   5.179938   3.766800
    20  H    4.190277   3.802368   3.961905   5.114508   4.316883
    21  H    2.928084   3.809732   2.386932   4.284297   3.872935
    22  Cl   4.699086   2.314561   5.018775   4.236487   4.348781
    23  C    3.490082   3.329069   3.399783   3.249923   4.694267
    24  H    3.691135   4.121989   3.500073   3.444980   5.234802
    25  C    4.791381   4.176944   4.573799   4.637753   5.793167
    26  H    5.613353   4.691088   5.487667   5.101920   6.552311
    27  H    4.995451   3.982490   4.825162   4.947992   5.659865
    28  Cl   5.528063   5.724386   4.954704   5.899309   6.901595
                   11         12         13         14         15
    11  H    0.000000
    12  Cl   2.874334   0.000000
    13  Br   2.978521   5.566115   0.000000
    14  C    4.664545   6.160081   3.344002   0.000000
    15  H    4.772583   6.256871   3.786083   1.097225   0.000000
    16  H    5.614147   6.817905   4.290506   1.092069   1.771457
    17  H    4.820717   6.716933   2.816366   1.093187   1.772374
    18  C    4.208019   5.208336   3.308260   2.522010   3.485918
    19  H    4.461482   5.905500   2.841317   2.750201   3.785032
    20  H    5.219882   5.908600   4.305545   2.760483   3.743568
    21  H    3.932592   4.545456   3.649168   3.494095   4.355266
    22  Cl   5.684944   5.612314   5.772992   3.126279   3.315496
    23  C    4.417093   3.068987   5.779055   4.962346   5.327866
    24  H    4.449062   2.496761   6.231762   5.873982   6.211925
    25  C    5.790150   4.516231   6.712739   5.426280   5.908675
    26  H    6.558799   4.931460   7.689082   6.231093   6.595559
    27  H    6.059022   5.237722   6.520369   4.816866   5.361414
    28  Cl   6.472359   5.188270   7.265173   6.539201   7.214583
                   16         17         18         19         20
    16  H    0.000000
    17  H    1.773308   0.000000
    18  C    2.727774   2.808240   0.000000
    19  H    3.024957   2.591986   1.092826   0.000000
    20  H    2.514647   3.183265   1.094217   1.771425   0.000000
    21  H    3.755993   3.806065   1.093542   1.770738   1.768789
    22  Cl   2.776530   4.177970   3.350161   4.314861   2.944909
    23  C    5.148335   5.760434   3.627390   4.643556   3.793443
    24  H    6.153204   6.606945   4.420603   5.350788   4.706796
    25  C    5.310503   6.257501   3.952002   4.979525   3.705967
    26  H    6.063963   7.136214   4.987798   6.035119   4.685399
    27  H    4.525340   5.659674   3.492486   4.513438   2.994500
    28  Cl   6.423337   7.179747   4.492341   5.305055   4.266755
                   21         22         23         24         25
    21  H    0.000000
    22  Cl   3.766176   0.000000
    23  C    3.026987   3.284702   0.000000
    24  H    3.648682   4.349443   1.086256   0.000000
    25  C    3.439758   3.199689   1.496837   2.164424   0.000000
    26  H    4.521408   3.629832   2.150240   2.564674   1.092983
    27  H    3.244521   2.501781   2.186919   3.088695   1.083169
    28  Cl   3.710532   4.790118   2.719774   2.846431   1.833002
                   26         27         28
    26  H    0.000000
    27  H    1.777273   0.000000
    28  Cl   2.368358   2.373864   0.000000
 Stoichiometry    C10H14BrCl3
 Framework group  C1[X(C10H14BrCl3)]
 Deg. of freedom    78
 Full point group                 C1      NOp   1
 Largest Abelian subgroup         C1      NOp   1
 Largest concise Abelian subgroup C1      NOp   1
                         Standard orientation:                         
 ---------------------------------------------------------------------
 Center     Atomic      Atomic             Coordinates (Angstroms)
 Number     Number       Type             X           Y           Z
 ---------------------------------------------------------------------
      1          6           0       -0.282005    1.572540   -1.088772
      2          6           0        1.714349    0.198808   -0.405018
      3          6           0       -0.360783   -0.865610   -1.167627
      4          6           0        0.871682   -1.098709   -0.219765
      5          6           0       -1.168232    0.367185   -0.785843
      6          6           0        0.968250    1.517963   -0.191495
      7          1           0        0.035190   -0.699481   -2.175595
      8          1           0        0.659384    1.621698    0.852695
      9          1           0        0.017121    1.554119   -2.142139
     10          1           0        2.159977    0.184727   -1.403376
     11          1           0        1.632040    2.354521   -0.425066
     12         17           0       -1.077590    3.193945   -0.888822
     13         35           0        3.318552    0.217592    0.783570
     14          6           0        1.700767   -2.300987   -0.707027
     15          1           0        1.944146   -2.213018   -1.773297
     16          1           0        1.159566   -3.238079   -0.560142
     17          1           0        2.639355   -2.351682   -0.148869
     18          6           0        0.423671   -1.319222    1.233513
     19          1           0        1.296550   -1.452128    1.877475
     20          1           0       -0.191362   -2.221683    1.301412
     21          1           0       -0.163104   -0.482564    1.622784
     22         17           0       -1.345894   -2.388357   -1.402615
     23          6           0       -2.368410    0.494654   -0.205964
     24          1           0       -2.720201    1.510610   -0.050952
     25          6           0       -3.333259   -0.537156    0.288966
     26          1           0       -4.258223   -0.527365   -0.293234
     27          1           0       -2.942245   -1.546455    0.329948
     28         17           0       -3.836145   -0.116513    2.000708
 ---------------------------------------------------------------------
 Rotational constants (GHZ):      0.4382821      0.2266556      0.1919284
 Standard basis: 6-31+G(d,p) (6D, 7F)
 There are   363 symmetry adapted basis functions of A   symmetry.
 Integral buffers will be    131072 words long.
 Raffenetti 2 integral format.
 Two-electron integral symmetry is turned on.
   363 basis functions,   673 primitive gaussians,   363 cartesian basis functions
    80 alpha electrons       80 beta electrons
       nuclear repulsion energy      1688.2849950292 Hartrees.
 NAtoms=   28 NActive=   28 NUniq=   28 SFac= 1.00D+00 NAtFMM=   60 NAOKFM=F Big=F
 ------------------------------------------------------------------------------
 Polarizable Continuum Model (PCM)
 =================================
 Model                : PCM.
 Atomic radii         : UFF (Universal Force Field).
 Polarization charges : Total charges.
 Charge compensation  : None.
 Solution method      : Matrix inversion.
 Cavity type          : Scaled VdW (van der Waals Surface) (Alpha=1.100).
 Cavity algorithm     : GePol (No added spheres)
                        Default sphere list used, NSphG=   28.
                        Lebedev-Laikov grids with approx.  5.0 points / Ang**2.
                        Smoothing algorithm: Karplus/York (Gamma=1.0000).
                        Polarization charges: spherical gaussians, with
                                              point-specific exponents (IZeta= 3).
                        Self-potential: point-specific (ISelfS= 7).
                        Self-field    : sphere-specific E.n sum rule (ISelfD= 2).
 Solvent              : Chloroform, Eps=   4.711300 Eps(inf)=   2.090627
 ------------------------------------------------------------------------------
 One-electron integrals computed using PRISM.
 NBasis=   363 RedAO= T  NBF=   363
 NBsUse=   363 1.00D-06 NBFU=   363
 Harris functional with IExCor=  908 diagonalized for initial guess.
 ExpMin= 3.50D-02 ExpMax= 5.74D+05 ExpMxC= 5.74D+03 IAcc=3 IRadAn=         5 AccDes= 0.00D+00
 HarFok:  IExCor=  908 AccDes= 0.00D+00 IRadAn=         5 IDoV= 1
 ScaDFX=  1.000000  1.000000  1.000000  1.000000
 FoFCou: FMM=F IPFlag=           0 FMFlag=      100000 FMFlg1=           0
         NFxFlg=           0 DoJE=T BraDBF=F KetDBF=T FulRan=T
         Omega=  0.000000  0.000000  1.000000  0.000000  0.000000 ICntrl=     500 IOpCl=  0
         NMat0=    1 NMatS0=    1 NMatT0=    0 NMatD0=    1 NMtDS0=    0 NMtDT0=    0
         I1Cent=           4 NGrid=           0.
 Petite list used in FoFCou.
 Initial guess orbital symmetries:
       Occupied  (A) (A) (A) (A) (A) (A) (A) (A) (A) (A) (A) (A)
                 (A) (A) (A) (A) (A) (A) (A) (A) (A) (A) (A) (A)
                 (A) (A) (A) (A) (A) (A) (A) (A) (A) (A) (A) (A)
                 (A) (A) (A) (A) (A) (A) (A) (A) (A) (A) (A) (A)
                 (A) (A) (A) (A) (A) (A) (A) (A) (A) (A) (A) (A)
                 (A) (A) (A) (A) (A) (A) (A) (A) (A) (A) (A) (A)
                 (A) (A) (A) (A) (A) (A) (A) (A)
       Virtual   (A) (A) (A) (A) (A) (A) (A) (A) (A) (A) (A) (A)
                 (A) (A) (A) (A) (A) (A) (A) (A) (A) (A) (A) (A)
                 (A) (A) (A) (A) (A) (A) (A) (A) (A) (A) (A) (A)
                 (A) (A) (A) (A) (A) (A) (A) (A) (A) (A) (A) (A)
                 (A) (A) (A) (A) (A) (A) (A) (A) (A) (A) (A) (A)
                 (A) (A) (A) (A) (A) (A) (A) (A) (A) (A) (A) (A)
                 (A) (A) (A) (A) (A) (A) (A) (A) (A) (A) (A) (A)
                 (A) (A) (A) (A) (A) (A) (A) (A) (A) (A) (A) (A)
                 (A) (A) (A) (A) (A) (A) (A) (A) (A) (A) (A) (A)
                 (A) (A) (A) (A) (A) (A) (A) (A) (A) (A) (A) (A)
                 (A) (A) (A) (A) (A) (A) (A) (A) (A) (A) (A) (A)
                 (A) (A) (A) (A) (A) (A) (A) (A) (A) (A) (A) (A)
                 (A) (A) (A) (A) (A) (A) (A) (A) (A) (A) (A) (A)
                 (A) (A) (A) (A) (A) (A) (A) (A) (A) (A) (A) (A)
                 (A) (A) (A) (A) (A) (A) (A) (A) (A) (A) (A) (A)
                 (A) (A) (A) (A) (A) (A) (A) (A) (A) (A) (A) (A)
                 (A) (A) (A) (A) (A) (A) (A) (A) (A) (A) (A) (A)
                 (A) (A) (A) (A) (A) (A) (A) (A) (A) (A) (A) (A)
                 (A) (A) (A) (A) (A) (A) (A) (A) (A) (A) (A) (A)
                 (A) (A) (A) (A) (A) (A) (A) (A) (A) (A) (A) (A)
                 (A) (A) (A) (A) (A) (A) (A) (A) (A) (A) (A) (A)
                 (A) (A) (A) (A) (A) (A) (A) (A) (A) (A) (A) (A)
                 (A) (A) (A) (A) (A) (A) (A) (A) (A) (A) (A) (A)
                 (A) (A) (A) (A) (A) (A) (A)
 The electronic state of the initial guess is 1-A.
 Requested convergence on RMS density matrix=1.00D-08 within 128 cycles.
 Requested convergence on MAX density matrix=1.00D-06.
 Requested convergence on             energy=1.00D-06.
 No special actions if energy rises.
 Error on total polarization charges =  0.01655
 SCF Done:  E(RmPW1PW91) =  -4341.94182893     A.U. after   14 cycles
             Convg  =    0.4120D-08             -V/T =  2.0056
 Range of M.O.s used for correlation:     1   363
 NBasis=   363 NAE=    80 NBE=    80 NFC=     0 NFV=     0
 NROrb=    363 NOA=    80 NOB=    80 NVA=   283 NVB=   283

 **** Warning!!: The largest alpha MO coefficient is  0.16177897D+03

 NEqPCM:  Using equilibrium solvation (IEInf=0, Eps=   4.7113, EpsInf=   2.0906)
          Differentiating once with respect to magnetic field using GIAOs.
          Electric field/nuclear overlap derivatives assumed to be zero.
 FoFCou: FMM=F IPFlag=           0 FMFlag=    10101102 FMFlg1=           0
         NFxFlg=    40000000 DoJE=F BraDBF=F KetDBF=T FulRan=T
         Omega=  0.000000  0.000000  1.000000  0.000000  0.000000 ICntrl=    6100 IOpCl=  0
         NMat0=    1 NMatS0=    1 NMatT0=    0 NMatD0=    1 NMtDS0=    0 NMtDT0=    0
         I1Cent=           7 NGrid=        2079.
 Symmetry not used in FoFCou.
          There are     3 degrees of freedom in the 1st order CPHF.  IDoFFX=0.
      3 vectors produced by pass  0 Test12= 7.55D-13 3.33D-08 XBig12= 1.41D+02 2.91D+00.
 AX will form     3 AO Fock derivatives at one time.
      3 vectors produced by pass  1 Test12= 7.55D-13 3.33D-08 XBig12= 4.98D-01 2.29D-01.
      3 vectors produced by pass  2 Test12= 7.55D-13 3.33D-08 XBig12= 2.34D-03 1.86D-02.
      3 vectors produced by pass  3 Test12= 7.55D-13 3.33D-08 XBig12= 1.20D-05 1.00D-03.
      3 vectors produced by pass  4 Test12= 7.55D-13 3.33D-08 XBig12= 5.33D-08 4.43D-05.
      3 vectors produced by pass  5 Test12= 7.55D-13 3.33D-08 XBig12= 2.05D-10 3.11D-06.
      3 vectors produced by pass  6 Test12= 7.55D-13 3.33D-08 XBig12= 1.04D-12 2.35D-07.
 Inverted reduced A of dimension    21 with in-core refinement.
 Calculating GIAO nuclear magnetic shielding tensors.
 SCF GIAO Magnetic shielding tensor (ppm):
      1  C    Isotropic =   128.3161   Anisotropy =    48.6813
   XX=   132.9277   YX=    -6.7661   ZX=    -2.9649
   XY=   -14.4142   YY=   155.6090   ZY=     8.5461
   XZ=    -0.9776   YZ=     7.0160   ZZ=    96.4115
   Eigenvalues:    95.3958   128.7821   160.7703
      2  C    Isotropic =   124.4545   Anisotropy =    46.2058
   XX=   129.2496   YX=    11.2666   ZX=    33.5585
   XY=     6.5344   YY=   134.3438   ZY=    -7.8329
   XZ=    34.7669   YZ=    -8.9175   ZZ=   109.7699
   Eigenvalues:    81.2495   136.8556   155.2583
      3  C    Isotropic =   119.3966   Anisotropy =    30.0968
   XX=   128.7909   YX=    -3.5979   ZX=     8.7602
   XY=     9.4662   YY=   138.6392   ZY=    -5.0392
   XZ=    17.3568   YZ=    -3.5496   ZZ=    90.7597
   Eigenvalues:    86.2357   132.4930   139.4612
      4  C    Isotropic =   145.9486   Anisotropy =    28.5049
   XX=   155.1214   YX=     8.2763   ZX=    11.6870
   XY=     8.1023   YY=   143.9347   ZY=     3.6745
   XZ=    10.5076   YZ=     5.6602   ZZ=   138.7898
   Eigenvalues:   133.1487   139.7454   164.9519
      5  C    Isotropic =    60.7092   Anisotropy =   132.7189
   XX=    81.8285   YX=   -20.2673   ZX=    37.3431
   XY=    -2.3548   YY=   -22.9264   ZY=    -2.4108
   XZ=    46.1949   YZ=     9.9147   ZZ=   123.2255
   Eigenvalues:   -24.6382    57.5773   149.1884
      6  C    Isotropic =   148.5550   Anisotropy =    53.9454
   XX=   165.4992   YX=   -16.2607   ZX=    22.5760
   XY=   -21.3445   YY=   148.6662   ZY=     0.2350
   XZ=    22.7377   YZ=     2.1651   ZZ=   131.4997
   Eigenvalues:   116.8884   144.2580   184.5187
      7  H    Isotropic =    27.2102   Anisotropy =     5.9652
   XX=    25.1504   YX=     4.0592   ZX=    -0.2061
   XY=     3.5740   YY=    28.6542   ZY=    -0.7570
   XZ=    -0.6469   YZ=     0.0328   ZZ=    27.8261
   Eigenvalues:    22.6976    27.7461    31.1870
      8  H    Isotropic =    29.3703   Anisotropy =     4.2848
   XX=    29.7580   YX=    -2.3106   ZX=     1.6435
   XY=    -2.9173   YY=    29.4520   ZY=     1.8094
   XZ=     1.3337   YZ=     1.0775   ZZ=    28.9010
   Eigenvalues:    25.6615    30.2227    32.2269
      9  H    Isotropic =    27.2612   Anisotropy =     5.0337
   XX=    23.6997   YX=    -3.2901   ZX=    -1.2203
   XY=    -3.2246   YY=    28.8624   ZY=     0.0221
   XZ=    -2.0875   YZ=    -0.6401   ZZ=    29.2215
   Eigenvalues:    21.7701    29.3965    30.6170
     10  H    Isotropic =    27.3524   Anisotropy =     4.9979
   XX=    28.1322   YX=     0.5180   ZX=     1.0349
   XY=     0.8018   YY=    23.7534   ZY=    -0.8813
   XZ=     1.1369   YZ=    -0.8490   ZZ=    30.1718
   Eigenvalues:    23.4974    27.8755    30.6843
     11  H    Isotropic =    28.9992   Anisotropy =     6.1711
   XX=    31.9030   YX=     0.9230   ZX=     1.4317
   XY=     0.5701   YY=    32.5590   ZY=    -2.5091
   XZ=     2.4422   YZ=    -1.5557   ZZ=    22.5357
   Eigenvalues:    21.7282    32.1562    33.1133
     12  Cl   Isotropic =   814.7171   Anisotropy =   368.5881
   XX=   784.5818   YX=  -139.0574   ZX=    59.0510
   XY=  -134.7618   YY=   992.4530   ZY=    16.7954
   XZ=    50.1875   YZ=    29.4660   ZZ=   667.1167
   Eigenvalues:   627.6762   756.0327  1060.4426
     13  Br   Isotropic =  2356.7736   Anisotropy =  1147.6034
   XX=  2700.8454   YX=   -52.8854   ZX=   587.0849
   XY=   -20.3865   YY=  2044.1001   ZY=    31.4205
   XZ=   570.9401   YZ=    45.6790   ZZ=  2325.3753
   Eigenvalues:  1886.7524  2061.7259  3121.8425
     14  C    Isotropic =   168.1666   Anisotropy =    41.0648
   XX=   164.3614   YX=   -17.4036   ZX=   -12.6200
   XY=   -13.8134   YY=   176.4243   ZY=    11.5678
   XZ=   -12.9742   YZ=    10.2889   ZZ=   163.7142
   Eigenvalues:   150.4831   158.4736   195.5431
     15  H    Isotropic =    30.7857   Anisotropy =    10.4363
   XX=    29.8998   YX=    -1.3037   ZX=    -3.9135
   XY=    -1.9416   YY=    28.5329   ZY=     4.2459
   XZ=    -3.2440   YZ=     3.0823   ZZ=    33.9244
   Eigenvalues:    26.6617    27.9522    37.7432
     16  H    Isotropic =    30.0893   Anisotropy =     8.4234
   XX=    29.7222   YX=    -0.5850   ZX=     0.2630
   XY=     0.8698   YY=    35.6371   ZY=     0.6034
   XZ=     0.2629   YZ=     1.0517   ZZ=    24.9087
   Eigenvalues:    24.8323    29.7307    35.7050
     17  H    Isotropic =    29.8164   Anisotropy =     7.0978
   XX=    32.8450   YX=    -1.7290   ZX=     3.1466
   XY=    -2.6210   YY=    31.2702   ZY=     1.8182
   XZ=     2.4199   YZ=     2.2329   ZZ=    25.3340
   Eigenvalues:    23.5165    31.3844    34.5483
     18  C    Isotropic =   179.8907   Anisotropy =    24.6650
   XX=   176.7718   YX=    -1.2640   ZX=    -8.7902
   XY=    -2.2996   YY=   170.2435   ZY=    -2.1798
   XZ=    -8.1722   YZ=     0.7470   ZZ=   192.6569
   Eigenvalues:   169.2778   174.0603   196.3340
     19  H    Isotropic =    30.2357   Anisotropy =     7.6393
   XX=    32.1541   YX=     1.2616   ZX=     2.5662
   XY=     1.4890   YY=    26.2179   ZY=    -3.2450
   XZ=     3.1933   YZ=    -2.8528   ZZ=    32.3351
   Eigenvalues:    24.2046    31.1739    35.3285
     20  H    Isotropic =    30.3152   Anisotropy =     7.9654
   XX=    30.1760   YX=     3.7178   ZX=    -0.7476
   XY=     3.8116   YY=    31.0522   ZY=    -2.2504
   XZ=    -1.4769   YZ=    -2.9080   ZZ=    29.7175
   Eigenvalues:    26.4885    28.8317    35.6255
     21  H    Isotropic =    30.2895   Anisotropy =     8.1731
   XX=    31.4562   YX=    -3.5305   ZX=    -2.4189
   XY=    -2.6898   YY=    28.8557   ZY=     1.6026
   XZ=    -3.4155   YZ=     1.8459   ZZ=    30.5567
   Eigenvalues:    26.7692    28.3611    35.7383
     22  Cl   Isotropic =   820.6851   Anisotropy =   328.6248
   XX=   835.9998   YX=    99.1894   ZX=    72.4908
   XY=   125.3741   YY=   956.8905   ZY=    62.9285
   XZ=    29.7179   YZ=    54.1443   ZZ=   669.1650
   Eigenvalues:   651.8166   770.4704  1039.7683
     23  C    Isotropic =    70.1896   Anisotropy =   130.3430
   XX=    77.7324   YX=    -0.3544   ZX=    25.1895
   XY=    -2.3435   YY=   -15.4920   ZY=     7.5504
   XZ=    27.3984   YZ=    -1.1557   ZZ=   148.3285
   Eigenvalues:   -15.5932    69.0771   157.0850
     24  H    Isotropic =    25.3350   Anisotropy =    11.2161
   XX=    28.8240   YX=     2.6807   ZX=    -3.8614
   XY=     3.4683   YY=    25.1594   ZY=    -3.3877
   XZ=    -3.3228   YZ=    -3.7100   ZZ=    22.0215
   Eigenvalues:    19.4496    23.7429    32.8123
     25  C    Isotropic =   147.9691   Anisotropy =    50.3888
   XX=   130.1872   YX=    11.0858   ZX=   -14.4650
   XY=     8.7569   YY=   139.0592   ZY=    10.2984
   XZ=   -16.9716   YZ=    14.1999   ZZ=   174.6609
   Eigenvalues:   116.9175   145.4281   181.5616
     26  H    Isotropic =    27.2686   Anisotropy =     8.3338
   XX=    30.3932   YX=     1.1580   ZX=     1.4116
   XY=     1.7361   YY=    21.5794   ZY=     1.9917
   XZ=     2.9939   YZ=     1.8169   ZZ=    29.8331
   Eigenvalues:    21.0592    27.9221    32.8244
     27  H    Isotropic =    26.1371   Anisotropy =    14.5470
   XX=    26.1257   YX=    -2.2876   ZX=    -6.8288
   XY=    -4.0267   YY=    27.4925   ZY=     4.0223
   XZ=    -7.3395   YZ=     4.4808   ZZ=    24.7931
   Eigenvalues:    18.2040    24.3722    35.8351
     28  Cl   Isotropic =   847.3150   Anisotropy =   403.8024
   XX=   733.7234   YX=    24.0094   ZX=  -148.8699
   XY=    17.2951   YY=   753.3332   ZY=    80.0940
   XZ=  -138.4721   YZ=    41.0450   ZZ=  1054.8886
   Eigenvalues:   659.8405   765.5880  1116.5167
 End of Minotr Frequency-dependent properties file   721 does not exist.
 End of Minotr Frequency-dependent properties file   722 does not exist.

 **********************************************************************

            Population analysis using the SCF density.

 **********************************************************************

 Orbital symmetries:
       Occupied  (A) (A) (A) (A) (A) (A) (A) (A) (A) (A) (A) (A)
                 (A) (A) (A) (A) (A) (A) (A) (A) (A) (A) (A) (A)
                 (A) (A) (A) (A) (A) (A) (A) (A) (A) (A) (A) (A)
                 (A) (A) (A) (A) (A) (A) (A) (A) (A) (A) (A) (A)
                 (A) (A) (A) (A) (A) (A) (A) (A) (A) (A) (A) (A)
                 (A) (A) (A) (A) (A) (A) (A) (A) (A) (A) (A) (A)
                 (A) (A) (A) (A) (A) (A) (A) (A)
       Virtual   (A) (A) (A) (A) (A) (A) (A) (A) (A) (A) (A) (A)
                 (A) (A) (A) (A) (A) (A) (A) (A) (A) (A) (A) (A)
                 (A) (A) (A) (A) (A) (A) (A) (A) (A) (A) (A) (A)
                 (A) (A) (A) (A) (A) (A) (A) (A) (A) (A) (A) (A)
                 (A) (A) (A) (A) (A) (A) (A) (A) (A) (A) (A) (A)
                 (A) (A) (A) (A) (A) (A) (A) (A) (A) (A) (A) (A)
                 (A) (A) (A) (A) (A) (A) (A) (A) (A) (A) (A) (A)
                 (A) (A) (A) (A) (A) (A) (A) (A) (A) (A) (A) (A)
                 (A) (A) (A) (A) (A) (A) (A) (A) (A) (A) (A) (A)
                 (A) (A) (A) (A) (A) (A) (A) (A) (A) (A) (A) (A)
                 (A) (A) (A) (A) (A) (A) (A) (A) (A) (A) (A) (A)
                 (A) (A) (A) (A) (A) (A) (A) (A) (A) (A) (A) (A)
                 (A) (A) (A) (A) (A) (A) (A) (A) (A) (A) (A) (A)
                 (A) (A) (A) (A) (A) (A) (A) (A) (A) (A) (A) (A)
                 (A) (A) (A) (A) (A) (A) (A) (A) (A) (A) (A) (A)
                 (A) (A) (A) (A) (A) (A) (A) (A) (A) (A) (A) (A)
                 (A) (A) (A) (A) (A) (A) (A) (A) (A) (A) (A) (A)
                 (A) (A) (A) (A) (A) (A) (A) (A) (A) (A) (A) (A)
                 (A) (A) (A) (A) (A) (A) (A) (A) (A) (A) (A) (A)
                 (A) (A) (A) (A) (A) (A) (A) (A) (A) (A) (A) (A)
                 (A) (A) (A) (A) (A) (A) (A) (A) (A) (A) (A) (A)
                 (A) (A) (A) (A) (A) (A) (A) (A) (A) (A) (A) (A)
                 (A) (A) (A) (A) (A) (A) (A) (A) (A) (A) (A) (A)
                 (A) (A) (A) (A) (A) (A) (A)
 The electronic state is 1-A.
 Alpha  occ. eigenvalues -- -483.41892-101.77095-101.76939-101.75812 -62.05881
 Alpha  occ. eigenvalues --  -56.54452 -56.54112 -56.54089 -10.34612 -10.34321
 Alpha  occ. eigenvalues --  -10.33386 -10.31967 -10.30486 -10.30202 -10.28192
 Alpha  occ. eigenvalues --  -10.28133 -10.24791 -10.24589  -9.54815  -9.54693
 Alpha  occ. eigenvalues --   -9.53611  -8.67745  -7.28794  -7.28669  -7.27846
 Alpha  occ. eigenvalues --   -7.27841  -7.27728  -7.27710  -7.27579  -7.26644
 Alpha  occ. eigenvalues --   -7.26628  -6.61240  -6.60055  -6.60037  -2.69974
 Alpha  occ. eigenvalues --   -2.69637  -2.69623  -2.68661  -2.68660  -0.94224
 Alpha  occ. eigenvalues --   -0.89979  -0.88929  -0.87124  -0.82608  -0.81019
 Alpha  occ. eigenvalues --   -0.78530  -0.74187  -0.72373  -0.70672  -0.67240
 Alpha  occ. eigenvalues --   -0.63753  -0.58915  -0.57088  -0.52887  -0.50483
 Alpha  occ. eigenvalues --   -0.50389  -0.49153  -0.47327  -0.46832  -0.46168
 Alpha  occ. eigenvalues --   -0.44711  -0.43607  -0.42319  -0.41909  -0.40457
 Alpha  occ. eigenvalues --   -0.40107  -0.39063  -0.38764  -0.38021  -0.36218
 Alpha  occ. eigenvalues --   -0.35772  -0.33507  -0.33187  -0.33105  -0.32634
 Alpha  occ. eigenvalues --   -0.32114  -0.31657  -0.30252  -0.30171  -0.28306
 Alpha virt. eigenvalues --   -0.04661  -0.03187  -0.00124   0.00756   0.01352
 Alpha virt. eigenvalues --    0.01812   0.02475   0.02595   0.02652   0.03739
 Alpha virt. eigenvalues --    0.04425   0.04885   0.05234   0.05702   0.06678
 Alpha virt. eigenvalues --    0.06992   0.07205   0.07713   0.07784   0.07994
 Alpha virt. eigenvalues --    0.08532   0.09337   0.09389   0.10180   0.10453
 Alpha virt. eigenvalues --    0.10648   0.11174   0.11600   0.11778   0.12243
 Alpha virt. eigenvalues --    0.12845   0.13081   0.13377   0.13791   0.14582
 Alpha virt. eigenvalues --    0.14967   0.15322   0.15407   0.16180   0.16820
 Alpha virt. eigenvalues --    0.17221   0.17547   0.17665   0.18310   0.18618
 Alpha virt. eigenvalues --    0.19107   0.19579   0.19726   0.20122   0.20275
 Alpha virt. eigenvalues --    0.20476   0.21414   0.21634   0.22154   0.22692
 Alpha virt. eigenvalues --    0.23129   0.23416   0.23811   0.24358   0.24885
 Alpha virt. eigenvalues --    0.25420   0.25661   0.26392   0.26570   0.26855
 Alpha virt. eigenvalues --    0.27249   0.27924   0.27968   0.29168   0.29550
 Alpha virt. eigenvalues --    0.30073   0.30695   0.32117   0.33185   0.33958
 Alpha virt. eigenvalues --    0.34731   0.35734   0.36704   0.38148   0.39025
 Alpha virt. eigenvalues --    0.40977   0.41246   0.44491   0.46248   0.47862
 Alpha virt. eigenvalues --    0.49008   0.51813   0.52219   0.53563   0.56309
 Alpha virt. eigenvalues --    0.57693   0.58673   0.59551   0.60601   0.62193
 Alpha virt. eigenvalues --    0.63013   0.63630   0.63824   0.64169   0.64854
 Alpha virt. eigenvalues --    0.65509   0.65605   0.66019   0.66840   0.67418
 Alpha virt. eigenvalues --    0.67425   0.68631   0.69254   0.70370   0.71861
 Alpha virt. eigenvalues --    0.72827   0.74074   0.74743   0.75348   0.75727
 Alpha virt. eigenvalues --    0.77139   0.78502   0.78950   0.79409   0.80036
 Alpha virt. eigenvalues --    0.81014   0.82385   0.84189   0.84821   0.85293
 Alpha virt. eigenvalues --    0.86689   0.87545   0.88271   0.88461   0.89445
 Alpha virt. eigenvalues --    0.89637   0.90902   0.92011   0.92580   0.94481
 Alpha virt. eigenvalues --    0.95222   0.95546   0.97205   0.99090   0.99772
 Alpha virt. eigenvalues --    1.01439   1.02263   1.02385   1.03388   1.04694
 Alpha virt. eigenvalues --    1.05676   1.05817   1.07043   1.08101   1.08599
 Alpha virt. eigenvalues --    1.09363   1.11014   1.12493   1.13107   1.13504
 Alpha virt. eigenvalues --    1.14985   1.15585   1.17697   1.18197   1.19305
 Alpha virt. eigenvalues --    1.20462   1.21564   1.24582   1.27385   1.28364
 Alpha virt. eigenvalues --    1.30902   1.33736   1.35295   1.39149   1.39922
 Alpha virt. eigenvalues --    1.44254   1.45074   1.50753   1.51296   1.53674
 Alpha virt. eigenvalues --    1.56399   1.56999   1.59768   1.65202   1.66388
 Alpha virt. eigenvalues --    1.70004   1.73623   1.74670   1.76737   1.77884
 Alpha virt. eigenvalues --    1.80449   1.84472   1.85280   1.86804   1.87911
 Alpha virt. eigenvalues --    1.89141   1.90034   1.93755   1.94314   1.95686
 Alpha virt. eigenvalues --    1.96987   1.97382   1.99082   2.02900   2.05010
 Alpha virt. eigenvalues --    2.05777   2.06922   2.09320   2.10434   2.12374
 Alpha virt. eigenvalues --    2.13309   2.14250   2.14858   2.16630   2.17554
 Alpha virt. eigenvalues --    2.19156   2.20020   2.21025   2.23149   2.25244
 Alpha virt. eigenvalues --    2.26505   2.27298   2.32162   2.34919   2.37006
 Alpha virt. eigenvalues --    2.38638   2.41012   2.41427   2.43858   2.47944
 Alpha virt. eigenvalues --    2.49561   2.50699   2.55368   2.55510   2.58630
 Alpha virt. eigenvalues --    2.60144   2.61663   2.63399   2.65717   2.67327
 Alpha virt. eigenvalues --    2.68878   2.71448   2.72268   2.75057   2.76713
 Alpha virt. eigenvalues --    2.77267   2.79189   2.80878   2.82424   2.83988
 Alpha virt. eigenvalues --    2.85434   2.87040   2.89812   2.91022   2.95100
 Alpha virt. eigenvalues --    2.98782   3.00487   3.03261   3.11248   3.31043
 Alpha virt. eigenvalues --    3.32082   3.33345   3.35960   3.42033   3.43733
 Alpha virt. eigenvalues --    3.44034   3.47701   3.48348   3.49779   3.52872
 Alpha virt. eigenvalues --    3.53506   3.54500   3.57172   4.26543   4.32693
 Alpha virt. eigenvalues --    4.37776   4.40954   4.44224   4.46772   4.47513
 Alpha virt. eigenvalues --    4.56844   4.61829   4.68257   4.73726   4.80388
 Alpha virt. eigenvalues --    4.87201   9.06260  81.41635
          Condensed to atoms (all electrons):
              1          2          3          4          5          6
     1  C    8.417337  -0.449429  -0.365141   0.799579  -1.379978  -0.068430
     2  C   -0.449429  11.826745   2.282993  -3.505352   0.526908  -2.339795
     3  C   -0.365141   2.282993  15.708626  -4.525912  -1.539741  -0.795487
     4  C    0.799579  -3.505352  -4.525912  11.928143   0.628563   0.551816
     5  C   -1.379978   0.526908  -1.539741   0.628563  14.291509  -0.594252
     6  C   -0.068430  -2.339795  -0.795487   0.551816  -0.594252   7.937373
     7  H    0.053063  -0.067000   0.052071   0.138124   0.058114   0.014362
     8  H   -0.051271  -0.085957  -0.058474   0.058888   0.031975   0.454303
     9  H    0.405955   0.021295  -0.145697   0.034470  -0.022969  -0.025630
    10  H    0.030544   0.252674  -0.059580   0.051228  -0.012346  -0.007704
    11  H   -0.059650  -0.089090   0.008295   0.062637   0.027746   0.381305
    12  Cl   0.008152  -0.086246  -0.116093   0.083256  -0.105560   0.074442
    13  Br   0.017376   0.350636  -0.044090  -0.011062   0.043557  -0.062014
    14  C    0.062816  -0.668233   0.174274  -0.443909  -0.265048   0.038773
    15  H    0.016805  -0.080976   0.000634  -0.056029  -0.032167   0.013284
    16  H   -0.002700   0.032637  -0.051700  -0.078187   0.025381  -0.008538
    17  H   -0.007872   0.017104   0.053407  -0.132782  -0.005034   0.006020
    18  C    0.051343  -0.550179  -0.092247  -0.099130  -0.077720  -0.043353
    19  H   -0.004884  -0.015381   0.030229  -0.104773  -0.005321  -0.004414
    20  H   -0.005524   0.028197   0.068186  -0.137933  -0.022947   0.008570
    21  H   -0.007979   0.033454  -0.092334  -0.070745  -0.009822  -0.027474
    22  Cl   0.023305   0.025148  -0.296761   0.052757   0.369300  -0.071731
    23  C   -1.274045  -0.940032  -3.291663   0.470149  -6.327009   0.869011
    24  H   -0.043931  -0.015142   0.058592   0.000761   0.072721   0.009293
    25  C    0.311008  -0.083231  -0.868222   0.198973  -0.372937   0.052722
    26  H    0.010576   0.000793  -0.022502   0.008625   0.014063  -0.000445
    27  H   -0.012158  -0.005718   0.076468  -0.027074   0.059101   0.000890
    28  Cl  -0.002078  -0.001079  -0.067197   0.005149   0.161894   0.005687
              7          8          9         10         11         12
     1  C    0.053063  -0.051271   0.405955   0.030544  -0.059650   0.008152
     2  C   -0.067000  -0.085957   0.021295   0.252674  -0.089090  -0.086246
     3  C    0.052071  -0.058474  -0.145697  -0.059580   0.008295  -0.116093
     4  C    0.138124   0.058888   0.034470   0.051228   0.062637   0.083256
     5  C    0.058114   0.031975  -0.022969  -0.012346   0.027746  -0.105560
     6  C    0.014362   0.454303  -0.025630  -0.007704   0.381305   0.074442
     7  H    0.508447   0.000080   0.004348   0.003576  -0.000079   0.001064
     8  H    0.000080   0.467224   0.003655   0.003655  -0.023541   0.005388
     9  H    0.004348   0.003655   0.498762   0.002017  -0.003582  -0.043510
    10  H    0.003576   0.003655   0.002017   0.509207  -0.004684   0.000365
    11  H   -0.000079  -0.023541  -0.003582  -0.004684   0.486753   0.007583
    12  Cl   0.001064   0.005388  -0.043510   0.000365   0.007583  16.905781
    13  Br   0.005189   0.006482   0.006019  -0.017705  -0.010691  -0.002063
    14  C   -0.006416   0.002394  -0.000852   0.033501   0.001396  -0.002548
    15  H    0.003756   0.000000   0.000010   0.004012  -0.000003   0.000072
    16  H    0.000072   0.000002   0.000000   0.000092   0.000001  -0.000007
    17  H   -0.000056  -0.000002   0.000001  -0.000527  -0.000002   0.000002
    18  C   -0.009936  -0.023260  -0.007928  -0.014687   0.005089   0.000744
    19  H   -0.000109   0.000204   0.000002   0.000024   0.000005  -0.000060
    20  H   -0.000069  -0.000032   0.000000  -0.000100   0.000001  -0.000051
    21  H   -0.000224  -0.001685  -0.000070  -0.000226   0.000000  -0.000103
    22  Cl  -0.042642   0.001149  -0.000438   0.005806   0.000383  -0.002188
    23  C    0.045225  -0.015078   0.028412  -0.003135  -0.003498   0.200219
    24  H   -0.000131   0.000076   0.000234   0.000001  -0.000007   0.009056
    25  C    0.001864  -0.000204   0.003133   0.000019   0.000281  -0.003573
    26  H    0.000029   0.000000   0.000012   0.000000   0.000000  -0.000132
    27  H    0.000000   0.000001  -0.000003   0.000000   0.000000   0.000459
    28  Cl   0.000258   0.000085   0.000233  -0.000015  -0.000017   0.001698
             13         14         15         16         17         18
     1  C    0.017376   0.062816   0.016805  -0.002700  -0.007872   0.051343
     2  C    0.350636  -0.668233  -0.080976   0.032637   0.017104  -0.550179
     3  C   -0.044090   0.174274   0.000634  -0.051700   0.053407  -0.092247
     4  C   -0.011062  -0.443909  -0.056029  -0.078187  -0.132782  -0.099130
     5  C    0.043557  -0.265048  -0.032167   0.025381  -0.005034  -0.077720
     6  C   -0.062014   0.038773   0.013284  -0.008538   0.006020  -0.043353
     7  H    0.005189  -0.006416   0.003756   0.000072  -0.000056  -0.009936
     8  H    0.006482   0.002394   0.000000   0.000002  -0.000002  -0.023260
     9  H    0.006019  -0.000852   0.000010   0.000000   0.000001  -0.007928
    10  H   -0.017705   0.033501   0.004012   0.000092  -0.000527  -0.014687
    11  H   -0.010691   0.001396  -0.000003   0.000001  -0.000002   0.005089
    12  Cl  -0.002063  -0.002548   0.000072  -0.000007   0.000002   0.000744
    13  Br  35.049438  -0.128085  -0.001017  -0.000094   0.006472  -0.103380
    14  C   -0.128085   6.408392   0.476410   0.441419   0.437212  -0.206697
    15  H   -0.001017   0.476410   0.521275  -0.023772  -0.025177   0.005993
    16  H   -0.000094   0.441419  -0.023772   0.495378  -0.022714  -0.017104
    17  H    0.006472   0.437212  -0.025177  -0.022714   0.499359  -0.011405
    18  C   -0.103380  -0.206697   0.005993  -0.017104  -0.011405   6.551764
    19  H    0.002023  -0.025287   0.000003  -0.000084   0.001813   0.488898
    20  H   -0.001360  -0.034190   0.000050   0.002745   0.000063   0.467467
    21  H    0.001745   0.010782  -0.000155   0.000084   0.000036   0.417174
    22  Cl  -0.010048  -0.001539   0.014127   0.011775  -0.005302   0.037660
    23  C    0.025881   0.094705  -0.011277   0.003417   0.001869  -0.124605
    24  H   -0.000147   0.000913   0.000000   0.000000   0.000000   0.004267
    25  C   -0.002048   0.001780  -0.000242   0.000748  -0.000286  -0.026689
    26  H    0.000090  -0.000535   0.000000   0.000000   0.000000  -0.000929
    27  H   -0.000242   0.004684   0.000000  -0.000001   0.000000   0.010371
    28  Cl   0.000455  -0.004131  -0.000007  -0.000015   0.000015   0.006684
             19         20         21         22         23         24
     1  C   -0.004884  -0.005524  -0.007979   0.023305  -1.274045  -0.043931
     2  C   -0.015381   0.028197   0.033454   0.025148  -0.940032  -0.015142
     3  C    0.030229   0.068186  -0.092334  -0.296761  -3.291663   0.058592
     4  C   -0.104773  -0.137933  -0.070745   0.052757   0.470149   0.000761
     5  C   -0.005321  -0.022947  -0.009822   0.369300  -6.327009   0.072721
     6  C   -0.004414   0.008570  -0.027474  -0.071731   0.869011   0.009293
     7  H   -0.000109  -0.000069  -0.000224  -0.042642   0.045225  -0.000131
     8  H    0.000204  -0.000032  -0.001685   0.001149  -0.015078   0.000076
     9  H    0.000002   0.000000  -0.000070  -0.000438   0.028412   0.000234
    10  H    0.000024  -0.000100  -0.000226   0.005806  -0.003135   0.000001
    11  H    0.000005   0.000001   0.000000   0.000383  -0.003498  -0.000007
    12  Cl  -0.000060  -0.000051  -0.000103  -0.002188   0.200219   0.009056
    13  Br   0.002023  -0.001360   0.001745  -0.010048   0.025881  -0.000147
    14  C   -0.025287  -0.034190   0.010782  -0.001539   0.094705   0.000913
    15  H    0.000003   0.000050  -0.000155   0.014127  -0.011277   0.000000
    16  H   -0.000084   0.002745   0.000084   0.011775   0.003417   0.000000
    17  H    0.001813   0.000063   0.000036  -0.005302   0.001869   0.000000
    18  C    0.488898   0.467467   0.417174   0.037660  -0.124605   0.004267
    19  H    0.498511  -0.021818  -0.022411   0.000137  -0.005520   0.000000
    20  H   -0.021818   0.499988  -0.023719  -0.000278  -0.006684   0.000004
    21  H   -0.022411  -0.023719   0.505377  -0.005620   0.089116   0.000060
    22  Cl   0.000137  -0.000278  -0.005620  17.207704  -0.287466  -0.001932
    23  C   -0.005520  -0.006684   0.089116  -0.287466  17.023015   0.258575
    24  H    0.000000   0.000004   0.000060  -0.001932   0.258575   0.504754
    25  C   -0.000220  -0.008237   0.016795  -0.010359  -0.130229  -0.062065
    26  H    0.000000   0.000001  -0.000002  -0.004657  -0.088792  -0.001597
    27  H    0.000003   0.000041   0.000015   0.000379  -0.112973   0.003596
    28  Cl  -0.000082   0.000046   0.000409   0.004653  -0.237123   0.012329
             25         26         27         28
     1  C    0.311008   0.010576  -0.012158  -0.002078
     2  C   -0.083231   0.000793  -0.005718  -0.001079
     3  C   -0.868222  -0.022502   0.076468  -0.067197
     4  C    0.198973   0.008625  -0.027074   0.005149
     5  C   -0.372937   0.014063   0.059101   0.161894
     6  C    0.052722  -0.000445   0.000890   0.005687
     7  H    0.001864   0.000029   0.000000   0.000258
     8  H   -0.000204   0.000000   0.000001   0.000085
     9  H    0.003133   0.000012  -0.000003   0.000233
    10  H    0.000019   0.000000   0.000000  -0.000015
    11  H    0.000281   0.000000   0.000000  -0.000017
    12  Cl  -0.003573  -0.000132   0.000459   0.001698
    13  Br  -0.002048   0.000090  -0.000242   0.000455
    14  C    0.001780  -0.000535   0.004684  -0.004131
    15  H   -0.000242   0.000000   0.000000  -0.000007
    16  H    0.000748   0.000000  -0.000001  -0.000015
    17  H   -0.000286   0.000000   0.000000   0.000015
    18  C   -0.026689  -0.000929   0.010371   0.006684
    19  H   -0.000220   0.000000   0.000003  -0.000082
    20  H   -0.008237   0.000001   0.000041   0.000046
    21  H    0.016795  -0.000002   0.000015   0.000409
    22  Cl  -0.010359  -0.004657   0.000379   0.004653
    23  C   -0.130229  -0.088792  -0.112973  -0.237123
    24  H   -0.062065  -0.001597   0.003596   0.012329
    25  C    6.626326   0.422258   0.337838   0.284638
    26  H    0.422258   0.486749  -0.023283  -0.042355
    27  H    0.337838  -0.023283   0.493188  -0.027972
    28  Cl   0.284638  -0.042355  -0.027972  17.001844
 Mulliken atomic charges:
              1
     1  C   -0.472784
     2  C   -0.415746
     3  C   -0.080935
     4  C    0.119769
     5  C    0.462018
     6  C   -0.368585
     7  H    0.237021
     8  H    0.223944
     9  H    0.242122
    10  H    0.223989
    11  H    0.213368
    12  Cl   0.063854
    13  Br  -0.121319
    14  C   -0.401980
    15  H    0.174390
    16  H    0.191165
    17  H    0.187789
    18  C   -0.638207
    19  H    0.188513
    20  H    0.187582
    21  H    0.187522
    22  Cl  -0.013320
    23  C   -0.250466
    24  H    0.189719
    25  C   -0.689841
    26  H    0.242034
    27  H    0.222393
    28  Cl  -0.104008
 Sum of Mulliken atomic charges =   0.00000
 Mulliken charges with hydrogens summed into heavy atoms:
              1
     1  C   -0.230663
     2  C   -0.191757
     3  C    0.156086
     4  C    0.119769
     5  C    0.462018
     6  C    0.068727
    12  Cl   0.063854
    13  Br  -0.121319
    14  C    0.151364
    18  C   -0.074590
    22  Cl  -0.013320
    23  C   -0.060748
    25  C   -0.225414
    28  Cl  -0.104008
 Sum of Mulliken charges with hydrogens summed into heavy atoms =   0.00000
 Electronic spatial extent (au):  <R**2>=           5617.2129
 Charge=              0.0000 electrons
 Dipole moment (field-independent basis, Debye):
    X=              1.5168    Y=             -1.0249    Z=             -3.1027  Tot=              3.6025
 Quadrupole moment (field-independent basis, Debye-Ang):
   XX=           -129.3564   YY=           -124.8545   ZZ=           -120.9645
   XY=              1.0277   XZ=              2.2641   YZ=             -1.3339
 Traceless Quadrupole moment (field-independent basis, Debye-Ang):
   XX=             -4.2979   YY=              0.2040   ZZ=              4.0940
   XY=              1.0277   XZ=              2.2641   YZ=             -1.3339
 Octapole moment (field-independent basis, Debye-Ang**2):
  XXX=             76.1219  YYY=             -8.7479  ZZZ=             11.4240  XYY=             36.2428
  XXY=             -4.3094  XXZ=            -24.2000  XZZ=             52.1888  YZZ=              6.6354
  YYZ=             18.5188  XYZ=             -2.7407
 Hexadecapole moment (field-independent basis, Debye-Ang**3):
 XXXX=          -3903.8498 YYYY=          -2041.3007 ZZZZ=           -988.4393 XXXY=             32.1213
 XXXZ=            202.4524 YYYX=             38.6092 YYYZ=             15.1449 ZZZX=             66.4979
 ZZZY=              4.2729 XXYY=           -957.3520 XXZZ=           -847.7503 YYZZ=           -521.7505
 XXYZ=              8.5078 YYXZ=              7.6055 ZZXY=              0.7784
 N-N= 1.688284995029D+03 E-N=-1.368994827008D+04  KE= 4.317872386124D+03
 1\1\GINC-COMPUTE-6-31\SP\RmPW1PW91\6-31+G(d,p)\C10H14Br1Cl3\LPASSAGLIA
 .IQUIR\20-May-2022\0\\# mPW1PW91/6-31+G** scrf=(PCM,solvent=chloroform
 ) nmr\\comment\\0,1\C,0,-0.282005,1.57254,-1.088772\C,0,1.714349,0.198
 808,-0.405018\C,0,-0.360783,-0.86561,-1.167627\C,0,0.871682,-1.098709,
 -0.219765\C,0,-1.168232,0.367185,-0.785843\C,0,0.96825,1.517963,-0.191
 495\H,0,0.03519,-0.699481,-2.175595\H,0,0.659384,1.621698,0.852695\H,0
 ,0.017121,1.554119,-2.142139\H,0,2.159977,0.184727,-1.403376\H,0,1.632
 04,2.354521,-0.425066\Cl,0,-1.07759,3.193945,-0.888822\Br,0,3.318552,0
 .217592,0.78357\C,0,1.700767,-2.300987,-0.707027\H,0,1.944146,-2.21301
 8,-1.773297\H,0,1.159566,-3.238079,-0.560142\H,0,2.639355,-2.351682,-0
 .148869\C,0,0.423671,-1.319222,1.233513\H,0,1.29655,-1.452128,1.877475
 \H,0,-0.191362,-2.221683,1.301412\H,0,-0.163104,-0.482564,1.622784\Cl,
 0,-1.345894,-2.388357,-1.402615\C,0,-2.36841,0.494654,-0.205964\H,0,-2
 .720201,1.51061,-0.050952\C,0,-3.333259,-0.537156,0.288966\H,0,-4.2582
 23,-0.527365,-0.293234\H,0,-2.942245,-1.546455,0.329948\Cl,0,-3.836145
 ,-0.116513,2.000708\\Version=EM64L-G09RevC.01\State=1-A\HF=-4341.94182
 89\RMSD=4.120e-09\Dipole=0.5967578,-0.4032165,-1.2207092\Quadrupole=-3
 .1954131,0.1516519,3.0437612,0.7640959,1.6832827,-0.9917354\PG=C01 [X(
 C10H14Br1Cl3)]\\@


 ... IT CAN BE VERY DIFFICULT, IN THESE COMPLEX TIMES,
 TO UNDERSTAND JUST HOW SCIENTISTS DO WHAT THEY DO.

                     DON MOSER IN THE FEBRUARY 1979 SMITHSONIAN
 Job cpu time:  0 days  0 hours 18 minutes 20.7 seconds.
 File lengths (MBytes):  RWF=    151 Int=      0 D2E=      0 Chk=      9 Scr=      1
 Normal termination of Gaussian 09 at Fri May 20 10:34:39 2022.
