 Entering Gaussian System, Link 0=g09
 Input=/home/lpassaglia.iquir/NMR_Tetrahalogenados/04_SRRE_Tetrahalogenado_003.gjc
 Output=/home/lpassaglia.iquir/NMR_Tetrahalogenados/04_SRRE_Tetrahalogenado_003.log
 Initial command:
 /share/apps/Gaussian09/EM64T.SSE4.2-enabled/g09/l1.exe /tmp/Gau-12737.inp -scrdir=/tmp/
 Entering Link 1 = /share/apps/Gaussian09/EM64T.SSE4.2-enabled/g09/l1.exe PID=     12738.
  
 Copyright (c) 1988,1990,1992,1993,1995,1998,2003,2009,2011,
            Gaussian, Inc.  All Rights Reserved.
  
 This is part of the Gaussian(R) 09 program.  It is based on
 the Gaussian(R) 03 system (copyright 2003, Gaussian, Inc.),
 the Gaussian(R) 98 system (copyright 1998, Gaussian, Inc.),
 the Gaussian(R) 94 system (copyright 1995, Gaussian, Inc.),
 the Gaussian 92(TM) system (copyright 1992, Gaussian, Inc.),
 the Gaussian 90(TM) system (copyright 1990, Gaussian, Inc.),
 the Gaussian 88(TM) system (copyright 1988, Gaussian, Inc.),
 the Gaussian 86(TM) system (copyright 1986, Carnegie Mellon
 University), and the Gaussian 82(TM) system (copyright 1983,
 Carnegie Mellon University). Gaussian is a federally registered
 trademark of Gaussian, Inc.
  
 This software contains proprietary and confidential information,
 including trade secrets, belonging to Gaussian, Inc.
  
 This software is provided under written license and may be
 used, copied, transmitted, or stored only in accord with that
 written license.
  
 The following legend is applicable only to US Government
 contracts under FAR:
  
                    RESTRICTED RIGHTS LEGEND
  
 Use, reproduction and disclosure by the US Government is
 subject to restrictions as set forth in subparagraphs (a)
 and (c) of the Commercial Computer Software - Restricted
 Rights clause in FAR 52.227-19.
  
 Gaussian, Inc.
 340 Quinnipiac St., Bldg. 40, Wallingford CT 06492
  
  
 ---------------------------------------------------------------
 Warning -- This program may not be used in any manner that
 competes with the business of Gaussian, Inc. or will provide
 assistance to any competitor of Gaussian, Inc.  The licensee
 of this program is prohibited from giving any competitor of
 Gaussian, Inc. access to this program.  By using this program,
 the user acknowledges that Gaussian, Inc. is engaged in the
 business of creating and licensing software in the field of
 computational chemistry and represents and warrants to the
 licensee that it is not a competitor of Gaussian, Inc. and that
 it will not use this program in any manner prohibited above.
 ---------------------------------------------------------------
  

 Cite this work as:
 Gaussian 09, Revision C.01,
 M. J. Frisch, G. W. Trucks, H. B. Schlegel, G. E. Scuseria, 
 M. A. Robb, J. R. Cheeseman, G. Scalmani, V. Barone, B. Mennucci, 
 G. A. Petersson, H. Nakatsuji, M. Caricato, X. Li, H. P. Hratchian, 
 A. F. Izmaylov, J. Bloino, G. Zheng, J. L. Sonnenberg, M. Hada, 
 M. Ehara, K. Toyota, R. Fukuda, J. Hasegawa, M. Ishida, T. Nakajima, 
 Y. Honda, O. Kitao, H. Nakai, T. Vreven, J. A. Montgomery, Jr., 
 J. E. Peralta, F. Ogliaro, M. Bearpark, J. J. Heyd, E. Brothers, 
 K. N. Kudin, V. N. Staroverov, T. Keith, R. Kobayashi, J. Normand, 
 K. Raghavachari, A. Rendell, J. C. Burant, S. S. Iyengar, J. Tomasi, 
 M. Cossi, N. Rega, J. M. Millam, M. Klene, J. E. Knox, J. B. Cross, 
 V. Bakken, C. Adamo, J. Jaramillo, R. Gomperts, R. E. Stratmann, 
 O. Yazyev, A. J. Austin, R. Cammi, C. Pomelli, J. W. Ochterski, 
 R. L. Martin, K. Morokuma, V. G. Zakrzewski, G. A. Voth, 
 P. Salvador, J. J. Dannenberg, S. Dapprich, A. D. Daniels, 
 O. Farkas, J. B. Foresman, J. V. Ortiz, J. Cioslowski, 
 and D. J. Fox, Gaussian, Inc., Wallingford CT, 2010.
 
 ******************************************
 Gaussian 09:  EM64L-G09RevC.01 23-Sep-2011
                20-May-2022 
 ******************************************
 %nprocshared=4
 Will use up to    4 processors via shared memory.
 -----------------------------------------------------
 # mPW1PW91/6-31+G** scrf=(PCM,solvent=chloroform) nmr
 -----------------------------------------------------
 1/38=1/1;
 2/12=2,17=6,18=5,40=1/2;
 3/5=1,6=6,7=111,11=2,16=1,25=1,30=1,70=2201,72=7,74=-7/1,2,8,3;
 4//1;
 5/5=2,38=5,53=7/2;
 8/6=1,10=90,11=11/1;
 10/13=100,45=16/2;
 6/7=2,8=2,9=2,10=2,28=1/1;
 99/9=1/99;
 -------
 comment
 -------
 Charge =  0 Multiplicity = 1
 Symbolic Z-Matrix:
 6                     0.1307    1.46901  -0.03151 
 6                    -1.78744   0.14023   0.95141 
 6                     0.35011  -1.03568   0.09811 
 6                    -0.90224  -1.12839   1.02144 
 6                     1.07004   0.29443   0.17401 
 6                    -1.00103   1.45317   1.00416 
 1                     1.01534  -1.84944   0.38092 
 1                    -1.67551   2.29422   0.82992 
 1                    -0.30207   1.4072   -1.03355 
 1                    -2.51382   0.10926   1.76457 
 1                    -0.57206   1.57796   2.00584 
 17                    0.94484   3.09505   0.01847 
 35                   -2.97849   0.20605  -0.66254 
 6                    -0.34837  -1.2063    2.47462 
 1                     0.31653  -0.37527   2.72451 
 1                     0.21419  -2.13676   2.60893 
 1                    -1.17354  -1.21478   3.1948 
 6                    -1.70673  -2.41325   0.76729 
 1                    -2.50581  -2.50656   1.51181 
 1                    -1.0578   -3.29157   0.85801 
 1                    -2.16193  -2.42049  -0.22294 
 17                   -0.00005  -1.40376  -1.67913 
 6                     2.38335   0.41945   0.41718 
 1                     2.80249   1.42068   0.45104 
 6                     3.37822  -0.67008   0.64311 
 1                     3.90969  -0.52827   1.58719 
 1                     2.96343  -1.67648   0.61864 
 17                    4.67805  -0.62994  -0.64578 
 
                          Input orientation:                          
 ---------------------------------------------------------------------
 Center     Atomic      Atomic             Coordinates (Angstroms)
 Number     Number       Type             X           Y           Z
 ---------------------------------------------------------------------
      1          6           0        0.130702    1.469010   -0.031507
      2          6           0       -1.787441    0.140232    0.951408
      3          6           0        0.350111   -1.035677    0.098106
      4          6           0       -0.902244   -1.128391    1.021442
      5          6           0        1.070040    0.294434    0.174006
      6          6           0       -1.001033    1.453171    1.004156
      7          1           0        1.015345   -1.849441    0.380919
      8          1           0       -1.675511    2.294219    0.829915
      9          1           0       -0.302065    1.407198   -1.033549
     10          1           0       -2.513816    0.109262    1.764566
     11          1           0       -0.572059    1.577963    2.005837
     12         17           0        0.944841    3.095053    0.018465
     13         35           0       -2.978492    0.206047   -0.662537
     14          6           0       -0.348366   -1.206300    2.474616
     15          1           0        0.316527   -0.375268    2.724507
     16          1           0        0.214190   -2.136756    2.608926
     17          1           0       -1.173543   -1.214775    3.194799
     18          6           0       -1.706730   -2.413252    0.767286
     19          1           0       -2.505813   -2.506563    1.511809
     20          1           0       -1.057796   -3.291567    0.858008
     21          1           0       -2.161926   -2.420493   -0.222938
     22         17           0       -0.000045   -1.403761   -1.679133
     23          6           0        2.383352    0.419452    0.417176
     24          1           0        2.802489    1.420677    0.451039
     25          6           0        3.378219   -0.670081    0.643111
     26          1           0        3.909694   -0.528270    1.587194
     27          1           0        2.963428   -1.676481    0.618639
     28         17           0        4.678053   -0.629936   -0.645784
 ---------------------------------------------------------------------
                    Distance matrix (angstroms):
                    1          2          3          4          5
     1  C    0.000000
     2  C    2.532004   0.000000
     3  C    2.517617   2.584572   0.000000
     4  C    2.987000   1.548510   1.558698   0.000000
     5  C    1.517966   2.965355   1.514349   2.575361   0.000000
     6  C    1.534168   1.531349   2.973362   2.583509   2.514192
     7  H    3.459018   3.484231   1.088454   2.146469   2.154531
     8  H    2.164584   2.160312   3.965715   3.514098   3.459394
     9  H    1.093250   2.784169   2.770129   3.318496   2.139884
    10  H    3.473941   1.090782   3.505717   2.163604   3.925327
    11  H    2.157896   2.157787   3.364662   2.898691   2.774805
    12  Cl   1.819158   4.131188   4.174084   4.717538   2.807728
    13  Br   3.414727   2.006926   3.633188   2.987861   4.135000
    14  C    3.696950   2.490833   2.482898   1.557102   3.091421
    15  H    3.321371   2.799340   2.708367   2.225540   2.742506
    16  H    4.469945   3.455223   2.745008   2.187083   3.545702
    17  H    4.394634   2.691787   3.455880   2.191927   4.054204
    18  C    4.368774   2.561386   2.564393   1.537095   3.923518
    19  H    5.013803   2.799220   3.509753   2.170542   4.735190
    20  H    4.986668   3.509751   2.765627   2.174911   4.225512
    21  H    4.518963   2.841943   2.886367   2.191987   4.239575
    22  Cl   3.314299   3.535314   1.848425   2.860576   2.731862
    23  C    2.525336   4.214129   2.520570   3.681860   1.341473
    24  H    2.715443   4.791385   3.488896   4.533007   2.084838
    25  C    3.946794   5.237910   3.098407   4.321521   2.545199
    26  H    4.570569   5.771349   3.891719   4.882107   3.276824
    27  H    4.282656   5.097248   2.740622   3.925057   2.768957
    28  Cl   5.045920   6.704237   4.410111   5.845324   3.813695
                    6          7          8          9         10
     6  C    0.000000
     7  H    3.919369   0.000000
     8  H    1.092082   4.961071   0.000000
     9  H    2.154742   3.787082   2.479044   0.000000
    10  H    2.161672   4.266846   2.519993   3.795514   0.000000
    11  H    1.096794   4.111850   1.764489   3.056129   2.446572
    12  Cl   2.730163   4.958262   2.857627   2.347416   4.891434
    13  Br   2.871154   4.611352   2.878478   2.956971   2.473079
    14  C    3.108217   2.580098   4.089008   4.374899   2.631359
    15  H    2.835271   2.855510   3.831952   4.205095   3.027722
    16  H    4.115778   2.385040   5.135113   5.108205   3.633120
    17  H    3.456387   3.621043   4.261184   5.051054   2.365369
    18  C    3.937428   2.806573   4.707991   4.451059   2.830023
    19  H    4.266330   3.756232   4.919542   5.162643   2.628020
    20  H    4.747328   2.570069   5.619908   5.121280   3.808869
    21  H    4.225956   3.284173   4.855266   4.332135   3.236303
    22  Cl   4.045254   2.339543   4.772585   2.899911   4.524085
    23  C    3.587085   2.649648   4.489930   3.208069   5.088608
    24  H    3.843667   3.727261   4.578112   3.441284   5.631009
    25  C    4.880205   2.653829   5.861924   4.546512   6.048232
    26  H    5.327409   3.402624   6.303525   5.324776   6.457506
    27  H    5.065599   1.970140   6.109898   4.785629   5.873860
    28  Cl   6.270060   3.994589   7.148157   5.394613   7.620970
                   11         12         13         14         15
    11  H    0.000000
    12  Cl   2.924414   0.000000
    13  Br   3.846205   4.919620   0.000000
    14  C    2.832298   5.119248   4.330591   0.000000
    15  H    2.263003   4.445286   4.761002   1.093226   0.000000
    16  H    3.844612   5.883550   5.136576   1.095562   1.768240
    17  H    3.094317   5.757714   4.489501   1.095286   1.773769
    18  C    4.330275   6.158976   3.243840   2.493364   3.475293
    19  H    4.546078   6.746495   3.508484   2.696713   3.738804
    20  H    5.026507   6.745688   4.270180   2.732225   3.725236
    21  H    4.845902   6.334945   2.785451   3.469879   4.360402
    22  Cl   4.774608   4.900406   3.534982   4.173002   4.533218
    23  C    3.549711   3.063842   5.473636   3.786610   3.197987
    24  H    3.718832   2.538013   6.011249   4.574250   3.817602
    25  C    4.745042   4.526339   6.548289   4.186810   3.713904
    26  H    4.969667   4.937584   7.283380   4.402081   3.771968
    27  H    5.001539   5.215596   6.363312   3.825402   3.624075
    28  Cl   6.282483   5.315415   7.702067   5.944239   5.517846
                   16         17         18         19         20
    16  H    0.000000
    17  H    1.766097   0.000000
    18  C    2.675448   2.759249   0.000000
    19  H    2.956153   2.505218   1.096155   0.000000
    20  H    2.453008   3.128427   1.095802   1.772129   0.000000
    21  H    3.707545   3.756539   1.089862   1.770597   1.773786
    22  Cl   4.355528   5.016775   3.149097   4.204421   3.334626
    23  C    4.005400   4.799728   4.987540   5.802044   5.080108
    24  H    4.900112   5.502968   5.927232   6.687789   6.105135
    25  C    4.003329   5.246555   5.376874   6.224880   5.157189
    26  H    4.157874   5.375405   5.980771   6.714019   5.730923
    27  H    3.425114   4.895335   4.730254   5.603515   4.340051
    28  Cl   5.726231   7.023766   6.778085   7.732067   6.499664
                   21         22         23         24         25
    21  H    0.000000
    22  Cl   2.797852   0.000000
    23  C    5.397646   3.660492   0.000000
    24  H    6.313022   4.513234   1.085944   0.000000
    25  C    5.874282   4.164585   1.492612   2.177068   0.000000
    26  H    6.612235   5.169278   2.144024   2.512995   1.092643
    27  H    5.247005   3.759828   2.184035   3.105862   1.088803
    28  Cl   7.083093   4.852960   2.738020   2.987604   1.830964
                   26         27         28
    26  H    0.000000
    27  H    1.775361   0.000000
    28  Cl   2.363663   2.373597   0.000000
 Stoichiometry    C10H14BrCl3
 Framework group  C1[X(C10H14BrCl3)]
 Deg. of freedom    78
 Full point group                 C1      NOp   1
 Largest Abelian subgroup         C1      NOp   1
 Largest concise Abelian subgroup C1      NOp   1
                         Standard orientation:                         
 ---------------------------------------------------------------------
 Center     Atomic      Atomic             Coordinates (Angstroms)
 Number     Number       Type             X           Y           Z
 ---------------------------------------------------------------------
      1          6           0        0.130702    1.469010   -0.031507
      2          6           0       -1.787441    0.140232    0.951408
      3          6           0        0.350111   -1.035677    0.098106
      4          6           0       -0.902244   -1.128391    1.021442
      5          6           0        1.070040    0.294434    0.174006
      6          6           0       -1.001033    1.453171    1.004156
      7          1           0        1.015345   -1.849441    0.380919
      8          1           0       -1.675511    2.294219    0.829915
      9          1           0       -0.302065    1.407198   -1.033549
     10          1           0       -2.513816    0.109262    1.764566
     11          1           0       -0.572059    1.577963    2.005837
     12         17           0        0.944841    3.095053    0.018465
     13         35           0       -2.978492    0.206047   -0.662537
     14          6           0       -0.348366   -1.206300    2.474616
     15          1           0        0.316527   -0.375268    2.724507
     16          1           0        0.214190   -2.136756    2.608926
     17          1           0       -1.173543   -1.214775    3.194799
     18          6           0       -1.706730   -2.413252    0.767286
     19          1           0       -2.505813   -2.506563    1.511809
     20          1           0       -1.057796   -3.291567    0.858008
     21          1           0       -2.161926   -2.420493   -0.222938
     22         17           0       -0.000045   -1.403761   -1.679133
     23          6           0        2.383352    0.419452    0.417176
     24          1           0        2.802489    1.420677    0.451039
     25          6           0        3.378219   -0.670081    0.643111
     26          1           0        3.909694   -0.528270    1.587194
     27          1           0        2.963428   -1.676481    0.618639
     28         17           0        4.678053   -0.629936   -0.645784
 ---------------------------------------------------------------------
 Rotational constants (GHZ):      0.5302618      0.2320958      0.2010319
 Standard basis: 6-31+G(d,p) (6D, 7F)
 There are   363 symmetry adapted basis functions of A   symmetry.
 Integral buffers will be    131072 words long.
 Raffenetti 2 integral format.
 Two-electron integral symmetry is turned on.
   363 basis functions,   673 primitive gaussians,   363 cartesian basis functions
    80 alpha electrons       80 beta electrons
       nuclear repulsion energy      1725.3665228179 Hartrees.
 NAtoms=   28 NActive=   28 NUniq=   28 SFac= 1.00D+00 NAtFMM=   60 NAOKFM=F Big=F
 ------------------------------------------------------------------------------
 Polarizable Continuum Model (PCM)
 =================================
 Model                : PCM.
 Atomic radii         : UFF (Universal Force Field).
 Polarization charges : Total charges.
 Charge compensation  : None.
 Solution method      : Matrix inversion.
 Cavity type          : Scaled VdW (van der Waals Surface) (Alpha=1.100).
 Cavity algorithm     : GePol (No added spheres)
                        Default sphere list used, NSphG=   28.
                        Lebedev-Laikov grids with approx.  5.0 points / Ang**2.
                        Smoothing algorithm: Karplus/York (Gamma=1.0000).
                        Polarization charges: spherical gaussians, with
                                              point-specific exponents (IZeta= 3).
                        Self-potential: point-specific (ISelfS= 7).
                        Self-field    : sphere-specific E.n sum rule (ISelfD= 2).
 Solvent              : Chloroform, Eps=   4.711300 Eps(inf)=   2.090627
 ------------------------------------------------------------------------------
 One-electron integrals computed using PRISM.
 NBasis=   363 RedAO= T  NBF=   363
 NBsUse=   363 1.00D-06 NBFU=   363
 Harris functional with IExCor=  908 diagonalized for initial guess.
 ExpMin= 3.50D-02 ExpMax= 5.74D+05 ExpMxC= 5.74D+03 IAcc=3 IRadAn=         5 AccDes= 0.00D+00
 HarFok:  IExCor=  908 AccDes= 0.00D+00 IRadAn=         5 IDoV= 1
 ScaDFX=  1.000000  1.000000  1.000000  1.000000
 FoFCou: FMM=F IPFlag=           0 FMFlag=      100000 FMFlg1=           0
         NFxFlg=           0 DoJE=T BraDBF=F KetDBF=T FulRan=T
         Omega=  0.000000  0.000000  1.000000  0.000000  0.000000 ICntrl=     500 IOpCl=  0
         NMat0=    1 NMatS0=    1 NMatT0=    0 NMatD0=    1 NMtDS0=    0 NMtDT0=    0
         I1Cent=           4 NGrid=           0.
 Petite list used in FoFCou.
 Initial guess orbital symmetries:
       Occupied  (A) (A) (A) (A) (A) (A) (A) (A) (A) (A) (A) (A)
                 (A) (A) (A) (A) (A) (A) (A) (A) (A) (A) (A) (A)
                 (A) (A) (A) (A) (A) (A) (A) (A) (A) (A) (A) (A)
                 (A) (A) (A) (A) (A) (A) (A) (A) (A) (A) (A) (A)
                 (A) (A) (A) (A) (A) (A) (A) (A) (A) (A) (A) (A)
                 (A) (A) (A) (A) (A) (A) (A) (A) (A) (A) (A) (A)
                 (A) (A) (A) (A) (A) (A) (A) (A)
       Virtual   (A) (A) (A) (A) (A) (A) (A) (A) (A) (A) (A) (A)
                 (A) (A) (A) (A) (A) (A) (A) (A) (A) (A) (A) (A)
                 (A) (A) (A) (A) (A) (A) (A) (A) (A) (A) (A) (A)
                 (A) (A) (A) (A) (A) (A) (A) (A) (A) (A) (A) (A)
                 (A) (A) (A) (A) (A) (A) (A) (A) (A) (A) (A) (A)
                 (A) (A) (A) (A) (A) (A) (A) (A) (A) (A) (A) (A)
                 (A) (A) (A) (A) (A) (A) (A) (A) (A) (A) (A) (A)
                 (A) (A) (A) (A) (A) (A) (A) (A) (A) (A) (A) (A)
                 (A) (A) (A) (A) (A) (A) (A) (A) (A) (A) (A) (A)
                 (A) (A) (A) (A) (A) (A) (A) (A) (A) (A) (A) (A)
                 (A) (A) (A) (A) (A) (A) (A) (A) (A) (A) (A) (A)
                 (A) (A) (A) (A) (A) (A) (A) (A) (A) (A) (A) (A)
                 (A) (A) (A) (A) (A) (A) (A) (A) (A) (A) (A) (A)
                 (A) (A) (A) (A) (A) (A) (A) (A) (A) (A) (A) (A)
                 (A) (A) (A) (A) (A) (A) (A) (A) (A) (A) (A) (A)
                 (A) (A) (A) (A) (A) (A) (A) (A) (A) (A) (A) (A)
                 (A) (A) (A) (A) (A) (A) (A) (A) (A) (A) (A) (A)
                 (A) (A) (A) (A) (A) (A) (A) (A) (A) (A) (A) (A)
                 (A) (A) (A) (A) (A) (A) (A) (A) (A) (A) (A) (A)
                 (A) (A) (A) (A) (A) (A) (A) (A) (A) (A) (A) (A)
                 (A) (A) (A) (A) (A) (A) (A) (A) (A) (A) (A) (A)
                 (A) (A) (A) (A) (A) (A) (A) (A) (A) (A) (A) (A)
                 (A) (A) (A) (A) (A) (A) (A) (A) (A) (A) (A) (A)
                 (A) (A) (A) (A) (A) (A) (A)
 The electronic state of the initial guess is 1-A.
 Requested convergence on RMS density matrix=1.00D-08 within 128 cycles.
 Requested convergence on MAX density matrix=1.00D-06.
 Requested convergence on             energy=1.00D-06.
 No special actions if energy rises.
 Error on total polarization charges =  0.01639
 SCF Done:  E(RmPW1PW91) =  -4341.94815150     A.U. after   14 cycles
             Convg  =    0.4890D-08             -V/T =  2.0056
 Range of M.O.s used for correlation:     1   363
 NBasis=   363 NAE=    80 NBE=    80 NFC=     0 NFV=     0
 NROrb=    363 NOA=    80 NOB=    80 NVA=   283 NVB=   283

 **** Warning!!: The largest alpha MO coefficient is  0.10937738D+03

 NEqPCM:  Using equilibrium solvation (IEInf=0, Eps=   4.7113, EpsInf=   2.0906)
          Differentiating once with respect to magnetic field using GIAOs.
          Electric field/nuclear overlap derivatives assumed to be zero.
 FoFCou: FMM=F IPFlag=           0 FMFlag=    10101102 FMFlg1=           0
         NFxFlg=    40000000 DoJE=F BraDBF=F KetDBF=T FulRan=T
         Omega=  0.000000  0.000000  1.000000  0.000000  0.000000 ICntrl=    6100 IOpCl=  0
         NMat0=    1 NMatS0=    1 NMatT0=    0 NMatD0=    1 NMtDS0=    0 NMtDT0=    0
         I1Cent=           7 NGrid=        2089.
 Symmetry not used in FoFCou.
          There are     3 degrees of freedom in the 1st order CPHF.  IDoFFX=0.
      3 vectors produced by pass  0 Test12= 7.55D-13 3.33D-08 XBig12= 9.54D+01 1.47D+00.
 AX will form     3 AO Fock derivatives at one time.
      3 vectors produced by pass  1 Test12= 7.55D-13 3.33D-08 XBig12= 3.01D-01 1.52D-01.
      3 vectors produced by pass  2 Test12= 7.55D-13 3.33D-08 XBig12= 1.19D-03 7.52D-03.
      3 vectors produced by pass  3 Test12= 7.55D-13 3.33D-08 XBig12= 6.49D-06 6.85D-04.
      3 vectors produced by pass  4 Test12= 7.55D-13 3.33D-08 XBig12= 3.63D-08 3.69D-05.
      3 vectors produced by pass  5 Test12= 7.55D-13 3.33D-08 XBig12= 1.26D-10 2.09D-06.
      3 vectors produced by pass  6 Test12= 7.55D-13 3.33D-08 XBig12= 5.53D-13 1.68D-07.
 Inverted reduced A of dimension    21 with in-core refinement.
 Calculating GIAO nuclear magnetic shielding tensors.
 SCF GIAO Magnetic shielding tensor (ppm):
      1  C    Isotropic =   132.0416   Anisotropy =    58.8605
   XX=   135.6775   YX=    17.3239   ZX=    -5.9019
   XY=    17.8703   YY=   162.3230   ZY=     4.7002
   XZ=    -3.9569   YZ=     8.8848   ZZ=    98.1245
   Eigenvalues:    96.1267   128.7162   171.2820
      2  C    Isotropic =   124.2040   Anisotropy =    49.8987
   XX=   102.6865   YX=   -11.1837   ZX=    36.7613
   XY=   -10.7588   YY=   136.2436   ZY=    -6.1667
   XZ=    31.1414   YZ=     5.3056   ZZ=   133.6820
   Eigenvalues:    79.4254   135.7169   157.4699
      3  C    Isotropic =   126.6256   Anisotropy =    45.3920
   XX=   126.2466   YX=    16.8839   ZX=   -11.2715
   XY=    12.7510   YY=    97.2268   ZY=     5.2597
   XZ=     3.8318   YZ=     0.9213   ZZ=   156.4036
   Eigenvalues:    90.7172   132.2728   156.8870
      4  C    Isotropic =   151.2978   Anisotropy =     2.0624
   XX=   150.0625   YX=    -1.3726   ZX=    -0.9143
   XY=     0.7631   YY=   151.4956   ZY=     0.8663
   XZ=     2.3894   YZ=     0.0735   ZZ=   152.3353
   Eigenvalues:   149.7383   151.4825   152.6728
      5  C    Isotropic =    57.1410   Anisotropy =   144.9306
   XX=    56.3516   YX=    15.1389   ZX=   -13.5516
   XY=     0.2268   YY=   -34.9500   ZY=    10.6370
   XZ=   -21.2894   YZ=    13.7888   ZZ=   150.0214
   Eigenvalues:   -36.6016    54.2631   153.7614
      6  C    Isotropic =   150.9361   Anisotropy =    30.9568
   XX=   156.9466   YX=    15.6209   ZX=     1.5043
   XY=    13.8201   YY=   156.7184   ZY=     5.9546
   XZ=    -8.5598   YZ=    -1.1428   ZZ=   139.1434
   Eigenvalues:   136.1676   145.0668   171.5740
      7  H    Isotropic =    26.7503   Anisotropy =     7.5131
   XX=    30.2121   YX=    -1.5252   ZX=     2.0600
   XY=    -2.5170   YY=    23.4024   ZY=    -0.0996
   XZ=     2.1029   YZ=    -1.7474   ZZ=    26.6364
   Eigenvalues:    22.8115    25.6804    31.7590
      8  H    Isotropic =    29.0438   Anisotropy =     6.9661
   XX=    30.8119   YX=    -1.0811   ZX=    -0.0708
   XY=    -1.3192   YY=    32.8441   ZY=     1.1407
   XZ=    -0.6232   YZ=     2.3049   ZZ=    23.4754
   Eigenvalues:    23.1664    30.2772    33.6879
      9  H    Isotropic =    25.9720   Anisotropy =     9.0226
   XX=    25.1791   YX=     4.4010   ZX=     2.1036
   XY=     4.6635   YY=    28.0597   ZY=     0.7982
   XZ=     3.2440   YZ=     0.4157   ZZ=    24.6773
   Eigenvalues:    20.9018    25.0272    31.9871
     10  H    Isotropic =    27.0812   Anisotropy =     7.5781
   XX=    26.9895   YX=    -1.2672   ZX=     0.0744
   XY=    -0.9697   YY=    22.2044   ZY=    -0.0970
   XZ=    -1.3707   YZ=    -0.4609   ZZ=    32.0496
   Eigenvalues:    21.9389    27.1713    32.1332
     11  H    Isotropic =    29.1636   Anisotropy =     5.7652
   XX=    26.7052   YX=     1.4985   ZX=     1.0602
   XY=     2.3633   YY=    29.4220   ZY=     1.9584
   XZ=     0.0374   YZ=     2.0763   ZZ=    31.3638
   Eigenvalues:    25.6621    28.8216    33.0071
     12  Cl   Isotropic =   849.8122   Anisotropy =   321.7881
   XX=   797.7493   YX=   126.7715   ZX=   -63.7254
   XY=   114.7266   YY=  1008.6438   ZY=     1.5227
   XZ=   -61.0095   YZ=    19.9241   ZZ=   743.0434
   Eigenvalues:   681.4106   803.6884  1064.3376
     13  Br   Isotropic =  2421.8775   Anisotropy =  1049.4947
   XX=  2401.6314   YX=   -52.8070   ZX=   559.0057
   XY=   -82.1160   YY=  2220.1935   ZY=   -89.0828
   XZ=   588.0572   YZ=   -76.4222   ZZ=  2643.8075
   Eigenvalues:  1936.5446  2207.5472  3121.5406
     14  C    Isotropic =   167.3719   Anisotropy =    43.8427
   XX=   159.6854   YX=    -4.9187   ZX=    10.6457
   XY=    -5.2900   YY=   149.2962   ZY=    -4.5917
   XZ=     9.6860   YZ=    -3.7454   ZZ=   193.1340
   Eigenvalues:   147.2080   158.3072   196.6003
     15  H    Isotropic =    30.4253   Anisotropy =     6.2506
   XX=    29.3248   YX=     3.3049   ZX=     2.1596
   XY=     2.2603   YY=    29.2206   ZY=    -0.2726
   XZ=     2.8391   YZ=     0.8801   ZZ=    32.7305
   Eigenvalues:    26.0953    30.5883    34.5923
     16  H    Isotropic =    30.6688   Anisotropy =     9.7843
   XX=    29.7009   YX=    -3.2979   ZX=     2.3019
   XY=    -2.7855   YY=    31.2409   ZY=    -2.9519
   XZ=     2.7273   YZ=    -4.9885   ZZ=    31.0647
   Eigenvalues:    27.0374    27.7774    37.1917
     17  H    Isotropic =    30.6953   Anisotropy =    10.7835
   XX=    29.0565   YX=     0.2769   ZX=    -2.3452
   XY=     0.1594   YY=    26.6321   ZY=    -1.3239
   XZ=    -4.3171   YZ=    -1.7274   ZZ=    36.3975
   Eigenvalues:    26.3488    27.8528    37.8844
     18  C    Isotropic =   167.2704   Anisotropy =    34.7120
   XX=   163.6742   YX=    12.5345   ZX=     7.9630
   XY=    13.9511   YY=   183.5296   ZY=     4.2703
   XZ=     3.1094   YZ=    -3.0616   ZZ=   154.6074
   Eigenvalues:   150.8450   160.5545   190.4117
     19  H    Isotropic =    30.5280   Anisotropy =    10.2334
   XX=    32.2058   YX=     3.5057   ZX=    -3.4438
   XY=     3.9142   YY=    30.2965   ZY=    -2.8714
   XZ=    -3.2070   YZ=    -2.6842   ZZ=    29.0816
   Eigenvalues:    26.7831    27.4505    37.3502
     20  H    Isotropic =    30.6235   Anisotropy =    10.4710
   XX=    28.1382   YX=    -0.9251   ZX=     0.0795
   XY=    -1.8919   YY=    37.2621   ZY=    -1.1171
   XZ=     0.0203   YZ=    -1.2967   ZZ=    26.4701
   Eigenvalues:    26.3300    27.9362    37.6041
     21  H    Isotropic =    29.4280   Anisotropy =     4.6222
   XX=    28.2516   YX=     1.1111   ZX=     3.4576
   XY=     1.8162   YY=    30.6760   ZY=     0.8773
   XZ=     2.5174   YZ=    -0.5596   ZZ=    29.3566
   Eigenvalues:    25.5540    30.2206    32.5095
     22  Cl   Isotropic =   775.5140   Anisotropy =   418.5003
   XX=   640.8493   YX=    73.4352   ZX=    58.3360
   XY=    81.8461   YY=   667.9688   ZY=    77.8501
   XZ=    38.7650   YZ=   119.0101   ZZ=  1017.7241
   Eigenvalues:   573.7564   698.2714  1054.5143
     23  C    Isotropic =    71.8978   Anisotropy =   135.5429
   XX=    73.6833   YX=    -3.5315   ZX=   -29.7424
   XY=     0.5134   YY=   -15.0612   ZY=     6.7873
   XZ=   -12.3320   YZ=     4.1676   ZZ=   157.0712
   Eigenvalues:   -15.2435    68.6771   162.2597
     24  H    Isotropic =    25.2042   Anisotropy =    11.4325
   XX=    30.2541   YX=    -3.7488   ZX=     1.2201
   XY=    -5.0328   YY=    25.1680   ZY=    -0.3619
   XZ=     0.4877   YZ=     0.4567   ZZ=    20.1903
   Eigenvalues:    20.0650    22.7216    32.8258
     25  C    Isotropic =   150.1379   Anisotropy =    49.4277
   XX=   154.2549   YX=    -9.8459   ZX=   -23.8482
   XY=   -11.5572   YY=   137.6152   ZY=    -4.9743
   XZ=   -29.3021   YZ=   -11.7691   ZZ=   158.5435
   Eigenvalues:   119.5662   147.7578   183.0896
     26  H    Isotropic =    27.4137   Anisotropy =     8.4940
   XX=    28.1397   YX=    -1.0279   ZX=     0.1440
   XY=    -1.2362   YY=    21.3958   ZY=    -0.3650
   XZ=     2.5062   YZ=     0.1431   ZZ=    32.7056
   Eigenvalues:    21.2099    27.9548    33.0764
     27  H    Isotropic =    27.2778   Anisotropy =     9.3901
   XX=    31.7129   YX=     1.3497   ZX=    -2.7803
   XY=     2.1358   YY=    27.7155   ZY=    -1.5538
   XZ=    -2.9622   YZ=    -3.4521   ZZ=    22.4050
   Eigenvalues:    20.9922    27.3033    33.5379
     28  Cl   Isotropic =   833.0242   Anisotropy =   406.3730
   XX=   928.9374   YX=   -70.3053   ZX=  -204.6331
   XY=   -46.1901   YY=   705.4670   ZY=   -40.7334
   XZ=  -199.9971   YZ=    -3.6185   ZZ=   864.6681
   Eigenvalues:   642.7450   752.3879  1103.9395
 End of Minotr Frequency-dependent properties file   721 does not exist.
 End of Minotr Frequency-dependent properties file   722 does not exist.

 **********************************************************************

            Population analysis using the SCF density.

 **********************************************************************

 Orbital symmetries:
       Occupied  (A) (A) (A) (A) (A) (A) (A) (A) (A) (A) (A) (A)
                 (A) (A) (A) (A) (A) (A) (A) (A) (A) (A) (A) (A)
                 (A) (A) (A) (A) (A) (A) (A) (A) (A) (A) (A) (A)
                 (A) (A) (A) (A) (A) (A) (A) (A) (A) (A) (A) (A)
                 (A) (A) (A) (A) (A) (A) (A) (A) (A) (A) (A) (A)
                 (A) (A) (A) (A) (A) (A) (A) (A) (A) (A) (A) (A)
                 (A) (A) (A) (A) (A) (A) (A) (A)
       Virtual   (A) (A) (A) (A) (A) (A) (A) (A) (A) (A) (A) (A)
                 (A) (A) (A) (A) (A) (A) (A) (A) (A) (A) (A) (A)
                 (A) (A) (A) (A) (A) (A) (A) (A) (A) (A) (A) (A)
                 (A) (A) (A) (A) (A) (A) (A) (A) (A) (A) (A) (A)
                 (A) (A) (A) (A) (A) (A) (A) (A) (A) (A) (A) (A)
                 (A) (A) (A) (A) (A) (A) (A) (A) (A) (A) (A) (A)
                 (A) (A) (A) (A) (A) (A) (A) (A) (A) (A) (A) (A)
                 (A) (A) (A) (A) (A) (A) (A) (A) (A) (A) (A) (A)
                 (A) (A) (A) (A) (A) (A) (A) (A) (A) (A) (A) (A)
                 (A) (A) (A) (A) (A) (A) (A) (A) (A) (A) (A) (A)
                 (A) (A) (A) (A) (A) (A) (A) (A) (A) (A) (A) (A)
                 (A) (A) (A) (A) (A) (A) (A) (A) (A) (A) (A) (A)
                 (A) (A) (A) (A) (A) (A) (A) (A) (A) (A) (A) (A)
                 (A) (A) (A) (A) (A) (A) (A) (A) (A) (A) (A) (A)
                 (A) (A) (A) (A) (A) (A) (A) (A) (A) (A) (A) (A)
                 (A) (A) (A) (A) (A) (A) (A) (A) (A) (A) (A) (A)
                 (A) (A) (A) (A) (A) (A) (A) (A) (A) (A) (A) (A)
                 (A) (A) (A) (A) (A) (A) (A) (A) (A) (A) (A) (A)
                 (A) (A) (A) (A) (A) (A) (A) (A) (A) (A) (A) (A)
                 (A) (A) (A) (A) (A) (A) (A) (A) (A) (A) (A) (A)
                 (A) (A) (A) (A) (A) (A) (A) (A) (A) (A) (A) (A)
                 (A) (A) (A) (A) (A) (A) (A) (A) (A) (A) (A) (A)
                 (A) (A) (A) (A) (A) (A) (A) (A) (A) (A) (A) (A)
                 (A) (A) (A) (A) (A) (A) (A)
 The electronic state is 1-A.
 Alpha  occ. eigenvalues -- -483.41323-101.76585-101.76010-101.75997 -62.05278
 Alpha  occ. eigenvalues --  -56.53826 -56.53485 -56.53474 -10.33971 -10.33606
 Alpha  occ. eigenvalues --  -10.33143 -10.32591 -10.30656 -10.30070 -10.28299
 Alpha  occ. eigenvalues --  -10.28090 -10.26083 -10.24875  -9.54336  -9.53812
 Alpha  occ. eigenvalues --   -9.53706  -8.67086  -7.28305  -7.27790  -7.27681
 Alpha  occ. eigenvalues --   -7.27373  -7.27360  -7.26840  -7.26821  -7.26747
 Alpha  occ. eigenvalues --   -7.26727  -6.60560  -6.59395  -6.59375  -2.69294
 Alpha  occ. eigenvalues --   -2.68965  -2.68949  -2.68002  -2.68002  -0.93940
 Alpha  occ. eigenvalues --   -0.89371  -0.89187  -0.86563  -0.82437  -0.81632
 Alpha  occ. eigenvalues --   -0.77914  -0.73873  -0.72388  -0.70206  -0.68061
 Alpha  occ. eigenvalues --   -0.64557  -0.59600  -0.55482  -0.53046  -0.51370
 Alpha  occ. eigenvalues --   -0.49760  -0.48619  -0.47646  -0.46752  -0.45909
 Alpha  occ. eigenvalues --   -0.45173  -0.43763  -0.42479  -0.41963  -0.41281
 Alpha  occ. eigenvalues --   -0.40339  -0.39533  -0.38527  -0.38036  -0.36091
 Alpha  occ. eigenvalues --   -0.35195  -0.33722  -0.33000  -0.32653  -0.32543
 Alpha  occ. eigenvalues --   -0.32060  -0.31660  -0.29891  -0.28884  -0.28434
 Alpha virt. eigenvalues --   -0.04573  -0.02000  -0.00628  -0.00056   0.00837
 Alpha virt. eigenvalues --    0.01412   0.02134   0.02622   0.03483   0.03788
 Alpha virt. eigenvalues --    0.03938   0.04682   0.05255   0.05626   0.06464
 Alpha virt. eigenvalues --    0.06701   0.07105   0.07484   0.08211   0.08323
 Alpha virt. eigenvalues --    0.08776   0.09078   0.09556   0.09819   0.10130
 Alpha virt. eigenvalues --    0.10445   0.10701   0.11793   0.12156   0.12265
 Alpha virt. eigenvalues --    0.12851   0.12983   0.13301   0.13995   0.14639
 Alpha virt. eigenvalues --    0.14921   0.15457   0.15824   0.16577   0.16750
 Alpha virt. eigenvalues --    0.17046   0.17390   0.17925   0.18207   0.18529
 Alpha virt. eigenvalues --    0.19007   0.19056   0.19274   0.19649   0.19926
 Alpha virt. eigenvalues --    0.20639   0.21296   0.21575   0.22114   0.22679
 Alpha virt. eigenvalues --    0.23251   0.23396   0.23727   0.24143   0.24745
 Alpha virt. eigenvalues --    0.25366   0.26215   0.26691   0.27011   0.27580
 Alpha virt. eigenvalues --    0.27841   0.27876   0.28316   0.28813   0.29601
 Alpha virt. eigenvalues --    0.30677   0.31360   0.31475   0.32210   0.33375
 Alpha virt. eigenvalues --    0.35328   0.35424   0.36123   0.37364   0.39126
 Alpha virt. eigenvalues --    0.40735   0.43578   0.45194   0.47548   0.48229
 Alpha virt. eigenvalues --    0.49623   0.53114   0.53866   0.54599   0.57964
 Alpha virt. eigenvalues --    0.58501   0.58906   0.60056   0.60955   0.61518
 Alpha virt. eigenvalues --    0.62854   0.64247   0.64737   0.65009   0.65384
 Alpha virt. eigenvalues --    0.65810   0.66359   0.66757   0.67049   0.67978
 Alpha virt. eigenvalues --    0.68139   0.68875   0.70683   0.71238   0.72250
 Alpha virt. eigenvalues --    0.73034   0.73384   0.74528   0.76418   0.76629
 Alpha virt. eigenvalues --    0.77590   0.78572   0.79207   0.79575   0.79809
 Alpha virt. eigenvalues --    0.80930   0.82395   0.82522   0.84493   0.85781
 Alpha virt. eigenvalues --    0.86887   0.87628   0.88275   0.88915   0.89794
 Alpha virt. eigenvalues --    0.90404   0.91717   0.93256   0.93639   0.94461
 Alpha virt. eigenvalues --    0.95924   0.97682   0.98456   1.00103   1.00573
 Alpha virt. eigenvalues --    1.01366   1.02398   1.02835   1.03672   1.04911
 Alpha virt. eigenvalues --    1.05599   1.06207   1.06896   1.07530   1.09002
 Alpha virt. eigenvalues --    1.09850   1.10481   1.12821   1.13099   1.13804
 Alpha virt. eigenvalues --    1.15493   1.16065   1.17313   1.18661   1.19176
 Alpha virt. eigenvalues --    1.20080   1.22548   1.23661   1.24183   1.28430
 Alpha virt. eigenvalues --    1.29644   1.33360   1.35596   1.38121   1.40254
 Alpha virt. eigenvalues --    1.44161   1.45172   1.49617   1.50259   1.54531
 Alpha virt. eigenvalues --    1.55326   1.56400   1.61648   1.65252   1.68800
 Alpha virt. eigenvalues --    1.70952   1.72045   1.73760   1.77258   1.80526
 Alpha virt. eigenvalues --    1.82516   1.83743   1.85565   1.87581   1.88152
 Alpha virt. eigenvalues --    1.89427   1.90724   1.93113   1.94703   1.96241
 Alpha virt. eigenvalues --    1.96605   1.99319   1.99732   2.00581   2.02691
 Alpha virt. eigenvalues --    2.04455   2.06732   2.09045   2.09316   2.11565
 Alpha virt. eigenvalues --    2.12302   2.12863   2.15228   2.17006   2.17598
 Alpha virt. eigenvalues --    2.17953   2.18909   2.20585   2.21850   2.25102
 Alpha virt. eigenvalues --    2.25322   2.26916   2.32146   2.33048   2.34133
 Alpha virt. eigenvalues --    2.38173   2.42109   2.42794   2.46562   2.47760
 Alpha virt. eigenvalues --    2.50360   2.51359   2.52314   2.56410   2.57296
 Alpha virt. eigenvalues --    2.58963   2.60915   2.61629   2.63539   2.67836
 Alpha virt. eigenvalues --    2.68993   2.69798   2.73546   2.74508   2.75626
 Alpha virt. eigenvalues --    2.77812   2.78479   2.81230   2.82630   2.84179
 Alpha virt. eigenvalues --    2.84594   2.88143   2.88548   2.90705   2.92007
 Alpha virt. eigenvalues --    2.96687   2.98945   3.00739   3.09231   3.29845
 Alpha virt. eigenvalues --    3.31445   3.32997   3.35249   3.41275   3.45291
 Alpha virt. eigenvalues --    3.46177   3.47464   3.48726   3.50004   3.51819
 Alpha virt. eigenvalues --    3.52047   3.55021   3.56644   4.29591   4.31568
 Alpha virt. eigenvalues --    4.40094   4.40714   4.43410   4.47424   4.51948
 Alpha virt. eigenvalues --    4.55720   4.61428   4.66368   4.73589   4.77710
 Alpha virt. eigenvalues --    4.83860   9.09094  81.84275
          Condensed to atoms (all electrons):
              1          2          3          4          5          6
     1  C   12.370207   1.135476  -0.008730  -1.614809  -2.841154  -0.932025
     2  C    1.135476  11.589726   1.068185  -4.963374   0.940804  -3.126265
     3  C   -0.008730   1.068185  13.686600  -3.277663  -2.339305  -0.747816
     4  C   -1.614809  -4.963374  -3.277663  14.467981   0.152859   2.341263
     5  C   -2.841154   0.940804  -2.339305   0.152859  17.536093  -0.743624
     6  C   -0.932025  -3.126265  -0.747816   2.341263  -0.743624   8.384571
     7  H   -0.022843   0.046474   0.182074  -0.073664   0.049627  -0.015694
     8  H   -0.157474  -0.048369   0.003756   0.026326   0.089938   0.412047
     9  H    0.338751   0.052313   0.011320  -0.060299   0.085052  -0.122467
    10  H    0.055064   0.204012   0.060437   0.004555  -0.073751   0.050789
    11  H   -0.006039   0.049856   0.020583  -0.014906   0.041794   0.298053
    12  Cl  -0.268277  -0.188915   0.065405   0.196207   0.171910   0.230511
    13  Br   0.167314   0.479642   0.148356  -0.149948  -0.184920  -0.270544
    14  C    0.350351   0.373565   0.275320  -1.212966  -0.346794  -0.116032
    15  H    0.010944  -0.005009  -0.007423  -0.056077  -0.061189  -0.021415
    16  H    0.001738   0.028665  -0.038101  -0.083605   0.040893   0.000230
    17  H    0.002878  -0.001060   0.060047  -0.165038  -0.009223   0.017489
    18  C   -0.213286  -0.424609   0.096425  -0.180800  -0.212316   0.034382
    19  H    0.003531  -0.002929   0.072821  -0.154904  -0.025154   0.009907
    20  H   -0.007354   0.041232  -0.023697  -0.121709   0.014949  -0.009697
    21  H    0.000980  -0.053978  -0.059229   0.009229   0.010972   0.003693
    22  Cl  -0.370553  -0.113892  -0.896141   0.277086   0.720661  -0.007651
    23  C   -1.924643  -0.739456  -1.056150   0.483782  -7.774948   0.572734
    24  H   -0.100987  -0.007840   0.038832   0.007951   0.144339   0.009815
    25  C    0.360286   0.085560  -1.109396  -0.016448   0.132960   0.019709
    26  H    0.008121   0.000154   0.015033   0.004785   0.095421   0.002764
    27  H   -0.021139  -0.000107  -0.022116  -0.004471   0.068905  -0.002778
    28  Cl   0.001647  -0.000094  -0.000456   0.017041   0.304468  -0.004385
              7          8          9         10         11         12
     1  C   -0.022843  -0.157474   0.338751   0.055064  -0.006039  -0.268277
     2  C    0.046474  -0.048369   0.052313   0.204012   0.049856  -0.188915
     3  C    0.182074   0.003756   0.011320   0.060437   0.020583   0.065405
     4  C   -0.073664   0.026326  -0.060299   0.004555  -0.014906   0.196207
     5  C    0.049627   0.089938   0.085052  -0.073751   0.041794   0.171910
     6  C   -0.015694   0.412047  -0.122467   0.050789   0.298053   0.230511
     7  H    0.548572   0.000010  -0.000031  -0.000159  -0.000032  -0.002012
     8  H    0.000010   0.482044  -0.002986  -0.003183  -0.021220   0.006021
     9  H   -0.000031  -0.002986   0.468264  -0.000071   0.003889  -0.047623
    10  H   -0.000159  -0.003183  -0.000071   0.511935  -0.004288   0.002275
    11  H   -0.000032  -0.021220   0.003889  -0.004288   0.491413  -0.004305
    12  Cl  -0.002012   0.006021  -0.047623   0.002275  -0.004305  17.053151
    13  Br  -0.001753  -0.006438   0.002389  -0.025389   0.005058   0.010603
    14  C    0.006580   0.000444  -0.008594   0.049858  -0.028313  -0.011868
    15  H   -0.000611   0.000029  -0.000063  -0.000222  -0.001743  -0.001543
    16  H    0.004326   0.000000   0.000001   0.000115   0.000033   0.000096
    17  H    0.000141  -0.000006   0.000001   0.003791   0.000172   0.000037
    18  C   -0.036828  -0.001045   0.009706  -0.048187   0.010445  -0.000566
    19  H   -0.000046  -0.000002  -0.000001   0.002454   0.000003   0.000006
    20  H    0.003357   0.000002   0.000000  -0.000053  -0.000001  -0.000052
    21  H    0.000088  -0.000002   0.000029  -0.000101   0.000000   0.000112
    22  Cl  -0.011074   0.002134   0.013857  -0.006451  -0.001005  -0.005414
    23  C    0.113366   0.003970  -0.008180  -0.003673  -0.051287  -0.232608
    24  H    0.000140  -0.000004   0.000173   0.000000   0.000013   0.018645
    25  C    0.003590  -0.000298  -0.000445  -0.000036   0.000777  -0.007073
    26  H   -0.000390   0.000000  -0.000002   0.000000   0.000002   0.000862
    27  H    0.009755   0.000000  -0.000002   0.000000   0.000000   0.000717
    28  Cl  -0.000361  -0.000013   0.000608  -0.000001   0.000060   0.004351
             13         14         15         16         17         18
     1  C    0.167314   0.350351   0.010944   0.001738   0.002878  -0.213286
     2  C    0.479642   0.373565  -0.005009   0.028665  -0.001060  -0.424609
     3  C    0.148356   0.275320  -0.007423  -0.038101   0.060047   0.096425
     4  C   -0.149948  -1.212966  -0.056077  -0.083605  -0.165038  -0.180800
     5  C   -0.184920  -0.346794  -0.061189   0.040893  -0.009223  -0.212316
     6  C   -0.270544  -0.116032  -0.021415   0.000230   0.017489   0.034382
     7  H   -0.001753   0.006580  -0.000611   0.004326   0.000141  -0.036828
     8  H   -0.006438   0.000444   0.000029   0.000000  -0.000006  -0.001045
     9  H    0.002389  -0.008594  -0.000063   0.000001   0.000001   0.009706
    10  H   -0.025389   0.049858  -0.000222   0.000115   0.003791  -0.048187
    11  H    0.005058  -0.028313  -0.001743   0.000033   0.000172   0.010445
    12  Cl   0.010603  -0.011868  -0.001543   0.000096   0.000037  -0.000566
    13  Br  35.126422   0.060443   0.000498  -0.002137   0.002441  -0.097997
    14  C    0.060443   6.583562   0.413148   0.436126   0.485242  -0.742239
    15  H    0.000498   0.413148   0.505307  -0.024562  -0.022973   0.024300
    16  H   -0.002137   0.436126  -0.024562   0.501842  -0.020598  -0.036211
    17  H    0.002441   0.485242  -0.022973  -0.020598   0.498988  -0.033900
    18  C   -0.097997  -0.742239   0.024300  -0.036211  -0.033900   6.749838
    19  H    0.001558   0.008498   0.000096  -0.000074   0.002248   0.443988
    20  H    0.000275  -0.010954   0.000061   0.002688   0.000055   0.447338
    21  H    0.001929  -0.001943  -0.000148   0.000107   0.000018   0.441229
    22  Cl  -0.068130  -0.150829  -0.001975   0.003784  -0.003360   0.175153
    23  C   -0.019783   0.118324   0.058646  -0.007589  -0.006954   0.095315
    24  H   -0.000134  -0.001378   0.000017   0.000002   0.000000   0.000832
    25  C   -0.001262   0.062150   0.001356   0.003516  -0.000892  -0.080190
    26  H   -0.000054   0.001921   0.000023  -0.000018   0.000000  -0.000710
    27  H    0.000011   0.005819   0.000020   0.000007   0.000001  -0.000176
    28  Cl  -0.000383  -0.007508   0.000123  -0.000052  -0.000017   0.003323
             19         20         21         22         23         24
     1  C    0.003531  -0.007354   0.000980  -0.370553  -1.924643  -0.100987
     2  C   -0.002929   0.041232  -0.053978  -0.113892  -0.739456  -0.007840
     3  C    0.072821  -0.023697  -0.059229  -0.896141  -1.056150   0.038832
     4  C   -0.154904  -0.121709   0.009229   0.277086   0.483782   0.007951
     5  C   -0.025154   0.014949   0.010972   0.720661  -7.774948   0.144339
     6  C    0.009907  -0.009697   0.003693  -0.007651   0.572734   0.009815
     7  H   -0.000046   0.003357   0.000088  -0.011074   0.113366   0.000140
     8  H   -0.000002   0.000002  -0.000002   0.002134   0.003970  -0.000004
     9  H   -0.000001   0.000000   0.000029   0.013857  -0.008180   0.000173
    10  H    0.002454  -0.000053  -0.000101  -0.006451  -0.003673   0.000000
    11  H    0.000003  -0.000001   0.000000  -0.001005  -0.051287   0.000013
    12  Cl   0.000006  -0.000052   0.000112  -0.005414  -0.232608   0.018645
    13  Br   0.001558   0.000275   0.001929  -0.068130  -0.019783  -0.000134
    14  C    0.008498  -0.010954  -0.001943  -0.150829   0.118324  -0.001378
    15  H    0.000096   0.000061  -0.000148  -0.001975   0.058646   0.000017
    16  H   -0.000074   0.002688   0.000107   0.003784  -0.007589   0.000002
    17  H    0.002248   0.000055   0.000018  -0.003360  -0.006954   0.000000
    18  C    0.443988   0.447338   0.441229   0.175153   0.095315   0.000832
    19  H    0.512773  -0.024969  -0.024432  -0.006877   0.001170   0.000000
    20  H   -0.024969   0.515484  -0.022884   0.005638   0.011536   0.000000
    21  H   -0.024432  -0.022884   0.486677   0.014330  -0.005731   0.000000
    22  Cl  -0.006877   0.005638   0.014330  17.388955   0.085424  -0.000581
    23  C    0.001170   0.011536  -0.005731   0.085424  16.991586   0.274555
    24  H    0.000000   0.000000   0.000000  -0.000581   0.274555   0.495798
    25  C   -0.000157   0.000357  -0.000045   0.033997  -0.422961  -0.093666
    26  H    0.000000   0.000000   0.000000  -0.003942  -0.180592  -0.002418
    27  H    0.000000  -0.000001   0.000001   0.008037  -0.059690   0.003525
    28  Cl  -0.000001   0.000006  -0.000002   0.009043  -0.408674   0.020023
             25         26         27         28
     1  C    0.360286   0.008121  -0.021139   0.001647
     2  C    0.085560   0.000154  -0.000107  -0.000094
     3  C   -1.109396   0.015033  -0.022116  -0.000456
     4  C   -0.016448   0.004785  -0.004471   0.017041
     5  C    0.132960   0.095421   0.068905   0.304468
     6  C    0.019709   0.002764  -0.002778  -0.004385
     7  H    0.003590  -0.000390   0.009755  -0.000361
     8  H   -0.000298   0.000000   0.000000  -0.000013
     9  H   -0.000445  -0.000002  -0.000002   0.000608
    10  H   -0.000036   0.000000   0.000000  -0.000001
    11  H    0.000777   0.000002   0.000000   0.000060
    12  Cl  -0.007073   0.000862   0.000717   0.004351
    13  Br  -0.001262  -0.000054   0.000011  -0.000383
    14  C    0.062150   0.001921   0.005819  -0.007508
    15  H    0.001356   0.000023   0.000020   0.000123
    16  H    0.003516  -0.000018   0.000007  -0.000052
    17  H   -0.000892   0.000000   0.000001  -0.000017
    18  C   -0.080190  -0.000710  -0.000176   0.003323
    19  H   -0.000157   0.000000   0.000000  -0.000001
    20  H    0.000357   0.000000  -0.000001   0.000006
    21  H   -0.000045   0.000000   0.000001  -0.000002
    22  Cl   0.033997  -0.003942   0.008037   0.009043
    23  C   -0.422961  -0.180592  -0.059690  -0.408674
    24  H   -0.093666  -0.002418   0.003525   0.020023
    25  C    6.595099   0.393416   0.343752   0.220884
    26  H    0.393416   0.490293  -0.025596  -0.039199
    27  H    0.343752  -0.025596   0.510927  -0.026421
    28  Cl   0.220884  -0.039199  -0.026421  17.026455
 Mulliken atomic charges:
              1
     1  C   -0.317975
     2  C   -0.419766
     3  C   -0.218972
     4  C    0.161616
     5  C    0.010735
     6  C   -0.267564
     7  H    0.197396
     8  H    0.214319
     9  H    0.264412
    10  H    0.220276
    11  H    0.210988
    12  Cl   0.009347
    13  Br  -0.178069
    14  C   -0.591932
    15  H    0.190385
    16  H    0.188779
    17  H    0.190473
    18  C   -0.423216
    19  H    0.180495
    20  H    0.178395
    21  H    0.199102
    22  Cl  -0.090224
    23  C    0.092511
    24  H    0.192347
    25  C   -0.524538
    26  H    0.240126
    27  H    0.211021
    28  Cl  -0.120466
 Sum of Mulliken atomic charges =   0.00000
 Mulliken charges with hydrogens summed into heavy atoms:
              1
     1  C   -0.053563
     2  C   -0.199489
     3  C   -0.021576
     4  C    0.161616
     5  C    0.010735
     6  C    0.157743
    12  Cl   0.009347
    13  Br  -0.178069
    14  C   -0.022295
    18  C    0.134775
    22  Cl  -0.090224
    23  C    0.284858
    25  C   -0.073391
    28  Cl  -0.120466
 Sum of Mulliken charges with hydrogens summed into heavy atoms =   0.00000
 Electronic spatial extent (au):  <R**2>=           5360.1318
 Charge=              0.0000 electrons
 Dipole moment (field-independent basis, Debye):
    X=             -1.2465    Y=             -1.9670    Z=              6.2878  Tot=              6.7052
 Quadrupole moment (field-independent basis, Debye-Ang):
   XX=           -133.3468   YY=           -121.4659   ZZ=           -115.3083
   XY=             -1.0727   XZ=              3.1272   YZ=             -4.6658
 Traceless Quadrupole moment (field-independent basis, Debye-Ang):
   XX=             -9.9731   YY=              1.9077   ZZ=              8.0654
   XY=             -1.0727   XZ=              3.1272   YZ=             -4.6658
 Octapole moment (field-independent basis, Debye-Ang**2):
  XXX=           -118.5875  YYY=            -15.2289  ZZZ=            -15.2127  XYY=            -29.6178
  XXY=              7.2530  XXZ=             26.9502  XZZ=            -32.3306  YZZ=              2.5921
  YYZ=              1.8755  XYZ=             -4.6616
 Hexadecapole moment (field-independent basis, Debye-Ang**3):
 XXXX=          -4356.7327 YYYY=          -1748.3702 ZZZZ=           -886.7824 XXXY=             39.6372
 XXXZ=            133.2270 YYYX=            -31.4497 YYYZ=            -11.1211 ZZZX=             50.0292
 ZZZY=             -0.8889 XXYY=           -944.7044 XXZZ=           -761.9036 YYZZ=           -440.8365
 XXYZ=            -14.9972 YYXZ=             21.6882 ZZXY=             -7.0961
 N-N= 1.725366522818D+03 E-N=-1.376475744594D+04  KE= 4.317840887325D+03
 1\1\GINC-COMPUTE-6-31\SP\RmPW1PW91\6-31+G(d,p)\C10H14Br1Cl3\LPASSAGLIA
 .IQUIR\20-May-2022\0\\# mPW1PW91/6-31+G** scrf=(PCM,solvent=chloroform
 ) nmr\\comment\\0,1\C,0,0.130702,1.46901,-0.031507\C,0,-1.787441,0.140
 232,0.951408\C,0,0.350111,-1.035677,0.098106\C,0,-0.902244,-1.128391,1
 .021442\C,0,1.07004,0.294434,0.174006\C,0,-1.001033,1.453171,1.004156\
 H,0,1.015345,-1.849441,0.380919\H,0,-1.675511,2.294219,0.829915\H,0,-0
 .302065,1.407198,-1.033549\H,0,-2.513816,0.109262,1.764566\H,0,-0.5720
 59,1.577963,2.005837\Cl,0,0.944841,3.095053,0.018465\Br,0,-2.978492,0.
 206047,-0.662537\C,0,-0.348366,-1.2063,2.474616\H,0,0.316527,-0.375268
 ,2.724507\H,0,0.21419,-2.136756,2.608926\H,0,-1.173543,-1.214775,3.194
 799\C,0,-1.70673,-2.413252,0.767286\H,0,-2.505813,-2.506563,1.511809\H
 ,0,-1.057796,-3.291567,0.858008\H,0,-2.161926,-2.420493,-0.222938\Cl,0
 ,-0.000045,-1.403761,-1.679133\C,0,2.383352,0.419452,0.417176\H,0,2.80
 2489,1.420677,0.451039\C,0,3.378219,-0.670081,0.643111\H,0,3.909694,-0
 .52827,1.587194\H,0,2.963428,-1.676481,0.618639\Cl,0,4.678053,-0.62993
 6,-0.645784\\Version=EM64L-G09RevC.01\State=1-A\HF=-4341.9481515\RMSD=
 4.890e-09\Dipole=-0.4904212,-0.7738782,2.4738103\Quadrupole=-7.4147895
 ,1.4183513,5.9964381,-0.7975071,2.3249986,-3.4688787\PG=C01 [X(C10H14B
 r1Cl3)]\\@


 K N O W I N G  IS A BARRIER WHICH PREVENTS LEARNING

                     -- TEACHING OF THE BENE GESSERIT
 Job cpu time:  0 days  0 hours 18 minutes 17.5 seconds.
 File lengths (MBytes):  RWF=    152 Int=      0 D2E=      0 Chk=      9 Scr=      1
 Normal termination of Gaussian 09 at Fri May 20 10:43:18 2022.
