 Entering Gaussian System, Link 0=g09
 Input=/home/lpassaglia.iquir/NMR_Tetrahalogenados/04_SRRE_Tetrahalogenado_002.gjc
 Output=/home/lpassaglia.iquir/NMR_Tetrahalogenados/04_SRRE_Tetrahalogenado_002.log
 Initial command:
 /share/apps/Gaussian09/EM64T.SSE4.2-enabled/g09/l1.exe /tmp/Gau-30374.inp -scrdir=/tmp/
 Entering Link 1 = /share/apps/Gaussian09/EM64T.SSE4.2-enabled/g09/l1.exe PID=     30375.
  
 Copyright (c) 1988,1990,1992,1993,1995,1998,2003,2009,2011,
            Gaussian, Inc.  All Rights Reserved.
  
 This is part of the Gaussian(R) 09 program.  It is based on
 the Gaussian(R) 03 system (copyright 2003, Gaussian, Inc.),
 the Gaussian(R) 98 system (copyright 1998, Gaussian, Inc.),
 the Gaussian(R) 94 system (copyright 1995, Gaussian, Inc.),
 the Gaussian 92(TM) system (copyright 1992, Gaussian, Inc.),
 the Gaussian 90(TM) system (copyright 1990, Gaussian, Inc.),
 the Gaussian 88(TM) system (copyright 1988, Gaussian, Inc.),
 the Gaussian 86(TM) system (copyright 1986, Carnegie Mellon
 University), and the Gaussian 82(TM) system (copyright 1983,
 Carnegie Mellon University). Gaussian is a federally registered
 trademark of Gaussian, Inc.
  
 This software contains proprietary and confidential information,
 including trade secrets, belonging to Gaussian, Inc.
  
 This software is provided under written license and may be
 used, copied, transmitted, or stored only in accord with that
 written license.
  
 The following legend is applicable only to US Government
 contracts under FAR:
  
                    RESTRICTED RIGHTS LEGEND
  
 Use, reproduction and disclosure by the US Government is
 subject to restrictions as set forth in subparagraphs (a)
 and (c) of the Commercial Computer Software - Restricted
 Rights clause in FAR 52.227-19.
  
 Gaussian, Inc.
 340 Quinnipiac St., Bldg. 40, Wallingford CT 06492
  
  
 ---------------------------------------------------------------
 Warning -- This program may not be used in any manner that
 competes with the business of Gaussian, Inc. or will provide
 assistance to any competitor of Gaussian, Inc.  The licensee
 of this program is prohibited from giving any competitor of
 Gaussian, Inc. access to this program.  By using this program,
 the user acknowledges that Gaussian, Inc. is engaged in the
 business of creating and licensing software in the field of
 computational chemistry and represents and warrants to the
 licensee that it is not a competitor of Gaussian, Inc. and that
 it will not use this program in any manner prohibited above.
 ---------------------------------------------------------------
  

 Cite this work as:
 Gaussian 09, Revision C.01,
 M. J. Frisch, G. W. Trucks, H. B. Schlegel, G. E. Scuseria, 
 M. A. Robb, J. R. Cheeseman, G. Scalmani, V. Barone, B. Mennucci, 
 G. A. Petersson, H. Nakatsuji, M. Caricato, X. Li, H. P. Hratchian, 
 A. F. Izmaylov, J. Bloino, G. Zheng, J. L. Sonnenberg, M. Hada, 
 M. Ehara, K. Toyota, R. Fukuda, J. Hasegawa, M. Ishida, T. Nakajima, 
 Y. Honda, O. Kitao, H. Nakai, T. Vreven, J. A. Montgomery, Jr., 
 J. E. Peralta, F. Ogliaro, M. Bearpark, J. J. Heyd, E. Brothers, 
 K. N. Kudin, V. N. Staroverov, T. Keith, R. Kobayashi, J. Normand, 
 K. Raghavachari, A. Rendell, J. C. Burant, S. S. Iyengar, J. Tomasi, 
 M. Cossi, N. Rega, J. M. Millam, M. Klene, J. E. Knox, J. B. Cross, 
 V. Bakken, C. Adamo, J. Jaramillo, R. Gomperts, R. E. Stratmann, 
 O. Yazyev, A. J. Austin, R. Cammi, C. Pomelli, J. W. Ochterski, 
 R. L. Martin, K. Morokuma, V. G. Zakrzewski, G. A. Voth, 
 P. Salvador, J. J. Dannenberg, S. Dapprich, A. D. Daniels, 
 O. Farkas, J. B. Foresman, J. V. Ortiz, J. Cioslowski, 
 and D. J. Fox, Gaussian, Inc., Wallingford CT, 2010.
 
 ******************************************
 Gaussian 09:  EM64L-G09RevC.01 23-Sep-2011
                20-May-2022 
 ******************************************
 %nprocshared=4
 Will use up to    4 processors via shared memory.
 -----------------------------------------------------
 # mPW1PW91/6-31+G** scrf=(PCM,solvent=chloroform) nmr
 -----------------------------------------------------
 1/38=1/1;
 2/12=2,17=6,18=5,40=1/2;
 3/5=1,6=6,7=111,11=2,16=1,25=1,30=1,70=2201,72=7,74=-7/1,2,8,3;
 4//1;
 5/5=2,38=5,53=7/2;
 8/6=1,10=90,11=11/1;
 10/13=100,45=16/2;
 6/7=2,8=2,9=2,10=2,28=1/1;
 99/9=1/99;
 -------
 comment
 -------
 Charge =  0 Multiplicity = 1
 Symbolic Z-Matrix:
 6                     0.26644   1.82525  -0.51706 
 6                    -1.65175   0.25128   0.01162 
 6                     0.49872   0.02271   1.18761 
 6                    -0.70978  -0.82022   0.63848 
 6                     1.20487   0.81247   0.10202 
 6                    -1.00875   1.15226  -1.03931 
 1                     0.09668   0.74989   1.89816 
 1                    -0.72539   0.55873  -1.91652 
 1                     0.7608    2.3616   -1.32664 
 1                    -2.07989   0.86037   0.80964 
 1                    -1.72378   1.90768  -1.37514 
 17                   -0.17348   3.16373   0.68987 
 35                   -3.26591  -0.57852  -0.8237 
 6                    -1.44601  -1.50578   1.80476 
 1                    -1.70697  -0.78392   2.58838 
 1                    -0.82861  -2.28618   2.25451 
 1                    -2.37115  -1.96204   1.44288 
 6                    -0.23906  -1.87005  -0.38076 
 1                    -1.09834  -2.4114   -0.78452 
 1                     0.42465  -2.59135   0.10516 
 1                     0.30733  -1.42599  -1.21846 
 17                    1.60275  -0.98049   2.24525 
 6                     2.43579   0.72368  -0.42875 
 1                     2.68193   1.46272  -1.1902 
 6                     3.56137  -0.23     -0.17661 
 1                     4.41306   0.27651   0.28507 
 1                     3.29388  -1.09957   0.41124 
 17                    4.18202  -0.86197  -1.78018 
 
                          Input orientation:                          
 ---------------------------------------------------------------------
 Center     Atomic      Atomic             Coordinates (Angstroms)
 Number     Number       Type             X           Y           Z
 ---------------------------------------------------------------------
      1          6           0        0.266436    1.825250   -0.517055
      2          6           0       -1.651753    0.251277    0.011618
      3          6           0        0.498720    0.022709    1.187614
      4          6           0       -0.709780   -0.820223    0.638484
      5          6           0        1.204869    0.812465    0.102016
      6          6           0       -1.008753    1.152257   -1.039310
      7          1           0        0.096683    0.749887    1.898161
      8          1           0       -0.725394    0.558728   -1.916516
      9          1           0        0.760802    2.361600   -1.326644
     10          1           0       -2.079889    0.860374    0.809637
     11          1           0       -1.723782    1.907675   -1.375142
     12         17           0       -0.173480    3.163735    0.689870
     13         35           0       -3.265914   -0.578519   -0.823702
     14          6           0       -1.446014   -1.505775    1.804755
     15          1           0       -1.706973   -0.783924    2.588381
     16          1           0       -0.828609   -2.286180    2.254512
     17          1           0       -2.371146   -1.962036    1.442884
     18          6           0       -0.239062   -1.870051   -0.380759
     19          1           0       -1.098335   -2.411401   -0.784519
     20          1           0        0.424654   -2.591351    0.105156
     21          1           0        0.307329   -1.425985   -1.218457
     22         17           0        1.602749   -0.980492    2.245251
     23          6           0        2.435790    0.723679   -0.428745
     24          1           0        2.681932    1.462723   -1.190200
     25          6           0        3.561368   -0.230004   -0.176606
     26          1           0        4.413063    0.276509    0.285068
     27          1           0        3.293881   -1.099565    0.411239
     28         17           0        4.182016   -0.861973   -1.780183
 ---------------------------------------------------------------------
                    Distance matrix (angstroms):
                    1          2          3          4          5
     1  C    0.000000
     2  C    2.536993   0.000000
     3  C    2.491788   2.461655   0.000000
     4  C    3.047424   1.558328   1.572435   0.000000
     5  C    1.513155   2.912626   1.516866   2.572810   0.000000
     6  C    1.533550   1.526324   2.916769   2.606733   2.513604
     7  H    2.649243   2.620054   1.093297   2.168505   2.111428
     8  H    2.132204   2.161103   3.379555   2.903407   2.804420
     9  H    1.089726   3.473446   3.443921   4.018499   2.153621
    10  H    2.862925   1.091391   2.737476   2.175063   3.360455
    11  H    2.168888   2.161468   3.880764   3.538971   3.458103
    12  Cl   1.855192   3.335825   3.250484   4.020221   2.788169
    13  Br   4.283647   1.997958   4.310375   2.954696   4.772807
    14  C    4.406701   2.518909   2.549337   1.540198   3.911616
    15  H    4.510639   2.777480   2.734572   2.190390   4.148408
    16  H    5.077850   3.485230   2.868979   2.185108   4.286009
    17  H    5.014153   2.732179   3.498644   2.170468   4.720558
    18  C    3.732205   2.578699   2.566448   1.537066   3.084461
    19  H    4.459075   2.833718   3.516360   2.169737   4.060050
    20  H    4.463020   3.521470   2.830285   2.169856   3.492092
    21  H    3.326284   2.857323   2.815053   2.202201   2.749525
    22  Cl   4.157915   4.134991   1.828630   2.820492   2.822492
    23  C    2.434616   4.138247   2.618438   3.662953   1.343412
    24  H    2.533608   4.657552   3.534693   4.478799   2.067456
    25  C    3.898275   5.238673   3.362257   4.388102   2.591806
    26  H    4.498501   6.071030   4.025057   5.250833   3.257801
    27  H    4.310649   5.142350   3.110495   4.019823   2.848763
    28  Cl   4.914105   6.203446   4.812188   5.457230   3.899977
                    6          7          8          9         10
     6  C    0.000000
     7  H    3.164273   0.000000
     8  H    1.096385   3.906931   0.000000
     9  H    2.162498   3.665793   2.409787   0.000000
    10  H    2.156649   2.436095   3.059012   3.858355   0.000000
    11  H    1.093026   3.920342   1.763384   2.526175   2.448859
    12  Cl   2.780969   2.712861   3.726113   2.362759   2.992359
    13  Br   2.852516   4.525512   2.990287   5.011157   2.478884
    14  C    3.917274   2.734346   4.316170   5.443555   2.643997
    15  H    4.170905   2.466203   4.802115   5.595682   2.450860
    16  H    4.764931   3.193878   5.049914   6.078879   3.681598
    17  H    4.209064   3.694859   4.510911   6.014417   2.907203
    18  C    3.187548   3.488592   2.914453   4.449865   3.501558
    19  H    3.573878   4.314925   3.200339   5.150906   3.769522
    20  H    4.168820   3.806088   3.915708   5.166698   4.322434
    21  H    2.900258   3.806849   2.343691   3.816169   3.878068
    22  Cl   4.707112   2.320112   5.010963   4.963556   4.360229
    23  C    3.524393   3.299485   3.497679   2.508903   4.684403
    24  H    3.706793   4.090186   3.599252   2.125403   5.199722
    25  C    4.851898   4.155585   4.693156   3.985244   5.829698
    26  H    5.649513   4.632202   5.597353   4.503802   6.540221
    27  H    5.068279   3.981643   4.931830   4.627785   5.733889
    28  Cl   5.616947   5.728722   5.110739   4.722481   6.991788
                   11         12         13         14         15
    11  H    0.000000
    12  Cl   2.871480   0.000000
    13  Br   2.977149   5.085127   0.000000
    14  C    4.673386   4.966552   3.328757   0.000000
    15  H    4.791086   4.641116   3.756967   1.096922   0.000000
    16  H    5.618197   5.707790   4.281584   1.092018   1.771938
    17  H    4.830633   5.627637   2.802167   1.093158   1.772354
    18  C    4.179044   5.146800   3.320555   2.523074   3.485718
    19  H    4.403912   5.840490   2.838907   2.765028   3.794150
    20  H    5.200797   5.815554   4.305179   2.750729   3.738587
    21  H    3.906821   4.993838   3.693521   3.495767   4.354500
    22  Cl   5.702154   4.769572   5.769223   3.124886   3.333262
    23  C    4.427138   3.743456   5.861838   5.002738   5.342135
    24  H    4.431986   3.818571   6.299037   5.900989   6.211891
    25  C    5.825716   5.120287   6.866730   5.534190   5.975567
    26  H    6.563373   5.434732   7.805583   6.309894   6.624546
    27  H    6.116502   5.502359   6.695333   4.957166   5.463343
    28  Cl   6.535553   6.424783   7.514444   6.703804   7.332846
                   16         17         18         19         20
    16  H    0.000000
    17  H    1.772916   0.000000
    18  C    2.732285   2.807119   0.000000
    19  H    3.053546   2.604477   1.092901   0.000000
    20  H    2.506697   3.162602   1.094032   1.772963   0.000000
    21  H    3.753905   3.813701   1.094292   1.770660   1.767426
    22  Cl   2.759784   4.171218   3.328590   4.303819   2.926223
    23  C    5.188007   5.815728   3.726201   4.737651   3.913968
    24  H    6.184191   6.647985   4.504973   5.428060   4.817548
    25  C    5.423107   6.388850   4.144237   5.180819   3.936283
    26  H    6.158020   7.237203   5.166557   6.224499   4.915729
    27  H    4.669115   5.822429   3.701702   4.737332   3.248319
    28  Cl   6.588892   7.385271   4.745581   5.592332   4.545660
                   21         22         23         24         25
    21  H    0.000000
    22  Cl   3.724762   0.000000
    23  C    3.126507   3.278477   0.000000
    24  H    3.739542   4.351581   1.089305   0.000000
    25  C    3.620027   3.203875   1.496667   2.160117   0.000000
    26  H    4.692134   3.649690   2.149209   2.565216   1.093198
    27  H    3.417887   2.497540   2.183143   3.082922   1.083165
    28  Cl   3.955609   4.782341   2.718452   2.828877   1.831952
                   26         27         28
    26  H    0.000000
    27  H    1.778220   0.000000
    28  Cl   2.369554   2.376460   0.000000
 Stoichiometry    C10H14BrCl3
 Framework group  C1[X(C10H14BrCl3)]
 Deg. of freedom    78
 Full point group                 C1      NOp   1
 Largest Abelian subgroup         C1      NOp   1
 Largest concise Abelian subgroup C1      NOp   1
                         Standard orientation:                         
 ---------------------------------------------------------------------
 Center     Atomic      Atomic             Coordinates (Angstroms)
 Number     Number       Type             X           Y           Z
 ---------------------------------------------------------------------
      1          6           0        0.266436    1.825250   -0.517055
      2          6           0       -1.651753    0.251277    0.011618
      3          6           0        0.498720    0.022709    1.187614
      4          6           0       -0.709780   -0.820223    0.638484
      5          6           0        1.204869    0.812465    0.102016
      6          6           0       -1.008753    1.152257   -1.039310
      7          1           0        0.096683    0.749887    1.898161
      8          1           0       -0.725394    0.558728   -1.916516
      9          1           0        0.760802    2.361600   -1.326644
     10          1           0       -2.079889    0.860374    0.809637
     11          1           0       -1.723782    1.907675   -1.375142
     12         17           0       -0.173480    3.163735    0.689870
     13         35           0       -3.265914   -0.578519   -0.823702
     14          6           0       -1.446014   -1.505775    1.804755
     15          1           0       -1.706973   -0.783924    2.588381
     16          1           0       -0.828609   -2.286180    2.254512
     17          1           0       -2.371146   -1.962036    1.442884
     18          6           0       -0.239062   -1.870051   -0.380759
     19          1           0       -1.098335   -2.411401   -0.784519
     20          1           0        0.424654   -2.591351    0.105156
     21          1           0        0.307329   -1.425985   -1.218457
     22         17           0        1.602749   -0.980492    2.245251
     23          6           0        2.435790    0.723679   -0.428745
     24          1           0        2.681932    1.462723   -1.190200
     25          6           0        3.561368   -0.230004   -0.176606
     26          1           0        4.413063    0.276509    0.285068
     27          1           0        3.293881   -1.099565    0.411239
     28         17           0        4.182016   -0.861973   -1.780183
 ---------------------------------------------------------------------
 Rotational constants (GHZ):      0.4631868      0.2117638      0.1984094
 Standard basis: 6-31+G(d,p) (6D, 7F)
 There are   363 symmetry adapted basis functions of A   symmetry.
 Integral buffers will be    131072 words long.
 Raffenetti 2 integral format.
 Two-electron integral symmetry is turned on.
   363 basis functions,   673 primitive gaussians,   363 cartesian basis functions
    80 alpha electrons       80 beta electrons
       nuclear repulsion energy      1693.3728513924 Hartrees.
 NAtoms=   28 NActive=   28 NUniq=   28 SFac= 1.00D+00 NAtFMM=   60 NAOKFM=F Big=F
 ------------------------------------------------------------------------------
 Polarizable Continuum Model (PCM)
 =================================
 Model                : PCM.
 Atomic radii         : UFF (Universal Force Field).
 Polarization charges : Total charges.
 Charge compensation  : None.
 Solution method      : Matrix inversion.
 Cavity type          : Scaled VdW (van der Waals Surface) (Alpha=1.100).
 Cavity algorithm     : GePol (No added spheres)
                        Default sphere list used, NSphG=   28.
                        Lebedev-Laikov grids with approx.  5.0 points / Ang**2.
                        Smoothing algorithm: Karplus/York (Gamma=1.0000).
                        Polarization charges: spherical gaussians, with
                                              point-specific exponents (IZeta= 3).
                        Self-potential: point-specific (ISelfS= 7).
                        Self-field    : sphere-specific E.n sum rule (ISelfD= 2).
 Solvent              : Chloroform, Eps=   4.711300 Eps(inf)=   2.090627
 ------------------------------------------------------------------------------
 One-electron integrals computed using PRISM.
 NBasis=   363 RedAO= T  NBF=   363
 NBsUse=   363 1.00D-06 NBFU=   363
 Harris functional with IExCor=  908 diagonalized for initial guess.
 ExpMin= 3.50D-02 ExpMax= 5.74D+05 ExpMxC= 5.74D+03 IAcc=3 IRadAn=         5 AccDes= 0.00D+00
 HarFok:  IExCor=  908 AccDes= 0.00D+00 IRadAn=         5 IDoV= 1
 ScaDFX=  1.000000  1.000000  1.000000  1.000000
 FoFCou: FMM=F IPFlag=           0 FMFlag=      100000 FMFlg1=           0
         NFxFlg=           0 DoJE=T BraDBF=F KetDBF=T FulRan=T
         Omega=  0.000000  0.000000  1.000000  0.000000  0.000000 ICntrl=     500 IOpCl=  0
         NMat0=    1 NMatS0=    1 NMatT0=    0 NMatD0=    1 NMtDS0=    0 NMtDT0=    0
         I1Cent=           4 NGrid=           0.
 Petite list used in FoFCou.
 Initial guess orbital symmetries:
       Occupied  (A) (A) (A) (A) (A) (A) (A) (A) (A) (A) (A) (A)
                 (A) (A) (A) (A) (A) (A) (A) (A) (A) (A) (A) (A)
                 (A) (A) (A) (A) (A) (A) (A) (A) (A) (A) (A) (A)
                 (A) (A) (A) (A) (A) (A) (A) (A) (A) (A) (A) (A)
                 (A) (A) (A) (A) (A) (A) (A) (A) (A) (A) (A) (A)
                 (A) (A) (A) (A) (A) (A) (A) (A) (A) (A) (A) (A)
                 (A) (A) (A) (A) (A) (A) (A) (A)
       Virtual   (A) (A) (A) (A) (A) (A) (A) (A) (A) (A) (A) (A)
                 (A) (A) (A) (A) (A) (A) (A) (A) (A) (A) (A) (A)
                 (A) (A) (A) (A) (A) (A) (A) (A) (A) (A) (A) (A)
                 (A) (A) (A) (A) (A) (A) (A) (A) (A) (A) (A) (A)
                 (A) (A) (A) (A) (A) (A) (A) (A) (A) (A) (A) (A)
                 (A) (A) (A) (A) (A) (A) (A) (A) (A) (A) (A) (A)
                 (A) (A) (A) (A) (A) (A) (A) (A) (A) (A) (A) (A)
                 (A) (A) (A) (A) (A) (A) (A) (A) (A) (A) (A) (A)
                 (A) (A) (A) (A) (A) (A) (A) (A) (A) (A) (A) (A)
                 (A) (A) (A) (A) (A) (A) (A) (A) (A) (A) (A) (A)
                 (A) (A) (A) (A) (A) (A) (A) (A) (A) (A) (A) (A)
                 (A) (A) (A) (A) (A) (A) (A) (A) (A) (A) (A) (A)
                 (A) (A) (A) (A) (A) (A) (A) (A) (A) (A) (A) (A)
                 (A) (A) (A) (A) (A) (A) (A) (A) (A) (A) (A) (A)
                 (A) (A) (A) (A) (A) (A) (A) (A) (A) (A) (A) (A)
                 (A) (A) (A) (A) (A) (A) (A) (A) (A) (A) (A) (A)
                 (A) (A) (A) (A) (A) (A) (A) (A) (A) (A) (A) (A)
                 (A) (A) (A) (A) (A) (A) (A) (A) (A) (A) (A) (A)
                 (A) (A) (A) (A) (A) (A) (A) (A) (A) (A) (A) (A)
                 (A) (A) (A) (A) (A) (A) (A) (A) (A) (A) (A) (A)
                 (A) (A) (A) (A) (A) (A) (A) (A) (A) (A) (A) (A)
                 (A) (A) (A) (A) (A) (A) (A) (A) (A) (A) (A) (A)
                 (A) (A) (A) (A) (A) (A) (A) (A) (A) (A) (A) (A)
                 (A) (A) (A) (A) (A) (A) (A)
 The electronic state of the initial guess is 1-A.
 Requested convergence on RMS density matrix=1.00D-08 within 128 cycles.
 Requested convergence on MAX density matrix=1.00D-06.
 Requested convergence on             energy=1.00D-06.
 No special actions if energy rises.
 Error on total polarization charges =  0.01656
 SCF Done:  E(RmPW1PW91) =  -4341.94565429     A.U. after   14 cycles
             Convg  =    0.4670D-08             -V/T =  2.0056
 Range of M.O.s used for correlation:     1   363
 NBasis=   363 NAE=    80 NBE=    80 NFC=     0 NFV=     0
 NROrb=    363 NOA=    80 NOB=    80 NVA=   283 NVB=   283

 **** Warning!!: The largest alpha MO coefficient is  0.15937635D+03

 NEqPCM:  Using equilibrium solvation (IEInf=0, Eps=   4.7113, EpsInf=   2.0906)
          Differentiating once with respect to magnetic field using GIAOs.
          Electric field/nuclear overlap derivatives assumed to be zero.
 FoFCou: FMM=F IPFlag=           0 FMFlag=    10101102 FMFlg1=           0
         NFxFlg=    40000000 DoJE=F BraDBF=F KetDBF=T FulRan=T
         Omega=  0.000000  0.000000  1.000000  0.000000  0.000000 ICntrl=    6100 IOpCl=  0
         NMat0=    1 NMatS0=    1 NMatT0=    0 NMatD0=    1 NMtDS0=    0 NMtDT0=    0
         I1Cent=           7 NGrid=        2105.
 Symmetry not used in FoFCou.
          There are     3 degrees of freedom in the 1st order CPHF.  IDoFFX=0.
      3 vectors produced by pass  0 Test12= 7.55D-13 3.33D-08 XBig12= 1.54D+02 1.82D+00.
 AX will form     3 AO Fock derivatives at one time.
      3 vectors produced by pass  1 Test12= 7.55D-13 3.33D-08 XBig12= 4.14D-01 1.32D-01.
      3 vectors produced by pass  2 Test12= 7.55D-13 3.33D-08 XBig12= 1.79D-03 1.38D-02.
      3 vectors produced by pass  3 Test12= 7.55D-13 3.33D-08 XBig12= 9.68D-06 1.15D-03.
      3 vectors produced by pass  4 Test12= 7.55D-13 3.33D-08 XBig12= 4.27D-08 5.14D-05.
      3 vectors produced by pass  5 Test12= 7.55D-13 3.33D-08 XBig12= 1.42D-10 3.32D-06.
      3 vectors produced by pass  6 Test12= 7.55D-13 3.33D-08 XBig12= 5.73D-13 1.98D-07.
 Inverted reduced A of dimension    21 with in-core refinement.
 Calculating GIAO nuclear magnetic shielding tensors.
 SCF GIAO Magnetic shielding tensor (ppm):
      1  C    Isotropic =   120.5382   Anisotropy =    31.5109
   XX=   121.0563   YX=   -15.6248   ZX=     1.4645
   XY=   -14.8339   YY=   119.6224   ZY=    19.9551
   XZ=    -0.0649   YZ=    10.6334   ZZ=   120.9358
   Eigenvalues:    98.3730   121.6961   141.5454
      2  C    Isotropic =   124.4927   Anisotropy =    54.4322
   XX=   134.2107   YX=    16.0238   ZX=    35.2377
   XY=    16.2518   YY=   132.6503   ZY=   -12.1834
   XZ=    35.2743   YZ=    -7.3782   ZZ=   106.6172
   Eigenvalues:    77.1645   135.5328   160.7809
      3  C    Isotropic =   120.6021   Anisotropy =    36.9654
   XX=   133.6848   YX=     2.7862   ZX=    13.1448
   XY=     2.5560   YY=   124.7647   ZY=   -22.7135
   XZ=    20.6713   YZ=   -22.0250   ZZ=   103.3567
   Eigenvalues:    84.1791   132.3814   145.2457
      4  C    Isotropic =   145.2568   Anisotropy =    28.9894
   XX=   155.1458   YX=     1.0124   ZX=    15.2814
   XY=     1.3467   YY=   138.3781   ZY=    -1.9682
   XZ=    13.7283   YZ=    -3.7715   ZZ=   142.2466
   Eigenvalues:   131.4736   139.7139   164.5831
      5  C    Isotropic =    59.7214   Anisotropy =   139.0536
   XX=    65.7128   YX=    43.1141   ZX=     1.9431
   XY=    37.7252   YY=    45.0314   ZY=    85.4310
   XZ=    24.5853   YZ=    72.6021   ZZ=    68.4200
   Eigenvalues:   -28.7211    55.4615   152.4238
      6  C    Isotropic =   151.6814   Anisotropy =    42.7369
   XX=   163.6242   YX=    18.9403   ZX=    14.9021
   XY=    20.5485   YY=   150.3118   ZY=     8.4612
   XZ=     3.9406   YZ=    -1.7933   ZZ=   141.1081
   Eigenvalues:   134.4267   140.4447   180.1726
      7  H    Isotropic =    26.3771   Anisotropy =     8.8706
   XX=    24.1798   YX=    -4.1084   ZX=     2.7786
   XY=    -3.6495   YY=    29.8439   ZY=    -0.4224
   XZ=     2.0531   YZ=    -1.1787   ZZ=    25.1076
   Eigenvalues:    21.2933    25.5472    32.2909
      8  H    Isotropic =    29.0615   Anisotropy =     4.2327
   XX=    28.1056   YX=     2.0132   ZX=    -0.0124
   XY=     1.8081   YY=    27.2577   ZY=     0.4844
   XZ=    -0.6259   YZ=     0.5552   ZZ=    31.8212
   Eigenvalues:    25.6651    29.6362    31.8833
      9  H    Isotropic =    26.8543   Anisotropy =     6.5362
   XX=    26.0779   YX=     0.3210   ZX=    -3.4258
   XY=     0.6605   YY=    26.4700   ZY=     0.1984
   XZ=    -4.5819   YZ=    -0.6134   ZZ=    28.0151
   Eigenvalues:    22.9084    26.4428    31.2118
     10  H    Isotropic =    26.7599   Anisotropy =     7.3308
   XX=    27.5416   YX=     1.8894   ZX=     1.2567
   XY=     1.5020   YY=    27.8769   ZY=     3.7702
   XZ=     1.8686   YZ=     3.6582   ZZ=    24.8613
   Eigenvalues:    22.3338    26.2988    31.6472
     11  H    Isotropic =    29.1343   Anisotropy =     6.9533
   XX=    29.7611   YX=    -0.3840   ZX=     3.3021
   XY=     1.0134   YY=    30.9418   ZY=    -3.1963
   XZ=     4.0573   YZ=    -3.8158   ZZ=    26.6999
   Eigenvalues:    22.9944    30.6387    33.7698
     12  Cl   Isotropic =   770.0873   Anisotropy =   454.2311
   XX=   705.9928   YX=  -137.1536   ZX=    24.6014
   XY=  -131.4749   YY=   861.6546   ZY=   228.3598
   XZ=    21.3294   YZ=   250.2023   ZZ=   742.6146
   Eigenvalues:   501.7514   735.6025  1072.9080
     13  Br   Isotropic =  2373.5895   Anisotropy =  1070.5004
   XX=  2694.4254   YX=   397.2327   ZX=   366.8408
   XY=   413.8065   YY=  2224.3392   ZY=   124.1594
   XZ=   370.7926   YZ=    93.0936   ZZ=  2202.0039
   Eigenvalues:  1929.5338  2103.9782  3087.2564
     14  C    Isotropic =   168.1250   Anisotropy =    40.2370
   XX=   162.8188   YX=     5.5167   ZX=   -17.9034
   XY=     2.7600   YY=   160.8189   ZY=   -11.0946
   XZ=   -16.7688   YZ=    -9.9934   ZZ=   180.7372
   Eigenvalues:   151.6355   157.7898   194.9497
     15  H    Isotropic =    30.6570   Anisotropy =     9.9100
   XX=    29.4412   YX=    -1.1354   ZX=    -3.6182
   XY=    -0.1597   YY=    27.1938   ZY=     0.8230
   XZ=    -3.4581   YZ=     2.2128   ZZ=    35.3360
   Eigenvalues:    26.9200    27.7874    37.2637
     16  H    Isotropic =    30.1161   Anisotropy =     8.3187
   XX=    29.9590   YX=     0.1609   ZX=     0.2617
   XY=    -0.7639   YY=    30.6434   ZY=    -5.1320
   XZ=     1.3375   YZ=    -5.5602   ZZ=    29.7461
   Eigenvalues:    24.8009    29.8856    35.6620
     17  H    Isotropic =    29.8401   Anisotropy =     6.9128
   XX=    32.3867   YX=     3.4292   ZX=     1.6431
   XY=     3.7813   YY=    27.6580   ZY=    -3.2437
   XZ=     0.6006   YZ=    -3.5941   ZZ=    29.4757
   Eigenvalues:    23.5727    31.4990    34.4487
     18  C    Isotropic =   180.8236   Anisotropy =    25.2711
   XX=   177.8284   YX=    -4.5523   ZX=    -7.0618
   XY=    -3.5670   YY=   179.3565   ZY=    12.4117
   XZ=    -7.5251   YZ=    10.6553   ZZ=   185.2858
   Eigenvalues:   170.0893   174.7105   197.6710
     19  H    Isotropic =    30.2469   Anisotropy =     7.7161
   XX=    32.3093   YX=     0.5435   ZX=     2.4002
   XY=     0.9726   YY=    31.4896   ZY=     4.1406
   XZ=     3.2055   YZ=     3.8437   ZZ=    26.9419
   Eigenvalues:    24.0857    31.2641    35.3910
     20  H    Isotropic =    30.3411   Anisotropy =     8.1715
   XX=    30.5829   YX=    -3.7447   ZX=     1.9181
   XY=    -4.0161   YY=    32.7839   ZY=    -0.0326
   XZ=     1.4139   YZ=     0.6673   ZZ=    27.6565
   Eigenvalues:    26.1032    29.1313    35.7887
     21  H    Isotropic =    30.4231   Anisotropy =     8.3779
   XX=    31.0387   YX=     0.9408   ZX=    -4.2146
   XY=     0.2559   YY=    27.8591   ZY=     0.5288
   XZ=    -4.2870   YZ=     0.3218   ZZ=    32.3715
   Eigenvalues:    26.8646    28.3963    36.0084
     22  Cl   Isotropic =   842.9872   Anisotropy =   301.3494
   XX=   874.4879   YX=   -25.4937   ZX=   133.1520
   XY=   -74.7063   YY=   812.8310   ZY=  -123.8307
   XZ=   112.2095   YZ=  -116.7859   ZZ=   841.6428
   Eigenvalues:   690.4228   794.6520  1043.8868
     23  C    Isotropic =    65.2310   Anisotropy =   108.7101
   XX=    79.6809   YX=    15.6833   ZX=     3.0151
   XY=    20.5036   YY=    42.1643   ZY=    68.1613
   XZ=     7.6332   YZ=    79.4708   ZZ=    73.8478
   Eigenvalues:   -18.6795    76.6681   137.7044
     24  H    Isotropic =    25.6211   Anisotropy =     8.3137
   XX=    29.5949   YX=    -1.9318   ZX=    -2.3739
   XY=    -2.3197   YY=    25.5430   ZY=     0.1559
   XZ=    -2.5760   YZ=     0.9244   ZZ=    21.7255
   Eigenvalues:    21.0106    24.6891    31.1636
     25  C    Isotropic =   148.3566   Anisotropy =    49.9385
   XX=   136.2318   YX=   -18.2070   ZX=    -7.0491
   XY=   -17.6683   YY=   135.7722   ZY=    14.9688
   XZ=    -9.5662   YZ=    11.5754   ZZ=   173.0658
   Eigenvalues:   117.7963   145.6245   181.6489
     26  H    Isotropic =    27.3439   Anisotropy =     8.1128
   XX=    30.1957   YX=     1.1508   ZX=     1.1415
   XY=     1.5734   YY=    23.2182   ZY=     3.8151
   XZ=     2.4283   YZ=     4.3713   ZZ=    28.6179
   Eigenvalues:    21.0003    28.2790    32.7524
     27  H    Isotropic =    26.1983   Anisotropy =    14.7240
   XX=    26.8130   YX=    -1.8604   ZX=    -6.6961
   XY=    -0.6833   YY=    22.0878   ZY=    -3.0010
   XZ=    -8.0734   YZ=    -3.6917   ZZ=    29.6940
   Eigenvalues:    18.1546    24.4259    36.0142
     28  Cl   Isotropic =   846.7522   Anisotropy =   399.7334
   XX=   767.8460   YX=  -115.5877   ZX=  -117.2129
   XY=  -107.6483   YY=   771.9380   ZY=    89.5631
   XZ=  -122.8091   YZ=   127.4403   ZZ=  1000.4726
   Eigenvalues:   657.8459   769.1696  1113.2411
 End of Minotr Frequency-dependent properties file   721 does not exist.
 End of Minotr Frequency-dependent properties file   722 does not exist.

 **********************************************************************

            Population analysis using the SCF density.

 **********************************************************************

 Orbital symmetries:
       Occupied  (A) (A) (A) (A) (A) (A) (A) (A) (A) (A) (A) (A)
                 (A) (A) (A) (A) (A) (A) (A) (A) (A) (A) (A) (A)
                 (A) (A) (A) (A) (A) (A) (A) (A) (A) (A) (A) (A)
                 (A) (A) (A) (A) (A) (A) (A) (A) (A) (A) (A) (A)
                 (A) (A) (A) (A) (A) (A) (A) (A) (A) (A) (A) (A)
                 (A) (A) (A) (A) (A) (A) (A) (A) (A) (A) (A) (A)
                 (A) (A) (A) (A) (A) (A) (A) (A)
       Virtual   (A) (A) (A) (A) (A) (A) (A) (A) (A) (A) (A) (A)
                 (A) (A) (A) (A) (A) (A) (A) (A) (A) (A) (A) (A)
                 (A) (A) (A) (A) (A) (A) (A) (A) (A) (A) (A) (A)
                 (A) (A) (A) (A) (A) (A) (A) (A) (A) (A) (A) (A)
                 (A) (A) (A) (A) (A) (A) (A) (A) (A) (A) (A) (A)
                 (A) (A) (A) (A) (A) (A) (A) (A) (A) (A) (A) (A)
                 (A) (A) (A) (A) (A) (A) (A) (A) (A) (A) (A) (A)
                 (A) (A) (A) (A) (A) (A) (A) (A) (A) (A) (A) (A)
                 (A) (A) (A) (A) (A) (A) (A) (A) (A) (A) (A) (A)
                 (A) (A) (A) (A) (A) (A) (A) (A) (A) (A) (A) (A)
                 (A) (A) (A) (A) (A) (A) (A) (A) (A) (A) (A) (A)
                 (A) (A) (A) (A) (A) (A) (A) (A) (A) (A) (A) (A)
                 (A) (A) (A) (A) (A) (A) (A) (A) (A) (A) (A) (A)
                 (A) (A) (A) (A) (A) (A) (A) (A) (A) (A) (A) (A)
                 (A) (A) (A) (A) (A) (A) (A) (A) (A) (A) (A) (A)
                 (A) (A) (A) (A) (A) (A) (A) (A) (A) (A) (A) (A)
                 (A) (A) (A) (A) (A) (A) (A) (A) (A) (A) (A) (A)
                 (A) (A) (A) (A) (A) (A) (A) (A) (A) (A) (A) (A)
                 (A) (A) (A) (A) (A) (A) (A) (A) (A) (A) (A) (A)
                 (A) (A) (A) (A) (A) (A) (A) (A) (A) (A) (A) (A)
                 (A) (A) (A) (A) (A) (A) (A) (A) (A) (A) (A) (A)
                 (A) (A) (A) (A) (A) (A) (A) (A) (A) (A) (A) (A)
                 (A) (A) (A) (A) (A) (A) (A) (A) (A) (A) (A) (A)
                 (A) (A) (A) (A) (A) (A) (A)
 The electronic state is 1-A.
 Alpha  occ. eigenvalues -- -483.41749-101.76913-101.76429-101.76103 -62.05739
 Alpha  occ. eigenvalues --  -56.54305 -56.53967 -56.53944 -10.34255 -10.34225
 Alpha  occ. eigenvalues --  -10.33055 -10.32236 -10.30381 -10.30365 -10.29079
 Alpha  occ. eigenvalues --  -10.28239 -10.24617 -10.24599  -9.54637  -9.54181
 Alpha  occ. eigenvalues --   -9.53907  -8.67600  -7.28610  -7.28129  -7.27877
 Alpha  occ. eigenvalues --   -7.27672  -7.27663  -7.27226  -7.27216  -7.26938
 Alpha  occ. eigenvalues --   -7.26920  -6.61086  -6.59914  -6.59897  -2.69820
 Alpha  occ. eigenvalues --   -2.69489  -2.69476  -2.68522  -2.68521  -0.94154
 Alpha  occ. eigenvalues --   -0.89327  -0.89257  -0.86880  -0.82949  -0.80901
 Alpha  occ. eigenvalues --   -0.78153  -0.74295  -0.72353  -0.71698  -0.66859
 Alpha  occ. eigenvalues --   -0.63277  -0.59745  -0.56368  -0.52829  -0.51057
 Alpha  occ. eigenvalues --   -0.50100  -0.48850  -0.47958  -0.46815  -0.45596
 Alpha  occ. eigenvalues --   -0.44825  -0.43835  -0.42466  -0.41827  -0.40326
 Alpha  occ. eigenvalues --   -0.40194  -0.39079  -0.38625  -0.37902  -0.36113
 Alpha  occ. eigenvalues --   -0.35823  -0.33983  -0.33351  -0.32769  -0.32474
 Alpha  occ. eigenvalues --   -0.32179  -0.31497  -0.30183  -0.29948  -0.28767
 Alpha virt. eigenvalues --   -0.04566  -0.03341  -0.00214   0.00508   0.00898
 Alpha virt. eigenvalues --    0.01363   0.02411   0.02581   0.03056   0.03726
 Alpha virt. eigenvalues --    0.04242   0.04919   0.05141   0.05170   0.06396
 Alpha virt. eigenvalues --    0.06871   0.06934   0.07483   0.07721   0.08087
 Alpha virt. eigenvalues --    0.09001   0.09292   0.09341   0.10024   0.10331
 Alpha virt. eigenvalues --    0.10595   0.11108   0.11696   0.12092   0.12301
 Alpha virt. eigenvalues --    0.12968   0.13022   0.13278   0.13814   0.14273
 Alpha virt. eigenvalues --    0.14350   0.15191   0.15607   0.15869   0.16440
 Alpha virt. eigenvalues --    0.16904   0.17189   0.17905   0.18427   0.18835
 Alpha virt. eigenvalues --    0.19137   0.19344   0.19626   0.20354   0.20498
 Alpha virt. eigenvalues --    0.21148   0.21410   0.21756   0.22186   0.22602
 Alpha virt. eigenvalues --    0.22705   0.23558   0.23957   0.24592   0.24838
 Alpha virt. eigenvalues --    0.25318   0.25619   0.26141   0.26414   0.26821
 Alpha virt. eigenvalues --    0.27135   0.27533   0.28207   0.29154   0.29588
 Alpha virt. eigenvalues --    0.30170   0.30432   0.32456   0.32678   0.33789
 Alpha virt. eigenvalues --    0.34573   0.35484   0.36507   0.38361   0.39257
 Alpha virt. eigenvalues --    0.40534   0.41838   0.43802   0.46274   0.48084
 Alpha virt. eigenvalues --    0.48865   0.52042   0.52050   0.53087   0.56997
 Alpha virt. eigenvalues --    0.57372   0.58677   0.59765   0.61188   0.61722
 Alpha virt. eigenvalues --    0.63170   0.63973   0.64332   0.64938   0.65270
 Alpha virt. eigenvalues --    0.65488   0.66042   0.66260   0.66635   0.67035
 Alpha virt. eigenvalues --    0.68310   0.68709   0.69826   0.71076   0.72722
 Alpha virt. eigenvalues --    0.73435   0.73785   0.75522   0.76029   0.76401
 Alpha virt. eigenvalues --    0.77320   0.78549   0.79076   0.79627   0.80167
 Alpha virt. eigenvalues --    0.81184   0.81867   0.83647   0.85318   0.85943
 Alpha virt. eigenvalues --    0.86408   0.87125   0.88388   0.88690   0.89463
 Alpha virt. eigenvalues --    0.90538   0.91110   0.91952   0.93149   0.94959
 Alpha virt. eigenvalues --    0.95384   0.95868   0.97269   0.98259   0.99608
 Alpha virt. eigenvalues --    1.01004   1.02314   1.02459   1.03107   1.04534
 Alpha virt. eigenvalues --    1.05213   1.05707   1.06577   1.08029   1.09174
 Alpha virt. eigenvalues --    1.09312   1.10788   1.11289   1.12198   1.13483
 Alpha virt. eigenvalues --    1.15000   1.15814   1.16428   1.18208   1.18382
 Alpha virt. eigenvalues --    1.21269   1.22173   1.22931   1.27197   1.29152
 Alpha virt. eigenvalues --    1.30362   1.34827   1.35164   1.37337   1.40139
 Alpha virt. eigenvalues --    1.42598   1.46661   1.48799   1.49240   1.54807
 Alpha virt. eigenvalues --    1.56385   1.58675   1.59428   1.65713   1.67349
 Alpha virt. eigenvalues --    1.70130   1.73864   1.74502   1.77502   1.80115
 Alpha virt. eigenvalues --    1.82561   1.84318   1.85097   1.86266   1.87983
 Alpha virt. eigenvalues --    1.88862   1.90830   1.91483   1.94898   1.95194
 Alpha virt. eigenvalues --    1.97547   1.97984   1.99177   2.02735   2.05758
 Alpha virt. eigenvalues --    2.06170   2.06925   2.09086   2.10579   2.12117
 Alpha virt. eigenvalues --    2.13288   2.14386   2.15288   2.16296   2.17987
 Alpha virt. eigenvalues --    2.18731   2.19499   2.20057   2.21456   2.23772
 Alpha virt. eigenvalues --    2.25486   2.27279   2.31924   2.35573   2.37251
 Alpha virt. eigenvalues --    2.39136   2.41443   2.44110   2.45966   2.47736
 Alpha virt. eigenvalues --    2.49953   2.51733   2.53735   2.55351   2.56212
 Alpha virt. eigenvalues --    2.60092   2.61178   2.62668   2.63895   2.66256
 Alpha virt. eigenvalues --    2.69475   2.71502   2.72584   2.73843   2.74478
 Alpha virt. eigenvalues --    2.76397   2.77955   2.79675   2.82457   2.84107
 Alpha virt. eigenvalues --    2.85448   2.86696   2.89899   2.91140   2.95162
 Alpha virt. eigenvalues --    2.98081   3.00350   3.02879   3.11347   3.31189
 Alpha virt. eigenvalues --    3.31628   3.33248   3.35798   3.41086   3.44202
 Alpha virt. eigenvalues --    3.44826   3.47746   3.49541   3.49889   3.52961
 Alpha virt. eigenvalues --    3.53439   3.54016   3.55842   4.28964   4.31929
 Alpha virt. eigenvalues --    4.37656   4.41796   4.43603   4.46822   4.49223
 Alpha virt. eigenvalues --    4.56318   4.61980   4.68625   4.74615   4.78483
 Alpha virt. eigenvalues --    4.85763   9.06597  81.45989
          Condensed to atoms (all electrons):
              1          2          3          4          5          6
     1  C    8.124187  -0.708225  -3.252529   1.457765  -0.859282  -0.719674
     2  C   -0.708225  10.310132   1.958221  -2.656602   0.053628  -0.722545
     3  C   -3.252529   1.958221  21.464511  -5.576342   0.239303   1.256745
     4  C    1.457765  -2.656602  -5.576342  11.655432   0.331169  -0.623448
     5  C   -0.859282   0.053628   0.239303   0.331169  18.024081  -0.232230
     6  C   -0.719674  -0.722545   1.256745  -0.623448  -0.232230   7.308410
     7  H    0.044808  -0.057161   0.058768   0.101529   0.069034  -0.061353
     8  H    0.034770  -0.072161  -0.089119   0.067690  -0.000133   0.350785
     9  H    0.307631   0.019738  -0.032122   0.006948  -0.251341   0.028221
    10  H    0.048018   0.322379  -0.063081   0.009507  -0.005675  -0.051097
    11  H   -0.069106  -0.097745   0.022308   0.053550   0.043541   0.394673
    12  Cl  -0.100290   0.103970  -0.160762   0.019419   0.399569  -0.146675
    13  Br   0.050733   0.422357   0.071896  -0.094600  -0.002376  -0.163325
    14  C   -0.009483  -0.708801  -0.038171  -0.403801  -0.166627   0.122482
    15  H    0.006643  -0.056904   0.001956  -0.086198  -0.017124   0.011825
    16  H    0.000724   0.020528  -0.066347  -0.053946   0.023636  -0.005011
    17  H   -0.006204   0.015097   0.068193  -0.146214  -0.012309   0.002712
    18  C    0.058742  -0.569267  -0.122754  -0.052477  -0.055321  -0.055445
    19  H   -0.004712  -0.018730   0.037284  -0.096929  -0.013003  -0.004491
    20  H   -0.008729   0.030756   0.066821  -0.135446  -0.013768   0.009309
    21  H   -0.004792   0.017535  -0.088697  -0.074771  -0.024610  -0.014486
    22  Cl   0.207401  -0.012473  -0.714519   0.213809   0.330485  -0.023971
    23  C    1.422367  -1.077167  -8.571859   1.737107 -11.446063  -0.301056
    24  H   -0.051830  -0.005850   0.054532  -0.011110  -0.004367   0.028413
    25  C    0.145787  -0.064359  -0.460740   0.188236  -0.275106  -0.086081
    26  H   -0.007471   0.001662  -0.000872   0.003879   0.007662  -0.003665
    27  H   -0.012229  -0.002185   0.042408  -0.030701   0.047494   0.002791
    28  Cl  -0.015291   0.004710  -0.014031   0.001729   0.276805  -0.014710
              7          8          9         10         11         12
     1  C    0.044808   0.034770   0.307631   0.048018  -0.069106  -0.100290
     2  C   -0.057161  -0.072161   0.019738   0.322379  -0.097745   0.103970
     3  C    0.058768  -0.089119  -0.032122  -0.063081   0.022308  -0.160762
     4  C    0.101529   0.067690   0.006948   0.009507   0.053550   0.019419
     5  C    0.069034  -0.000133  -0.251341  -0.005675   0.043541   0.399569
     6  C   -0.061353   0.350785   0.028221  -0.051097   0.394673  -0.146675
     7  H    0.488010   0.000048   0.000058   0.002912  -0.000014   0.017358
     8  H    0.000048   0.477966  -0.003729   0.003725  -0.021159   0.007132
     9  H    0.000058  -0.003729   0.501372  -0.000087  -0.002220  -0.015487
    10  H    0.002912   0.003725  -0.000087   0.492663  -0.003937   0.001213
    11  H   -0.000014  -0.021159  -0.002220  -0.003937   0.482799   0.013213
    12  Cl   0.017358   0.007132  -0.015487   0.001213   0.013213  17.148663
    13  Br   0.001350   0.002509   0.000640  -0.018991  -0.009993   0.006879
    14  C   -0.003335   0.005391   0.000824   0.028658  -0.000659   0.002754
    15  H    0.003767  -0.000001   0.000000   0.003872  -0.000002   0.000806
    16  H    0.000102   0.000002   0.000000   0.000083   0.000001  -0.000027
    17  H   -0.000056  -0.000001   0.000000  -0.000463  -0.000003  -0.000083
    18  C   -0.001492  -0.012589  -0.004526  -0.012077   0.004960  -0.020166
    19  H   -0.000108   0.000154   0.000001   0.000029   0.000002  -0.000059
    20  H   -0.000053  -0.000030   0.000000  -0.000094   0.000000   0.000123
    21  H   -0.000216  -0.001793   0.000004  -0.000216   0.000005  -0.001405
    22  Cl  -0.043499   0.000987   0.000460   0.004082  -0.000056  -0.008774
    23  C    0.131409   0.030306   0.204556   0.004448  -0.023923  -0.129255
    24  H   -0.000142   0.000006   0.005381   0.000000  -0.000012   0.008219
    25  C   -0.004085   0.000602   0.004995  -0.000517   0.000347  -0.035311
    26  H    0.000034   0.000000  -0.000007   0.000000   0.000000   0.001138
    27  H    0.000003   0.000001   0.000001   0.000000   0.000000   0.000370
    28  Cl   0.000427   0.000131  -0.000321  -0.000011  -0.000003   0.001913
             13         14         15         16         17         18
     1  C    0.050733  -0.009483   0.006643   0.000724  -0.006204   0.058742
     2  C    0.422357  -0.708801  -0.056904   0.020528   0.015097  -0.569267
     3  C    0.071896  -0.038171   0.001956  -0.066347   0.068193  -0.122754
     4  C   -0.094600  -0.403801  -0.086198  -0.053946  -0.146214  -0.052477
     5  C   -0.002376  -0.166627  -0.017124   0.023636  -0.012309  -0.055321
     6  C   -0.163325   0.122482   0.011825  -0.005011   0.002712  -0.055445
     7  H    0.001350  -0.003335   0.003767   0.000102  -0.000056  -0.001492
     8  H    0.002509   0.005391  -0.000001   0.000002  -0.000001  -0.012589
     9  H    0.000640   0.000824   0.000000   0.000000   0.000000  -0.004526
    10  H   -0.018991   0.028658   0.003872   0.000083  -0.000463  -0.012077
    11  H   -0.009993  -0.000659  -0.000002   0.000001  -0.000003   0.004960
    12  Cl   0.006879   0.002754   0.000806  -0.000027  -0.000083  -0.020166
    13  Br  35.054360  -0.098336  -0.000491  -0.000470   0.007056  -0.103183
    14  C   -0.098336   6.352714   0.479368   0.438992   0.444752  -0.214314
    15  H   -0.000491   0.479368   0.519630  -0.023825  -0.024962   0.000525
    16  H   -0.000470   0.438992  -0.023825   0.496952  -0.023122  -0.017275
    17  H    0.007056   0.444752  -0.024962  -0.023122   0.500008  -0.007245
    18  C   -0.103183  -0.214314   0.000525  -0.017275  -0.007245   6.519729
    19  H    0.001910  -0.019934  -0.000004  -0.000063   0.001737   0.485743
    20  H   -0.000969  -0.036867   0.000054   0.002761   0.000024   0.467815
    21  H    0.002806   0.009443  -0.000155   0.000082   0.000040   0.429422
    22  Cl  -0.011640   0.017333   0.014409   0.013752  -0.006276   0.008675
    23  C    0.014790   0.192377  -0.008146   0.001897   0.000374  -0.080258
    24  H    0.000093   0.000734   0.000000   0.000000   0.000000   0.002526
    25  C   -0.001115   0.026647  -0.000371   0.000737  -0.000097  -0.011668
    26  H    0.000049  -0.000391   0.000000   0.000000   0.000000  -0.000847
    27  H   -0.000097   0.002117   0.000000   0.000000   0.000000   0.009805
    28  Cl   0.000160  -0.002252  -0.000003  -0.000011   0.000007  -0.000390
             19         20         21         22         23         24
     1  C   -0.004712  -0.008729  -0.004792   0.207401   1.422367  -0.051830
     2  C   -0.018730   0.030756   0.017535  -0.012473  -1.077167  -0.005850
     3  C    0.037284   0.066821  -0.088697  -0.714519  -8.571859   0.054532
     4  C   -0.096929  -0.135446  -0.074771   0.213809   1.737107  -0.011110
     5  C   -0.013003  -0.013768  -0.024610   0.330485 -11.446063  -0.004367
     6  C   -0.004491   0.009309  -0.014486  -0.023971  -0.301056   0.028413
     7  H   -0.000108  -0.000053  -0.000216  -0.043499   0.131409  -0.000142
     8  H    0.000154  -0.000030  -0.001793   0.000987   0.030306   0.000006
     9  H    0.000001   0.000000   0.000004   0.000460   0.204556   0.005381
    10  H    0.000029  -0.000094  -0.000216   0.004082   0.004448   0.000000
    11  H    0.000002   0.000000   0.000005  -0.000056  -0.023923  -0.000012
    12  Cl  -0.000059   0.000123  -0.001405  -0.008774  -0.129255   0.008219
    13  Br   0.001910  -0.000969   0.002806  -0.011640   0.014790   0.000093
    14  C   -0.019934  -0.036867   0.009443   0.017333   0.192377   0.000734
    15  H   -0.000004   0.000054  -0.000155   0.014409  -0.008146   0.000000
    16  H   -0.000063   0.002761   0.000082   0.013752   0.001897   0.000000
    17  H    0.001737   0.000024   0.000040  -0.006276   0.000374   0.000000
    18  C    0.485743   0.467815   0.429422   0.008675  -0.080258   0.002526
    19  H    0.497927  -0.021569  -0.023219   0.000087  -0.011504   0.000000
    20  H   -0.021569   0.499527  -0.023504  -0.000168  -0.020018   0.000002
    21  H   -0.023219  -0.023504   0.512629  -0.005485   0.099627   0.000052
    22  Cl   0.000087  -0.000168  -0.005485  17.247193  -0.207619  -0.003014
    23  C   -0.011504  -0.020018   0.099627  -0.207619  23.962348   0.324526
    24  H    0.000000   0.000002   0.000052  -0.003014   0.324526   0.511352
    25  C    0.000364  -0.003469   0.009808   0.013100  -0.037598  -0.058663
    26  H    0.000000   0.000000  -0.000003  -0.004555  -0.066739  -0.001657
    27  H    0.000003  -0.000023   0.000023  -0.003086  -0.076773   0.003532
    28  Cl  -0.000045  -0.000294   0.000145   0.003667  -0.329623   0.013200
             25         26         27         28
     1  C    0.145787  -0.007471  -0.012229  -0.015291
     2  C   -0.064359   0.001662  -0.002185   0.004710
     3  C   -0.460740  -0.000872   0.042408  -0.014031
     4  C    0.188236   0.003879  -0.030701   0.001729
     5  C   -0.275106   0.007662   0.047494   0.276805
     6  C   -0.086081  -0.003665   0.002791  -0.014710
     7  H   -0.004085   0.000034   0.000003   0.000427
     8  H    0.000602   0.000000   0.000001   0.000131
     9  H    0.004995  -0.000007   0.000001  -0.000321
    10  H   -0.000517   0.000000   0.000000  -0.000011
    11  H    0.000347   0.000000   0.000000  -0.000003
    12  Cl  -0.035311   0.001138   0.000370   0.001913
    13  Br  -0.001115   0.000049  -0.000097   0.000160
    14  C    0.026647  -0.000391   0.002117  -0.002252
    15  H   -0.000371   0.000000   0.000000  -0.000003
    16  H    0.000737   0.000000   0.000000  -0.000011
    17  H   -0.000097   0.000000   0.000000   0.000007
    18  C   -0.011668  -0.000847   0.009805  -0.000390
    19  H    0.000364   0.000000   0.000003  -0.000045
    20  H   -0.003469   0.000000  -0.000023  -0.000294
    21  H    0.009808  -0.000003   0.000023   0.000145
    22  Cl   0.013100  -0.004555  -0.003086   0.003667
    23  C   -0.037598  -0.066739  -0.076773  -0.329623
    24  H   -0.058663  -0.001657   0.003532   0.013200
    25  C    6.191256   0.404539   0.352798   0.248772
    26  H    0.404539   0.483062  -0.022448  -0.038949
    27  H    0.352798  -0.022448   0.484473  -0.027039
    28  Cl   0.248772  -0.038949  -0.027039  16.995126
 Mulliken atomic charges:
              1
     1  C   -0.079731
     2  C   -0.450538
     3  C   -0.091001
     4  C    0.194817
     5  C   -0.467075
     6  C   -0.287103
     7  H    0.251896
     8  H    0.218511
     9  H    0.229010
    10  H    0.234658
    11  H    0.213430
    12  Cl  -0.114447
    13  Br  -0.132002
    14  C   -0.421616
    15  H    0.175330
    16  H    0.189849
    17  H    0.187035
    18  C   -0.646646
    19  H    0.189128
    20  H    0.187808
    21  H    0.181730
    22  Cl  -0.030304
    23  C    0.261469
    24  H    0.184079
    25  C   -0.548808
    26  H    0.245579
    27  H    0.228762
    28  Cl  -0.103821
 Sum of Mulliken atomic charges =   0.00000
 Mulliken charges with hydrogens summed into heavy atoms:
              1
     1  C    0.149279
     2  C   -0.215880
     3  C    0.160895
     4  C    0.194817
     5  C   -0.467075
     6  C    0.144837
    12  Cl  -0.114447
    13  Br  -0.132002
    14  C    0.130598
    18  C   -0.087980
    22  Cl  -0.030304
    23  C    0.445548
    25  C   -0.074466
    28  Cl  -0.103821
 Sum of Mulliken charges with hydrogens summed into heavy atoms =   0.00000
 Electronic spatial extent (au):  <R**2>=           5626.1374
 Charge=              0.0000 electrons
 Dipole moment (field-independent basis, Debye):
    X=              0.0796    Y=              0.5865    Z=              0.0754  Tot=              0.5967
 Quadrupole moment (field-independent basis, Debye-Ang):
   XX=           -129.4841   YY=           -123.8085   ZZ=           -122.2453
   XY=              4.0385   XZ=              2.0388   YZ=             -5.6965
 Traceless Quadrupole moment (field-independent basis, Debye-Ang):
   XX=             -4.3048   YY=              1.3708   ZZ=              2.9340
   XY=              4.0385   XZ=              2.0388   YZ=             -5.6965
 Octapole moment (field-independent basis, Debye-Ang**2):
  XXX=            -80.9297  YYY=            -39.2519  ZZZ=            -25.0675  XYY=            -29.6017
  XXY=             14.2576  XXZ=             26.7785  XZZ=            -44.8910  YZZ=              4.0344
  YYZ=            -15.8183  XYZ=             -8.7898
 Hexadecapole moment (field-independent basis, Debye-Ang**3):
 XXXX=          -4119.7302 YYYY=          -1703.1743 ZZZZ=          -1231.6238 XXXY=            118.6778
 XXXZ=            213.3349 YYYX=             42.9003 YYYZ=            -12.5366 ZZZX=             64.2237
 ZZZY=             18.5063 XXYY=           -930.1909 XXZZ=           -908.6112 YYZZ=           -459.9025
 XXYZ=            -20.7032 YYXZ=             24.4653 ZZXY=             17.0336
 N-N= 1.693372851392D+03 E-N=-1.370025559231D+04  KE= 4.317878358410D+03
 1\1\GINC-COMPUTE-5-21\SP\RmPW1PW91\6-31+G(d,p)\C10H14Br1Cl3\LPASSAGLIA
 .IQUIR\20-May-2022\0\\# mPW1PW91/6-31+G** scrf=(PCM,solvent=chloroform
 ) nmr\\comment\\0,1\C,0,0.266436,1.82525,-0.517055\C,0,-1.651753,0.251
 277,0.011618\C,0,0.49872,0.022709,1.187614\C,0,-0.70978,-0.820223,0.63
 8484\C,0,1.204869,0.812465,0.102016\C,0,-1.008753,1.152257,-1.03931\H,
 0,0.096683,0.749887,1.898161\H,0,-0.725394,0.558728,-1.916516\H,0,0.76
 0802,2.3616,-1.326644\H,0,-2.079889,0.860374,0.809637\H,0,-1.723782,1.
 907675,-1.375142\Cl,0,-0.17348,3.163735,0.68987\Br,0,-3.265914,-0.5785
 19,-0.823702\C,0,-1.446014,-1.505775,1.804755\H,0,-1.706973,-0.783924,
 2.588381\H,0,-0.828609,-2.28618,2.254512\H,0,-2.371146,-1.962036,1.442
 884\C,0,-0.239062,-1.870051,-0.380759\H,0,-1.098335,-2.411401,-0.78451
 9\H,0,0.424654,-2.591351,0.105156\H,0,0.307329,-1.425985,-1.218457\Cl,
 0,1.602749,-0.980492,2.245251\C,0,2.43579,0.723679,-0.428745\H,0,2.681
 932,1.462723,-1.1902\C,0,3.561368,-0.230004,-0.176606\H,0,4.413063,0.2
 76509,0.285068\H,0,3.293881,-1.099565,0.411239\Cl,0,4.182016,-0.861973
 ,-1.780183\\Version=EM64L-G09RevC.01\State=1-A\HF=-4341.9456543\RMSD=4
 .670e-09\Dipole=0.031309,0.2307532,0.0296742\Quadrupole=-3.200509,1.01
 91626,2.1813464,3.0025058,1.5158226,-4.2351843\PG=C01 [X(C10H14Br1Cl3)
 ]\\@


 ASKING DUMB QUESTIONS IS EASIER THAN CORECTING DUMB MISTAKES.
 Job cpu time:  0 days  0 hours 38 minutes 21.9 seconds.
 File lengths (MBytes):  RWF=    153 Int=      0 D2E=      0 Chk=      9 Scr=      1
 Normal termination of Gaussian 09 at Fri May 20 10:47:13 2022.
