 Entering Gaussian System, Link 0=g09
 Input=/home/mamichetti.iquir/Linux/01_Cardona_A1A3_R__S_R_R_008_OptB.gjc
 Output=/home/mamichetti.iquir/Linux/01_Cardona_A1A3_R__S_R_R_008_OptB.log
 Initial command:
 /opt/ohpc/pub/apps/software/Gaussian/09/AMD64.SSE4a-enabled/g09/l1.exe /local/mamichetti.iquir/Gau-405290.inp -scrdir=/local/mamichetti.iquir/
 Entering Link 1 = /opt/ohpc/pub/apps/software/Gaussian/09/AMD64.SSE4a-enabled/g09/l1.exe PID=    405291.
  
 Copyright (c) 1988,1990,1992,1993,1995,1998,2003,2009,2011,
            Gaussian, Inc.  All Rights Reserved.
  
 This is part of the Gaussian(R) 09 program.  It is based on
 the Gaussian(R) 03 system (copyright 2003, Gaussian, Inc.),
 the Gaussian(R) 98 system (copyright 1998, Gaussian, Inc.),
 the Gaussian(R) 94 system (copyright 1995, Gaussian, Inc.),
 the Gaussian 92(TM) system (copyright 1992, Gaussian, Inc.),
 the Gaussian 90(TM) system (copyright 1990, Gaussian, Inc.),
 the Gaussian 88(TM) system (copyright 1988, Gaussian, Inc.),
 the Gaussian 86(TM) system (copyright 1986, Carnegie Mellon
 University), and the Gaussian 82(TM) system (copyright 1983,
 Carnegie Mellon University). Gaussian is a federally registered
 trademark of Gaussian, Inc.
  
 This software contains proprietary and confidential information,
 including trade secrets, belonging to Gaussian, Inc.
  
 This software is provided under written license and may be
 used, copied, transmitted, or stored only in accord with that
 written license.
  
 The following legend is applicable only to US Government
 contracts under FAR:
  
                    RESTRICTED RIGHTS LEGEND
  
 Use, reproduction and disclosure by the US Government is
 subject to restrictions as set forth in subparagraphs (a)
 and (c) of the Commercial Computer Software - Restricted
 Rights clause in FAR 52.227-19.
  
 Gaussian, Inc.
 340 Quinnipiac St., Bldg. 40, Wallingford CT 06492
  
  
 ---------------------------------------------------------------
 Warning -- This program may not be used in any manner that
 competes with the business of Gaussian, Inc. or will provide
 assistance to any competitor of Gaussian, Inc.  The licensee
 of this program is prohibited from giving any competitor of
 Gaussian, Inc. access to this program.  By using this program,
 the user acknowledges that Gaussian, Inc. is engaged in the
 business of creating and licensing software in the field of
 computational chemistry and represents and warrants to the
 licensee that it is not a competitor of Gaussian, Inc. and that
 it will not use this program in any manner prohibited above.
 ---------------------------------------------------------------
  

 Cite this work as:
 Gaussian 09, Revision C.01,
 M. J. Frisch, G. W. Trucks, H. B. Schlegel, G. E. Scuseria, 
 M. A. Robb, J. R. Cheeseman, G. Scalmani, V. Barone, B. Mennucci, 
 G. A. Petersson, H. Nakatsuji, M. Caricato, X. Li, H. P. Hratchian, 
 A. F. Izmaylov, J. Bloino, G. Zheng, J. L. Sonnenberg, M. Hada, 
 M. Ehara, K. Toyota, R. Fukuda, J. Hasegawa, M. Ishida, T. Nakajima, 
 Y. Honda, O. Kitao, H. Nakai, T. Vreven, J. A. Montgomery, Jr., 
 J. E. Peralta, F. Ogliaro, M. Bearpark, J. J. Heyd, E. Brothers, 
 K. N. Kudin, V. N. Staroverov, T. Keith, R. Kobayashi, J. Normand, 
 K. Raghavachari, A. Rendell, J. C. Burant, S. S. Iyengar, J. Tomasi, 
 M. Cossi, N. Rega, J. M. Millam, M. Klene, J. E. Knox, J. B. Cross, 
 V. Bakken, C. Adamo, J. Jaramillo, R. Gomperts, R. E. Stratmann, 
 O. Yazyev, A. J. Austin, R. Cammi, C. Pomelli, J. W. Ochterski, 
 R. L. Martin, K. Morokuma, V. G. Zakrzewski, G. A. Voth, 
 P. Salvador, J. J. Dannenberg, S. Dapprich, A. D. Daniels, 
 O. Farkas, J. B. Foresman, J. V. Ortiz, J. Cioslowski, 
 and D. J. Fox, Gaussian, Inc., Wallingford CT, 2010.
 
 ******************************************
 Gaussian 09:  AM64L-G09RevC.01 23-Sep-2011
                17-May-2024 
 ******************************************
 %nprocshared=4
 Will use up to    4 processors via shared memory.
 ------------------------------------------------
 # mpw1pw91/6-31+G** nmr scrf=(pcm,solvent=water)
 ------------------------------------------------
 1/38=1/1;
 2/12=2,17=6,18=5,40=1/2;
 3/5=1,6=6,7=111,11=2,16=1,25=1,30=1,70=2201,72=1,74=-7/1,2,8,3;
 4//1;
 5/5=2,38=5,53=1/2;
 8/6=1,10=90,11=11/1;
 10/13=100,45=16/2;
 6/7=2,8=2,9=2,10=2,28=1/1;
 99/9=1/99;
 -------
 comment
 -------
 Charge =  0 Multiplicity = 1
 Symbolic Z-Matrix:
 6                    -2.54598   0.06143   0.35703 
 6                    -1.11493   0.32716   0.86478 
 7                    -0.2625   -0.78744   0.32398 
 6                    -1.05334  -1.48286  -0.70852 
 6                    -2.48726  -1.3783   -0.19089 
 6                     1.02466  -0.21993  -0.12814 
 6                     1.04656   1.2146    0.44468 
 6                    -0.43038   1.62354   0.41686 
 1                    -3.29067   0.18494   1.14845 
 1                    -2.79599   0.75632  -0.44946 
 1                    -1.08218   0.30362   1.96157 
 1                    -0.71597  -2.5181   -0.83143 
 1                    -0.96394  -0.98715  -1.69064 
 1                    -2.6506   -2.10451   0.61413 
 1                    -3.22914  -1.56882  -0.97257 
 1                     1.05096  -0.15224  -1.22682 
 1                     1.4004    1.19941   1.4855 
 1                    -0.64303   2.46389   1.09133 
 8                    -0.8018    1.96043  -0.9232 
 1                    -0.01104   2.37964  -1.31139 
 8                     1.80523   2.14925  -0.32162 
 1                     2.67589   1.75922  -0.5066 
 6                     2.2141   -1.05784   0.33059 
 1                     3.14811  -0.61575  -0.0354 
 1                     2.25375  -1.07534   1.42955 
 8                     2.17206  -2.39053  -0.18891 
 1                     1.36644  -2.79303   0.17747 
 
                          Input orientation:                          
 ---------------------------------------------------------------------
 Center     Atomic      Atomic             Coordinates (Angstroms)
 Number     Number       Type             X           Y           Z
 ---------------------------------------------------------------------
      1          6           0       -2.545976    0.061428    0.357031
      2          6           0       -1.114929    0.327163    0.864775
      3          7           0       -0.262499   -0.787438    0.323976
      4          6           0       -1.053341   -1.482859   -0.708519
      5          6           0       -2.487258   -1.378299   -0.190889
      6          6           0        1.024660   -0.219932   -0.128141
      7          6           0        1.046556    1.214597    0.444676
      8          6           0       -0.430384    1.623535    0.416860
      9          1           0       -3.290673    0.184936    1.148449
     10          1           0       -2.795985    0.756321   -0.449458
     11          1           0       -1.082185    0.303615    1.961572
     12          1           0       -0.715972   -2.518103   -0.831427
     13          1           0       -0.963939   -0.987151   -1.690635
     14          1           0       -2.650595   -2.104505    0.614128
     15          1           0       -3.229139   -1.568817   -0.972569
     16          1           0        1.050955   -0.152240   -1.226817
     17          1           0        1.400404    1.199407    1.485496
     18          1           0       -0.643032    2.463894    1.091335
     19          8           0       -0.801802    1.960431   -0.923201
     20          1           0       -0.011044    2.379640   -1.311388
     21          8           0        1.805232    2.149253   -0.321622
     22          1           0        2.675887    1.759217   -0.506602
     23          6           0        2.214104   -1.057842    0.330590
     24          1           0        3.148112   -0.615747   -0.035396
     25          1           0        2.253752   -1.075336    1.429553
     26          8           0        2.172058   -2.390532   -0.188907
     27          1           0        1.366439   -2.793028    0.177471
 ---------------------------------------------------------------------
                    Distance matrix (angstroms):
                    1          2          3          4          5
     1  C    0.000000
     2  C    1.541530   0.000000
     3  N    2.436377   1.503807   0.000000
     4  C    2.397536   2.399005   1.474818   0.000000
     5  C    1.541583   2.430291   2.358761   1.528068   0.000000
     6  C    3.614415   2.421371   1.477583   2.499982   3.698556
     7  C    3.774091   2.374034   2.395065   3.607727   4.428871
     8  C    2.630492   1.532909   2.418595   3.362177   3.689322
     9  H    1.093696   2.198764   3.285590   3.351943   2.209752
    10  H    1.093529   2.176542   3.065933   2.849184   2.172274
    11  H    2.185381   1.097538   2.131667   3.212741   3.071832
    12  H    3.378658   3.336436   2.129741   1.095744   2.201567
    13  H    2.792006   2.877558   2.142559   1.103753   2.173186
    14  H    2.183646   2.886885   2.742600   2.164962   1.096406
    15  H    2.211842   3.382374   3.330546   2.193447   1.094399
    16  H    3.936006   3.048875   2.129224   2.543077   3.885269
    17  H    4.259383   2.733680   2.839353   4.246071   4.956687
    18  H    3.151546   2.199917   3.362262   4.357142   4.450586
    19  O    2.878776   2.441817   3.065466   3.459134   3.811058
    20  H    3.818849   3.188559   3.573238   4.045829   4.637808
    21  O    4.873663   3.640727   3.649173   4.638250   5.557534
    22  H    5.558435   4.278053   3.976107   4.945601   6.049938
    23  C    4.889972   3.645004   2.491330   3.454936   4.741038
    24  H    5.747626   4.457904   3.433787   4.342486   5.688854
    25  H    5.047764   3.692423   2.763459   3.959077   5.019442
    26  O    5.345091   4.393222   2.959734   3.390732   4.768002
    27  H    4.846355   4.045388   2.587913   2.890823   4.121666
                    6          7          8          9         10
     6  C    0.000000
     7  C    1.544821   0.000000
     8  C    2.410923   1.532761   0.000000
     9  H    4.518373   4.512987   3.284211   0.000000
    10  H    3.956468   3.971727   2.664326   1.767627   0.000000
    11  H    3.013270   2.768104   2.133815   2.356411   2.992510
    12  H    2.967491   4.320647   4.335083   4.225567   3.897975
    13  H    2.642828   3.667334   3.397337   3.853294   2.817199
    14  H    4.196436   4.971326   4.343562   2.436542   3.055598
    15  H    4.541735   5.295049   4.467063   2.752845   2.422299
    16  H    1.101073   2.159202   2.837149   4.960374   4.028488
    17  H    2.181635   1.099430   2.161863   4.811336   4.642203
    18  H    3.386922   2.198549   1.098335   3.493839   3.150406
    19  O    2.953315   2.417392   1.430809   3.693047   2.377200
    20  H    3.038179   2.357881   1.932455   4.650106   3.336763
    21  O    2.501952   1.427019   2.412408   5.655784   4.809137
    22  H    2.605151   1.963736   3.243472   6.388849   5.563313
    23  C    1.525550   2.557374   3.767034   5.702277   5.385226
    24  H    2.162017   2.827926   4.245533   6.595494   6.114434
    25  H    2.160739   2.769675   3.938786   5.692798   5.690825
    26  O    2.455956   3.829509   4.822073   6.185708   5.886597
    27  H    2.613625   4.029241   4.774087   5.612465   5.506060
                   11         12         13         14         15
    11  H    0.000000
    12  H    3.987110   0.000000
    13  H    3.875394   1.773003   0.000000
    14  H    3.174044   2.450196   3.066793   0.000000
    15  H    4.089572   2.690181   2.446443   1.771802   0.000000
    16  H    3.863148   2.979207   2.229798   4.571858   4.515588
    17  H    2.681854   4.864880   4.523158   5.299595   5.927716
    18  H    2.370015   5.340658   4.444328   5.012814   5.216360
    19  O    3.338498   4.480296   3.050161   4.722830   4.283689
    20  H    4.021130   4.971436   3.519534   5.548189   5.105022
    21  O    4.117831   5.329220   4.402219   6.230929   6.292270
    22  H    4.725861   5.468609   4.710924   6.675013   6.794282
    23  C    3.921631   3.473901   3.767002   4.984094   5.620339
    24  H    4.767444   4.379928   4.448227   6.021900   6.515824
    25  H    3.648702   4.001608   4.482955   5.077079   6.006314
    26  O    4.740579   2.961389   3.749552   4.897413   5.519264
    27  H    4.332202   2.330213   3.490225   4.098938   4.892915
                   16         17         18         19         20
    16  H    0.000000
    17  H    3.050526   0.000000
    18  H    3.884273   2.435143   0.000000
    19  O    2.826353   3.351222   2.082556   0.000000
    20  H    2.746891   3.347790   2.485877   0.975563   0.000000
    21  O    2.585572   2.081290   2.844195   2.682196   2.081243
    22  H    2.610131   2.430781   3.750359   3.508328   2.872665
    23  C    2.144422   2.662910   4.598324   4.447207   4.411764
    24  H    2.456092   2.943192   5.012632   4.798616   4.536603
    25  H    3.058615   2.430183   4.586055   4.907927   4.957713
    26  O    2.709996   4.035683   5.755797   5.321082   5.364740
    27  H    3.007543   4.201383   5.701609   5.339300   5.556137
                   21         22         23         24         25
    21  O    0.000000
    22  H    0.971795   0.000000
    23  C    3.298184   2.974887   0.000000
    24  H    3.087147   2.466878   1.096250   0.000000
    25  H    3.696723   3.458552   1.099817   1.776845   0.000000
    26  O    4.556514   4.192277   1.430981   2.031283   2.087062
    27  H    4.986760   4.785974   1.937228   2.821387   2.303367
                   26         27
    26  O    0.000000
    27  H    0.972244   0.000000
 Stoichiometry    C8H15NO3
 Framework group  C1[X(C8H15NO3)]
 Deg. of freedom    75
 Full point group                 C1      NOp   1
 Largest Abelian subgroup         C1      NOp   1
 Largest concise Abelian subgroup C1      NOp   1
                         Standard orientation:                         
 ---------------------------------------------------------------------
 Center     Atomic      Atomic             Coordinates (Angstroms)
 Number     Number       Type             X           Y           Z
 ---------------------------------------------------------------------
      1          6           0       -2.545976    0.061428    0.357031
      2          6           0       -1.114929    0.327163    0.864775
      3          7           0       -0.262499   -0.787438    0.323976
      4          6           0       -1.053341   -1.482859   -0.708519
      5          6           0       -2.487258   -1.378299   -0.190889
      6          6           0        1.024660   -0.219932   -0.128141
      7          6           0        1.046556    1.214597    0.444676
      8          6           0       -0.430384    1.623535    0.416860
      9          1           0       -3.290673    0.184936    1.148449
     10          1           0       -2.795985    0.756321   -0.449458
     11          1           0       -1.082185    0.303615    1.961572
     12          1           0       -0.715972   -2.518103   -0.831427
     13          1           0       -0.963939   -0.987151   -1.690635
     14          1           0       -2.650595   -2.104505    0.614128
     15          1           0       -3.229139   -1.568817   -0.972569
     16          1           0        1.050955   -0.152240   -1.226817
     17          1           0        1.400404    1.199407    1.485496
     18          1           0       -0.643032    2.463894    1.091335
     19          8           0       -0.801802    1.960431   -0.923201
     20          1           0       -0.011044    2.379640   -1.311388
     21          8           0        1.805232    2.149253   -0.321622
     22          1           0        2.675887    1.759217   -0.506602
     23          6           0        2.214104   -1.057842    0.330590
     24          1           0        3.148112   -0.615747   -0.035396
     25          1           0        2.253752   -1.075336    1.429553
     26          8           0        2.172058   -2.390532   -0.188907
     27          1           0        1.366439   -2.793028    0.177471
 ---------------------------------------------------------------------
 Rotational constants (GHZ):      1.1251832      0.9487798      0.5858280
 Standard basis: 6-31+G(d,p) (6D, 7F)
 There are   303 symmetry adapted basis functions of A   symmetry.
 Integral buffers will be    131072 words long.
 Raffenetti 2 integral format.
 Two-electron integral symmetry is turned on.
   303 basis functions,   489 primitive gaussians,   303 cartesian basis functions
    47 alpha electrons       47 beta electrons
       nuclear repulsion energy       808.4773229924 Hartrees.
 NAtoms=   27 NActive=   27 NUniq=   27 SFac= 1.00D+00 NAtFMM=   60 NAOKFM=F Big=F
 ------------------------------------------------------------------------------
 Polarizable Continuum Model (PCM)
 =================================
 Model                : PCM.
 Atomic radii         : UFF (Universal Force Field).
 Polarization charges : Total charges.
 Charge compensation  : None.
 Solution method      : Matrix inversion.
 Cavity type          : Scaled VdW (van der Waals Surface) (Alpha=1.100).
 Cavity algorithm     : GePol (No added spheres)
                        Default sphere list used, NSphG=   27.
                        Lebedev-Laikov grids with approx.  5.0 points / Ang**2.
                        Smoothing algorithm: Karplus/York (Gamma=1.0000).
                        Polarization charges: spherical gaussians, with
                                              point-specific exponents (IZeta= 3).
                        Self-potential: point-specific (ISelfS= 7).
                        Self-field    : sphere-specific E.n sum rule (ISelfD= 2).
 Solvent              : Water, Eps=  78.355300 Eps(inf)=   1.777849
 ------------------------------------------------------------------------------
 One-electron integrals computed using PRISM.
 NBasis=   303 RedAO= T  NBF=   303
 NBsUse=   303 1.00D-06 NBFU=   303
 Harris functional with IExCor=  908 diagonalized for initial guess.
 ExpMin= 4.38D-02 ExpMax= 5.48D+03 ExpMxC= 8.25D+02 IAcc=2 IRadAn=         4 AccDes= 0.00D+00
 HarFok:  IExCor=  908 AccDes= 0.00D+00 IRadAn=         4 IDoV= 1
 ScaDFX=  1.000000  1.000000  1.000000  1.000000
 FoFCou: FMM=F IPFlag=           0 FMFlag=      100000 FMFlg1=           0
         NFxFlg=           0 DoJE=T BraDBF=F KetDBF=T FulRan=T
         Omega=  0.000000  0.000000  1.000000  0.000000  0.000000 ICntrl=     500 IOpCl=  0
         NMat0=    1 NMatS0=    1 NMatT0=    0 NMatD0=    1 NMtDS0=    0 NMtDT0=    0
         I1Cent=           4 NGrid=           0.
 Petite list used in FoFCou.
 Initial guess orbital symmetries:
       Occupied  (A) (A) (A) (A) (A) (A) (A) (A) (A) (A) (A) (A)
                 (A) (A) (A) (A) (A) (A) (A) (A) (A) (A) (A) (A)
                 (A) (A) (A) (A) (A) (A) (A) (A) (A) (A) (A) (A)
                 (A) (A) (A) (A) (A) (A) (A) (A) (A) (A) (A)
       Virtual   (A) (A) (A) (A) (A) (A) (A) (A) (A) (A) (A) (A)
                 (A) (A) (A) (A) (A) (A) (A) (A) (A) (A) (A) (A)
                 (A) (A) (A) (A) (A) (A) (A) (A) (A) (A) (A) (A)
                 (A) (A) (A) (A) (A) (A) (A) (A) (A) (A) (A) (A)
                 (A) (A) (A) (A) (A) (A) (A) (A) (A) (A) (A) (A)
                 (A) (A) (A) (A) (A) (A) (A) (A) (A) (A) (A) (A)
                 (A) (A) (A) (A) (A) (A) (A) (A) (A) (A) (A) (A)
                 (A) (A) (A) (A) (A) (A) (A) (A) (A) (A) (A) (A)
                 (A) (A) (A) (A) (A) (A) (A) (A) (A) (A) (A) (A)
                 (A) (A) (A) (A) (A) (A) (A) (A) (A) (A) (A) (A)
                 (A) (A) (A) (A) (A) (A) (A) (A) (A) (A) (A) (A)
                 (A) (A) (A) (A) (A) (A) (A) (A) (A) (A) (A) (A)
                 (A) (A) (A) (A) (A) (A) (A) (A) (A) (A) (A) (A)
                 (A) (A) (A) (A) (A) (A) (A) (A) (A) (A) (A) (A)
                 (A) (A) (A) (A) (A) (A) (A) (A) (A) (A) (A) (A)
                 (A) (A) (A) (A) (A) (A) (A) (A) (A) (A) (A) (A)
                 (A) (A) (A) (A) (A) (A) (A) (A) (A) (A) (A) (A)
                 (A) (A) (A) (A) (A) (A) (A) (A) (A) (A) (A) (A)
                 (A) (A) (A) (A) (A) (A) (A) (A) (A) (A) (A) (A)
                 (A) (A) (A) (A) (A) (A) (A) (A) (A) (A) (A) (A)
                 (A) (A) (A) (A) (A) (A) (A) (A) (A) (A) (A) (A)
                 (A) (A) (A) (A)
 The electronic state of the initial guess is 1-A.
 Requested convergence on RMS density matrix=1.00D-08 within 128 cycles.
 Requested convergence on MAX density matrix=1.00D-06.
 Requested convergence on             energy=1.00D-06.
 No special actions if energy rises.
 Error on total polarization charges =  0.01450
 SCF Done:  E(RmPW1PW91) =  -594.198616480     A.U. after   13 cycles
             Convg  =    0.3994D-08             -V/T =  2.0094
 Range of M.O.s used for correlation:     1   303
 NBasis=   303 NAE=    47 NBE=    47 NFC=     0 NFV=     0
 NROrb=    303 NOA=    47 NOB=    47 NVA=   256 NVB=   256

 **** Warning!!: The largest alpha MO coefficient is  0.54808951D+02

 NEqPCM:  Using equilibrium solvation (IEInf=0, Eps=  78.3553, EpsInf=   1.7778)
          Differentiating once with respect to magnetic field using GIAOs.
          Electric field/nuclear overlap derivatives assumed to be zero.
 FoFCou: FMM=F IPFlag=           0 FMFlag=    10101102 FMFlg1=           0
         NFxFlg=    40000000 DoJE=F BraDBF=F KetDBF=T FulRan=T
         Omega=  0.000000  0.000000  1.000000  0.000000  0.000000 ICntrl=    6100 IOpCl=  0
         NMat0=    1 NMatS0=    1 NMatT0=    0 NMatD0=    1 NMtDS0=    0 NMtDT0=    0
         I1Cent=           7 NGrid=        1826.
 Symmetry not used in FoFCou.
          There are     3 degrees of freedom in the 1st order CPHF.  IDoFFX=0.
      3 vectors produced by pass  0 Test12= 4.01D-13 3.33D-08 XBig12= 4.04D+01 1.18D+00.
 AX will form     3 AO Fock derivatives at one time.
      3 vectors produced by pass  1 Test12= 4.01D-13 3.33D-08 XBig12= 9.78D-02 5.65D-02.
      3 vectors produced by pass  2 Test12= 4.01D-13 3.33D-08 XBig12= 2.64D-04 3.37D-03.
      3 vectors produced by pass  3 Test12= 4.01D-13 3.33D-08 XBig12= 1.15D-06 2.17D-04.
      3 vectors produced by pass  4 Test12= 4.01D-13 3.33D-08 XBig12= 3.50D-09 8.56D-06.
      3 vectors produced by pass  5 Test12= 4.01D-13 3.33D-08 XBig12= 1.12D-11 7.29D-07.
 Inverted reduced A of dimension    18 with in-core refinement.
 Calculating GIAO nuclear magnetic shielding tensors.
 SCF GIAO Magnetic shielding tensor (ppm):
      1  C    Isotropic =   171.9137   Anisotropy =    21.5244
   XX=   181.8517   YX=     3.4763   ZX=     2.7429
   XY=    -4.6984   YY=   177.8447   ZY=    18.7248
   XZ=     1.0445   YZ=    13.1089   ZZ=   156.0446
   Eigenvalues:   147.5413   181.9364   186.2633
      2  C    Isotropic =   128.1004   Anisotropy =    51.9635
   XX=   138.3805   YX=   -13.5416   ZX=    -6.6441
   XY=    -9.8543   YY=   151.1607   ZY=    18.4181
   XZ=   -13.1438   YZ=    11.1473   ZZ=    94.7601
   Eigenvalues:    90.0982   131.4603   162.7428
      3  N    Isotropic =   188.2344   Anisotropy =    93.9103
   XX=   246.4197   YX=    -2.1437   ZX=   -23.3473
   XY=    12.6450   YY=   181.1904   ZY=    30.4800
   XZ=   -21.3890   YZ=    34.8935   ZZ=   137.0932
   Eigenvalues:   115.9201   197.9419   250.8413
      4  C    Isotropic =   135.2919   Anisotropy =    57.2154
   XX=   146.3506   YX=    14.6600   ZX=    15.6028
   XY=    25.3378   YY=   122.7415   ZY=    15.5859
   XZ=    14.2263   YZ=    26.3181   ZZ=   136.7837
   Eigenvalues:   105.6748   126.7654   173.4356
      5  C    Isotropic =   164.7934   Anisotropy =    25.8356
   XX=   180.9163   YX=     0.8823   ZX=    -0.6017
   XY=     2.4587   YY=   167.0897   ZY=    21.2289
   XZ=   -10.5231   YZ=    14.9803   ZZ=   146.3741
   Eigenvalues:   135.1753   177.1877   182.0171
      6  C    Isotropic =   123.1883   Anisotropy =    44.9216
   XX=   134.2012   YX=    11.0067   ZX=    -7.4990
   XY=    30.7096   YY=   126.0787   ZY=    -6.6671
   XZ=   -12.0492   YZ=     3.0340   ZZ=   109.2849
   Eigenvalues:   103.4482   112.9806   153.1360
      7  C    Isotropic =   116.1828   Anisotropy =    49.2795
   XX=   129.0533   YX=    20.2334   ZX=   -20.9846
   XY=    12.7853   YY=   129.2259   ZY=    -4.7136
   XZ=   -11.0726   YZ=    -2.4622   ZZ=    90.2693
   Eigenvalues:    84.3778   115.1348   149.0358
      8  C    Isotropic =   121.5999   Anisotropy =    25.7235
   XX=   113.2672   YX=     1.6224   ZX=     4.1276
   XY=    -0.4078   YY=   119.1446   ZY=    -9.2544
   XZ=    11.0647   YZ=    -9.0241   ZZ=   132.3880
   Eigenvalues:   108.9080   117.1429   138.7489
      9  H    Isotropic =    29.8896   Anisotropy =    11.7942
   XX=    33.3780   YX=    -0.7718   ZX=    -5.3476
   XY=    -1.6095   YY=    26.7903   ZY=     2.5085
   XZ=    -5.7111   YZ=     1.8115   ZZ=    29.5005
   Eigenvalues:    24.8391    27.0772    37.7524
     10  H    Isotropic =    29.3067   Anisotropy =     7.5471
   XX=    30.5245   YX=    -0.7918   ZX=     2.6114
   XY=    -0.6232   YY=    30.9527   ZY=    -4.1199
   XZ=     2.8092   YZ=    -3.6890   ZZ=    26.4428
   Eigenvalues:    23.5813    30.0006    34.3381
     11  H    Isotropic =    27.9504   Anisotropy =     8.7165
   XX=    26.4675   YX=    -0.8575   ZX=    -1.8546
   XY=    -0.3888   YY=    24.5012   ZY=     2.1923
   XZ=    -2.1285   YZ=     0.9805   ZZ=    32.8826
   Eigenvalues:    24.1753    25.9146    33.7615
     12  H    Isotropic =    28.4752   Anisotropy =     8.6180
   XX=    28.0406   YX=    -0.1805   ZX=     0.9454
   XY=    -1.1439   YY=    32.6081   ZY=     3.5319
   XZ=     0.9009   YZ=     4.2406   ZZ=    24.7769
   Eigenvalues:    22.9359    28.2692    34.2205
     13  H    Isotropic =    28.8392   Anisotropy =     7.0842
   XX=    27.0346   YX=     0.6680   ZX=     1.5852
   XY=     1.2992   YY=    26.3742   ZY=     1.7657
   XZ=     0.2269   YZ=     0.9977   ZZ=    33.1087
   Eigenvalues:    25.6117    27.3438    33.5619
     14  H    Isotropic =    29.5193   Anisotropy =    10.9458
   XX=    28.1769   YX=     2.8628   ZX=    -2.8286
   XY=     3.3389   YY=    33.1207   ZY=    -3.6072
   XZ=    -2.9872   YZ=    -3.7192   ZZ=    27.2603
   Eigenvalues:    24.6497    27.0916    36.8165
     15  H    Isotropic =    29.5296   Anisotropy =    11.5376
   XX=    32.4872   YX=     2.6305   ZX=     4.6381
   XY=     3.3137   YY=    27.7868   ZY=     3.0272
   XZ=     4.6329   YZ=     2.6514   ZZ=    28.3149
   Eigenvalues:    24.8831    26.4845    37.2214
     16  H    Isotropic =    28.6813   Anisotropy =     4.2610
   XX=    29.5887   YX=     0.0571   ZX=    -2.5447
   XY=    -0.7511   YY=    28.1258   ZY=    -1.3179
   XZ=    -2.4151   YZ=     0.0379   ZZ=    28.3296
   Eigenvalues:    26.1404    28.3816    31.5220
     17  H    Isotropic =    27.5391   Anisotropy =     4.3695
   XX=    26.4725   YX=     1.9931   ZX=     0.2983
   XY=     1.5206   YY=    26.9012   ZY=     0.1801
   XZ=     3.0486   YZ=     0.7100   ZZ=    29.2435
   Eigenvalues:    24.6878    27.4773    30.4521
     18  H    Isotropic =    27.6909   Anisotropy =     8.8832
   XX=    23.9134   YX=    -1.2869   ZX=     0.4010
   XY=    -0.9499   YY=    29.0632   ZY=     3.2030
   XZ=    -0.5907   YZ=     4.6603   ZZ=    30.0962
   Eigenvalues:    23.5540    25.9058    33.6131
     19  O    Isotropic =   309.6201   Anisotropy =    37.1690
   XX=   306.6192   YX=    17.0840   ZX=   -29.5518
   XY=    14.4487   YY=   309.6825   ZY=    22.3493
   XZ=   -16.8954   YZ=    -8.3601   ZZ=   312.5585
   Eigenvalues:   277.6053   316.8556   334.3994
     20  H    Isotropic =    28.4686   Anisotropy =    18.1464
   XX=    34.6946   YX=     6.3195   ZX=    -2.6971
   XY=     5.4165   YY=    24.1861   ZY=    -8.2221
   XZ=    -4.1902   YZ=    -7.3814   ZZ=    26.5251
   Eigenvalues:    17.1438    27.6958    40.5662
     21  O    Isotropic =   298.1147   Anisotropy =    24.7692
   XX=   311.3983   YX=     1.5485   ZX=   -18.2999
   XY=     4.0419   YY=   308.1676   ZY=     4.8658
   XZ=    -1.7217   YZ=     0.5298   ZZ=   274.7782
   Eigenvalues:   271.9179   307.7987   314.6275
     22  H    Isotropic =    29.7335   Anisotropy =    18.4670
   XX=    40.2292   YX=    -2.4563   ZX=    -5.1951
   XY=    -2.8011   YY=    27.5126   ZY=    -1.7076
   XZ=    -5.7385   YZ=    -0.8169   ZZ=    21.4587
   Eigenvalues:    19.5165    27.6392    42.0448
     23  C    Isotropic =   126.8101   Anisotropy =    49.7283
   XX=   114.7686   YX=    -5.4401   ZX=    12.1859
   XY=   -11.3617   YY=   151.3540   ZY=    20.1981
   XZ=     7.5539   YZ=    18.4869   ZZ=   114.3077
   Eigenvalues:    97.2080   123.2600   159.9623
     24  H    Isotropic =    27.9232   Anisotropy =     5.7361
   XX=    31.6431   YX=    -0.4095   ZX=    -0.5376
   XY=     1.3351   YY=    29.3753   ZY=     0.1232
   XZ=    -0.3790   YZ=     0.9789   ZZ=    22.7512
   Eigenvalues:    22.6782    29.3440    31.7473
     25  H    Isotropic =    28.0547   Anisotropy =     5.8465
   XX=    25.6316   YX=    -1.4891   ZX=     3.6048
   XY=    -1.3457   YY=    28.8956   ZY=     3.0679
   XZ=     3.3103   YZ=     0.6385   ZZ=    29.6368
   Eigenvalues:    22.8585    29.3532    31.9523
     26  O    Isotropic =   306.6281   Anisotropy =    27.2751
   XX=   318.7802   YX=    16.7624   ZX=     1.5382
   XY=     4.8529   YY=   304.4428   ZY=    -0.9728
   XZ=   -10.4538   YZ=     6.9664   ZZ=   296.6614
   Eigenvalues:   292.6812   302.3916   324.8115
     27  H    Isotropic =    29.8825   Anisotropy =    14.3971
   XX=    34.6001   YX=     4.0577   ZX=    -5.5959
   XY=     4.3918   YY=    32.8297   ZY=    -1.6297
   XZ=    -4.1866   YZ=    -2.0684   ZZ=    22.2178
   Eigenvalues:    20.5070    29.6601    39.4806
 End of Minotr Frequency-dependent properties file   721 does not exist.
 End of Minotr Frequency-dependent properties file   722 does not exist.

 **********************************************************************

            Population analysis using the SCF density.

 **********************************************************************

 Orbital symmetries:
       Occupied  (A) (A) (A) (A) (A) (A) (A) (A) (A) (A) (A) (A)
                 (A) (A) (A) (A) (A) (A) (A) (A) (A) (A) (A) (A)
                 (A) (A) (A) (A) (A) (A) (A) (A) (A) (A) (A) (A)
                 (A) (A) (A) (A) (A) (A) (A) (A) (A) (A) (A)
       Virtual   (A) (A) (A) (A) (A) (A) (A) (A) (A) (A) (A) (A)
                 (A) (A) (A) (A) (A) (A) (A) (A) (A) (A) (A) (A)
                 (A) (A) (A) (A) (A) (A) (A) (A) (A) (A) (A) (A)
                 (A) (A) (A) (A) (A) (A) (A) (A) (A) (A) (A) (A)
                 (A) (A) (A) (A) (A) (A) (A) (A) (A) (A) (A) (A)
                 (A) (A) (A) (A) (A) (A) (A) (A) (A) (A) (A) (A)
                 (A) (A) (A) (A) (A) (A) (A) (A) (A) (A) (A) (A)
                 (A) (A) (A) (A) (A) (A) (A) (A) (A) (A) (A) (A)
                 (A) (A) (A) (A) (A) (A) (A) (A) (A) (A) (A) (A)
                 (A) (A) (A) (A) (A) (A) (A) (A) (A) (A) (A) (A)
                 (A) (A) (A) (A) (A) (A) (A) (A) (A) (A) (A) (A)
                 (A) (A) (A) (A) (A) (A) (A) (A) (A) (A) (A) (A)
                 (A) (A) (A) (A) (A) (A) (A) (A) (A) (A) (A) (A)
                 (A) (A) (A) (A) (A) (A) (A) (A) (A) (A) (A) (A)
                 (A) (A) (A) (A) (A) (A) (A) (A) (A) (A) (A) (A)
                 (A) (A) (A) (A) (A) (A) (A) (A) (A) (A) (A) (A)
                 (A) (A) (A) (A) (A) (A) (A) (A) (A) (A) (A) (A)
                 (A) (A) (A) (A) (A) (A) (A) (A) (A) (A) (A) (A)
                 (A) (A) (A) (A) (A) (A) (A) (A) (A) (A) (A) (A)
                 (A) (A) (A) (A) (A) (A) (A) (A) (A) (A) (A) (A)
                 (A) (A) (A) (A) (A) (A) (A) (A) (A) (A) (A) (A)
                 (A) (A) (A) (A)
 The electronic state is 1-A.
 Alpha  occ. eigenvalues --  -19.27170 -19.25644 -19.25210 -14.41435 -10.31250
 Alpha  occ. eigenvalues --  -10.30343 -10.29699 -10.28141 -10.27945 -10.26901
 Alpha  occ. eigenvalues --  -10.24560 -10.24464  -1.08399  -1.05806  -1.05029
 Alpha  occ. eigenvalues --   -0.96457  -0.83059  -0.79432  -0.75336  -0.72019
 Alpha  occ. eigenvalues --   -0.66478  -0.61798  -0.60594  -0.57945  -0.55217
 Alpha  occ. eigenvalues --   -0.54196  -0.52563  -0.50982  -0.49375  -0.48127
 Alpha  occ. eigenvalues --   -0.45232  -0.43868  -0.43544  -0.42674  -0.41429
 Alpha  occ. eigenvalues --   -0.39029  -0.38561  -0.38046  -0.36632  -0.35492
 Alpha  occ. eigenvalues --   -0.35028  -0.33771  -0.33624  -0.31034  -0.30597
 Alpha  occ. eigenvalues --   -0.29331  -0.23303
 Alpha virt. eigenvalues --    0.00536   0.01228   0.02053   0.02385   0.03585
 Alpha virt. eigenvalues --    0.04379   0.04639   0.05253   0.05297   0.07144
 Alpha virt. eigenvalues --    0.07444   0.08105   0.08663   0.08825   0.10056
 Alpha virt. eigenvalues --    0.10340   0.10998   0.11820   0.12040   0.12790
 Alpha virt. eigenvalues --    0.13410   0.14054   0.14334   0.14623   0.15200
 Alpha virt. eigenvalues --    0.15647   0.16452   0.17274   0.17763   0.18240
 Alpha virt. eigenvalues --    0.18546   0.19440   0.20168   0.20526   0.21127
 Alpha virt. eigenvalues --    0.21314   0.22362   0.22524   0.22978   0.23378
 Alpha virt. eigenvalues --    0.23998   0.24613   0.25542   0.25846   0.26058
 Alpha virt. eigenvalues --    0.26310   0.27050   0.27445   0.27561   0.28014
 Alpha virt. eigenvalues --    0.29376   0.30269   0.30558   0.31167   0.31953
 Alpha virt. eigenvalues --    0.32648   0.33346   0.33582   0.33996   0.34750
 Alpha virt. eigenvalues --    0.35256   0.36144   0.36685   0.37480   0.38363
 Alpha virt. eigenvalues --    0.38741   0.39289   0.40184   0.40542   0.41609
 Alpha virt. eigenvalues --    0.41740   0.43338   0.44392   0.45163   0.45553
 Alpha virt. eigenvalues --    0.50203   0.63115   0.65843   0.67164   0.68000
 Alpha virt. eigenvalues --    0.68948   0.70778   0.71900   0.73106   0.74337
 Alpha virt. eigenvalues --    0.74968   0.77014   0.77045   0.79386   0.80605
 Alpha virt. eigenvalues --    0.83193   0.83637   0.85218   0.86534   0.88687
 Alpha virt. eigenvalues --    0.89703   0.91223   0.92083   0.93752   0.95456
 Alpha virt. eigenvalues --    0.97913   1.00001   1.01312   1.02328   1.04811
 Alpha virt. eigenvalues --    1.05321   1.07176   1.08355   1.08868   1.11547
 Alpha virt. eigenvalues --    1.12113   1.12282   1.13196   1.14531   1.15857
 Alpha virt. eigenvalues --    1.16833   1.18681   1.20316   1.22813   1.24441
 Alpha virt. eigenvalues --    1.26353   1.27642   1.30097   1.31820   1.33562
 Alpha virt. eigenvalues --    1.36934   1.37306   1.38078   1.39699   1.40896
 Alpha virt. eigenvalues --    1.41799   1.45034   1.48034   1.48413   1.51580
 Alpha virt. eigenvalues --    1.54321   1.56611   1.57887   1.59815   1.61845
 Alpha virt. eigenvalues --    1.62386   1.64261   1.67579   1.67726   1.69830
 Alpha virt. eigenvalues --    1.71319   1.73030   1.76336   1.77242   1.79536
 Alpha virt. eigenvalues --    1.81054   1.82005   1.82889   1.86019   1.87337
 Alpha virt. eigenvalues --    1.88886   1.89460   1.92440   1.95031   1.96353
 Alpha virt. eigenvalues --    1.96927   2.01154   2.01885   2.02827   2.03523
 Alpha virt. eigenvalues --    2.05363   2.07603   2.07809   2.09488   2.10834
 Alpha virt. eigenvalues --    2.11271   2.15584   2.15811   2.17222   2.19452
 Alpha virt. eigenvalues --    2.20256   2.22989   2.26780   2.28009   2.28491
 Alpha virt. eigenvalues --    2.33016   2.33683   2.34161   2.35463   2.38153
 Alpha virt. eigenvalues --    2.40209   2.41780   2.45028   2.45139   2.46974
 Alpha virt. eigenvalues --    2.49142   2.49176   2.51241   2.53583   2.54763
 Alpha virt. eigenvalues --    2.55746   2.57642   2.59279   2.61923   2.62490
 Alpha virt. eigenvalues --    2.63914   2.65991   2.67632   2.70483   2.71256
 Alpha virt. eigenvalues --    2.71640   2.72597   2.75584   2.76357   2.77457
 Alpha virt. eigenvalues --    2.79865   2.80834   2.82592   2.83677   2.85284
 Alpha virt. eigenvalues --    2.86189   2.89212   2.91047   2.92420   2.96466
 Alpha virt. eigenvalues --    2.97279   3.00081   3.01343   3.02380   3.03896
 Alpha virt. eigenvalues --    3.05650   3.07876   3.10234   3.12135   3.32444
 Alpha virt. eigenvalues --    3.33892   3.36186   3.38099   3.39762   3.45247
 Alpha virt. eigenvalues --    3.47049   3.48726   3.51211   3.53551   3.55934
 Alpha virt. eigenvalues --    3.58023   3.58777   3.60229   3.60825   4.30672
 Alpha virt. eigenvalues --    4.31142   4.38740   4.45897   4.48168   4.52497
 Alpha virt. eigenvalues --    4.60917   4.68629   4.76789   4.81613   4.88283
 Alpha virt. eigenvalues --    4.97715
          Condensed to atoms (all electrons):
              1          2          3          4          5          6
     1  C    6.064066  -0.651134   0.037453  -0.124190   0.073893   0.137130
     2  C   -0.651134   9.686272  -0.297328  -0.550616   0.373497  -1.407294
     3  N    0.037453  -0.297328   7.489798   0.261400  -0.151540  -0.171470
     4  C   -0.124190  -0.550616   0.261400   5.618426   0.046314   0.017159
     5  C    0.073893   0.373497  -0.151540   0.046314   5.723730  -0.180139
     6  C    0.137130  -1.407294  -0.171470   0.017159  -0.180139   9.168495
     7  C   -0.083769   1.186975  -0.147014  -0.105400  -0.011770  -1.274566
     8  C    0.120245  -2.030005   0.022150   0.313085  -0.161493   1.125055
     9  H    0.367651  -0.049194   0.012137   0.028036  -0.031391   0.003325
    10  H    0.514565  -0.234302   0.028619   0.024404  -0.070507   0.009150
    11  H    0.069323   0.124226  -0.007501   0.027150  -0.027472   0.035103
    12  H    0.028516   0.019165  -0.048368   0.381181  -0.023651  -0.019501
    13  H   -0.001692   0.008420  -0.093820   0.417748  -0.022158  -0.012468
    14  H   -0.022780  -0.051883   0.014700  -0.032712   0.403376   0.003501
    15  H   -0.075849   0.049422   0.006070  -0.020589   0.387913  -0.006681
    16  H   -0.002846   0.026790  -0.066668   0.015227   0.012698   0.306156
    17  H    0.005856  -0.005025   0.044175   0.006562   0.006145  -0.113711
    18  H    0.000261  -0.087580   0.019792  -0.005189   0.003905   0.037496
    19  O    0.071871  -0.302015   0.035340  -0.007776  -0.011783   0.036663
    20  H   -0.014088   0.070324  -0.003484  -0.005750   0.007094  -0.020652
    21  O   -0.008278   0.060498   0.018388  -0.001565   0.010806  -0.059411
    22  H    0.001741  -0.010936   0.000319   0.001906  -0.000810   0.007862
    23  C    0.010248  -0.070265   0.148693  -0.113251   0.034304  -1.113785
    24  H    0.000026   0.015592   0.009460  -0.005036   0.000158  -0.155079
    25  H    0.001569   0.015754   0.015359   0.009079   0.002426  -0.137974
    26  O    0.000698   0.032082   0.028099  -0.014222   0.006748  -0.161713
    27  H   -0.001508   0.018492   0.032192  -0.002206   0.006132  -0.096491
              7          8          9         10         11         12
     1  C   -0.083769   0.120245   0.367651   0.514565   0.069323   0.028516
     2  C    1.186975  -2.030005  -0.049194  -0.234302   0.124226   0.019165
     3  N   -0.147014   0.022150   0.012137   0.028619  -0.007501  -0.048368
     4  C   -0.105400   0.313085   0.028036   0.024404   0.027150   0.381181
     5  C   -0.011770  -0.161493  -0.031391  -0.070507  -0.027472  -0.023651
     6  C   -1.274566   1.125055   0.003325   0.009150   0.035103  -0.019501
     7  C    7.292246  -1.343858  -0.001504  -0.011127  -0.047164  -0.003652
     8  C   -1.343858   7.671904   0.011913   0.065823   0.082389  -0.011008
     9  H   -0.001504   0.011913   0.520161  -0.025489  -0.005467  -0.000119
    10  H   -0.011127   0.065823  -0.025489   0.507518   0.003640  -0.000060
    11  H   -0.047164   0.082389  -0.005467   0.003640   0.557486   0.000082
    12  H   -0.003652  -0.011008  -0.000119  -0.000060   0.000082   0.556017
    13  H    0.024632  -0.004997  -0.000126   0.000994  -0.000531  -0.043294
    14  H   -0.001248   0.016137  -0.005845   0.003913   0.000451  -0.005871
    15  H    0.002495  -0.002077   0.000954  -0.005948  -0.000129   0.000385
    16  H    0.031459  -0.025593  -0.000002  -0.000017  -0.000513  -0.001375
    17  H    0.332662  -0.046678   0.000004  -0.000009   0.000822   0.000006
    18  H    0.000348   0.330694   0.000238   0.000140  -0.000279   0.000007
    19  O   -0.053999   0.278093   0.000100   0.001530   0.007464   0.000428
    20  H   -0.036185  -0.022019  -0.000002   0.000045  -0.000247  -0.000004
    21  O    0.259026  -0.215296   0.000021  -0.000148  -0.000389   0.000038
    22  H    0.013695   0.041075   0.000000   0.000001   0.000005   0.000000
    23  C    0.078763  -0.301826   0.000738  -0.000890   0.013138   0.011366
    24  H    0.054201  -0.014740   0.000000   0.000000  -0.000015  -0.000056
    25  H    0.016845  -0.020488   0.000000   0.000000  -0.000063   0.000040
    26  O    0.047827  -0.036603  -0.000002   0.000006   0.000025   0.002936
    27  H    0.007396  -0.004852  -0.000001   0.000000  -0.000033  -0.000545
             13         14         15         16         17         18
     1  C   -0.001692  -0.022780  -0.075849  -0.002846   0.005856   0.000261
     2  C    0.008420  -0.051883   0.049422   0.026790  -0.005025  -0.087580
     3  N   -0.093820   0.014700   0.006070  -0.066668   0.044175   0.019792
     4  C    0.417748  -0.032712  -0.020589   0.015227   0.006562  -0.005189
     5  C   -0.022158   0.403376   0.387913   0.012698   0.006145   0.003905
     6  C   -0.012468   0.003501  -0.006681   0.306156  -0.113711   0.037496
     7  C    0.024632  -0.001248   0.002495   0.031459   0.332662   0.000348
     8  C   -0.004997   0.016137  -0.002077  -0.025593  -0.046678   0.330694
     9  H   -0.000126  -0.005845   0.000954  -0.000002   0.000004   0.000238
    10  H    0.000994   0.003913  -0.005948  -0.000017  -0.000009   0.000140
    11  H   -0.000531   0.000451  -0.000129  -0.000513   0.000822  -0.000279
    12  H   -0.043294  -0.005871   0.000385  -0.001375   0.000006   0.000007
    13  H    0.575399   0.003934  -0.003812   0.011691  -0.000028  -0.000046
    14  H    0.003934   0.521713  -0.025151  -0.000009  -0.000002  -0.000001
    15  H   -0.003812  -0.025151   0.516923  -0.000004   0.000000   0.000001
    16  H    0.011691  -0.000009  -0.000004   0.562568   0.004123  -0.000250
    17  H   -0.000028  -0.000002   0.000000   0.004123   0.566875  -0.002805
    18  H   -0.000046  -0.000001   0.000001  -0.000250  -0.002805   0.569987
    19  O   -0.001342  -0.000005   0.000245   0.003542   0.007007  -0.046776
    20  H    0.000242   0.000001  -0.000001   0.001260   0.000735  -0.000197
    21  O   -0.000477  -0.000009  -0.000012   0.002912  -0.032479   0.000417
    22  H    0.000002   0.000000   0.000000  -0.001924  -0.003955  -0.000181
    23  C   -0.012642   0.000284  -0.000035  -0.058782   0.048510   0.018180
    24  H    0.000038   0.000000   0.000000  -0.003201  -0.000084  -0.000002
    25  H   -0.000003  -0.000001   0.000000   0.004927   0.004237  -0.000006
    26  O   -0.000749  -0.000020   0.000013   0.003325   0.000302   0.000038
    27  H    0.000241  -0.000003  -0.000001   0.000368   0.000024   0.000000
             19         20         21         22         23         24
     1  C    0.071871  -0.014088  -0.008278   0.001741   0.010248   0.000026
     2  C   -0.302015   0.070324   0.060498  -0.010936  -0.070265   0.015592
     3  N    0.035340  -0.003484   0.018388   0.000319   0.148693   0.009460
     4  C   -0.007776  -0.005750  -0.001565   0.001906  -0.113251  -0.005036
     5  C   -0.011783   0.007094   0.010806  -0.000810   0.034304   0.000158
     6  C    0.036663  -0.020652  -0.059411   0.007862  -1.113785  -0.155079
     7  C   -0.053999  -0.036185   0.259026   0.013695   0.078763   0.054201
     8  C    0.278093  -0.022019  -0.215296   0.041075  -0.301826  -0.014740
     9  H    0.000100  -0.000002   0.000021   0.000000   0.000738   0.000000
    10  H    0.001530   0.000045  -0.000148   0.000001  -0.000890   0.000000
    11  H    0.007464  -0.000247  -0.000389   0.000005   0.013138  -0.000015
    12  H    0.000428  -0.000004   0.000038   0.000000   0.011366  -0.000056
    13  H   -0.001342   0.000242  -0.000477   0.000002  -0.012642   0.000038
    14  H   -0.000005   0.000001  -0.000009   0.000000   0.000284   0.000000
    15  H    0.000245  -0.000001  -0.000012   0.000000  -0.000035   0.000000
    16  H    0.003542   0.001260   0.002912  -0.001924  -0.058782  -0.003201
    17  H    0.007007   0.000735  -0.032479  -0.003955   0.048510  -0.000084
    18  H   -0.046776  -0.000197   0.000417  -0.000181   0.018180  -0.000002
    19  O    8.289695   0.243139  -0.008687  -0.000178   0.050808  -0.000207
    20  H    0.243139   0.357566   0.025374  -0.001149   0.004991   0.000006
    21  O   -0.008687   0.025374   8.287129   0.234926  -0.000421   0.000376
    22  H   -0.000178  -0.001149   0.234926   0.367150  -0.040011   0.002042
    23  C    0.050808   0.004991  -0.000421  -0.040011   6.292205   0.472729
    24  H   -0.000207   0.000006   0.000376   0.002042   0.472729   0.557363
    25  H    0.000260  -0.000002   0.001151  -0.000145   0.442327  -0.035995
    26  O    0.001104   0.000008   0.000562  -0.000453   0.220507  -0.059411
    27  H   -0.000047   0.000000   0.000044   0.000001   0.036993   0.006618
             25         26         27
     1  C    0.001569   0.000698  -0.001508
     2  C    0.015754   0.032082   0.018492
     3  N    0.015359   0.028099   0.032192
     4  C    0.009079  -0.014222  -0.002206
     5  C    0.002426   0.006748   0.006132
     6  C   -0.137974  -0.161713  -0.096491
     7  C    0.016845   0.047827   0.007396
     8  C   -0.020488  -0.036603  -0.004852
     9  H    0.000000  -0.000002  -0.000001
    10  H    0.000000   0.000006   0.000000
    11  H   -0.000063   0.000025  -0.000033
    12  H    0.000040   0.002936  -0.000545
    13  H   -0.000003  -0.000749   0.000241
    14  H   -0.000001  -0.000020  -0.000003
    15  H    0.000000   0.000013  -0.000001
    16  H    0.004927   0.003325   0.000368
    17  H    0.004237   0.000302   0.000024
    18  H   -0.000006   0.000038   0.000000
    19  O    0.000260   0.001104  -0.000047
    20  H   -0.000002   0.000008   0.000000
    21  O    0.001151   0.000562   0.000044
    22  H   -0.000145  -0.000453   0.000001
    23  C    0.442327   0.220507   0.036993
    24  H   -0.035995  -0.059411   0.006618
    25  H    0.568642  -0.042474  -0.005903
    26  O   -0.042474   8.257841   0.254297
    27  H   -0.005903   0.254297   0.370626
 Mulliken atomic charges:
              1
     1  C   -0.518977
     2  C    0.060069
     3  N   -0.236952
     4  C   -0.179173
     5  C   -0.406427
     6  C    0.043839
     7  C   -0.227313
     8  C    0.162972
     9  H    0.173862
    10  H    0.188149
    11  H    0.168499
    12  H    0.157336
    13  H    0.154840
    14  H    0.177530
    15  H    0.175864
    16  H    0.174137
    17  H    0.176731
    18  H    0.161807
    19  O   -0.594476
    20  H    0.392993
    21  O   -0.574496
    22  H    0.389017
    23  C   -0.172878
    24  H    0.155215
    25  H    0.160438
    26  O   -0.540771
    27  H    0.378166
 Sum of Mulliken atomic charges =   0.00000
 Mulliken charges with hydrogens summed into heavy atoms:
              1
     1  C   -0.156966
     2  C    0.228568
     3  N   -0.236952
     4  C    0.133003
     5  C   -0.053033
     6  C    0.217976
     7  C   -0.050582
     8  C    0.324779
    19  O   -0.201483
    21  O   -0.185479
    23  C    0.142775
    26  O   -0.162605
 Sum of Mulliken charges with hydrogens summed into heavy atoms =   0.00000
 Electronic spatial extent (au):  <R**2>=           2036.8555
 Charge=              0.0000 electrons
 Dipole moment (field-independent basis, Debye):
    X=              0.2871    Y=              0.4005    Z=              1.8011  Tot=              1.8673
 Quadrupole moment (field-independent basis, Debye-Ang):
   XX=            -70.7055   YY=            -81.3037   ZZ=            -72.1215
   XY=             10.0733   XZ=             -0.6880   YZ=              0.7434
 Traceless Quadrupole moment (field-independent basis, Debye-Ang):
   XX=              4.0047   YY=             -6.5935   ZZ=              2.5888
   XY=             10.0733   XZ=             -0.6880   YZ=              0.7434
 Octapole moment (field-independent basis, Debye-Ang**2):
  XXX=             17.5051  YYY=             -5.3595  ZZZ=             -1.8932  XYY=            -17.1547
  XXY=             21.7460  XXZ=              2.4102  XZZ=              4.9194  YZZ=              7.2277
  YYZ=              5.4914  XYZ=            -11.8536
 Hexadecapole moment (field-independent basis, Debye-Ang**3):
 XXXX=          -1266.8977 YYYY=          -1064.1493 ZZZZ=           -248.7356 XXXY=             90.2587
 XXXZ=            -11.9057 YYYX=             32.5996 YYYZ=            -22.0304 ZZZX=             -2.2514
 ZZZY=            -11.9114 XXYY=           -469.6681 XXZZ=           -257.3347 YYZZ=           -210.8057
 XXYZ=            -12.8333 YYXZ=              1.9295 ZZXY=              7.7885
 N-N= 8.084773229924D+02 E-N=-3.002656155328D+03  KE= 5.886692366893D+02
 1\1\GINC-COMPUTE-3-1\SP\RmPW1PW91\6-31+G(d,p)\C8H15N1O3\MAMICHETTI.IQU
 IR\17-May-2024\0\\# mpw1pw91/6-31+G** nmr scrf=(pcm,solvent=water)\\co
 mment\\0,1\C,0,-2.545976,0.061428,0.357031\C,0,-1.114929,0.327163,0.86
 4775\N,0,-0.262499,-0.787438,0.323976\C,0,-1.053341,-1.482859,-0.70851
 9\C,0,-2.487258,-1.378299,-0.190889\C,0,1.02466,-0.219932,-0.128141\C,
 0,1.046556,1.214597,0.444676\C,0,-0.430384,1.623535,0.41686\H,0,-3.290
 673,0.184936,1.148449\H,0,-2.795985,0.756321,-0.449458\H,0,-1.082185,0
 .303615,1.961572\H,0,-0.715972,-2.518103,-0.831427\H,0,-0.963939,-0.98
 7151,-1.690635\H,0,-2.650595,-2.104505,0.614128\H,0,-3.229139,-1.56881
 7,-0.972569\H,0,1.050955,-0.15224,-1.226817\H,0,1.400404,1.199407,1.48
 5496\H,0,-0.643032,2.463894,1.091335\O,0,-0.801802,1.960431,-0.923201\
 H,0,-0.011044,2.37964,-1.311388\O,0,1.805232,2.149253,-0.321622\H,0,2.
 675887,1.759217,-0.506602\C,0,2.214104,-1.057842,0.33059\H,0,3.148112,
 -0.615747,-0.035396\H,0,2.253752,-1.075336,1.429553\O,0,2.172058,-2.39
 0532,-0.188907\H,0,1.366439,-2.793028,0.177471\\Version=AM64L-G09RevC.
 01\State=1-A\HF=-594.1986165\RMSD=3.994e-09\Dipole=0.1129615,0.1575676
 ,0.7085898\Quadrupole=2.9773954,-4.9020733,1.924678,7.4892661,-0.51149
 32,0.5527048\PG=C01 [X(C8H15N1O3)]\\@


 BUT 'GLORY' DOESN'T MEAN 'A NICE KNOCK DOWN ARGUMENT', ALICE OBJECTED.
 WHEN I USE A WORD, HUMPTY DUMPTY SAID, IN A RATHER SCORNFUL TONE,
 IT MEANS JUST WHAT I CHOOSE IT TO MEAN....
 NEITHER MORE NOR LESS....
 THE QUESTION IS, SAID ALICE,
 WHETHER YOU CAN MAKE WORDS MEAN SO MANY DIFFERENT THINGS...
 THE QUESTION IS, SAID HUMPTY DUMPTY,
 WHICH IS TO BE MASTER....
 THAT IS ALL.....

 ALICE THROUGH THE LOOKING GLASS
 Job cpu time:  0 days  0 hours  8 minutes 35.2 seconds.
 File lengths (MBytes):  RWF=    113 Int=      0 D2E=      0 Chk=      7 Scr=      1
 Normal termination of Gaussian 09 at Fri May 17 12:26:58 2024.
