 Entering Gaussian System, Link 0=g09
 Input=/home/mamichetti.iquir/Linux/01_Cardona_A1A3_R__S_R_R_030_OptB.gjc
 Output=/home/mamichetti.iquir/Linux/01_Cardona_A1A3_R__S_R_R_030_OptB.log
 Initial command:
 /opt/ohpc/pub/apps/software/Gaussian/09/AMD64.SSE4a-enabled/g09/l1.exe /local/mamichetti.iquir/Gau-406027.inp -scrdir=/local/mamichetti.iquir/
 Entering Link 1 = /opt/ohpc/pub/apps/software/Gaussian/09/AMD64.SSE4a-enabled/g09/l1.exe PID=    406028.
  
 Copyright (c) 1988,1990,1992,1993,1995,1998,2003,2009,2011,
            Gaussian, Inc.  All Rights Reserved.
  
 This is part of the Gaussian(R) 09 program.  It is based on
 the Gaussian(R) 03 system (copyright 2003, Gaussian, Inc.),
 the Gaussian(R) 98 system (copyright 1998, Gaussian, Inc.),
 the Gaussian(R) 94 system (copyright 1995, Gaussian, Inc.),
 the Gaussian 92(TM) system (copyright 1992, Gaussian, Inc.),
 the Gaussian 90(TM) system (copyright 1990, Gaussian, Inc.),
 the Gaussian 88(TM) system (copyright 1988, Gaussian, Inc.),
 the Gaussian 86(TM) system (copyright 1986, Carnegie Mellon
 University), and the Gaussian 82(TM) system (copyright 1983,
 Carnegie Mellon University). Gaussian is a federally registered
 trademark of Gaussian, Inc.
  
 This software contains proprietary and confidential information,
 including trade secrets, belonging to Gaussian, Inc.
  
 This software is provided under written license and may be
 used, copied, transmitted, or stored only in accord with that
 written license.
  
 The following legend is applicable only to US Government
 contracts under FAR:
  
                    RESTRICTED RIGHTS LEGEND
  
 Use, reproduction and disclosure by the US Government is
 subject to restrictions as set forth in subparagraphs (a)
 and (c) of the Commercial Computer Software - Restricted
 Rights clause in FAR 52.227-19.
  
 Gaussian, Inc.
 340 Quinnipiac St., Bldg. 40, Wallingford CT 06492
  
  
 ---------------------------------------------------------------
 Warning -- This program may not be used in any manner that
 competes with the business of Gaussian, Inc. or will provide
 assistance to any competitor of Gaussian, Inc.  The licensee
 of this program is prohibited from giving any competitor of
 Gaussian, Inc. access to this program.  By using this program,
 the user acknowledges that Gaussian, Inc. is engaged in the
 business of creating and licensing software in the field of
 computational chemistry and represents and warrants to the
 licensee that it is not a competitor of Gaussian, Inc. and that
 it will not use this program in any manner prohibited above.
 ---------------------------------------------------------------
  

 Cite this work as:
 Gaussian 09, Revision C.01,
 M. J. Frisch, G. W. Trucks, H. B. Schlegel, G. E. Scuseria, 
 M. A. Robb, J. R. Cheeseman, G. Scalmani, V. Barone, B. Mennucci, 
 G. A. Petersson, H. Nakatsuji, M. Caricato, X. Li, H. P. Hratchian, 
 A. F. Izmaylov, J. Bloino, G. Zheng, J. L. Sonnenberg, M. Hada, 
 M. Ehara, K. Toyota, R. Fukuda, J. Hasegawa, M. Ishida, T. Nakajima, 
 Y. Honda, O. Kitao, H. Nakai, T. Vreven, J. A. Montgomery, Jr., 
 J. E. Peralta, F. Ogliaro, M. Bearpark, J. J. Heyd, E. Brothers, 
 K. N. Kudin, V. N. Staroverov, T. Keith, R. Kobayashi, J. Normand, 
 K. Raghavachari, A. Rendell, J. C. Burant, S. S. Iyengar, J. Tomasi, 
 M. Cossi, N. Rega, J. M. Millam, M. Klene, J. E. Knox, J. B. Cross, 
 V. Bakken, C. Adamo, J. Jaramillo, R. Gomperts, R. E. Stratmann, 
 O. Yazyev, A. J. Austin, R. Cammi, C. Pomelli, J. W. Ochterski, 
 R. L. Martin, K. Morokuma, V. G. Zakrzewski, G. A. Voth, 
 P. Salvador, J. J. Dannenberg, S. Dapprich, A. D. Daniels, 
 O. Farkas, J. B. Foresman, J. V. Ortiz, J. Cioslowski, 
 and D. J. Fox, Gaussian, Inc., Wallingford CT, 2010.
 
 ******************************************
 Gaussian 09:  AM64L-G09RevC.01 23-Sep-2011
                17-May-2024 
 ******************************************
 %nprocshared=4
 Will use up to    4 processors via shared memory.
 ------------------------------------------------
 # mpw1pw91/6-31+G** nmr scrf=(pcm,solvent=water)
 ------------------------------------------------
 1/38=1/1;
 2/12=2,17=6,18=5,40=1/2;
 3/5=1,6=6,7=111,11=2,16=1,25=1,30=1,70=2201,72=1,74=-7/1,2,8,3;
 4//1;
 5/5=2,38=5,53=1/2;
 8/6=1,10=90,11=11/1;
 10/13=100,45=16/2;
 6/7=2,8=2,9=2,10=2,28=1/1;
 99/9=1/99;
 -------
 comment
 -------
 Charge =  0 Multiplicity = 1
 Symbolic Z-Matrix:
 6                    -2.46964  -0.22316   0.54835 
 6                    -1.02123   0.05128   1.0081 
 7                    -0.15265  -0.97668   0.31965 
 6                    -1.0449   -1.83602  -0.49504 
 6                    -2.30512  -1.00429  -0.76459 
 6                     0.87449  -0.25595  -0.46574 
 6                     1.02422   1.07711   0.28853 
 6                    -0.42816   1.42463   0.63843 
 1                    -2.979    -0.84408   1.2939 
 1                    -3.0512    0.69625   0.43181 
 1                    -0.9366   -0.0689    2.09421 
 1                    -1.3036   -2.73906   0.07342 
 1                    -0.52935  -2.16026  -1.40417 
 1                    -3.17557  -1.62205  -1.00867 
 1                    -2.13256  -0.31426  -1.59797 
 1                     0.53746  -0.03356  -1.49203 
 1                     1.5946    0.91262   1.20763 
 1                    -0.50638   2.14168   1.46216 
 8                    -0.9872    2.00017  -0.55324 
 1                    -1.78027   2.49927  -0.30065 
 8                     1.69606   2.09169  -0.44253 
 1                     1.02655   2.44362  -1.05853 
 6                     2.16395  -1.06836  -0.55914 
 1                     1.99751  -1.95397  -1.19148 
 1                     2.94872  -0.46566  -1.02909 
 8                     2.63727  -1.45694   0.73112 
 1                     1.82746  -1.72569   1.20578 
 
                          Input orientation:                          
 ---------------------------------------------------------------------
 Center     Atomic      Atomic             Coordinates (Angstroms)
 Number     Number       Type             X           Y           Z
 ---------------------------------------------------------------------
      1          6           0       -2.469643   -0.223163    0.548350
      2          6           0       -1.021228    0.051284    1.008097
      3          7           0       -0.152648   -0.976678    0.319653
      4          6           0       -1.044896   -1.836019   -0.495038
      5          6           0       -2.305119   -1.004294   -0.764589
      6          6           0        0.874492   -0.255949   -0.465735
      7          6           0        1.024224    1.077113    0.288527
      8          6           0       -0.428161    1.424628    0.638426
      9          1           0       -2.978996   -0.844077    1.293903
     10          1           0       -3.051198    0.696254    0.431809
     11          1           0       -0.936603   -0.068899    2.094207
     12          1           0       -1.303604   -2.739060    0.073423
     13          1           0       -0.529350   -2.160264   -1.404171
     14          1           0       -3.175567   -1.622045   -1.008672
     15          1           0       -2.132556   -0.314256   -1.597968
     16          1           0        0.537457   -0.033558   -1.492032
     17          1           0        1.594604    0.912617    1.207631
     18          1           0       -0.506376    2.141682    1.462155
     19          8           0       -0.987198    2.000167   -0.553244
     20          1           0       -1.780267    2.499271   -0.300650
     21          8           0        1.696062    2.091686   -0.442531
     22          1           0        1.026553    2.443621   -1.058533
     23          6           0        2.163952   -1.068360   -0.559140
     24          1           0        1.997513   -1.953972   -1.191484
     25          1           0        2.948717   -0.465662   -1.029090
     26          8           0        2.637265   -1.456937    0.731117
     27          1           0        1.827457   -1.725687    1.205781
 ---------------------------------------------------------------------
                    Distance matrix (angstroms):
                    1          2          3          4          5
     1  C    0.000000
     2  C    1.544213   0.000000
     3  N    2.447152   1.511652   0.000000
     4  C    2.391624   2.412859   1.482665   0.000000
     5  C    1.536568   2.430028   2.410285   1.533814   0.000000
     6  C    3.494665   2.420811   1.480304   2.486268   3.280131
     7  C    3.737022   2.398746   2.367288   3.658083   4.065198
     8  C    2.625067   1.540928   2.437990   3.506697   3.375068
     9  H    1.095821   2.171684   2.992489   2.815138   2.171904
    10  H    1.094128   2.206552   3.348563   3.361056   2.209042
    11  H    2.182586   1.096011   2.141889   3.136659   3.304620
    12  H    2.813350   2.956243   2.119273   1.097980   2.171338
    13  H    3.365923   3.309369   2.124700   1.094278   2.213298
    14  H    2.208963   3.392427   3.364370   2.202127   1.094930
    15  H    2.174536   2.856614   2.834803   2.171456   1.095651
    16  H    3.638923   2.947430   2.155904   2.597442   3.090589
    17  H    4.271153   2.761211   2.722284   4.173852   4.772006
    18  H    3.206548   2.200228   3.339851   4.465727   4.253355
    19  O    2.890389   2.497416   3.212480   3.837061   3.287608
    20  H    2.933886   2.877777   3.887948   4.401511   3.572909
    21  O    4.867594   3.694757   3.662446   4.789830   5.069345
    22  H    4.681581   3.766649   3.871480   4.787875   4.803599
    23  C    4.838501   3.722258   2.479379   3.300017   4.474250
    24  H    5.096882   4.239340   2.803896   3.123332   4.426824
    25  H    5.648517   4.491974   3.420338   4.255824   5.287994
    26  O    5.257006   3.966865   2.860693   3.899419   5.183549
    27  H    4.599442   3.363289   2.295006   3.339966   4.634755
                    6          7          8          9         10
     6  C    0.000000
     7  C    1.538956   0.000000
     8  C    2.395916   1.533825   0.000000
     9  H    4.276867   4.552749   3.476123   0.000000
    10  H    4.138033   4.095686   2.730118   1.766646   0.000000
    11  H    3.141394   2.901494   2.146726   2.326533   2.796523
    12  H    3.346735   4.475291   4.292077   2.808464   3.870905
    13  H    2.545162   3.969815   4.127214   3.874625   4.229685
    14  H    4.308593   5.158141   4.420790   2.438386   2.732209
    15  H    3.213672   3.931925   3.306076   3.059426   2.446432
    16  H    1.102876   2.154280   2.756370   4.558927   4.136694
    17  H    2.164315   1.094141   2.162806   4.900126   4.715102
    18  H    3.372268   2.203054   1.094903   3.880324   3.102740
    19  O    2.926364   2.367789   1.436609   3.933057   2.632606
    20  H    3.829652   3.199193   1.965938   3.893267   2.324356
    21  O    2.487349   1.419567   2.475027   5.787061   5.024757
    22  H    2.768070   1.918833   2.456463   5.690987   4.680007
    23  C    1.526906   2.573048   3.790541   5.471196   5.594071
    24  H    2.161289   3.510726   4.543941   5.672271   5.928597
    25  H    2.159574   2.796416   4.213919   6.377874   6.283570
    26  O    2.445853   3.036313   4.208188   5.677562   6.089699
    27  H    2.421206   3.056506   3.915889   4.887432   5.501464
                   11         12         13         14         15
    11  H    0.000000
    12  H    3.368682   0.000000
    13  H    4.096134   1.765717   0.000000
    14  H    4.129538   2.433700   2.729206   0.000000
    15  H    3.888786   3.059474   2.452666   1.773543   0.000000
    16  H    3.877527   3.627657   2.380898   4.067367   2.686817
    17  H    2.855941   4.797998   4.557992   5.838753   4.823725
    18  H    2.339071   5.136710   5.169438   5.234043   4.247405
    19  O    3.360445   4.790939   4.271169   4.256383   2.785650
    20  H    3.611455   5.273258   4.949123   4.408333   3.118185
    21  O    4.246657   5.709668   4.894516   6.151836   4.667109
    22  H    4.484028   5.794061   4.871966   5.847216   4.228102
    23  C    4.201501   3.900682   3.026583   5.386939   4.484174
    24  H    4.791482   3.621288   2.544175   5.186941   4.462216
    25  H    5.000812   4.946323   3.887070   6.232535   5.115260
    26  O    4.069053   4.196052   3.883500   6.069855   5.429691
    27  H    3.342794   3.480331   3.543338   5.472184   5.053202
                   16         17         18         19         20
    16  H    0.000000
    17  H    3.049752   0.000000
    18  H    3.814247   2.447346   0.000000
    19  O    2.709600   3.308950   2.076788   0.000000
    20  H    3.634069   4.022703   2.204121   0.970498   0.000000
    21  O    2.638272   2.030648   2.912226   2.687102   3.503016
    22  H    2.561943   2.793234   2.965621   2.123008   2.907872
    23  C    2.141632   2.714757   4.639036   4.398368   5.324629
    24  H    2.431066   3.759710   5.485038   4.995104   5.907333
    25  H    2.493031   2.955706   4.994218   4.668851   5.628920
    26  O    3.373069   2.632298   4.833938   5.170869   6.019195
    27  H    3.435927   2.648560   4.524273   4.989834   5.756325
                   21         22         23         24         25
    21  O    0.000000
    22  H    0.975479   0.000000
    23  C    3.196625   3.725195   0.000000
    24  H    4.125427   4.505470   1.100849   0.000000
    25  H    2.907443   3.487049   1.095424   1.773761   0.000000
    26  O    3.854353   4.583840   1.428209   2.086318   2.044005
    27  H    4.160112   4.811621   1.913179   2.414107   2.799917
                   26         27
    26  O    0.000000
    27  H    0.976382   0.000000
 Stoichiometry    C8H15NO3
 Framework group  C1[X(C8H15NO3)]
 Deg. of freedom    75
 Full point group                 C1      NOp   1
 Largest Abelian subgroup         C1      NOp   1
 Largest concise Abelian subgroup C1      NOp   1
                         Standard orientation:                         
 ---------------------------------------------------------------------
 Center     Atomic      Atomic             Coordinates (Angstroms)
 Number     Number       Type             X           Y           Z
 ---------------------------------------------------------------------
      1          6           0       -2.469643   -0.223162    0.548350
      2          6           0       -1.021228    0.051284    1.008097
      3          7           0       -0.152648   -0.976678    0.319653
      4          6           0       -1.044896   -1.836019   -0.495038
      5          6           0       -2.305119   -1.004293   -0.764589
      6          6           0        0.874492   -0.255949   -0.465735
      7          6           0        1.024224    1.077113    0.288527
      8          6           0       -0.428161    1.424628    0.638426
      9          1           0       -2.978996   -0.844076    1.293903
     10          1           0       -3.051198    0.696255    0.431809
     11          1           0       -0.936603   -0.068899    2.094207
     12          1           0       -1.303605   -2.739060    0.073423
     13          1           0       -0.529350   -2.160264   -1.404171
     14          1           0       -3.175567   -1.622044   -1.008672
     15          1           0       -2.132556   -0.314255   -1.597968
     16          1           0        0.537457   -0.033558   -1.492032
     17          1           0        1.594604    0.912617    1.207631
     18          1           0       -0.506376    2.141682    1.462155
     19          8           0       -0.987198    2.000167   -0.553244
     20          1           0       -1.780267    2.499271   -0.300650
     21          8           0        1.696062    2.091686   -0.442531
     22          1           0        1.026553    2.443621   -1.058533
     23          6           0        2.163952   -1.068360   -0.559140
     24          1           0        1.997513   -1.953972   -1.191484
     25          1           0        2.948717   -0.465662   -1.029090
     26          8           0        2.637265   -1.456937    0.731117
     27          1           0        1.827457   -1.725687    1.205781
 ---------------------------------------------------------------------
 Rotational constants (GHZ):      1.2412813      0.9123109      0.6289535
 Standard basis: 6-31+G(d,p) (6D, 7F)
 There are   303 symmetry adapted basis functions of A   symmetry.
 Integral buffers will be    131072 words long.
 Raffenetti 2 integral format.
 Two-electron integral symmetry is turned on.
   303 basis functions,   489 primitive gaussians,   303 cartesian basis functions
    47 alpha electrons       47 beta electrons
       nuclear repulsion energy       815.2025586319 Hartrees.
 NAtoms=   27 NActive=   27 NUniq=   27 SFac= 1.00D+00 NAtFMM=   60 NAOKFM=F Big=F
 ------------------------------------------------------------------------------
 Polarizable Continuum Model (PCM)
 =================================
 Model                : PCM.
 Atomic radii         : UFF (Universal Force Field).
 Polarization charges : Total charges.
 Charge compensation  : None.
 Solution method      : Matrix inversion.
 Cavity type          : Scaled VdW (van der Waals Surface) (Alpha=1.100).
 Cavity algorithm     : GePol (No added spheres)
                        Default sphere list used, NSphG=   27.
                        Lebedev-Laikov grids with approx.  5.0 points / Ang**2.
                        Smoothing algorithm: Karplus/York (Gamma=1.0000).
                        Polarization charges: spherical gaussians, with
                                              point-specific exponents (IZeta= 3).
                        Self-potential: point-specific (ISelfS= 7).
                        Self-field    : sphere-specific E.n sum rule (ISelfD= 2).
 Solvent              : Water, Eps=  78.355300 Eps(inf)=   1.777849
 ------------------------------------------------------------------------------
 One-electron integrals computed using PRISM.
 NBasis=   303 RedAO= T  NBF=   303
 NBsUse=   303 1.00D-06 NBFU=   303
 Harris functional with IExCor=  908 diagonalized for initial guess.
 ExpMin= 4.38D-02 ExpMax= 5.48D+03 ExpMxC= 8.25D+02 IAcc=2 IRadAn=         4 AccDes= 0.00D+00
 HarFok:  IExCor=  908 AccDes= 0.00D+00 IRadAn=         4 IDoV= 1
 ScaDFX=  1.000000  1.000000  1.000000  1.000000
 FoFCou: FMM=F IPFlag=           0 FMFlag=      100000 FMFlg1=           0
         NFxFlg=           0 DoJE=T BraDBF=F KetDBF=T FulRan=T
         Omega=  0.000000  0.000000  1.000000  0.000000  0.000000 ICntrl=     500 IOpCl=  0
         NMat0=    1 NMatS0=    1 NMatT0=    0 NMatD0=    1 NMtDS0=    0 NMtDT0=    0
         I1Cent=           4 NGrid=           0.
 Petite list used in FoFCou.
 Initial guess orbital symmetries:
       Occupied  (A) (A) (A) (A) (A) (A) (A) (A) (A) (A) (A) (A)
                 (A) (A) (A) (A) (A) (A) (A) (A) (A) (A) (A) (A)
                 (A) (A) (A) (A) (A) (A) (A) (A) (A) (A) (A) (A)
                 (A) (A) (A) (A) (A) (A) (A) (A) (A) (A) (A)
       Virtual   (A) (A) (A) (A) (A) (A) (A) (A) (A) (A) (A) (A)
                 (A) (A) (A) (A) (A) (A) (A) (A) (A) (A) (A) (A)
                 (A) (A) (A) (A) (A) (A) (A) (A) (A) (A) (A) (A)
                 (A) (A) (A) (A) (A) (A) (A) (A) (A) (A) (A) (A)
                 (A) (A) (A) (A) (A) (A) (A) (A) (A) (A) (A) (A)
                 (A) (A) (A) (A) (A) (A) (A) (A) (A) (A) (A) (A)
                 (A) (A) (A) (A) (A) (A) (A) (A) (A) (A) (A) (A)
                 (A) (A) (A) (A) (A) (A) (A) (A) (A) (A) (A) (A)
                 (A) (A) (A) (A) (A) (A) (A) (A) (A) (A) (A) (A)
                 (A) (A) (A) (A) (A) (A) (A) (A) (A) (A) (A) (A)
                 (A) (A) (A) (A) (A) (A) (A) (A) (A) (A) (A) (A)
                 (A) (A) (A) (A) (A) (A) (A) (A) (A) (A) (A) (A)
                 (A) (A) (A) (A) (A) (A) (A) (A) (A) (A) (A) (A)
                 (A) (A) (A) (A) (A) (A) (A) (A) (A) (A) (A) (A)
                 (A) (A) (A) (A) (A) (A) (A) (A) (A) (A) (A) (A)
                 (A) (A) (A) (A) (A) (A) (A) (A) (A) (A) (A) (A)
                 (A) (A) (A) (A) (A) (A) (A) (A) (A) (A) (A) (A)
                 (A) (A) (A) (A) (A) (A) (A) (A) (A) (A) (A) (A)
                 (A) (A) (A) (A) (A) (A) (A) (A) (A) (A) (A) (A)
                 (A) (A) (A) (A) (A) (A) (A) (A) (A) (A) (A) (A)
                 (A) (A) (A) (A) (A) (A) (A) (A) (A) (A) (A) (A)
                 (A) (A) (A) (A)
 The electronic state of the initial guess is 1-A.
 Requested convergence on RMS density matrix=1.00D-08 within 128 cycles.
 Requested convergence on MAX density matrix=1.00D-06.
 Requested convergence on             energy=1.00D-06.
 No special actions if energy rises.
 Error on total polarization charges =  0.01406
 SCF Done:  E(RmPW1PW91) =  -594.202856469     A.U. after   12 cycles
             Convg  =    0.8106D-08             -V/T =  2.0094
 Range of M.O.s used for correlation:     1   303
 NBasis=   303 NAE=    47 NBE=    47 NFC=     0 NFV=     0
 NROrb=    303 NOA=    47 NOB=    47 NVA=   256 NVB=   256

 **** Warning!!: The largest alpha MO coefficient is  0.68592181D+02

 NEqPCM:  Using equilibrium solvation (IEInf=0, Eps=  78.3553, EpsInf=   1.7778)
          Differentiating once with respect to magnetic field using GIAOs.
          Electric field/nuclear overlap derivatives assumed to be zero.
 FoFCou: FMM=F IPFlag=           0 FMFlag=    10101102 FMFlg1=           0
         NFxFlg=    40000000 DoJE=F BraDBF=F KetDBF=T FulRan=T
         Omega=  0.000000  0.000000  1.000000  0.000000  0.000000 ICntrl=    6100 IOpCl=  0
         NMat0=    1 NMatS0=    1 NMatT0=    0 NMatD0=    1 NMtDS0=    0 NMtDT0=    0
         I1Cent=           7 NGrid=        1826.
 Symmetry not used in FoFCou.
          There are     3 degrees of freedom in the 1st order CPHF.  IDoFFX=0.
      3 vectors produced by pass  0 Test12= 4.01D-13 3.33D-08 XBig12= 2.87D+01 1.05D+00.
 AX will form     3 AO Fock derivatives at one time.
      3 vectors produced by pass  1 Test12= 4.01D-13 3.33D-08 XBig12= 7.80D-02 5.46D-02.
      3 vectors produced by pass  2 Test12= 4.01D-13 3.33D-08 XBig12= 1.62D-04 2.94D-03.
      3 vectors produced by pass  3 Test12= 4.01D-13 3.33D-08 XBig12= 6.50D-07 1.30D-04.
      3 vectors produced by pass  4 Test12= 4.01D-13 3.33D-08 XBig12= 2.27D-09 9.29D-06.
      3 vectors produced by pass  5 Test12= 4.01D-13 3.33D-08 XBig12= 7.59D-12 6.07D-07.
      1 vectors produced by pass  6 Test12= 4.01D-13 3.33D-08 XBig12= 2.92D-14 4.11D-08.
 Inverted reduced A of dimension    19 with in-core refinement.
 Calculating GIAO nuclear magnetic shielding tensors.
 SCF GIAO Magnetic shielding tensor (ppm):
      1  C    Isotropic =   166.9890   Anisotropy =    24.0483
   XX=   176.4051   YX=    -2.9104   ZX=     4.8428
   XY=     0.1441   YY=   156.1116   ZY=    17.2394
   XZ=    -0.1617   YZ=    21.9931   ZZ=   168.4505
   Eigenvalues:   141.5381   176.4078   183.0212
      2  C    Isotropic =   128.2437   Anisotropy =    51.6140
   XX=   137.0472   YX=   -16.3784   ZX=    -2.8382
   XY=   -12.4019   YY=   143.1045   ZY=    25.5644
   XZ=   -10.9688   YZ=    17.4412   ZZ=   104.5793
   Eigenvalues:    94.9680   127.1101   162.6530
      3  N    Isotropic =   201.0308   Anisotropy =    73.4614
   XX=   225.2086   YX=    -3.0902   ZX=   -27.8300
   XY=    12.4685   YY=   215.2694   ZY=    55.8325
   XZ=   -25.7342   YZ=    43.2674   ZZ=   162.6143
   Eigenvalues:   126.2727   226.8146   250.0051
      4  C    Isotropic =   142.4036   Anisotropy =    54.1951
   XX=   149.5787   YX=    18.5272   ZX=    16.2844
   XY=     5.6778   YY=   144.3034   ZY=    25.2374
   XZ=    27.2703   YZ=    14.5544   ZZ=   133.3286
   Eigenvalues:   114.0304   134.6467   178.5336
      5  C    Isotropic =   168.7220   Anisotropy =    22.7595
   XX=   174.0977   YX=    -3.1318   ZX=     8.0609
   XY=    -7.4807   YY=   168.3299   ZY=    13.7797
   XZ=    12.7359   YZ=    19.0010   ZZ=   163.7385
   Eigenvalues:   145.0357   177.2354   183.8950
      6  C    Isotropic =   124.1999   Anisotropy =    48.5100
   XX=   126.1181   YX=    21.3439   ZX=    -3.6724
   XY=    26.4774   YY=   131.0429   ZY=   -12.0339
   XZ=   -23.0902   YZ=     2.3386   ZZ=   115.4387
   Eigenvalues:   100.7153   115.3445   156.5399
      7  C    Isotropic =   123.4534   Anisotropy =    58.4737
   XX=   124.3842   YX=    22.5406   ZX=   -28.5375
   XY=    18.0558   YY=   142.9341   ZY=   -10.5425
   XZ=   -18.7157   YZ=    -3.6428   ZZ=   103.0418
   Eigenvalues:    87.2494   120.6748   162.4359
      8  C    Isotropic =   119.6108   Anisotropy =    22.9056
   XX=   121.0856   YX=     5.4952   ZX=     6.8103
   XY=     5.1784   YY=   117.5346   ZY=   -16.4480
   XZ=    12.4116   YZ=   -13.0650   ZZ=   120.2121
   Eigenvalues:    99.0473   124.9039   134.8812
      9  H    Isotropic =    29.8071   Anisotropy =    12.4224
   XX=    31.8023   YX=     3.3367   ZX=    -4.7733
   XY=     4.0048   YY=    25.9944   ZY=    -2.2399
   XZ=    -5.0871   YZ=    -2.1706   ZZ=    31.6246
   Eigenvalues:    24.2116    27.1209    38.0887
     10  H    Isotropic =    29.7024   Anisotropy =     9.1997
   XX=    32.6025   YX=    -3.4568   ZX=    -0.8102
   XY=    -3.7599   YY=    31.4111   ZY=     0.6203
   XZ=    -1.4470   YZ=     0.9157   ZZ=    25.0936
   Eigenvalues:    24.9161    28.3555    35.8356
     11  H    Isotropic =    28.0702   Anisotropy =     8.8109
   XX=    26.0899   YX=    -0.4969   ZX=    -1.0502
   XY=    -0.1018   YY=    24.3223   ZY=     0.6153
   XZ=    -1.0656   YZ=    -0.3457   ZZ=    33.7985
   Eigenvalues:    24.2729    25.9937    33.9442
     12  H    Isotropic =    28.8865   Anisotropy =    12.1261
   XX=    27.0153   YX=     3.4977   ZX=     0.8390
   XY=     2.4972   YY=    35.8235   ZY=    -2.2078
   XZ=     1.7256   YZ=    -2.1283   ZZ=    23.8206
   Eigenvalues:    22.6177    27.0712    36.9706
     13  H    Isotropic =    28.7803   Anisotropy =     8.7773
   XX=    28.6781   YX=    -0.8521   ZX=    -0.2037
   XY=    -0.7377   YY=    29.2440   ZY=     5.9991
   XZ=    -0.9865   YZ=     5.2440   ZZ=    28.4188
   Eigenvalues:    23.1927    28.5164    34.6318
     14  H    Isotropic =    30.0511   Anisotropy =    12.8228
   XX=    33.8286   YX=     4.3434   ZX=     3.3356
   XY=     4.8570   YY=    28.9413   ZY=     3.1801
   XZ=     3.9193   YZ=     3.1181   ZZ=    27.3834
   Eigenvalues:    24.9182    26.6354    38.5996
     15  H    Isotropic =    29.8325   Anisotropy =     8.0267
   XX=    27.1160   YX=    -0.0579   ZX=     1.0023
   XY=    -0.3595   YY=    28.6030   ZY=    -2.9548
   XZ=     2.0383   YZ=    -2.3910   ZZ=    33.7784
   Eigenvalues:    26.6535    27.6603    35.1836
     16  H    Isotropic =    28.9871   Anisotropy =     3.0771
   XX=    29.3138   YX=     0.1026   ZX=    -1.3833
   XY=    -0.2676   YY=    27.7245   ZY=    -1.1643
   XZ=    -0.8345   YZ=    -1.2501   ZZ=    29.9232
   Eigenvalues:    27.0525    28.8704    31.0385
     17  H    Isotropic =    27.3773   Anisotropy =     3.7634
   XX=    27.0290   YX=     1.1334   ZX=     1.4805
   XY=     0.0750   YY=    27.8336   ZY=    -0.3871
   XZ=     3.9166   YZ=    -0.0302   ZZ=    27.2694
   Eigenvalues:    24.3507    27.8950    29.8862
     18  H    Isotropic =    27.6089   Anisotropy =     8.3336
   XX=    23.9451   YX=    -0.2067   ZX=     1.6814
   XY=    -0.5187   YY=    27.7205   ZY=     2.4402
   XZ=     1.0754   YZ=     3.9165   ZZ=    31.1611
   Eigenvalues:    23.4131    26.2490    33.1646
     19  O    Isotropic =   309.3394   Anisotropy =    34.7075
   XX=   319.1798   YX=   -21.4530   ZX=     1.2333
   XY=   -10.3279   YY=   298.4669   ZY=    27.8568
   XZ=    -9.7133   YZ=    -2.6755   ZZ=   310.3715
   Eigenvalues:   286.1286   309.4119   332.4777
     20  H    Isotropic =    29.4940   Anisotropy =    20.8600
   XX=    34.8135   YX=    -9.7913   ZX=    -2.5140
   XY=   -10.6924   YY=    30.9795   ZY=    -1.3125
   XZ=    -1.8976   YZ=     0.1233   ZZ=    22.6890
   Eigenvalues:    20.6768    24.4044    43.4007
     21  O    Isotropic =   311.0671   Anisotropy =    30.0459
   XX=   305.3694   YX=    -7.1880   ZX=    17.2460
   XY=    16.4872   YY=   328.5676   ZY=   -12.5916
   XZ=    26.3023   YZ=    -4.7973   ZZ=   299.2641
   Eigenvalues:   278.4812   323.6223   331.0976
     22  H    Isotropic =    28.8360   Anisotropy =    15.2263
   XX=    32.5798   YX=    -1.0071   ZX=     4.5755
   XY=    -2.5445   YY=    25.6589   ZY=    -7.8038
   XZ=     4.5028   YZ=    -9.3056   ZZ=    28.2693
   Eigenvalues:    18.1148    29.4065    38.9869
     23  C    Isotropic =   135.1673   Anisotropy =    54.4941
   XX=   123.4172   YX=    -9.3273   ZX=    15.4588
   XY=   -10.5891   YY=   122.3197   ZY=   -14.4349
   XZ=    19.4056   YZ=   -10.2783   ZZ=   159.7650
   Eigenvalues:   112.5359   121.4692   171.4967
     24  H    Isotropic =    27.8641   Anisotropy =     7.6022
   XX=    26.4673   YX=    -1.8824   ZX=     1.1611
   XY=    -2.2461   YY=    26.7626   ZY=     2.9467
   XZ=     0.5788   YZ=     4.9619   ZZ=    30.3622
   Eigenvalues:    22.8618    27.7982    32.9322
     25  H    Isotropic =    27.8899   Anisotropy =     6.4907
   XX=    29.2333   YX=    -0.8990   ZX=    -2.3220
   XY=     0.8424   YY=    26.2929   ZY=    -2.2300
   XZ=    -3.9904   YZ=    -2.0030   ZZ=    28.1435
   Eigenvalues:    24.1112    27.3414    32.2171
     26  O    Isotropic =   331.4448   Anisotropy =    48.8422
   XX=   346.5819   YX=    10.5431   ZX=   -27.9815
   XY=     8.3843   YY=   313.0986   ZY=    13.2414
   XZ=   -16.4317   YZ=    -2.9907   ZZ=   334.6538
   Eigenvalues:   305.0753   325.2528   364.0063
     27  H    Isotropic =    28.9897   Anisotropy =    16.1762
   XX=    36.8654   YX=     1.6879   ZX=    -3.9100
   XY=     0.5851   YY=    22.4575   ZY=    -7.5331
   XZ=    -5.4269   YZ=    -6.5032   ZZ=    27.6462
   Eigenvalues:    17.4034    29.7918    39.7738
 End of Minotr Frequency-dependent properties file   721 does not exist.
 End of Minotr Frequency-dependent properties file   722 does not exist.

 **********************************************************************

            Population analysis using the SCF density.

 **********************************************************************

 Orbital symmetries:
       Occupied  (A) (A) (A) (A) (A) (A) (A) (A) (A) (A) (A) (A)
                 (A) (A) (A) (A) (A) (A) (A) (A) (A) (A) (A) (A)
                 (A) (A) (A) (A) (A) (A) (A) (A) (A) (A) (A) (A)
                 (A) (A) (A) (A) (A) (A) (A) (A) (A) (A) (A)
       Virtual   (A) (A) (A) (A) (A) (A) (A) (A) (A) (A) (A) (A)
                 (A) (A) (A) (A) (A) (A) (A) (A) (A) (A) (A) (A)
                 (A) (A) (A) (A) (A) (A) (A) (A) (A) (A) (A) (A)
                 (A) (A) (A) (A) (A) (A) (A) (A) (A) (A) (A) (A)
                 (A) (A) (A) (A) (A) (A) (A) (A) (A) (A) (A) (A)
                 (A) (A) (A) (A) (A) (A) (A) (A) (A) (A) (A) (A)
                 (A) (A) (A) (A) (A) (A) (A) (A) (A) (A) (A) (A)
                 (A) (A) (A) (A) (A) (A) (A) (A) (A) (A) (A) (A)
                 (A) (A) (A) (A) (A) (A) (A) (A) (A) (A) (A) (A)
                 (A) (A) (A) (A) (A) (A) (A) (A) (A) (A) (A) (A)
                 (A) (A) (A) (A) (A) (A) (A) (A) (A) (A) (A) (A)
                 (A) (A) (A) (A) (A) (A) (A) (A) (A) (A) (A) (A)
                 (A) (A) (A) (A) (A) (A) (A) (A) (A) (A) (A) (A)
                 (A) (A) (A) (A) (A) (A) (A) (A) (A) (A) (A) (A)
                 (A) (A) (A) (A) (A) (A) (A) (A) (A) (A) (A) (A)
                 (A) (A) (A) (A) (A) (A) (A) (A) (A) (A) (A) (A)
                 (A) (A) (A) (A) (A) (A) (A) (A) (A) (A) (A) (A)
                 (A) (A) (A) (A) (A) (A) (A) (A) (A) (A) (A) (A)
                 (A) (A) (A) (A) (A) (A) (A) (A) (A) (A) (A) (A)
                 (A) (A) (A) (A) (A) (A) (A) (A) (A) (A) (A) (A)
                 (A) (A) (A) (A) (A) (A) (A) (A) (A) (A) (A) (A)
                 (A) (A) (A) (A)
 The electronic state is 1-A.
 Alpha  occ. eigenvalues --  -19.26513 -19.25588 -19.24799 -14.41741 -10.30680
 Alpha  occ. eigenvalues --  -10.30307 -10.29128 -10.27988 -10.27837 -10.26951
 Alpha  occ. eigenvalues --  -10.24831 -10.24311  -1.08032  -1.05310  -1.04960
 Alpha  occ. eigenvalues --   -0.96382  -0.82512  -0.79469  -0.75058  -0.71637
 Alpha  occ. eigenvalues --   -0.66754  -0.62346  -0.60004  -0.57845  -0.56109
 Alpha  occ. eigenvalues --   -0.52731  -0.51584  -0.49665  -0.49035  -0.47791
 Alpha  occ. eigenvalues --   -0.46099  -0.44934  -0.43835  -0.41756  -0.40433
 Alpha  occ. eigenvalues --   -0.39155  -0.38807  -0.37927  -0.36103  -0.35739
 Alpha  occ. eigenvalues --   -0.35176  -0.34226  -0.33784  -0.30708  -0.30044
 Alpha  occ. eigenvalues --   -0.28541  -0.23841
 Alpha virt. eigenvalues --    0.00069   0.01584   0.01927   0.02421   0.04034
 Alpha virt. eigenvalues --    0.04095   0.04522   0.04857   0.05537   0.07358
 Alpha virt. eigenvalues --    0.07524   0.08152   0.08398   0.08910   0.09565
 Alpha virt. eigenvalues --    0.10322   0.11312   0.11914   0.12582   0.12778
 Alpha virt. eigenvalues --    0.13477   0.14185   0.14563   0.14934   0.15245
 Alpha virt. eigenvalues --    0.15874   0.16212   0.16913   0.18015   0.18839
 Alpha virt. eigenvalues --    0.18990   0.19523   0.19779   0.20480   0.20902
 Alpha virt. eigenvalues --    0.21260   0.21415   0.22035   0.22505   0.23135
 Alpha virt. eigenvalues --    0.24207   0.24568   0.25015   0.25349   0.26031
 Alpha virt. eigenvalues --    0.26112   0.26972   0.27255   0.27833   0.28691
 Alpha virt. eigenvalues --    0.29508   0.29872   0.30656   0.31292   0.32170
 Alpha virt. eigenvalues --    0.32295   0.33163   0.33509   0.34406   0.34582
 Alpha virt. eigenvalues --    0.35069   0.36603   0.36815   0.38046   0.38681
 Alpha virt. eigenvalues --    0.39275   0.40951   0.41342   0.41654   0.41931
 Alpha virt. eigenvalues --    0.42919   0.43816   0.44618   0.45533   0.46552
 Alpha virt. eigenvalues --    0.48339   0.65498   0.66419   0.67316   0.68781
 Alpha virt. eigenvalues --    0.70392   0.71086   0.72252   0.73657   0.76148
 Alpha virt. eigenvalues --    0.76634   0.77859   0.79477   0.80664   0.82007
 Alpha virt. eigenvalues --    0.83111   0.84528   0.85065   0.86560   0.87571
 Alpha virt. eigenvalues --    0.88274   0.89666   0.91600   0.93881   0.98310
 Alpha virt. eigenvalues --    0.99190   1.00953   1.02219   1.03787   1.04490
 Alpha virt. eigenvalues --    1.05731   1.07912   1.09178   1.09530   1.10520
 Alpha virt. eigenvalues --    1.11889   1.12897   1.13760   1.14498   1.16078
 Alpha virt. eigenvalues --    1.17871   1.18064   1.20599   1.23955   1.26085
 Alpha virt. eigenvalues --    1.26719   1.28614   1.30905   1.32043   1.33387
 Alpha virt. eigenvalues --    1.35014   1.35439   1.38396   1.38547   1.40786
 Alpha virt. eigenvalues --    1.42422   1.43866   1.45829   1.49820   1.50200
 Alpha virt. eigenvalues --    1.56028   1.56822   1.57634   1.59542   1.62198
 Alpha virt. eigenvalues --    1.62595   1.65237   1.67123   1.68738   1.71639
 Alpha virt. eigenvalues --    1.73017   1.74180   1.76981   1.78430   1.80720
 Alpha virt. eigenvalues --    1.82545   1.82870   1.83262   1.86689   1.87415
 Alpha virt. eigenvalues --    1.89351   1.90240   1.91570   1.93936   1.95520
 Alpha virt. eigenvalues --    1.97337   1.97715   2.02345   2.03165   2.04840
 Alpha virt. eigenvalues --    2.06100   2.06373   2.08644   2.09941   2.13833
 Alpha virt. eigenvalues --    2.14435   2.15099   2.16912   2.18233   2.19318
 Alpha virt. eigenvalues --    2.20843   2.22958   2.25134   2.26811   2.27933
 Alpha virt. eigenvalues --    2.32894   2.33728   2.34483   2.36790   2.40615
 Alpha virt. eigenvalues --    2.43163   2.44606   2.45272   2.47893   2.48251
 Alpha virt. eigenvalues --    2.49658   2.50409   2.52943   2.55065   2.56052
 Alpha virt. eigenvalues --    2.56498   2.57972   2.61172   2.61613   2.61935
 Alpha virt. eigenvalues --    2.64906   2.65967   2.67733   2.68339   2.69792
 Alpha virt. eigenvalues --    2.70397   2.71866   2.74545   2.75310   2.77647
 Alpha virt. eigenvalues --    2.78024   2.79892   2.81985   2.83299   2.85707
 Alpha virt. eigenvalues --    2.87010   2.87112   2.90156   2.93522   2.97996
 Alpha virt. eigenvalues --    2.98697   2.99952   3.02636   3.03353   3.04624
 Alpha virt. eigenvalues --    3.05511   3.06804   3.11853   3.16539   3.33198
 Alpha virt. eigenvalues --    3.34773   3.36954   3.39180   3.43131   3.45197
 Alpha virt. eigenvalues --    3.48246   3.49510   3.53509   3.55098   3.56007
 Alpha virt. eigenvalues --    3.56958   3.59265   3.62351   3.63595   4.29883
 Alpha virt. eigenvalues --    4.32888   4.39028   4.47949   4.49690   4.56135
 Alpha virt. eigenvalues --    4.60339   4.72713   4.79824   4.81451   4.90204
 Alpha virt. eigenvalues --    5.02441
          Condensed to atoms (all electrons):
              1          2          3          4          5          6
     1  C    5.824152  -0.295377   0.041644   0.046431   0.131974  -0.163900
     2  C   -0.295377   7.940612  -0.048007  -0.274935  -0.005128  -0.592598
     3  N    0.041644  -0.048007   7.630080   0.211452  -0.136998  -0.730418
     4  C    0.046431  -0.274935   0.211452   5.901901   0.073350  -0.406551
     5  C    0.131974  -0.005128  -0.136998   0.073350   5.453721   0.198114
     6  C   -0.163900  -0.592598  -0.730418  -0.406551   0.198114  10.635536
     7  C    0.024728   0.015584   0.101567  -0.273699  -0.026441  -1.547985
     8  C   -0.091717  -0.799940  -0.287890   0.093111   0.062319   0.938991
     9  H    0.426618  -0.076249   0.011013  -0.000446  -0.046772   0.009905
    10  H    0.387612  -0.118240   0.015721   0.029579  -0.020906  -0.002084
    11  H    0.006130   0.198101  -0.021666  -0.007583   0.017058   0.036575
    12  H    0.005051  -0.020820  -0.027532   0.377239  -0.037519   0.002906
    13  H    0.023798   0.025309  -0.063891   0.358376  -0.019336   0.035142
    14  H   -0.029948   0.023705   0.011584  -0.039533   0.362206   0.003585
    15  H   -0.052029  -0.003976   0.012227  -0.073112   0.438401   0.010594
    16  H    0.016952   0.030741  -0.020232   0.084225  -0.024287   0.183115
    17  H    0.013330   0.005414   0.063025   0.014921  -0.002811  -0.230620
    18  H    0.019233  -0.048720   0.018213   0.002422  -0.007832   0.014768
    19  O    0.078782  -0.174097   0.058932   0.014355  -0.039482   0.045465
    20  H   -0.001773  -0.054339  -0.004116  -0.000224  -0.000225   0.004646
    21  O    0.003235   0.018040   0.014647   0.000436  -0.001309  -0.151026
    22  H    0.005722   0.012899   0.009587   0.003210  -0.002423  -0.085142
    23  C    0.072458   0.160596   0.309713   0.093982  -0.099323  -1.945377
    24  H    0.006372  -0.016431  -0.016541   0.023642  -0.008395  -0.039672
    25  H   -0.000326   0.015554   0.017151  -0.000276   0.000379  -0.218945
    26  O    0.012365  -0.023383   0.051910   0.014209  -0.009854  -0.246557
    27  H    0.000108   0.022535   0.050174   0.011070  -0.001500  -0.095260
              7          8          9         10         11         12
     1  C    0.024728  -0.091717   0.426618   0.387612   0.006130   0.005051
     2  C    0.015584  -0.799940  -0.076249  -0.118240   0.198101  -0.020820
     3  N    0.101567  -0.287890   0.011013   0.015721  -0.021666  -0.027532
     4  C   -0.273699   0.093111  -0.000446   0.029579  -0.007583   0.377239
     5  C   -0.026441   0.062319  -0.046772  -0.020906   0.017058  -0.037519
     6  C   -1.547985   0.938991   0.009905  -0.002084   0.036575   0.002906
     7  C    7.822278  -0.679652  -0.001768  -0.006653  -0.022127   0.012295
     8  C   -0.679652   6.580342   0.008681   0.046725   0.067383  -0.006676
     9  H   -0.001768   0.008681   0.518930  -0.024402  -0.007154   0.001375
    10  H   -0.006653   0.046725  -0.024402   0.528870   0.002855  -0.000027
    11  H   -0.022127   0.067383  -0.007154   0.002855   0.558309   0.000827
    12  H    0.012295  -0.006676   0.001375  -0.000027   0.000827   0.545557
    13  H    0.020109  -0.015927  -0.000111  -0.000146  -0.000170  -0.029789
    14  H    0.004606   0.001032  -0.004999   0.000687  -0.000057  -0.003187
    15  H    0.009907  -0.011278   0.004036  -0.005525  -0.000118   0.003935
    16  H   -0.046073  -0.031680  -0.000002  -0.000045  -0.000543  -0.000280
    17  H    0.483953  -0.091880   0.000004  -0.000008   0.000018   0.000013
    18  H   -0.010070   0.332071   0.000001   0.000141  -0.002391   0.000005
    19  O   -0.177595   0.122907   0.000336   0.001903   0.008594   0.000235
    20  H    0.014449   0.060876  -0.000041   0.001621   0.000041  -0.000001
    21  O    0.300452  -0.066120   0.000026  -0.000076  -0.000528   0.000016
    22  H    0.096184  -0.087877   0.000000   0.000001  -0.000020   0.000000
    23  C    0.209743  -0.305339   0.001041  -0.001206  -0.003261   0.009532
    24  H    0.003476  -0.004213   0.000000   0.000000   0.000008  -0.000102
    25  H    0.009864  -0.015095   0.000000   0.000000  -0.000003   0.000003
    26  O    0.043174  -0.024541   0.000018   0.000006   0.000843   0.000903
    27  H   -0.031908  -0.010285   0.000000  -0.000001  -0.000560  -0.000166
             13         14         15         16         17         18
     1  C    0.023798  -0.029948  -0.052029   0.016952   0.013330   0.019233
     2  C    0.025309   0.023705  -0.003976   0.030741   0.005414  -0.048720
     3  N   -0.063891   0.011584   0.012227  -0.020232   0.063025   0.018213
     4  C    0.358376  -0.039533  -0.073112   0.084225   0.014921   0.002422
     5  C   -0.019336   0.362206   0.438401  -0.024287  -0.002811  -0.007832
     6  C    0.035142   0.003585   0.010594   0.183115  -0.230620   0.014768
     7  C    0.020109   0.004606   0.009907  -0.046073   0.483953  -0.010070
     8  C   -0.015927   0.001032  -0.011278  -0.031680  -0.091880   0.332071
     9  H   -0.000111  -0.004999   0.004036  -0.000002   0.000004   0.000001
    10  H   -0.000146   0.000687  -0.005525  -0.000045  -0.000008   0.000141
    11  H   -0.000170  -0.000057  -0.000118  -0.000543   0.000018  -0.002391
    12  H   -0.029789  -0.003187   0.003935  -0.000280   0.000013   0.000005
    13  H    0.530131   0.001025  -0.005642   0.001022  -0.000022   0.000005
    14  H    0.001025   0.522078  -0.024113  -0.000153   0.000000   0.000004
    15  H   -0.005642  -0.024113   0.511078   0.000362   0.000004   0.000026
    16  H    0.001022  -0.000153   0.000362   0.576550   0.004526  -0.000152
    17  H   -0.000022   0.000000   0.000004   0.004526   0.529646  -0.004618
    18  H    0.000005   0.000004   0.000026  -0.000152  -0.004618   0.550094
    19  O    0.000415   0.000429   0.000443   0.006377   0.009458  -0.037619
    20  H   -0.000002  -0.000007  -0.000184  -0.000029  -0.000176  -0.008477
    21  O   -0.000055  -0.000009   0.000053   0.001435  -0.046378   0.002684
    22  H   -0.000002   0.000000   0.000012   0.002899   0.006472  -0.000211
    23  C   -0.027307   0.000064   0.003638   0.037534   0.043023   0.006780
    24  H    0.001689   0.000001   0.000001  -0.001998   0.000103   0.000003
    25  H   -0.000039   0.000000  -0.000001   0.001049   0.000557  -0.000002
    26  O   -0.000375   0.000007   0.000039   0.008877   0.013149   0.000255
    27  H    0.000089  -0.000001   0.000000   0.000757   0.000140  -0.000015
             19         20         21         22         23         24
     1  C    0.078782  -0.001773   0.003235   0.005722   0.072458   0.006372
     2  C   -0.174097  -0.054339   0.018040   0.012899   0.160596  -0.016431
     3  N    0.058932  -0.004116   0.014647   0.009587   0.309713  -0.016541
     4  C    0.014355  -0.000224   0.000436   0.003210   0.093982   0.023642
     5  C   -0.039482  -0.000225  -0.001309  -0.002423  -0.099323  -0.008395
     6  C    0.045465   0.004646  -0.151026  -0.085142  -1.945377  -0.039672
     7  C   -0.177595   0.014449   0.300452   0.096184   0.209743   0.003476
     8  C    0.122907   0.060876  -0.066120  -0.087877  -0.305339  -0.004213
     9  H    0.000336  -0.000041   0.000026   0.000000   0.001041   0.000000
    10  H    0.001903   0.001621  -0.000076   0.000001  -0.001206   0.000000
    11  H    0.008594   0.000041  -0.000528  -0.000020  -0.003261   0.000008
    12  H    0.000235  -0.000001   0.000016   0.000000   0.009532  -0.000102
    13  H    0.000415  -0.000002  -0.000055  -0.000002  -0.027307   0.001689
    14  H    0.000429  -0.000007  -0.000009   0.000000   0.000064   0.000001
    15  H    0.000443  -0.000184   0.000053   0.000012   0.003638   0.000001
    16  H    0.006377  -0.000029   0.001435   0.002899   0.037534  -0.001998
    17  H    0.009458  -0.000176  -0.046378   0.006472   0.043023   0.000103
    18  H   -0.037619  -0.008477   0.002684  -0.000211   0.006780   0.000003
    19  O    8.423527   0.240286   0.003053   0.024860   0.034871   0.000193
    20  H    0.240286   0.345768  -0.001385  -0.000413  -0.002369   0.000000
    21  O    0.003053  -0.001385   8.166853   0.259010   0.022820  -0.000582
    22  H    0.024860  -0.000413   0.259010   0.356991   0.012552  -0.000013
    23  C    0.034871  -0.002369   0.022820   0.012552   6.496951   0.408667
    24  H    0.000193   0.000000  -0.000582  -0.000013   0.408667   0.589875
    25  H   -0.000136   0.000000   0.007437   0.000013   0.566448  -0.040070
    26  O    0.001437  -0.000010  -0.001749   0.000340   0.291463  -0.051553
    27  H   -0.000041   0.000000   0.000451  -0.000004   0.061679  -0.003572
             25         26         27
     1  C   -0.000326   0.012365   0.000108
     2  C    0.015554  -0.023383   0.022535
     3  N    0.017151   0.051910   0.050174
     4  C   -0.000276   0.014209   0.011070
     5  C    0.000379  -0.009854  -0.001500
     6  C   -0.218945  -0.246557  -0.095260
     7  C    0.009864   0.043174  -0.031908
     8  C   -0.015095  -0.024541  -0.010285
     9  H    0.000000   0.000018   0.000000
    10  H    0.000000   0.000006  -0.000001
    11  H   -0.000003   0.000843  -0.000560
    12  H    0.000003   0.000903  -0.000166
    13  H   -0.000039  -0.000375   0.000089
    14  H    0.000000   0.000007  -0.000001
    15  H   -0.000001   0.000039   0.000000
    16  H    0.001049   0.008877   0.000757
    17  H    0.000557   0.013149   0.000140
    18  H   -0.000002   0.000255  -0.000015
    19  O   -0.000136   0.001437  -0.000041
    20  H    0.000000  -0.000010   0.000000
    21  O    0.007437  -0.001749   0.000451
    22  H    0.000013   0.000340  -0.000004
    23  C    0.566448   0.291463   0.061679
    24  H   -0.040070  -0.051553  -0.003572
    25  H    0.539122  -0.054344   0.006215
    26  O   -0.054344   8.288893   0.245700
    27  H    0.006215   0.245700   0.358518
 Mulliken atomic charges:
              1
     1  C   -0.511622
     2  C    0.083151
     3  N   -0.271350
     4  C   -0.277554
     5  C   -0.246983
     6  C    0.336792
     7  C   -0.348398
     8  C    0.215671
     9  H    0.179957
    10  H    0.163599
    11  H    0.169438
    12  H    0.166208
    13  H    0.165704
    14  H    0.170997
    15  H    0.181222
    16  H    0.169050
    17  H    0.188756
    18  H    0.173402
    19  O   -0.647887
    20  H    0.406081
    21  O   -0.531427
    22  H    0.385351
    23  C   -0.459374
    24  H    0.149111
    25  H    0.165447
    26  O   -0.561220
    27  H    0.385877
 Sum of Mulliken atomic charges =   0.00000
 Mulliken charges with hydrogens summed into heavy atoms:
              1
     1  C   -0.168067
     2  C    0.252589
     3  N   -0.271350
     4  C    0.054358
     5  C    0.105236
     6  C    0.505842
     7  C   -0.159642
     8  C    0.389073
    19  O   -0.241806
    21  O   -0.146076
    23  C   -0.144817
    26  O   -0.175343
 Sum of Mulliken charges with hydrogens summed into heavy atoms =   0.00000
 Electronic spatial extent (au):  <R**2>=           1960.4689
 Charge=              0.0000 electrons
 Dipole moment (field-independent basis, Debye):
    X=             -6.7218    Y=              0.6342    Z=             -0.1330  Tot=              6.7530
 Quadrupole moment (field-independent basis, Debye-Ang):
   XX=            -82.5243   YY=            -72.4133   ZZ=            -70.0586
   XY=             -3.2457   XZ=             -5.0241   YZ=              4.0300
 Traceless Quadrupole moment (field-independent basis, Debye-Ang):
   XX=             -7.5256   YY=              2.5854   ZZ=              4.9401
   XY=             -3.2457   XZ=             -5.0241   YZ=              4.0300
 Octapole moment (field-independent basis, Debye-Ang**2):
  XXX=            -53.2858  YYY=             15.6949  ZZZ=              2.1787  XYY=            -32.2705
  XXY=             15.2366  XXZ=            -10.3002  XZZ=              3.6036  YZZ=              4.3424
  YYZ=             -2.4170  XYZ=              4.0854
 Hexadecapole moment (field-independent basis, Debye-Ang**3):
 XXXX=          -1427.4699 YYYY=           -867.0030 ZZZZ=           -297.7699 XXXY=              5.3424
 XXXZ=            -36.0608 YYYX=            -53.8343 YYYZ=            -13.6927 ZZZX=              1.2675
 ZZZY=            -14.0265 XXYY=           -391.6062 XXZZ=           -275.6307 YYZZ=           -185.5613
 XXYZ=             17.5056 YYXZ=             -8.3873 ZZXY=              0.5706
 N-N= 8.152025586319D+02 E-N=-3.016179276614D+03  KE= 5.886629215823D+02
 1\1\GINC-COMPUTE-3-1\SP\RmPW1PW91\6-31+G(d,p)\C8H15N1O3\MAMICHETTI.IQU
 IR\17-May-2024\0\\# mpw1pw91/6-31+G** nmr scrf=(pcm,solvent=water)\\co
 mment\\0,1\C,0,-2.469643,-0.223163,0.54835\C,0,-1.021228,0.051284,1.00
 8097\N,0,-0.152648,-0.976678,0.319653\C,0,-1.044896,-1.836019,-0.49503
 8\C,0,-2.305119,-1.004294,-0.764589\C,0,0.874492,-0.255949,-0.465735\C
 ,0,1.024224,1.077113,0.288527\C,0,-0.428161,1.424628,0.638426\H,0,-2.9
 78996,-0.844077,1.293903\H,0,-3.051198,0.696254,0.431809\H,0,-0.936603
 ,-0.068899,2.094207\H,0,-1.303604,-2.73906,0.073423\H,0,-0.52935,-2.16
 0264,-1.404171\H,0,-3.175567,-1.622045,-1.008672\H,0,-2.132556,-0.3142
 56,-1.597968\H,0,0.537457,-0.033558,-1.492032\H,0,1.594604,0.912617,1.
 207631\H,0,-0.506376,2.141682,1.462155\O,0,-0.987198,2.000167,-0.55324
 4\H,0,-1.780267,2.499271,-0.30065\O,0,1.696062,2.091686,-0.442531\H,0,
 1.026553,2.443621,-1.058533\C,0,2.163952,-1.06836,-0.55914\H,0,1.99751
 3,-1.953972,-1.191484\H,0,2.948717,-0.465662,-1.02909\O,0,2.637265,-1.
 456937,0.731117\H,0,1.827457,-1.725687,1.205781\\Version=AM64L-G09RevC
 .01\State=1-A\HF=-594.2028565\RMSD=8.106e-09\Dipole=-2.6445572,0.24952
 47,-0.0523251\Quadrupole=-5.5950789,1.922212,3.6728669,-2.4130658,-3.7
 35301,2.9962142\PG=C01 [X(C8H15N1O3)]\\@


 HE THAT IS UNAWARE OF HIS IGNORANCE WILL BE MISLED BY HIS KNOWLEDGE.

                                        -- WHATLEY
 Job cpu time:  0 days  0 hours  8 minutes 38.6 seconds.
 File lengths (MBytes):  RWF=    113 Int=      0 D2E=      0 Chk=      7 Scr=      1
 Normal termination of Gaussian 09 at Fri May 17 12:34:17 2024.
