 Entering Gaussian System, Link 0=g09
 Input=/home/mamichetti.iquir/Linux/01_Cardona_A1A3_R__S_R_R_012_OptB.gjc
 Output=/home/mamichetti.iquir/Linux/01_Cardona_A1A3_R__S_R_R_012_OptB.log
 Initial command:
 /opt/ohpc/pub/apps/software/Gaussian/09/AMD64.SSE4a-enabled/g09/l1.exe /local/mamichetti.iquir/Gau-406170.inp -scrdir=/local/mamichetti.iquir/
 Entering Link 1 = /opt/ohpc/pub/apps/software/Gaussian/09/AMD64.SSE4a-enabled/g09/l1.exe PID=    406171.
  
 Copyright (c) 1988,1990,1992,1993,1995,1998,2003,2009,2011,
            Gaussian, Inc.  All Rights Reserved.
  
 This is part of the Gaussian(R) 09 program.  It is based on
 the Gaussian(R) 03 system (copyright 2003, Gaussian, Inc.),
 the Gaussian(R) 98 system (copyright 1998, Gaussian, Inc.),
 the Gaussian(R) 94 system (copyright 1995, Gaussian, Inc.),
 the Gaussian 92(TM) system (copyright 1992, Gaussian, Inc.),
 the Gaussian 90(TM) system (copyright 1990, Gaussian, Inc.),
 the Gaussian 88(TM) system (copyright 1988, Gaussian, Inc.),
 the Gaussian 86(TM) system (copyright 1986, Carnegie Mellon
 University), and the Gaussian 82(TM) system (copyright 1983,
 Carnegie Mellon University). Gaussian is a federally registered
 trademark of Gaussian, Inc.
  
 This software contains proprietary and confidential information,
 including trade secrets, belonging to Gaussian, Inc.
  
 This software is provided under written license and may be
 used, copied, transmitted, or stored only in accord with that
 written license.
  
 The following legend is applicable only to US Government
 contracts under FAR:
  
                    RESTRICTED RIGHTS LEGEND
  
 Use, reproduction and disclosure by the US Government is
 subject to restrictions as set forth in subparagraphs (a)
 and (c) of the Commercial Computer Software - Restricted
 Rights clause in FAR 52.227-19.
  
 Gaussian, Inc.
 340 Quinnipiac St., Bldg. 40, Wallingford CT 06492
  
  
 ---------------------------------------------------------------
 Warning -- This program may not be used in any manner that
 competes with the business of Gaussian, Inc. or will provide
 assistance to any competitor of Gaussian, Inc.  The licensee
 of this program is prohibited from giving any competitor of
 Gaussian, Inc. access to this program.  By using this program,
 the user acknowledges that Gaussian, Inc. is engaged in the
 business of creating and licensing software in the field of
 computational chemistry and represents and warrants to the
 licensee that it is not a competitor of Gaussian, Inc. and that
 it will not use this program in any manner prohibited above.
 ---------------------------------------------------------------
  

 Cite this work as:
 Gaussian 09, Revision C.01,
 M. J. Frisch, G. W. Trucks, H. B. Schlegel, G. E. Scuseria, 
 M. A. Robb, J. R. Cheeseman, G. Scalmani, V. Barone, B. Mennucci, 
 G. A. Petersson, H. Nakatsuji, M. Caricato, X. Li, H. P. Hratchian, 
 A. F. Izmaylov, J. Bloino, G. Zheng, J. L. Sonnenberg, M. Hada, 
 M. Ehara, K. Toyota, R. Fukuda, J. Hasegawa, M. Ishida, T. Nakajima, 
 Y. Honda, O. Kitao, H. Nakai, T. Vreven, J. A. Montgomery, Jr., 
 J. E. Peralta, F. Ogliaro, M. Bearpark, J. J. Heyd, E. Brothers, 
 K. N. Kudin, V. N. Staroverov, T. Keith, R. Kobayashi, J. Normand, 
 K. Raghavachari, A. Rendell, J. C. Burant, S. S. Iyengar, J. Tomasi, 
 M. Cossi, N. Rega, J. M. Millam, M. Klene, J. E. Knox, J. B. Cross, 
 V. Bakken, C. Adamo, J. Jaramillo, R. Gomperts, R. E. Stratmann, 
 O. Yazyev, A. J. Austin, R. Cammi, C. Pomelli, J. W. Ochterski, 
 R. L. Martin, K. Morokuma, V. G. Zakrzewski, G. A. Voth, 
 P. Salvador, J. J. Dannenberg, S. Dapprich, A. D. Daniels, 
 O. Farkas, J. B. Foresman, J. V. Ortiz, J. Cioslowski, 
 and D. J. Fox, Gaussian, Inc., Wallingford CT, 2010.
 
 ******************************************
 Gaussian 09:  AM64L-G09RevC.01 23-Sep-2011
                17-May-2024 
 ******************************************
 %nprocshared=4
 Will use up to    4 processors via shared memory.
 ------------------------------------------------
 # mpw1pw91/6-31+G** nmr scrf=(pcm,solvent=water)
 ------------------------------------------------
 1/38=1/1;
 2/12=2,17=6,18=5,40=1/2;
 3/5=1,6=6,7=111,11=2,16=1,25=1,30=1,70=2201,72=1,74=-7/1,2,8,3;
 4//1;
 5/5=2,38=5,53=1/2;
 8/6=1,10=90,11=11/1;
 10/13=100,45=16/2;
 6/7=2,8=2,9=2,10=2,28=1/1;
 99/9=1/99;
 -------
 comment
 -------
 Charge =  0 Multiplicity = 1
 Symbolic Z-Matrix:
 6                     2.16641  -0.34515  -0.41653 
 6                     0.76352  -0.03415  -1.0235 
 7                    -0.19115  -1.04716  -0.48699 
 6                     0.6496   -2.18433  -0.05937 
 6                     1.93897  -1.56386   0.50199 
 6                    -0.96953  -0.42506   0.63403 
 6                    -0.54706   1.05217   0.7069 
 6                     0.11159   1.31229  -0.65416 
 1                     2.86699  -0.591    -1.22149 
 1                     2.57995   0.51096   0.12171 
 1                     0.8158   -0.12843  -2.11351 
 1                     0.87979  -2.80443  -0.93555 
 1                     0.10604  -2.81117   0.65342 
 1                     2.78019  -2.26454   0.49929 
 1                     1.77572  -1.23884   1.53526 
 1                    -0.72744  -0.89918   1.5936 
 1                    -1.40221   1.71947   0.87501 
 1                    -0.67817   1.52998  -1.38419 
 8                     0.99165   2.42708  -0.53947 
 1                     1.50842   2.48988  -1.36012 
 8                     0.40213   1.21825   1.76827 
 1                     0.9642    1.96914   1.50331 
 6                    -2.4657   -0.6194    0.38959 
 1                    -2.69658  -1.69493   0.40129 
 1                    -3.04632  -0.14025   1.18462 
 8                    -2.89284  -0.03091  -0.84187 
 1                    -2.28263  -0.38682  -1.51286 
 
                          Input orientation:                          
 ---------------------------------------------------------------------
 Center     Atomic      Atomic             Coordinates (Angstroms)
 Number     Number       Type             X           Y           Z
 ---------------------------------------------------------------------
      1          6           0        2.166407   -0.345150   -0.416532
      2          6           0        0.763523   -0.034146   -1.023502
      3          7           0       -0.191152   -1.047161   -0.486991
      4          6           0        0.649598   -2.184335   -0.059366
      5          6           0        1.938966   -1.563859    0.501989
      6          6           0       -0.969531   -0.425064    0.634034
      7          6           0       -0.547063    1.052167    0.706904
      8          6           0        0.111594    1.312294   -0.654158
      9          1           0        2.866985   -0.590997   -1.221494
     10          1           0        2.579953    0.510955    0.121707
     11          1           0        0.815795   -0.128426   -2.113514
     12          1           0        0.879793   -2.804433   -0.935548
     13          1           0        0.106037   -2.811173    0.653415
     14          1           0        2.780187   -2.264543    0.499289
     15          1           0        1.775716   -1.238844    1.535263
     16          1           0       -0.727439   -0.899178    1.593603
     17          1           0       -1.402205    1.719469    0.875007
     18          1           0       -0.678166    1.529979   -1.384190
     19          8           0        0.991653    2.427076   -0.539473
     20          1           0        1.508416    2.489876   -1.360122
     21          8           0        0.402127    1.218246    1.768270
     22          1           0        0.964200    1.969137    1.503305
     23          6           0       -2.465701   -0.619399    0.389588
     24          1           0       -2.696580   -1.694929    0.401294
     25          1           0       -3.046321   -0.140253    1.184621
     26          8           0       -2.892835   -0.030914   -0.841871
     27          1           0       -2.282630   -0.386819   -1.512856
 ---------------------------------------------------------------------
                    Distance matrix (angstroms):
                    1          2          3          4          5
     1  C    0.000000
     2  C    1.559878   0.000000
     3  N    2.460867   1.491793   0.000000
     4  C    2.410576   2.359205   1.477460   0.000000
     5  C    1.542939   2.459433   2.404675   1.537069   0.000000
     6  C    3.308199   2.429757   1.499859   2.489461   3.126283
     7  C    3.252310   2.427348   2.441155   3.534701   3.614682
     8  C    2.650631   1.540885   2.384665   3.587428   3.598364
     9  H    1.095086   2.184911   3.178015   2.967503   2.185880
    10  H    1.092537   2.215413   3.236860   3.320188   2.204616
    11  H    2.179649   1.095330   2.122167   2.910998   3.187920
    12  H    2.823619   2.774121   2.106213   1.097819   2.174255
    13  H    3.386913   3.310018   2.121458   1.093820   2.222240
    14  H    2.213487   3.370534   3.359110   2.204073   1.094814
    15  H    2.181933   3.003849   2.827512   2.169087   1.095418
    16  H    3.566782   3.133766   2.153688   2.506026   2.956880
    17  H    4.320384   3.371925   3.312994   4.508063   4.699235
    18  H    3.541760   2.157556   2.771967   4.161039   4.469775
    19  O    3.013370   2.518718   3.670437   4.648937   4.231974
    20  H    3.059524   2.653086   4.020139   4.927249   4.481696
    21  O    3.214071   3.081085   3.251192   3.870278   3.421323
    22  H    3.238364   3.230815   3.793965   4.448848   3.799324
    23  C    4.709720   3.573126   2.474862   3.515064   4.506188
    24  H    5.112669   4.093966   2.736023   3.413009   4.638492
    25  H    5.456941   4.404768   3.430562   4.402907   5.229314
    26  O    5.086805   3.660868   2.908228   4.218811   5.244252
    27  H    4.582313   3.105301   2.421308   3.733853   4.823577
                    6          7          8          9         10
     6  C    0.000000
     7  C    1.538181   0.000000
     8  C    2.417991   1.534270   0.000000
     9  H    4.264900   4.251403   3.396552   0.000000
    10  H    3.706406   3.227010   2.708673   1.760930   0.000000
    11  H    3.290046   3.347527   2.168247   2.284087   2.918437
    12  H    3.397791   4.427971   4.197231   2.988310   3.873000
    13  H    2.617392   3.918520   4.325825   4.008404   4.176064
    14  H    4.178783   4.702580   4.609294   2.401954   2.808211
    15  H    3.001805   3.366038   3.751156   3.034845   2.388877
    16  H    1.097345   2.150934   3.262976   4.575984   3.885073
    17  H    2.200976   1.097642   2.189914   5.287679   4.229131
    18  H    2.824945   2.148992   1.097294   4.134381   3.731149
    19  O    3.654869   2.410701   1.424919   3.618119   2.575146
    20  H    4.314366   3.250323   1.958621   3.369971   2.694464
    21  O    2.422479   1.433542   2.441600   4.276397   2.820347
    22  H    3.197991   1.938815   2.411022   4.195165   2.577938
    23  C    1.528412   2.564370   3.385749   5.570811   5.177652
    24  H    2.156252   3.501479   4.247730   5.899607   5.725897
    25  H    2.167330   2.810048   3.932357   6.399980   5.762709
    26  O    2.456165   3.012377   3.296367   5.799425   5.583325
    27  H    2.516908   3.163891   3.058865   5.161891   5.207927
                   11         12         13         14         15
    11  H    0.000000
    12  H    2.924502   0.000000
    13  H    3.918773   1.767356   0.000000
    14  H    3.904942   2.441667   2.733795   0.000000
    15  H    3.932944   3.059192   2.457174   1.770385   0.000000
    16  H    4.088807   3.551027   2.287873   3.919845   2.526769
    17  H    4.155177   5.380642   4.780232   5.788430   4.391667
    18  H    2.348221   4.627704   4.859260   5.468647   4.712868
    19  O    3.006513   5.247673   5.444865   5.127296   4.284653
    20  H    2.811197   5.348377   5.841414   5.261113   4.728431
    21  O    4.129515   4.870395   4.191275   4.404010   2.824594
    22  H    4.183680   5.361166   4.930529   4.714860   3.309187
    23  C    4.156295   4.209832   3.389294   5.498898   4.436880
    24  H    4.595103   3.976002   3.027248   5.507181   4.636306
    25  H    5.078757   5.196859   4.165736   6.239430   4.958013
    26  O    3.921801   4.683365   4.354188   6.242675   5.376358
    27  H    3.166669   4.022320   4.034347   5.762525   5.146567
                   16         17         18         19         20
    16  H    0.000000
    17  H    2.798035   0.000000
    18  H    3.843239   2.379939   0.000000
    19  O    4.309206   2.869149   2.075241   0.000000
    20  H    5.020879   3.749806   2.388121   0.971830   0.000000
    21  O    2.406224   2.074791   3.346971   2.671046   3.553555
    22  H    3.331220   2.461090   3.350799   2.093658   2.960837
    23  C    2.132952   2.614758   3.310800   4.700794   5.340663
    24  H    2.435639   3.682109   4.202616   5.610618   6.188471
    25  H    2.473954   2.501508   3.872547   5.086149   5.842852
    26  O    3.372589   2.869406   2.763197   4.606778   5.098429
    27  H    3.511583   3.303557   2.502993   4.425653   4.761379
                   21         22         23         24         25
    21  O    0.000000
    22  H    0.974664   0.000000
    23  C    3.674526   4.439043   0.000000
    24  H    4.467348   5.295386   1.100094   0.000000
    25  H    3.752061   4.542616   1.094887   1.775651   0.000000
    26  O    4.385204   4.937284   1.430122   2.086366   2.035235
    27  H    4.533204   5.018930   1.925332   2.355096   2.814321
                   26         27
    26  O    0.000000
    27  H    0.974289   0.000000
 Stoichiometry    C8H15NO3
 Framework group  C1[X(C8H15NO3)]
 Deg. of freedom    75
 Full point group                 C1      NOp   1
 Largest Abelian subgroup         C1      NOp   1
 Largest concise Abelian subgroup C1      NOp   1
                         Standard orientation:                         
 ---------------------------------------------------------------------
 Center     Atomic      Atomic             Coordinates (Angstroms)
 Number     Number       Type             X           Y           Z
 ---------------------------------------------------------------------
      1          6           0        2.166407   -0.345151   -0.416532
      2          6           0        0.763523   -0.034146   -1.023502
      3          7           0       -0.191152   -1.047161   -0.486991
      4          6           0        0.649597   -2.184335   -0.059366
      5          6           0        1.938966   -1.563860    0.501989
      6          6           0       -0.969531   -0.425064    0.634034
      7          6           0       -0.547063    1.052167    0.706904
      8          6           0        0.111594    1.312294   -0.654158
      9          1           0        2.866985   -0.590998   -1.221494
     10          1           0        2.579953    0.510954    0.121707
     11          1           0        0.815795   -0.128426   -2.113514
     12          1           0        0.879792   -2.804433   -0.935548
     13          1           0        0.106036   -2.811173    0.653415
     14          1           0        2.780186   -2.264544    0.499289
     15          1           0        1.775716   -1.238845    1.535263
     16          1           0       -0.727439   -0.899178    1.593603
     17          1           0       -1.402205    1.719469    0.875007
     18          1           0       -0.678166    1.529979   -1.384190
     19          8           0        0.991654    2.427076   -0.539473
     20          1           0        1.508417    2.489876   -1.360122
     21          8           0        0.402127    1.218246    1.768270
     22          1           0        0.964201    1.969137    1.503305
     23          6           0       -2.465701   -0.619398    0.389588
     24          1           0       -2.696580   -1.694928    0.401294
     25          1           0       -3.046321   -0.140252    1.184621
     26          8           0       -2.892835   -0.030913   -0.841871
     27          1           0       -2.282630   -0.386818   -1.512856
 ---------------------------------------------------------------------
 Rotational constants (GHZ):      1.1685626      0.9398479      0.7074197
 Standard basis: 6-31+G(d,p) (6D, 7F)
 There are   303 symmetry adapted basis functions of A   symmetry.
 Integral buffers will be    131072 words long.
 Raffenetti 2 integral format.
 Two-electron integral symmetry is turned on.
   303 basis functions,   489 primitive gaussians,   303 cartesian basis functions
    47 alpha electrons       47 beta electrons
       nuclear repulsion energy       820.9017475204 Hartrees.
 NAtoms=   27 NActive=   27 NUniq=   27 SFac= 1.00D+00 NAtFMM=   60 NAOKFM=F Big=F
 ------------------------------------------------------------------------------
 Polarizable Continuum Model (PCM)
 =================================
 Model                : PCM.
 Atomic radii         : UFF (Universal Force Field).
 Polarization charges : Total charges.
 Charge compensation  : None.
 Solution method      : Matrix inversion.
 Cavity type          : Scaled VdW (van der Waals Surface) (Alpha=1.100).
 Cavity algorithm     : GePol (No added spheres)
                        Default sphere list used, NSphG=   27.
                        Lebedev-Laikov grids with approx.  5.0 points / Ang**2.
                        Smoothing algorithm: Karplus/York (Gamma=1.0000).
                        Polarization charges: spherical gaussians, with
                                              point-specific exponents (IZeta= 3).
                        Self-potential: point-specific (ISelfS= 7).
                        Self-field    : sphere-specific E.n sum rule (ISelfD= 2).
 Solvent              : Water, Eps=  78.355300 Eps(inf)=   1.777849
 ------------------------------------------------------------------------------
 One-electron integrals computed using PRISM.
 NBasis=   303 RedAO= T  NBF=   303
 NBsUse=   303 1.00D-06 NBFU=   303
 Harris functional with IExCor=  908 diagonalized for initial guess.
 ExpMin= 4.38D-02 ExpMax= 5.48D+03 ExpMxC= 8.25D+02 IAcc=2 IRadAn=         4 AccDes= 0.00D+00
 HarFok:  IExCor=  908 AccDes= 0.00D+00 IRadAn=         4 IDoV= 1
 ScaDFX=  1.000000  1.000000  1.000000  1.000000
 FoFCou: FMM=F IPFlag=           0 FMFlag=      100000 FMFlg1=           0
         NFxFlg=           0 DoJE=T BraDBF=F KetDBF=T FulRan=T
         Omega=  0.000000  0.000000  1.000000  0.000000  0.000000 ICntrl=     500 IOpCl=  0
         NMat0=    1 NMatS0=    1 NMatT0=    0 NMatD0=    1 NMtDS0=    0 NMtDT0=    0
         I1Cent=           4 NGrid=           0.
 Petite list used in FoFCou.
 Initial guess orbital symmetries:
       Occupied  (A) (A) (A) (A) (A) (A) (A) (A) (A) (A) (A) (A)
                 (A) (A) (A) (A) (A) (A) (A) (A) (A) (A) (A) (A)
                 (A) (A) (A) (A) (A) (A) (A) (A) (A) (A) (A) (A)
                 (A) (A) (A) (A) (A) (A) (A) (A) (A) (A) (A)
       Virtual   (A) (A) (A) (A) (A) (A) (A) (A) (A) (A) (A) (A)
                 (A) (A) (A) (A) (A) (A) (A) (A) (A) (A) (A) (A)
                 (A) (A) (A) (A) (A) (A) (A) (A) (A) (A) (A) (A)
                 (A) (A) (A) (A) (A) (A) (A) (A) (A) (A) (A) (A)
                 (A) (A) (A) (A) (A) (A) (A) (A) (A) (A) (A) (A)
                 (A) (A) (A) (A) (A) (A) (A) (A) (A) (A) (A) (A)
                 (A) (A) (A) (A) (A) (A) (A) (A) (A) (A) (A) (A)
                 (A) (A) (A) (A) (A) (A) (A) (A) (A) (A) (A) (A)
                 (A) (A) (A) (A) (A) (A) (A) (A) (A) (A) (A) (A)
                 (A) (A) (A) (A) (A) (A) (A) (A) (A) (A) (A) (A)
                 (A) (A) (A) (A) (A) (A) (A) (A) (A) (A) (A) (A)
                 (A) (A) (A) (A) (A) (A) (A) (A) (A) (A) (A) (A)
                 (A) (A) (A) (A) (A) (A) (A) (A) (A) (A) (A) (A)
                 (A) (A) (A) (A) (A) (A) (A) (A) (A) (A) (A) (A)
                 (A) (A) (A) (A) (A) (A) (A) (A) (A) (A) (A) (A)
                 (A) (A) (A) (A) (A) (A) (A) (A) (A) (A) (A) (A)
                 (A) (A) (A) (A) (A) (A) (A) (A) (A) (A) (A) (A)
                 (A) (A) (A) (A) (A) (A) (A) (A) (A) (A) (A) (A)
                 (A) (A) (A) (A) (A) (A) (A) (A) (A) (A) (A) (A)
                 (A) (A) (A) (A) (A) (A) (A) (A) (A) (A) (A) (A)
                 (A) (A) (A) (A) (A) (A) (A) (A) (A) (A) (A) (A)
                 (A) (A) (A) (A)
 The electronic state of the initial guess is 1-A.
 Requested convergence on RMS density matrix=1.00D-08 within 128 cycles.
 Requested convergence on MAX density matrix=1.00D-06.
 Requested convergence on             energy=1.00D-06.
 No special actions if energy rises.
 Error on total polarization charges =  0.01417
 SCF Done:  E(RmPW1PW91) =  -594.196725891     A.U. after   13 cycles
             Convg  =    0.3665D-08             -V/T =  2.0094
 Range of M.O.s used for correlation:     1   303
 NBasis=   303 NAE=    47 NBE=    47 NFC=     0 NFV=     0
 NROrb=    303 NOA=    47 NOB=    47 NVA=   256 NVB=   256

 **** Warning!!: The largest alpha MO coefficient is  0.79783195D+02

 NEqPCM:  Using equilibrium solvation (IEInf=0, Eps=  78.3553, EpsInf=   1.7778)
          Differentiating once with respect to magnetic field using GIAOs.
          Electric field/nuclear overlap derivatives assumed to be zero.
 FoFCou: FMM=F IPFlag=           0 FMFlag=    10101102 FMFlg1=           0
         NFxFlg=    40000000 DoJE=F BraDBF=F KetDBF=T FulRan=T
         Omega=  0.000000  0.000000  1.000000  0.000000  0.000000 ICntrl=    6100 IOpCl=  0
         NMat0=    1 NMatS0=    1 NMatT0=    0 NMatD0=    1 NMtDS0=    0 NMtDT0=    0
         I1Cent=           7 NGrid=        1803.
 Symmetry not used in FoFCou.
          There are     3 degrees of freedom in the 1st order CPHF.  IDoFFX=0.
      3 vectors produced by pass  0 Test12= 4.01D-13 3.33D-08 XBig12= 2.36D+01 7.59D-01.
 AX will form     3 AO Fock derivatives at one time.
      3 vectors produced by pass  1 Test12= 4.01D-13 3.33D-08 XBig12= 5.61D-02 4.31D-02.
      3 vectors produced by pass  2 Test12= 4.01D-13 3.33D-08 XBig12= 1.14D-04 2.05D-03.
      3 vectors produced by pass  3 Test12= 4.01D-13 3.33D-08 XBig12= 5.20D-07 1.59D-04.
      3 vectors produced by pass  4 Test12= 4.01D-13 3.33D-08 XBig12= 1.76D-09 8.45D-06.
      3 vectors produced by pass  5 Test12= 4.01D-13 3.33D-08 XBig12= 6.10D-12 5.35D-07.
 Inverted reduced A of dimension    18 with in-core refinement.
 Calculating GIAO nuclear magnetic shielding tensors.
 SCF GIAO Magnetic shielding tensor (ppm):
      1  C    Isotropic =   168.9398   Anisotropy =    25.7920
   XX=   179.8122   YX=     1.2492   ZX=     6.9237
   XY=     1.0979   YY=   165.9974   ZY=   -17.9064
   XZ=     6.7092   YZ=   -22.2576   ZZ=   161.0099
   Eigenvalues:   142.3352   178.3498   186.1345
      2  C    Isotropic =   125.7058   Anisotropy =    62.9140
   XX=   135.7911   YX=    20.2754   ZX=   -10.0488
   XY=    21.7363   YY=   146.6757   ZY=   -17.9608
   XZ=    -1.5578   YZ=   -19.6575   ZZ=    94.6505
   Eigenvalues:    88.5401   120.9287   167.6485
      3  N    Isotropic =   191.5416   Anisotropy =    65.6819
   XX=   188.1768   YX=    25.9574   ZX=   -31.9397
   XY=    -5.6232   YY=   223.8384   ZY=   -22.0487
   XZ=   -46.0284   YZ=     0.0527   ZZ=   162.6095
   Eigenvalues:   134.2671   205.0281   235.3295
      4  C    Isotropic =   139.0930   Anisotropy =    57.2834
   XX=   143.3259   YX=   -24.4749   ZX=     7.0750
   XY=   -11.8590   YY=   159.1215   ZY=   -19.5130
   XZ=    22.9246   YZ=    -7.8515   ZZ=   114.8316
   Eigenvalues:   107.6585   132.3385   177.2819
      5  C    Isotropic =   170.2711   Anisotropy =    22.0049
   XX=   176.9139   YX=     3.6360   ZX=     9.4311
   XY=     7.9059   YY=   179.1305   ZY=    -9.9459
   XZ=    13.2716   YZ=   -16.0633   ZZ=   154.7688
   Eigenvalues:   144.1921   181.6802   184.9410
      6  C    Isotropic =   119.8319   Anisotropy =    29.8843
   XX=   111.0087   YX=    -7.7829   ZX=   -12.2983
   XY=    -3.2071   YY=   126.3285   ZY=     7.6708
   XZ=   -15.3707   YZ=    10.3098   ZZ=   122.1585
   Eigenvalues:   101.6572   118.0836   139.7547
      7  C    Isotropic =   117.0889   Anisotropy =    23.1701
   XX=   117.4662   YX=     5.6499   ZX=    11.7883
   XY=     8.6518   YY=   113.5454   ZY=     7.5848
   XZ=     5.2783   YZ=     5.8732   ZZ=   120.2551
   Eigenvalues:   108.0838   110.6473   132.5356
      8  C    Isotropic =   119.6205   Anisotropy =    52.4796
   XX=   116.7903   YX=    16.9263   ZX=   -12.3666
   XY=    22.3831   YY=   142.8681   ZY=     2.8899
   XZ=   -19.1253   YZ=    -3.7757   ZZ=    99.2031
   Eigenvalues:    88.0181   116.2364   154.6069
      9  H    Isotropic =    30.0859   Anisotropy =    12.3180
   XX=    33.7448   YX=    -1.8210   ZX=    -5.6441
   XY=    -2.0439   YY=    25.7193   ZY=    -0.6738
   XZ=    -5.8576   YZ=    -0.8433   ZZ=    30.7936
   Eigenvalues:    24.1683    27.7915    38.2979
     10  H    Isotropic =    29.4425   Anisotropy =     6.8727
   XX=    30.8006   YX=     1.7356   ZX=     1.6590
   XY=     1.8970   YY=    32.1356   ZY=     1.5974
   XZ=     1.3544   YZ=     1.9439   ZZ=    25.3914
   Eigenvalues:    24.7613    29.5419    34.0243
     11  H    Isotropic =    28.0240   Anisotropy =     8.5527
   XX=    26.4858   YX=     0.0781   ZX=    -0.8682
   XY=     0.0071   YY=    23.9459   ZY=    -0.6534
   XZ=     0.0176   YZ=    -0.8797   ZZ=    33.6403
   Eigenvalues:    23.8856    26.4606    33.7258
     12  H    Isotropic =    28.7074   Anisotropy =    11.9876
   XX=    26.2299   YX=    -2.8778   ZX=    -0.2528
   XY=    -2.2212   YY=    33.1246   ZY=     5.5840
   XZ=     1.2278   YZ=     5.4734   ZZ=    26.7678
   Eigenvalues:    22.6846    26.7385    36.6992
     13  H    Isotropic =    28.6130   Anisotropy =     9.8809
   XX=    27.8596   YX=     1.5651   ZX=    -0.3116
   XY=     1.8467   YY=    33.3870   ZY=    -4.2336
   XZ=    -0.9186   YZ=    -3.2153   ZZ=    24.5922
   Eigenvalues:    23.2269    27.4117    35.2002
     14  H    Isotropic =    30.0395   Anisotropy =    12.4542
   XX=    33.2160   YX=    -5.3722   ZX=     1.3086
   XY=    -5.7587   YY=    31.3279   ZY=    -1.9706
   XZ=     1.5724   YZ=    -1.8354   ZZ=    25.5746
   Eigenvalues:    24.9876    26.7886    38.3423
     15  H    Isotropic =    29.5953   Anisotropy =     8.5372
   XX=    26.5726   YX=    -0.8561   ZX=     0.8345
   XY=    -0.5501   YY=    27.0818   ZY=     0.5935
   XZ=     1.4870   YZ=    -0.2586   ZZ=    35.1315
   Eigenvalues:    25.9578    27.5414    35.2868
     16  H    Isotropic =    28.7871   Anisotropy =     4.7543
   XX=    28.7159   YX=     0.1830   ZX=    -2.1719
   XY=    -0.6236   YY=    26.7811   ZY=    -0.8335
   XZ=    -1.3204   YZ=    -1.1720   ZZ=    30.8644
   Eigenvalues:    26.3417    28.0630    31.9567
     17  H    Isotropic =    27.4183   Anisotropy =     7.1810
   XX=    30.9832   YX=    -3.2439   ZX=     0.3981
   XY=    -2.1732   YY=    26.1964   ZY=     2.2750
   XZ=     1.6144   YZ=     2.6368   ZZ=    25.0753
   Eigenvalues:    22.3720    27.6773    32.2056
     18  H    Isotropic =    27.0613   Anisotropy =     4.8606
   XX=    28.0720   YX=    -0.1493   ZX=     4.2323
   XY=     1.6912   YY=    27.8306   ZY=    -1.8843
   XZ=     1.9741   YZ=    -2.7487   ZZ=    25.2812
   Eigenvalues:    22.2620    28.6201    30.3017
     19  O    Isotropic =   302.0748   Anisotropy =    51.5045
   XX=   286.6054   YX=   -10.1106   ZX=   -17.3863
   XY=     9.7983   YY=   310.1071   ZY=    -9.0523
   XZ=   -40.8315   YZ=   -23.3825   ZZ=   309.5119
   Eigenvalues:   264.7651   305.0482   336.4111
     20  H    Isotropic =    29.7685   Anisotropy =    19.4984
   XX=    28.1017   YX=     5.0428   ZX=    -9.4471
   XY=     4.8532   YY=    27.2856   ZY=    -3.2989
   XZ=    -9.0305   YZ=    -3.4036   ZZ=    33.9183
   Eigenvalues:    20.5446    25.9935    42.7674
     21  O    Isotropic =   306.2596   Anisotropy =    54.2363
   XX=   308.0188   YX=    28.0718   ZX=    13.0074
   XY=    12.4005   YY=   329.8499   ZY=   -18.3611
   XZ=    -2.3799   YZ=    -0.5737   ZZ=   280.9103
   Eigenvalues:   276.0180   300.3437   342.4172
     22  H    Isotropic =    28.7394   Anisotropy =    17.0032
   XX=    26.2258   YX=    10.3493   ZX=    -1.3366
   XY=    10.6595   YY=    31.8584   ZY=    -1.6994
   XZ=     0.8229   YZ=    -1.3588   ZZ=    28.1340
   Eigenvalues:    18.1135    28.0298    40.0748
     23  C    Isotropic =   128.8781   Anisotropy =    34.6752
   XX=   126.9018   YX=     1.6259   ZX=     7.5080
   XY=    -2.7844   YY=   118.6832   ZY=   -11.1005
   XZ=    15.6851   YZ=   -15.6419   ZZ=   141.0492
   Eigenvalues:   110.9320   123.7073   151.9949
     24  H    Isotropic =    27.9997   Anisotropy =     8.0104
   XX=    28.2428   YX=     2.7624   ZX=     0.9741
   XY=     2.8479   YY=    29.9885   ZY=    -3.4239
   XZ=     0.0186   YZ=    -4.4985   ZZ=    25.7679
   Eigenvalues:    22.7000    27.9592    33.3400
     25  H    Isotropic =    28.0564   Anisotropy =     7.3024
   XX=    30.0897   YX=    -0.1414   ZX=    -2.3396
   XY=    -0.7034   YY=    24.1703   ZY=    -0.3093
   XZ=    -3.4734   YZ=     0.5551   ZZ=    29.9092
   Eigenvalues:    24.1387    27.1059    32.9246
     26  O    Isotropic =   320.5843   Anisotropy =    39.7176
   XX=   326.8248   YX=     5.0264   ZX=   -32.2102
   XY=    -9.0458   YY=   314.3318   ZY=   -14.5551
   XZ=   -13.6660   YZ=     2.1968   ZZ=   320.5963
   Eigenvalues:   298.3137   316.3765   347.0627
     27  H    Isotropic =    29.5344   Anisotropy =    14.0526
   XX=    32.6099   YX=    -5.3761   ZX=    -2.8022
   XY=    -3.3756   YY=    21.8775   ZY=     3.9076
   XZ=    -4.2438   YZ=     3.7399   ZZ=    34.1158
   Eigenvalues:    19.8609    29.8395    38.9028
 End of Minotr Frequency-dependent properties file   721 does not exist.
 End of Minotr Frequency-dependent properties file   722 does not exist.

 **********************************************************************

            Population analysis using the SCF density.

 **********************************************************************

 Orbital symmetries:
       Occupied  (A) (A) (A) (A) (A) (A) (A) (A) (A) (A) (A) (A)
                 (A) (A) (A) (A) (A) (A) (A) (A) (A) (A) (A) (A)
                 (A) (A) (A) (A) (A) (A) (A) (A) (A) (A) (A) (A)
                 (A) (A) (A) (A) (A) (A) (A) (A) (A) (A) (A)
       Virtual   (A) (A) (A) (A) (A) (A) (A) (A) (A) (A) (A) (A)
                 (A) (A) (A) (A) (A) (A) (A) (A) (A) (A) (A) (A)
                 (A) (A) (A) (A) (A) (A) (A) (A) (A) (A) (A) (A)
                 (A) (A) (A) (A) (A) (A) (A) (A) (A) (A) (A) (A)
                 (A) (A) (A) (A) (A) (A) (A) (A) (A) (A) (A) (A)
                 (A) (A) (A) (A) (A) (A) (A) (A) (A) (A) (A) (A)
                 (A) (A) (A) (A) (A) (A) (A) (A) (A) (A) (A) (A)
                 (A) (A) (A) (A) (A) (A) (A) (A) (A) (A) (A) (A)
                 (A) (A) (A) (A) (A) (A) (A) (A) (A) (A) (A) (A)
                 (A) (A) (A) (A) (A) (A) (A) (A) (A) (A) (A) (A)
                 (A) (A) (A) (A) (A) (A) (A) (A) (A) (A) (A) (A)
                 (A) (A) (A) (A) (A) (A) (A) (A) (A) (A) (A) (A)
                 (A) (A) (A) (A) (A) (A) (A) (A) (A) (A) (A) (A)
                 (A) (A) (A) (A) (A) (A) (A) (A) (A) (A) (A) (A)
                 (A) (A) (A) (A) (A) (A) (A) (A) (A) (A) (A) (A)
                 (A) (A) (A) (A) (A) (A) (A) (A) (A) (A) (A) (A)
                 (A) (A) (A) (A) (A) (A) (A) (A) (A) (A) (A) (A)
                 (A) (A) (A) (A) (A) (A) (A) (A) (A) (A) (A) (A)
                 (A) (A) (A) (A) (A) (A) (A) (A) (A) (A) (A) (A)
                 (A) (A) (A) (A) (A) (A) (A) (A) (A) (A) (A) (A)
                 (A) (A) (A) (A) (A) (A) (A) (A) (A) (A) (A) (A)
                 (A) (A) (A) (A)
 The electronic state is 1-A.
 Alpha  occ. eigenvalues --  -19.26806 -19.25229 -19.25113 -14.41796 -10.30691
 Alpha  occ. eigenvalues --  -10.30380 -10.29301 -10.28145 -10.27769 -10.26928
 Alpha  occ. eigenvalues --  -10.24170 -10.24070  -1.08051  -1.05561  -1.04777
 Alpha  occ. eigenvalues --   -0.96519  -0.82121  -0.78918  -0.75630  -0.71566
 Alpha  occ. eigenvalues --   -0.66807  -0.61900  -0.59891  -0.58771  -0.54223
 Alpha  occ. eigenvalues --   -0.53074  -0.51848  -0.50652  -0.48870  -0.47866
 Alpha  occ. eigenvalues --   -0.45599  -0.45123  -0.43299  -0.41733  -0.41315
 Alpha  occ. eigenvalues --   -0.39813  -0.37943  -0.37541  -0.36197  -0.35521
 Alpha  occ. eigenvalues --   -0.35260  -0.33613  -0.32812  -0.30666  -0.29712
 Alpha  occ. eigenvalues --   -0.29116  -0.24089
 Alpha virt. eigenvalues --    0.00086   0.01448   0.01941   0.02454   0.03448
 Alpha virt. eigenvalues --    0.04323   0.04527   0.04967   0.05151   0.07129
 Alpha virt. eigenvalues --    0.07877   0.08455   0.08682   0.08855   0.09361
 Alpha virt. eigenvalues --    0.10110   0.11301   0.11564   0.12395   0.12651
 Alpha virt. eigenvalues --    0.13145   0.13721   0.14183   0.15091   0.15468
 Alpha virt. eigenvalues --    0.16294   0.16675   0.17003   0.17526   0.18075
 Alpha virt. eigenvalues --    0.18720   0.19626   0.20291   0.20716   0.20957
 Alpha virt. eigenvalues --    0.21067   0.21226   0.22538   0.23054   0.23320
 Alpha virt. eigenvalues --    0.23505   0.23901   0.24237   0.25127   0.25891
 Alpha virt. eigenvalues --    0.26840   0.27305   0.27771   0.28529   0.28636
 Alpha virt. eigenvalues --    0.29611   0.29929   0.30551   0.31543   0.32351
 Alpha virt. eigenvalues --    0.32502   0.33079   0.33531   0.34545   0.35514
 Alpha virt. eigenvalues --    0.35836   0.36114   0.36824   0.37737   0.38499
 Alpha virt. eigenvalues --    0.39644   0.40423   0.41137   0.42174   0.42273
 Alpha virt. eigenvalues --    0.43719   0.44305   0.45467   0.46274   0.47412
 Alpha virt. eigenvalues --    0.49052   0.64830   0.66892   0.68218   0.68802
 Alpha virt. eigenvalues --    0.69933   0.71137   0.72917   0.73838   0.75036
 Alpha virt. eigenvalues --    0.76562   0.78218   0.78816   0.80253   0.81968
 Alpha virt. eigenvalues --    0.82305   0.83326   0.86489   0.87758   0.88742
 Alpha virt. eigenvalues --    0.89122   0.92243   0.94354   0.95404   0.97669
 Alpha virt. eigenvalues --    0.98688   0.99581   1.02750   1.03663   1.04451
 Alpha virt. eigenvalues --    1.06435   1.07064   1.08499   1.09585   1.10203
 Alpha virt. eigenvalues --    1.11432   1.12352   1.12981   1.15300   1.15554
 Alpha virt. eigenvalues --    1.16054   1.18971   1.20951   1.23446   1.24965
 Alpha virt. eigenvalues --    1.26478   1.28438   1.30705   1.32409   1.33623
 Alpha virt. eigenvalues --    1.35227   1.36801   1.37060   1.40361   1.41476
 Alpha virt. eigenvalues --    1.43894   1.44814   1.46904   1.49655   1.51649
 Alpha virt. eigenvalues --    1.53539   1.54317   1.57328   1.60218   1.62423
 Alpha virt. eigenvalues --    1.64773   1.66041   1.68853   1.70707   1.71948
 Alpha virt. eigenvalues --    1.73395   1.76894   1.77477   1.78451   1.79521
 Alpha virt. eigenvalues --    1.81011   1.81747   1.83321   1.86927   1.87770
 Alpha virt. eigenvalues --    1.88913   1.89974   1.90890   1.92463   1.92981
 Alpha virt. eigenvalues --    1.95180   1.99941   2.00784   2.02855   2.04727
 Alpha virt. eigenvalues --    2.05838   2.07035   2.08715   2.09647   2.11505
 Alpha virt. eigenvalues --    2.14935   2.15161   2.16615   2.18142   2.21537
 Alpha virt. eigenvalues --    2.22812   2.23988   2.27229   2.28007   2.30211
 Alpha virt. eigenvalues --    2.31946   2.35272   2.36479   2.38506   2.40128
 Alpha virt. eigenvalues --    2.43797   2.44260   2.46469   2.47195   2.48420
 Alpha virt. eigenvalues --    2.49905   2.51392   2.53066   2.54793   2.55195
 Alpha virt. eigenvalues --    2.56531   2.58477   2.61416   2.62503   2.64083
 Alpha virt. eigenvalues --    2.64482   2.65136   2.66377   2.67365   2.69104
 Alpha virt. eigenvalues --    2.70839   2.72095   2.73991   2.75480   2.77878
 Alpha virt. eigenvalues --    2.80466   2.81189   2.82435   2.83854   2.85639
 Alpha virt. eigenvalues --    2.86761   2.88751   2.89433   2.91307   2.94559
 Alpha virt. eigenvalues --    2.96985   2.99282   3.00463   3.02500   3.04389
 Alpha virt. eigenvalues --    3.06883   3.09237   3.10676   3.18771   3.32802
 Alpha virt. eigenvalues --    3.34184   3.36603   3.39256   3.44378   3.45590
 Alpha virt. eigenvalues --    3.47524   3.48681   3.51078   3.54079   3.56070
 Alpha virt. eigenvalues --    3.56973   3.59208   3.61002   3.62753   4.28942
 Alpha virt. eigenvalues --    4.32518   4.44074   4.50074   4.52135   4.57157
 Alpha virt. eigenvalues --    4.60645   4.70693   4.75256   4.87235   4.91325
 Alpha virt. eigenvalues --    5.00542
          Condensed to atoms (all electrons):
              1          2          3          4          5          6
     1  C    6.168576  -0.719293   0.239480   0.137204  -0.230017  -0.059228
     2  C   -0.719293   8.150899  -0.358646  -0.294552   0.298327  -0.822716
     3  N    0.239480  -0.358646   7.557615   0.209445  -0.314737  -0.130585
     4  C    0.137204  -0.294552   0.209445   5.896048   0.030868  -0.456122
     5  C   -0.230017   0.298327  -0.314737   0.030868   5.758383   0.258793
     6  C   -0.059228  -0.822716  -0.130585  -0.456122   0.258793   9.316076
     7  C   -0.304374   0.950541  -0.325685   0.015528  -0.000678  -1.223168
     8  C    0.104033  -0.958770   0.083861  -0.133521   0.049846   0.383684
     9  H    0.422275  -0.101725   0.011999  -0.001297  -0.042670   0.020194
    10  H    0.469892  -0.118636   0.020248   0.026277  -0.053815   0.000964
    11  H   -0.000510   0.250757  -0.041300  -0.020295   0.002864   0.040719
    12  H    0.009813  -0.021958  -0.030516   0.393323  -0.059874   0.007394
    13  H    0.009335   0.026345  -0.055085   0.370797  -0.020180   0.021905
    14  H   -0.003921   0.005711   0.016768  -0.038294   0.352879   0.002033
    15  H   -0.064484   0.000059   0.005465  -0.067898   0.435138   0.019411
    16  H   -0.012968   0.040000  -0.030250   0.051583  -0.000642   0.184238
    17  H    0.014044   0.015007   0.022873   0.001128  -0.008407  -0.167126
    18  H    0.030123  -0.029488   0.035612   0.016574  -0.010054  -0.023179
    19  O    0.041959  -0.106918   0.012174   0.012500  -0.010730   0.059462
    20  H   -0.015577  -0.037538  -0.001770  -0.002893   0.007667  -0.003184
    21  O    0.113036  -0.024398   0.047907   0.007363  -0.096095  -0.106302
    22  H    0.012534  -0.034451   0.000783   0.006532  -0.004402   0.039551
    23  C    0.112125  -0.143328   0.156883   0.095370  -0.130424  -0.976296
    24  H   -0.000112  -0.011865  -0.008870   0.014786  -0.001398  -0.057194
    25  H    0.001972   0.004194   0.015307   0.001947  -0.001187  -0.157372
    26  O    0.008535  -0.054594   0.045339   0.017153  -0.008391  -0.233868
    27  H    0.004214   0.001509   0.042972   0.013572  -0.002891  -0.060874
              7          8          9         10         11         12
     1  C   -0.304374   0.104033   0.422275   0.469892  -0.000510   0.009813
     2  C    0.950541  -0.958770  -0.101725  -0.118636   0.250757  -0.021958
     3  N   -0.325685   0.083861   0.011999   0.020248  -0.041300  -0.030516
     4  C    0.015528  -0.133521  -0.001297   0.026277  -0.020295   0.393323
     5  C   -0.000678   0.049846  -0.042670  -0.053815   0.002864  -0.059874
     6  C   -1.223168   0.383684   0.020194   0.000964   0.040719   0.007394
     7  C    6.877390  -0.602822  -0.027263  -0.000530  -0.008116  -0.001568
     8  C   -0.602822   6.610532   0.052532  -0.010787   0.063522   0.012872
     9  H   -0.027263   0.052532   0.529688  -0.026601  -0.007783   0.001048
    10  H   -0.000530  -0.010787  -0.026601   0.511077   0.003948  -0.000043
    11  H   -0.008116   0.063522  -0.007783   0.003948   0.552423   0.001591
    12  H   -0.001568   0.012872   0.001048  -0.000043   0.001591   0.537201
    13  H    0.004851  -0.003743  -0.000128  -0.000127  -0.000122  -0.024677
    14  H    0.004182  -0.001937  -0.006007   0.001636   0.000014  -0.003374
    15  H   -0.009357   0.013043   0.003789  -0.007208  -0.000141   0.003917
    16  H    0.072142  -0.017458   0.000002  -0.000063  -0.000277   0.000013
    17  H    0.353692   0.020673   0.000006  -0.000067  -0.000143   0.000004
    18  H   -0.004233   0.286325  -0.000098   0.000096  -0.007475   0.000007
    19  O   -0.184927   0.242791  -0.001872   0.004905  -0.006913  -0.000094
    20  H    0.022083   0.043079  -0.000011  -0.000092   0.001741   0.000001
    21  O    0.290491  -0.090226   0.000905  -0.001431  -0.000404   0.000142
    22  H   -0.010014  -0.035513  -0.000009  -0.000101  -0.000034  -0.000001
    23  C   -0.006166   0.101361   0.001938  -0.001712   0.000601   0.007690
    24  H    0.013479   0.006313   0.000000   0.000000  -0.000001  -0.000056
    25  H   -0.007733   0.000131   0.000000   0.000000  -0.000001   0.000002
    26  O    0.083830   0.024022  -0.000006   0.000016   0.000465   0.000339
    27  H   -0.031542  -0.000496   0.000000  -0.000001  -0.000279  -0.000027
             13         14         15         16         17         18
     1  C    0.009335  -0.003921  -0.064484  -0.012968   0.014044   0.030123
     2  C    0.026345   0.005711   0.000059   0.040000   0.015007  -0.029488
     3  N   -0.055085   0.016768   0.005465  -0.030250   0.022873   0.035612
     4  C    0.370797  -0.038294  -0.067898   0.051583   0.001128   0.016574
     5  C   -0.020180   0.352879   0.435138  -0.000642  -0.008407  -0.010054
     6  C    0.021905   0.002033   0.019411   0.184238  -0.167126  -0.023179
     7  C    0.004851   0.004182  -0.009357   0.072142   0.353692  -0.004233
     8  C   -0.003743  -0.001937   0.013043  -0.017458   0.020673   0.286325
     9  H   -0.000128  -0.006007   0.003789   0.000002   0.000006  -0.000098
    10  H   -0.000127   0.001636  -0.007208  -0.000063  -0.000067   0.000096
    11  H   -0.000122   0.000014  -0.000141  -0.000277  -0.000143  -0.007475
    12  H   -0.024677  -0.003374   0.003917   0.000013   0.000004   0.000007
    13  H    0.525430   0.001374  -0.005352   0.000153  -0.000008   0.000008
    14  H    0.001374   0.525541  -0.025398  -0.000191   0.000000   0.000002
    15  H   -0.005352  -0.025398   0.511846   0.001047   0.000022   0.000004
    16  H    0.000153  -0.000191   0.001047   0.542023   0.000798  -0.000122
    17  H   -0.000008   0.000000   0.000022   0.000798   0.572085  -0.003560
    18  H    0.000008   0.000002   0.000004  -0.000122  -0.003560   0.561702
    19  O    0.000059   0.000101  -0.000256  -0.000688   0.001547  -0.030184
    20  H    0.000000  -0.000001   0.000004   0.000006  -0.000173  -0.004880
    21  O    0.000204   0.000399  -0.001513  -0.010601  -0.049295   0.005529
    22  H   -0.000002  -0.000009  -0.000065   0.000489  -0.000713   0.000620
    23  C   -0.019539  -0.000270   0.008062  -0.006403   0.062416  -0.003605
    24  H    0.000449   0.000000  -0.000003  -0.001565   0.000104  -0.000018
    25  H   -0.000041   0.000000   0.000000   0.000944   0.001276   0.000052
    26  O    0.000037   0.000006   0.000026   0.009547   0.000741   0.000904
    27  H   -0.000019   0.000000   0.000001   0.000239   0.000095  -0.000915
             19         20         21         22         23         24
     1  C    0.041959  -0.015577   0.113036   0.012534   0.112125  -0.000112
     2  C   -0.106918  -0.037538  -0.024398  -0.034451  -0.143328  -0.011865
     3  N    0.012174  -0.001770   0.047907   0.000783   0.156883  -0.008870
     4  C    0.012500  -0.002893   0.007363   0.006532   0.095370   0.014786
     5  C   -0.010730   0.007667  -0.096095  -0.004402  -0.130424  -0.001398
     6  C    0.059462  -0.003184  -0.106302   0.039551  -0.976296  -0.057194
     7  C   -0.184927   0.022083   0.290491  -0.010014  -0.006166   0.013479
     8  C    0.242791   0.043079  -0.090226  -0.035513   0.101361   0.006313
     9  H   -0.001872  -0.000011   0.000905  -0.000009   0.001938   0.000000
    10  H    0.004905  -0.000092  -0.001431  -0.000101  -0.001712   0.000000
    11  H   -0.006913   0.001741  -0.000404  -0.000034   0.000601  -0.000001
    12  H   -0.000094   0.000001   0.000142  -0.000001   0.007690  -0.000056
    13  H    0.000059   0.000000   0.000204  -0.000002  -0.019539   0.000449
    14  H    0.000101  -0.000001   0.000399  -0.000009  -0.000270   0.000000
    15  H   -0.000256   0.000004  -0.001513  -0.000065   0.008062  -0.000003
    16  H   -0.000688   0.000006  -0.010601   0.000489  -0.006403  -0.001565
    17  H    0.001547  -0.000173  -0.049295  -0.000713   0.062416   0.000104
    18  H   -0.030184  -0.004880   0.005529   0.000620  -0.003605  -0.000018
    19  O    8.302723   0.238160  -0.012040   0.026274   0.003307  -0.000016
    20  H    0.238160   0.359095  -0.000096  -0.000841  -0.001328   0.000000
    21  O   -0.012040  -0.000096   8.214662   0.250841   0.010538  -0.000362
    22  H    0.026274  -0.000841   0.250841   0.363998  -0.000674   0.000005
    23  C    0.003307  -0.001328   0.010538  -0.000674   5.890441   0.405349
    24  H   -0.000016   0.000000  -0.000362   0.000005   0.405349   0.578150
    25  H    0.000019   0.000000   0.000088  -0.000016   0.520675  -0.036690
    26  O   -0.001497   0.000053  -0.001856   0.000149   0.227762  -0.050503
    27  H    0.000234  -0.000004  -0.000129   0.000000   0.040430  -0.004956
             25         26         27
     1  C    0.001972   0.008535   0.004214
     2  C    0.004194  -0.054594   0.001509
     3  N    0.015307   0.045339   0.042972
     4  C    0.001947   0.017153   0.013572
     5  C   -0.001187  -0.008391  -0.002891
     6  C   -0.157372  -0.233868  -0.060874
     7  C   -0.007733   0.083830  -0.031542
     8  C    0.000131   0.024022  -0.000496
     9  H    0.000000  -0.000006   0.000000
    10  H    0.000000   0.000016  -0.000001
    11  H   -0.000001   0.000465  -0.000279
    12  H    0.000002   0.000339  -0.000027
    13  H   -0.000041   0.000037  -0.000019
    14  H    0.000000   0.000006   0.000000
    15  H    0.000000   0.000026   0.000001
    16  H    0.000944   0.009547   0.000239
    17  H    0.001276   0.000741   0.000095
    18  H    0.000052   0.000904  -0.000915
    19  O    0.000019  -0.001497   0.000234
    20  H    0.000000   0.000053  -0.000004
    21  O    0.000088  -0.001856  -0.000129
    22  H   -0.000016   0.000149   0.000000
    23  C    0.520675   0.227762   0.040430
    24  H   -0.036690  -0.050503  -0.004956
    25  H    0.538578  -0.054910   0.006525
    26  O   -0.054910   8.282587   0.249375
    27  H    0.006525   0.249375   0.358685
 Mulliken atomic charges:
              1
     1  C   -0.488666
     2  C    0.095527
     3  N   -0.227285
     4  C   -0.303126
     5  C   -0.198172
     6  C    0.122785
     7  C    0.059967
     8  C   -0.243345
     9  H    0.171096
    10  H    0.182154
    11  H    0.175151
    12  H    0.166833
    13  H    0.168079
    14  H    0.168756
    15  H    0.179841
    16  H    0.178004
    17  H    0.162980
    18  H    0.180252
    19  O   -0.590077
    20  H    0.396500
    21  O   -0.547357
    22  H    0.385067
    23  C   -0.355203
    24  H    0.154974
    25  H    0.166240
    26  O   -0.545262
    27  H    0.384284
 Sum of Mulliken atomic charges =   0.00000
 Mulliken charges with hydrogens summed into heavy atoms:
              1
     1  C   -0.135417
     2  C    0.270679
     3  N   -0.227285
     4  C    0.031787
     5  C    0.150426
     6  C    0.300790
     7  C    0.222947
     8  C   -0.063092
    19  O   -0.193577
    21  O   -0.162291
    23  C   -0.033989
    26  O   -0.160978
 Sum of Mulliken charges with hydrogens summed into heavy atoms =   0.00000
 Electronic spatial extent (au):  <R**2>=           1883.3334
 Charge=              0.0000 electrons
 Dipole moment (field-independent basis, Debye):
    X=              3.1273    Y=             -1.1764    Z=             -2.0542  Tot=              3.9222
 Quadrupole moment (field-independent basis, Debye-Ang):
   XX=            -78.6364   YY=            -71.5647   ZZ=            -72.2822
   XY=              2.7371   XZ=             -8.0982   YZ=             -5.0269
 Traceless Quadrupole moment (field-independent basis, Debye-Ang):
   XX=             -4.4753   YY=              2.5964   ZZ=              1.8789
   XY=              2.7371   XZ=             -8.0982   YZ=             -5.0269
 Octapole moment (field-independent basis, Debye-Ang**2):
  XXX=             39.2738  YYY=              1.3704  ZZZ=            -24.2685  XYY=              6.0665
  XXY=              3.3446  XXZ=             11.0393  XZZ=              1.6345  YZZ=              7.2272
  YYZ=             -2.7783  XYZ=             -3.7497
 Hexadecapole moment (field-independent basis, Debye-Ang**3):
 XXXX=          -1286.4010 YYYY=           -873.8234 ZZZZ=           -418.0631 XXXY=             34.4995
 XXXZ=            -61.7451 YYYX=             21.8728 YYYZ=             -8.8789 ZZZX=             -0.2884
 ZZZY=            -24.9525 XXYY=           -310.4937 XXZZ=           -245.8624 YYZZ=           -191.7570
 XXYZ=             -0.4870 YYXZ=            -12.8460 ZZXY=             21.5332
 N-N= 8.209017475204D+02 E-N=-3.027662208246D+03  KE= 5.886649669119D+02
 1\1\GINC-COMPUTE-3-1\SP\RmPW1PW91\6-31+G(d,p)\C8H15N1O3\MAMICHETTI.IQU
 IR\17-May-2024\0\\# mpw1pw91/6-31+G** nmr scrf=(pcm,solvent=water)\\co
 mment\\0,1\C,0,2.166407,-0.34515,-0.416532\C,0,0.763523,-0.034146,-1.0
 23502\N,0,-0.191152,-1.047161,-0.486991\C,0,0.649598,-2.184335,-0.0593
 66\C,0,1.938966,-1.563859,0.501989\C,0,-0.969531,-0.425064,0.634034\C,
 0,-0.547063,1.052167,0.706904\C,0,0.111594,1.312294,-0.654158\H,0,2.86
 6985,-0.590997,-1.221494\H,0,2.579953,0.510955,0.121707\H,0,0.815795,-
 0.128426,-2.113514\H,0,0.879793,-2.804433,-0.935548\H,0,0.106037,-2.81
 1173,0.653415\H,0,2.780187,-2.264543,0.499289\H,0,1.775716,-1.238844,1
 .535263\H,0,-0.727439,-0.899178,1.593603\H,0,-1.402205,1.719469,0.8750
 07\H,0,-0.678166,1.529979,-1.38419\O,0,0.991653,2.427076,-0.539473\H,0
 ,1.508416,2.489876,-1.360122\O,0,0.402127,1.218246,1.76827\H,0,0.9642,
 1.969137,1.503305\C,0,-2.465701,-0.619399,0.389588\H,0,-2.69658,-1.694
 929,0.401294\H,0,-3.046321,-0.140253,1.184621\O,0,-2.892835,-0.030914,
 -0.841871\H,0,-2.28263,-0.386819,-1.512856\\Version=AM64L-G09RevC.01\S
 tate=1-A\HF=-594.1967259\RMSD=3.665e-09\Dipole=1.2303728,-0.4628132,-0
 .8081974\Quadrupole=-3.3272597,1.9303499,1.3969098,2.0349573,-6.020801
 3,-3.7374127\PG=C01 [X(C8H15N1O3)]\\@


0EVERYBODY IS IGNORANT, ONLY ON DIFFERENT SUBJECTS.
0          WILL ROGERS
 Job cpu time:  0 days  0 hours  9 minutes 14.5 seconds.
 File lengths (MBytes):  RWF=    111 Int=      0 D2E=      0 Chk=      7 Scr=      1
 Normal termination of Gaussian 09 at Fri May 17 12:34:58 2024.
