 Entering Gaussian System, Link 0=g09
 Input=/home/mamichetti.iquir/Linux/01_Cardona_A1A3_R__S_R_R_027_OptB.gjc
 Output=/home/mamichetti.iquir/Linux/01_Cardona_A1A3_R__S_R_R_027_OptB.log
 Initial command:
 /opt/ohpc/pub/apps/software/Gaussian/09/AMD64.SSE4a-enabled/g09/l1.exe /local/mamichetti.iquir/Gau-405214.inp -scrdir=/local/mamichetti.iquir/
 Entering Link 1 = /opt/ohpc/pub/apps/software/Gaussian/09/AMD64.SSE4a-enabled/g09/l1.exe PID=    405215.
  
 Copyright (c) 1988,1990,1992,1993,1995,1998,2003,2009,2011,
            Gaussian, Inc.  All Rights Reserved.
  
 This is part of the Gaussian(R) 09 program.  It is based on
 the Gaussian(R) 03 system (copyright 2003, Gaussian, Inc.),
 the Gaussian(R) 98 system (copyright 1998, Gaussian, Inc.),
 the Gaussian(R) 94 system (copyright 1995, Gaussian, Inc.),
 the Gaussian 92(TM) system (copyright 1992, Gaussian, Inc.),
 the Gaussian 90(TM) system (copyright 1990, Gaussian, Inc.),
 the Gaussian 88(TM) system (copyright 1988, Gaussian, Inc.),
 the Gaussian 86(TM) system (copyright 1986, Carnegie Mellon
 University), and the Gaussian 82(TM) system (copyright 1983,
 Carnegie Mellon University). Gaussian is a federally registered
 trademark of Gaussian, Inc.
  
 This software contains proprietary and confidential information,
 including trade secrets, belonging to Gaussian, Inc.
  
 This software is provided under written license and may be
 used, copied, transmitted, or stored only in accord with that
 written license.
  
 The following legend is applicable only to US Government
 contracts under FAR:
  
                    RESTRICTED RIGHTS LEGEND
  
 Use, reproduction and disclosure by the US Government is
 subject to restrictions as set forth in subparagraphs (a)
 and (c) of the Commercial Computer Software - Restricted
 Rights clause in FAR 52.227-19.
  
 Gaussian, Inc.
 340 Quinnipiac St., Bldg. 40, Wallingford CT 06492
  
  
 ---------------------------------------------------------------
 Warning -- This program may not be used in any manner that
 competes with the business of Gaussian, Inc. or will provide
 assistance to any competitor of Gaussian, Inc.  The licensee
 of this program is prohibited from giving any competitor of
 Gaussian, Inc. access to this program.  By using this program,
 the user acknowledges that Gaussian, Inc. is engaged in the
 business of creating and licensing software in the field of
 computational chemistry and represents and warrants to the
 licensee that it is not a competitor of Gaussian, Inc. and that
 it will not use this program in any manner prohibited above.
 ---------------------------------------------------------------
  

 Cite this work as:
 Gaussian 09, Revision C.01,
 M. J. Frisch, G. W. Trucks, H. B. Schlegel, G. E. Scuseria, 
 M. A. Robb, J. R. Cheeseman, G. Scalmani, V. Barone, B. Mennucci, 
 G. A. Petersson, H. Nakatsuji, M. Caricato, X. Li, H. P. Hratchian, 
 A. F. Izmaylov, J. Bloino, G. Zheng, J. L. Sonnenberg, M. Hada, 
 M. Ehara, K. Toyota, R. Fukuda, J. Hasegawa, M. Ishida, T. Nakajima, 
 Y. Honda, O. Kitao, H. Nakai, T. Vreven, J. A. Montgomery, Jr., 
 J. E. Peralta, F. Ogliaro, M. Bearpark, J. J. Heyd, E. Brothers, 
 K. N. Kudin, V. N. Staroverov, T. Keith, R. Kobayashi, J. Normand, 
 K. Raghavachari, A. Rendell, J. C. Burant, S. S. Iyengar, J. Tomasi, 
 M. Cossi, N. Rega, J. M. Millam, M. Klene, J. E. Knox, J. B. Cross, 
 V. Bakken, C. Adamo, J. Jaramillo, R. Gomperts, R. E. Stratmann, 
 O. Yazyev, A. J. Austin, R. Cammi, C. Pomelli, J. W. Ochterski, 
 R. L. Martin, K. Morokuma, V. G. Zakrzewski, G. A. Voth, 
 P. Salvador, J. J. Dannenberg, S. Dapprich, A. D. Daniels, 
 O. Farkas, J. B. Foresman, J. V. Ortiz, J. Cioslowski, 
 and D. J. Fox, Gaussian, Inc., Wallingford CT, 2010.
 
 ******************************************
 Gaussian 09:  AM64L-G09RevC.01 23-Sep-2011
                17-May-2024 
 ******************************************
 %nprocshared=4
 Will use up to    4 processors via shared memory.
 ------------------------------------------------
 # mpw1pw91/6-31+G** nmr scrf=(pcm,solvent=water)
 ------------------------------------------------
 1/38=1/1;
 2/12=2,17=6,18=5,40=1/2;
 3/5=1,6=6,7=111,11=2,16=1,25=1,30=1,70=2201,72=1,74=-7/1,2,8,3;
 4//1;
 5/5=2,38=5,53=1/2;
 8/6=1,10=90,11=11/1;
 10/13=100,45=16/2;
 6/7=2,8=2,9=2,10=2,28=1/1;
 99/9=1/99;
 -------
 comment
 -------
 Charge =  0 Multiplicity = 1
 Symbolic Z-Matrix:
 6                     2.14928  -0.00708  -0.6009 
 6                     0.64964  -0.04342  -0.94145 
 7                     0.04593  -1.09659  -0.05392 
 6                     1.14283  -1.70066   0.74275 
 6                     2.40646  -1.42616  -0.07343 
 6                    -1.04659  -0.48345   0.74344 
 6                    -0.82029   1.0365    0.68217 
 6                    -0.16688   1.2573   -0.69213 
 1                     2.76531   0.25561  -1.46627 
 1                     2.35308   0.72354   0.189 
 1                     0.52909  -0.34359  -1.98955 
 1                     0.96479  -2.77016   0.90667 
 1                     1.22639  -1.22649   1.73186 
 1                     2.4855   -2.13582  -0.9062 
 1                     3.31658  -1.50809   0.52907 
 1                    -0.98314  -0.81759   1.78593 
 1                    -1.74578   1.61134   0.80349 
 1                    -0.95626   1.33421  -1.44272 
 8                     0.58073   2.46652  -0.76604 
 1                     0.96599   2.588     0.12102 
 8                     0.14862   1.46728   1.65306 
 1                    -0.28435   1.4649    2.52236 
 6                    -2.41454  -0.92983   0.21619 
 1                    -2.55373  -1.99625   0.44395 
 1                    -3.21569  -0.37212   0.71238 
 8                    -2.5736   -0.70527  -1.18859 
 1                    -1.83473  -1.17878  -1.61069 
 
                          Input orientation:                          
 ---------------------------------------------------------------------
 Center     Atomic      Atomic             Coordinates (Angstroms)
 Number     Number       Type             X           Y           Z
 ---------------------------------------------------------------------
      1          6           0        2.149277   -0.007081   -0.600901
      2          6           0        0.649641   -0.043421   -0.941452
      3          7           0        0.045929   -1.096588   -0.053923
      4          6           0        1.142832   -1.700660    0.742745
      5          6           0        2.406462   -1.426164   -0.073434
      6          6           0       -1.046591   -0.483451    0.743435
      7          6           0       -0.820287    1.036503    0.682169
      8          6           0       -0.166884    1.257303   -0.692130
      9          1           0        2.765308    0.255608   -1.466265
     10          1           0        2.353076    0.723535    0.189000
     11          1           0        0.529087   -0.343593   -1.989549
     12          1           0        0.964788   -2.770164    0.906665
     13          1           0        1.226389   -1.226488    1.731862
     14          1           0        2.485501   -2.135822   -0.906195
     15          1           0        3.316579   -1.508092    0.529070
     16          1           0       -0.983138   -0.817588    1.785931
     17          1           0       -1.745776    1.611339    0.803490
     18          1           0       -0.956260    1.334205   -1.442724
     19          8           0        0.580729    2.466523   -0.766035
     20          1           0        0.965989    2.587997    0.121015
     21          8           0        0.148617    1.467282    1.653058
     22          1           0       -0.284348    1.464898    2.522361
     23          6           0       -2.414535   -0.929833    0.216188
     24          1           0       -2.553726   -1.996247    0.443946
     25          1           0       -3.215691   -0.372116    0.712375
     26          8           0       -2.573602   -0.705273   -1.188592
     27          1           0       -1.834727   -1.178780   -1.610692
 ---------------------------------------------------------------------
                    Distance matrix (angstroms):
                    1          2          3          4          5
     1  C    0.000000
     2  C    1.538247   0.000000
     3  N    2.431107   1.503774   0.000000
     4  C    2.384644   2.413752   1.484176   0.000000
     5  C    1.535631   2.398302   2.383509   1.529136   0.000000
     6  C    3.499677   2.430982   1.485031   2.505029   3.671452
     7  C    3.399066   2.441940   2.417072   3.368912   4.128871
     8  C    2.640377   1.555878   2.448142   3.538894   3.769070
     9  H    1.094237   2.200203   3.349353   3.367364   2.212941
    10  H    1.095115   2.183537   2.948692   2.765510   2.166317
    11  H    2.160231   1.096879   2.132391   3.111872   2.892748
    12  H    3.363093   3.309076   2.137262   1.096544   2.201216
    13  H    2.789347   2.979747   2.144618   1.100079   2.165995
    14  H    2.176646   2.783840   2.785298   2.170514   1.096974
    15  H    2.211891   3.379387   3.347591   2.192696   1.094548
    16  H    4.020686   3.271685   2.126472   2.527410   3.913693
    17  H    4.445564   3.394271   3.358308   4.395120   5.218860
    18  H    3.485983   2.174407   2.973534   4.288691   4.560975
    19  O    2.933655   2.517010   3.672720   4.467414   4.354998
    20  H    2.942068   2.855394   3.801747   4.337096   4.269223
    21  O    3.355103   3.043802   3.081843   3.442817   4.055942
    22  H    4.224218   3.891704   3.647949   3.901876   4.726188
    23  C    4.727313   3.393380   2.480857   3.677811   4.855125
    24  H    5.212171   3.999302   2.795615   3.720375   5.019576
    25  H    5.535416   4.217105   3.427862   4.556608   5.773830
    26  O    4.810243   3.299761   2.881414   4.304967   5.154057
    27  H    4.273739   2.812296   2.442776   3.831042   4.517969
                    6          7          8          9         10
     6  C    0.000000
     7  C    1.537930   0.000000
     8  C    2.421767   1.537656   0.000000
     9  H    4.467612   4.252300   3.193811   0.000000
    10  H    3.649925   3.226670   2.722406   1.768839   0.000000
    11  H    3.157772   3.295990   2.174980   2.373511   3.035090
    12  H    3.049811   4.210416   4.478540   4.245935   3.827312
    13  H    2.587572   3.226742   3.739808   3.846153   2.729915
    14  H    4.234062   4.849204   4.312107   2.472025   3.064786
    15  H    4.486992   4.859225   4.612294   2.719540   2.454413
    16  H    1.096573   2.163900   3.333501   5.077339   4.006941
    17  H    2.209211   1.096214   2.203434   5.228735   4.238677
    18  H    2.844525   2.149950   1.091980   3.874790   3.739939
    19  O    3.691750   2.470850   1.423587   3.186040   2.662952
    20  H    3.724470   2.431627   1.927525   3.346199   2.324834
    21  O    2.461970   1.437696   2.375613   4.247988   2.748866
    22  H    2.746208   1.963940   3.223328   5.164487   3.598638
    23  C    1.532487   2.573955   3.265048   5.573750   5.046234
    24  H    2.156317   3.501305   4.192049   6.083739   5.615952
    25  H    2.172177   2.779043   3.731336   6.396316   5.699609
    26  O    2.472589   3.099620   3.144912   5.431791   5.311441
    27  H    2.578091   3.345711   3.091918   4.820648   4.939169
                   11         12         13         14         15
    11  H    0.000000
    12  H    3.803438   0.000000
    13  H    3.887754   1.769836   0.000000
    14  H    2.865885   2.449779   3.061306   0.000000
    15  H    3.933143   2.695612   2.427942   1.773336   0.000000
    16  H    4.094599   2.894836   2.247695   4.584402   4.532556
    17  H    4.098515   5.153190   4.212945   5.904908   5.952612
    18  H    2.306573   5.104498   4.625916   4.916774   5.497616
    19  O    3.065356   5.510746   4.504964   4.982909   4.995972
    20  H    3.638624   5.415454   4.148847   5.067400   4.740224
    21  O    4.085659   4.379405   2.902447   4.999316   4.489118
    22  H    4.928453   4.701762   3.186028   5.691418   5.077258
    23  C    3.724764   3.909399   3.954946   5.169575   5.768704
    24  H    4.261091   3.632217   4.067005   5.218828   5.891182
    25  H    4.617853   4.823359   4.636958   6.183366   6.632842
    26  O    3.224752   4.601530   4.820856   5.265049   6.187820
    27  H    2.535485   4.087404   4.532701   4.480694   5.587753
                   16         17         18         19         20
    16  H    0.000000
    17  H    2.728826   0.000000
    18  H    3.880096   2.397001   0.000000
    19  O    4.443377   2.933833   2.025435   0.000000
    20  H    4.262517   2.961976   2.777106   0.974699   0.000000
    21  O    2.553264   2.081164   3.289731   2.652775   2.066701
    22  H    2.498075   2.260914   4.023735   3.544737   2.931067
    23  C    2.127343   2.692530   3.162977   4.633746   4.879767
    24  H    2.378425   3.714395   4.147690   5.586160   5.788607
    25  H    2.516994   2.470434   3.558232   4.965518   5.157366
    26  O    3.374904   3.165498   2.615310   4.493178   5.008932
    27  H    3.520328   3.690657   2.667398   4.453774   5.003142
                   21         22         23         24         25
    21  O    0.000000
    22  H    0.971160   0.000000
    23  C    3.792163   3.948527   0.000000
    24  H    4.556385   4.631351   1.099312   0.000000
    25  H    3.948017   3.904285   1.095035   1.774275   0.000000
    26  O    4.495047   4.870472   1.431480   2.081391   2.033949
    27  H    4.646220   5.145370   1.932781   2.325242   2.820356
                   26         27
    26  O    0.000000
    27  H    0.973814   0.000000
 Stoichiometry    C8H15NO3
 Framework group  C1[X(C8H15NO3)]
 Deg. of freedom    75
 Full point group                 C1      NOp   1
 Largest Abelian subgroup         C1      NOp   1
 Largest concise Abelian subgroup C1      NOp   1
                         Standard orientation:                         
 ---------------------------------------------------------------------
 Center     Atomic      Atomic             Coordinates (Angstroms)
 Number     Number       Type             X           Y           Z
 ---------------------------------------------------------------------
      1          6           0        2.149277   -0.007081   -0.600901
      2          6           0        0.649641   -0.043421   -0.941452
      3          7           0        0.045929   -1.096588   -0.053923
      4          6           0        1.142832   -1.700660    0.742745
      5          6           0        2.406462   -1.426164   -0.073434
      6          6           0       -1.046591   -0.483451    0.743435
      7          6           0       -0.820287    1.036503    0.682169
      8          6           0       -0.166884    1.257303   -0.692130
      9          1           0        2.765308    0.255608   -1.466265
     10          1           0        2.353076    0.723535    0.189000
     11          1           0        0.529087   -0.343593   -1.989549
     12          1           0        0.964788   -2.770164    0.906665
     13          1           0        1.226389   -1.226488    1.731862
     14          1           0        2.485501   -2.135822   -0.906195
     15          1           0        3.316579   -1.508092    0.529070
     16          1           0       -0.983138   -0.817588    1.785931
     17          1           0       -1.745776    1.611339    0.803490
     18          1           0       -0.956260    1.334205   -1.442724
     19          8           0        0.580729    2.466523   -0.766035
     20          1           0        0.965989    2.587997    0.121015
     21          8           0        0.148617    1.467282    1.653058
     22          1           0       -0.284348    1.464898    2.522361
     23          6           0       -2.414535   -0.929833    0.216188
     24          1           0       -2.553726   -1.996247    0.443946
     25          1           0       -3.215691   -0.372116    0.712375
     26          8           0       -2.573602   -0.705273   -1.188592
     27          1           0       -1.834727   -1.178780   -1.610692
 ---------------------------------------------------------------------
 Rotational constants (GHZ):      1.1500350      0.9163299      0.7161792
 Standard basis: 6-31+G(d,p) (6D, 7F)
 There are   303 symmetry adapted basis functions of A   symmetry.
 Integral buffers will be    131072 words long.
 Raffenetti 2 integral format.
 Two-electron integral symmetry is turned on.
   303 basis functions,   489 primitive gaussians,   303 cartesian basis functions
    47 alpha electrons       47 beta electrons
       nuclear repulsion energy       819.2265062182 Hartrees.
 NAtoms=   27 NActive=   27 NUniq=   27 SFac= 1.00D+00 NAtFMM=   60 NAOKFM=F Big=F
 ------------------------------------------------------------------------------
 Polarizable Continuum Model (PCM)
 =================================
 Model                : PCM.
 Atomic radii         : UFF (Universal Force Field).
 Polarization charges : Total charges.
 Charge compensation  : None.
 Solution method      : Matrix inversion.
 Cavity type          : Scaled VdW (van der Waals Surface) (Alpha=1.100).
 Cavity algorithm     : GePol (No added spheres)
                        Default sphere list used, NSphG=   27.
                        Lebedev-Laikov grids with approx.  5.0 points / Ang**2.
                        Smoothing algorithm: Karplus/York (Gamma=1.0000).
                        Polarization charges: spherical gaussians, with
                                              point-specific exponents (IZeta= 3).
                        Self-potential: point-specific (ISelfS= 7).
                        Self-field    : sphere-specific E.n sum rule (ISelfD= 2).
 Solvent              : Water, Eps=  78.355300 Eps(inf)=   1.777849
 ------------------------------------------------------------------------------
 One-electron integrals computed using PRISM.
 NBasis=   303 RedAO= T  NBF=   303
 NBsUse=   303 1.00D-06 NBFU=   303
 Harris functional with IExCor=  908 diagonalized for initial guess.
 ExpMin= 4.38D-02 ExpMax= 5.48D+03 ExpMxC= 8.25D+02 IAcc=2 IRadAn=         4 AccDes= 0.00D+00
 HarFok:  IExCor=  908 AccDes= 0.00D+00 IRadAn=         4 IDoV= 1
 ScaDFX=  1.000000  1.000000  1.000000  1.000000
 FoFCou: FMM=F IPFlag=           0 FMFlag=      100000 FMFlg1=           0
         NFxFlg=           0 DoJE=T BraDBF=F KetDBF=T FulRan=T
         Omega=  0.000000  0.000000  1.000000  0.000000  0.000000 ICntrl=     500 IOpCl=  0
         NMat0=    1 NMatS0=    1 NMatT0=    0 NMatD0=    1 NMtDS0=    0 NMtDT0=    0
         I1Cent=           4 NGrid=           0.
 Petite list used in FoFCou.
 Initial guess orbital symmetries:
       Occupied  (A) (A) (A) (A) (A) (A) (A) (A) (A) (A) (A) (A)
                 (A) (A) (A) (A) (A) (A) (A) (A) (A) (A) (A) (A)
                 (A) (A) (A) (A) (A) (A) (A) (A) (A) (A) (A) (A)
                 (A) (A) (A) (A) (A) (A) (A) (A) (A) (A) (A)
       Virtual   (A) (A) (A) (A) (A) (A) (A) (A) (A) (A) (A) (A)
                 (A) (A) (A) (A) (A) (A) (A) (A) (A) (A) (A) (A)
                 (A) (A) (A) (A) (A) (A) (A) (A) (A) (A) (A) (A)
                 (A) (A) (A) (A) (A) (A) (A) (A) (A) (A) (A) (A)
                 (A) (A) (A) (A) (A) (A) (A) (A) (A) (A) (A) (A)
                 (A) (A) (A) (A) (A) (A) (A) (A) (A) (A) (A) (A)
                 (A) (A) (A) (A) (A) (A) (A) (A) (A) (A) (A) (A)
                 (A) (A) (A) (A) (A) (A) (A) (A) (A) (A) (A) (A)
                 (A) (A) (A) (A) (A) (A) (A) (A) (A) (A) (A) (A)
                 (A) (A) (A) (A) (A) (A) (A) (A) (A) (A) (A) (A)
                 (A) (A) (A) (A) (A) (A) (A) (A) (A) (A) (A) (A)
                 (A) (A) (A) (A) (A) (A) (A) (A) (A) (A) (A) (A)
                 (A) (A) (A) (A) (A) (A) (A) (A) (A) (A) (A) (A)
                 (A) (A) (A) (A) (A) (A) (A) (A) (A) (A) (A) (A)
                 (A) (A) (A) (A) (A) (A) (A) (A) (A) (A) (A) (A)
                 (A) (A) (A) (A) (A) (A) (A) (A) (A) (A) (A) (A)
                 (A) (A) (A) (A) (A) (A) (A) (A) (A) (A) (A) (A)
                 (A) (A) (A) (A) (A) (A) (A) (A) (A) (A) (A) (A)
                 (A) (A) (A) (A) (A) (A) (A) (A) (A) (A) (A) (A)
                 (A) (A) (A) (A) (A) (A) (A) (A) (A) (A) (A) (A)
                 (A) (A) (A) (A) (A) (A) (A) (A) (A) (A) (A) (A)
                 (A) (A) (A) (A)
 The electronic state of the initial guess is 1-A.
 Requested convergence on RMS density matrix=1.00D-08 within 128 cycles.
 Requested convergence on MAX density matrix=1.00D-06.
 Requested convergence on             energy=1.00D-06.
 No special actions if energy rises.
 Error on total polarization charges =  0.01410
 SCF Done:  E(RmPW1PW91) =  -594.196291347     A.U. after   13 cycles
             Convg  =    0.3750D-08             -V/T =  2.0094
 Range of M.O.s used for correlation:     1   303
 NBasis=   303 NAE=    47 NBE=    47 NFC=     0 NFV=     0
 NROrb=    303 NOA=    47 NOB=    47 NVA=   256 NVB=   256

 **** Warning!!: The largest alpha MO coefficient is  0.72921282D+02

 NEqPCM:  Using equilibrium solvation (IEInf=0, Eps=  78.3553, EpsInf=   1.7778)
          Differentiating once with respect to magnetic field using GIAOs.
          Electric field/nuclear overlap derivatives assumed to be zero.
 FoFCou: FMM=F IPFlag=           0 FMFlag=    10101102 FMFlg1=           0
         NFxFlg=    40000000 DoJE=F BraDBF=F KetDBF=T FulRan=T
         Omega=  0.000000  0.000000  1.000000  0.000000  0.000000 ICntrl=    6100 IOpCl=  0
         NMat0=    1 NMatS0=    1 NMatT0=    0 NMatD0=    1 NMtDS0=    0 NMtDT0=    0
         I1Cent=           7 NGrid=        1792.
 Symmetry not used in FoFCou.
          There are     3 degrees of freedom in the 1st order CPHF.  IDoFFX=0.
      3 vectors produced by pass  0 Test12= 4.01D-13 3.33D-08 XBig12= 2.69D+01 8.77D-01.
 AX will form     3 AO Fock derivatives at one time.
      3 vectors produced by pass  1 Test12= 4.01D-13 3.33D-08 XBig12= 6.49D-02 4.54D-02.
      3 vectors produced by pass  2 Test12= 4.01D-13 3.33D-08 XBig12= 1.49D-04 2.91D-03.
      3 vectors produced by pass  3 Test12= 4.01D-13 3.33D-08 XBig12= 5.22D-07 1.54D-04.
      3 vectors produced by pass  4 Test12= 4.01D-13 3.33D-08 XBig12= 1.73D-09 6.02D-06.
      3 vectors produced by pass  5 Test12= 4.01D-13 3.33D-08 XBig12= 6.12D-12 5.38D-07.
 Inverted reduced A of dimension    18 with in-core refinement.
 Calculating GIAO nuclear magnetic shielding tensors.
 SCF GIAO Magnetic shielding tensor (ppm):
      1  C    Isotropic =   165.9294   Anisotropy =    18.6081
   XX=   174.4367   YX=    -5.5673   ZX=     1.2362
   XY=     1.5800   YY=   168.6193   ZY=   -16.8849
   XZ=     1.2324   YZ=   -10.2672   ZZ=   154.7322
   Eigenvalues:   146.4270   173.0263   178.3348
      2  C    Isotropic =   125.2775   Anisotropy =    55.5440
   XX=   131.6084   YX=     4.1085   ZX=   -20.2522
   XY=    13.9603   YY=   142.3918   ZY=   -28.0002
   XZ=    -8.1283   YZ=   -24.6516   ZZ=   101.8323
   Eigenvalues:    87.0401   126.4856   162.3068
      3  N    Isotropic =   200.2595   Anisotropy =    73.6908
   XX=   216.3637   YX=   -18.0287   ZX=   -37.2552
   XY=   -28.6673   YY=   199.9258   ZY=   -41.6135
   XZ=   -54.3151   YZ=   -36.8017   ZZ=   184.4890
   Eigenvalues:   124.4845   226.9074   249.3867
      4  C    Isotropic =   137.0724   Anisotropy =    60.6378
   XX=   161.6652   YX=   -16.9643   ZX=    11.3999
   XY=   -26.0838   YY=   116.1714   ZY=   -10.8585
   XZ=    12.1135   YZ=   -24.5443   ZZ=   133.3805
   Eigenvalues:   102.1342   131.5854   177.4976
      5  C    Isotropic =   166.3928   Anisotropy =    20.0176
   XX=   176.8082   YX=    -2.5473   ZX=    -4.0285
   XY=    -8.6179   YY=   167.1107   ZY=   -20.0380
   XZ=   -10.9365   YZ=   -15.0139   ZZ=   155.2596
   Eigenvalues:   140.2983   179.1423   179.7379
      6  C    Isotropic =   120.9807   Anisotropy =    26.5863
   XX=   121.5957   YX=    -6.3399   ZX=   -14.0098
   XY=   -10.6984   YY=   117.2833   ZY=     4.1129
   XZ=    -1.5416   YZ=    15.7718   ZZ=   124.0631
   Eigenvalues:   109.2807   114.9565   138.7049
      7  C    Isotropic =   114.3280   Anisotropy =    25.3733
   XX=   113.4947   YX=     8.5162   ZX=    18.2997
   XY=     8.9125   YY=   120.1965   ZY=     6.2286
   XZ=     4.8678   YZ=     2.1350   ZZ=   109.2928
   Eigenvalues:    99.2935   112.4470   131.2435
      8  C    Isotropic =   119.9620   Anisotropy =    52.3279
   XX=   115.0081   YX=    15.2429   ZX=   -18.0818
   XY=    15.2978   YY=   146.3735   ZY=    -0.6482
   XZ=   -21.3966   YZ=    -6.3128   ZZ=    98.5045
   Eigenvalues:    84.8146   120.2243   154.8473
      9  H    Isotropic =    29.9543   Anisotropy =    10.8199
   XX=    31.5673   YX=     0.8801   ZX=    -5.1346
   XY=     1.4344   YY=    27.7899   ZY=    -3.0471
   XZ=    -5.4194   YZ=    -2.6303   ZZ=    30.5056
   Eigenvalues:    24.9276    27.7677    37.1675
     10  H    Isotropic =    29.6794   Anisotropy =     6.3838
   XX=    30.5261   YX=     0.4588   ZX=     1.3996
   XY=     0.5082   YY=    31.7648   ZY=     3.3386
   XZ=     2.0009   YZ=     3.4799   ZZ=    26.7472
   Eigenvalues:    24.7238    30.3791    33.9352
     11  H    Isotropic =    27.8923   Anisotropy =     7.6026
   XX=    26.0302   YX=     0.6504   ZX=     0.0594
   XY=     0.6648   YY=    24.7193   ZY=     0.1990
   XZ=     0.8565   YZ=     0.0321   ZZ=    32.9274
   Eigenvalues:    24.4457    26.2705    32.9607
     12  H    Isotropic =    28.2382   Anisotropy =     9.8989
   XX=    26.7695   YX=    -1.5918   ZX=     0.4691
   XY=    -0.4622   YY=    33.0547   ZY=    -3.7167
   XZ=     0.3593   YZ=    -4.2766   ZZ=    24.8904
   Eigenvalues:    23.2597    26.6175    34.8375
     13  H    Isotropic =    28.5180   Anisotropy =     7.8099
   XX=    27.3688   YX=    -2.2346   ZX=     2.7173
   XY=    -2.7320   YY=    25.6255   ZY=    -0.9935
   XZ=     1.6009   YZ=    -0.8267   ZZ=    32.5597
   Eigenvalues:    23.8322    27.9972    33.7246
     14  H    Isotropic =    29.6814   Anisotropy =    11.0487
   XX=    27.7216   YX=    -2.9340   ZX=    -3.1121
   XY=    -3.2438   YY=    32.3663   ZY=     3.8806
   XZ=    -3.2531   YZ=     4.1346   ZZ=    28.9564
   Eigenvalues:    25.0887    26.9084    37.0472
     15  H    Isotropic =    29.5924   Anisotropy =    11.6433
   XX=    34.8682   YX=    -2.4044   ZX=     3.5877
   XY=    -3.2253   YY=    26.9156   ZY=    -1.7717
   XZ=     3.8536   YZ=    -1.5966   ZZ=    26.9934
   Eigenvalues:    25.1719    26.2507    37.3546
     16  H    Isotropic =    28.7795   Anisotropy =     5.2864
   XX=    28.5081   YX=     0.5710   ZX=    -2.5222
   XY=     0.3618   YY=    26.7086   ZY=    -1.4080
   XZ=    -0.9127   YZ=    -1.1643   ZZ=    31.1219
   Eigenvalues:    26.3611    27.6736    32.3037
     17  H    Isotropic =    27.3944   Anisotropy =     7.0105
   XX=    31.3068   YX=    -2.5564   ZX=     0.7260
   XY=    -1.6553   YY=    26.0445   ZY=     2.3076
   XZ=     1.6181   YZ=     2.1064   ZZ=    24.8317
   Eigenvalues:    22.5786    27.5365    32.0680
     18  H    Isotropic =    26.9462   Anisotropy =     5.0265
   XX=    27.5925   YX=     0.2355   ZX=     5.0515
   XY=     1.5879   YY=    27.9540   ZY=    -0.6042
   XZ=     2.2695   YZ=    -2.5083   ZZ=    25.2922
   Eigenvalues:    22.0591    28.4824    30.2972
     19  O    Isotropic =   316.0883   Anisotropy =    28.0952
   XX=   294.2086   YX=   -19.3318   ZX=    14.8456
   XY=     3.1190   YY=   329.3464   ZY=     0.0479
   XZ=    -0.5223   YZ=    -8.8660   ZZ=   324.7098
   Eigenvalues:   291.3042   322.1421   334.8184
     20  H    Isotropic =    28.3999   Anisotropy =    14.8562
   XX=    24.0976   YX=     5.6136   ZX=     4.7974
   XY=     4.4092   YY=    25.7421   ZY=     1.8213
   XZ=     5.3134   YZ=     1.6429   ZZ=    35.3602
   Eigenvalues:    19.3112    27.5846    38.3041
     21  O    Isotropic =   290.6366   Anisotropy =    48.5987
   XX=   273.9966   YX=    12.2533   ZX=    -9.4247
   XY=   -10.2152   YY=   277.7426   ZY=   -23.6344
   XZ=     0.5027   YZ=     2.7162   ZZ=   320.1706
   Eigenvalues:   273.5694   275.3047   323.0358
     22  H    Isotropic =    29.7806   Anisotropy =    19.6903
   XX=    26.0946   YX=     0.6124   ZX=    -4.3534
   XY=     1.3881   YY=    22.3823   ZY=     3.8187
   XZ=    -5.7751   YZ=     3.2905   ZZ=    40.8648
   Eigenvalues:    20.8428    25.5915    42.9074
     23  C    Isotropic =   128.2202   Anisotropy =    38.4242
   XX=   122.8039   YX=     8.3221   ZX=     1.2978
   XY=     5.3093   YY=   109.7659   ZY=    -3.6117
   XZ=    11.6580   YZ=    -7.4186   ZZ=   152.0907
   Eigenvalues:   105.5865   125.2377   153.8363
     24  H    Isotropic =    27.8900   Anisotropy =     8.5471
   XX=    26.5717   YX=     4.2716   ZX=     0.6146
   XY=     3.8231   YY=    28.8924   ZY=    -3.0586
   XZ=    -0.0994   YZ=    -4.3619   ZZ=    28.2059
   Eigenvalues:    22.3422    27.7397    33.5881
     25  H    Isotropic =    28.1273   Anisotropy =     7.1293
   XX=    31.5263   YX=     0.1444   ZX=    -1.9944
   XY=    -0.2251   YY=    24.3223   ZY=     0.3905
   XZ=    -2.8032   YZ=     1.2851   ZZ=    28.5332
   Eigenvalues:    24.1343    27.3674    32.8801
     26  O    Isotropic =   315.2252   Anisotropy =    38.8584
   XX=   329.4388   YX=    -6.5318   ZX=   -28.4378
   XY=    -9.6522   YY=   300.9660   ZY=    -9.1386
   XZ=    -4.0775   YZ=     7.8444   ZZ=   315.2708
   Eigenvalues:   296.8352   307.7097   341.1308
     27  H    Isotropic =    29.8627   Anisotropy =    13.5086
   XX=    34.1952   YX=    -5.5970   ZX=    -1.4004
   XY=    -4.0336   YY=    24.9929   ZY=     5.8619
   XZ=    -3.3916   YZ=     5.2672   ZZ=    30.3999
   Eigenvalues:    20.8374    29.8822    38.8684
 End of Minotr Frequency-dependent properties file   721 does not exist.
 End of Minotr Frequency-dependent properties file   722 does not exist.

 **********************************************************************

            Population analysis using the SCF density.

 **********************************************************************

 Orbital symmetries:
       Occupied  (A) (A) (A) (A) (A) (A) (A) (A) (A) (A) (A) (A)
                 (A) (A) (A) (A) (A) (A) (A) (A) (A) (A) (A) (A)
                 (A) (A) (A) (A) (A) (A) (A) (A) (A) (A) (A) (A)
                 (A) (A) (A) (A) (A) (A) (A) (A) (A) (A) (A)
       Virtual   (A) (A) (A) (A) (A) (A) (A) (A) (A) (A) (A) (A)
                 (A) (A) (A) (A) (A) (A) (A) (A) (A) (A) (A) (A)
                 (A) (A) (A) (A) (A) (A) (A) (A) (A) (A) (A) (A)
                 (A) (A) (A) (A) (A) (A) (A) (A) (A) (A) (A) (A)
                 (A) (A) (A) (A) (A) (A) (A) (A) (A) (A) (A) (A)
                 (A) (A) (A) (A) (A) (A) (A) (A) (A) (A) (A) (A)
                 (A) (A) (A) (A) (A) (A) (A) (A) (A) (A) (A) (A)
                 (A) (A) (A) (A) (A) (A) (A) (A) (A) (A) (A) (A)
                 (A) (A) (A) (A) (A) (A) (A) (A) (A) (A) (A) (A)
                 (A) (A) (A) (A) (A) (A) (A) (A) (A) (A) (A) (A)
                 (A) (A) (A) (A) (A) (A) (A) (A) (A) (A) (A) (A)
                 (A) (A) (A) (A) (A) (A) (A) (A) (A) (A) (A) (A)
                 (A) (A) (A) (A) (A) (A) (A) (A) (A) (A) (A) (A)
                 (A) (A) (A) (A) (A) (A) (A) (A) (A) (A) (A) (A)
                 (A) (A) (A) (A) (A) (A) (A) (A) (A) (A) (A) (A)
                 (A) (A) (A) (A) (A) (A) (A) (A) (A) (A) (A) (A)
                 (A) (A) (A) (A) (A) (A) (A) (A) (A) (A) (A) (A)
                 (A) (A) (A) (A) (A) (A) (A) (A) (A) (A) (A) (A)
                 (A) (A) (A) (A) (A) (A) (A) (A) (A) (A) (A) (A)
                 (A) (A) (A) (A) (A) (A) (A) (A) (A) (A) (A) (A)
                 (A) (A) (A) (A) (A) (A) (A) (A) (A) (A) (A) (A)
                 (A) (A) (A) (A)
 The electronic state is 1-A.
 Alpha  occ. eigenvalues --  -19.26498 -19.25375 -19.25304 -14.41323 -10.30634
 Alpha  occ. eigenvalues --  -10.30112 -10.29441 -10.28123 -10.27484 -10.26767
 Alpha  occ. eigenvalues --  -10.24488 -10.24331  -1.07908  -1.05604  -1.04767
 Alpha  occ. eigenvalues --   -0.95999  -0.82763  -0.78641  -0.75302  -0.71819
 Alpha  occ. eigenvalues --   -0.66448  -0.61751  -0.60379  -0.57657  -0.55868
 Alpha  occ. eigenvalues --   -0.53577  -0.52152  -0.50020  -0.47589  -0.46704
 Alpha  occ. eigenvalues --   -0.45925  -0.44742  -0.44548  -0.42449  -0.40073
 Alpha  occ. eigenvalues --   -0.39638  -0.38834  -0.36902  -0.36163  -0.35623
 Alpha  occ. eigenvalues --   -0.35207  -0.34212  -0.33174  -0.31294  -0.29583
 Alpha  occ. eigenvalues --   -0.29208  -0.22928
 Alpha virt. eigenvalues --    0.00214   0.01301   0.02033   0.02316   0.03949
 Alpha virt. eigenvalues --    0.04227   0.04635   0.04944   0.05356   0.06835
 Alpha virt. eigenvalues --    0.07729   0.08568   0.08881   0.09096   0.09175
 Alpha virt. eigenvalues --    0.10562   0.11044   0.11897   0.12053   0.12484
 Alpha virt. eigenvalues --    0.13310   0.13756   0.14495   0.14975   0.15512
 Alpha virt. eigenvalues --    0.15791   0.16270   0.17313   0.17429   0.18127
 Alpha virt. eigenvalues --    0.18696   0.19071   0.20732   0.20825   0.21253
 Alpha virt. eigenvalues --    0.21947   0.22342   0.22436   0.22995   0.23199
 Alpha virt. eigenvalues --    0.23970   0.24946   0.25247   0.25646   0.25937
 Alpha virt. eigenvalues --    0.26196   0.26737   0.27871   0.28521   0.28825
 Alpha virt. eigenvalues --    0.29651   0.30040   0.30383   0.31170   0.32055
 Alpha virt. eigenvalues --    0.32476   0.33249   0.34126   0.34619   0.35093
 Alpha virt. eigenvalues --    0.35473   0.36237   0.36643   0.37402   0.38626
 Alpha virt. eigenvalues --    0.39201   0.40351   0.40503   0.41611   0.42570
 Alpha virt. eigenvalues --    0.43342   0.44680   0.45709   0.47554   0.48105
 Alpha virt. eigenvalues --    0.49533   0.64389   0.65494   0.67381   0.68815
 Alpha virt. eigenvalues --    0.71012   0.72069   0.72627   0.73378   0.73701
 Alpha virt. eigenvalues --    0.75409   0.76342   0.80357   0.80849   0.81551
 Alpha virt. eigenvalues --    0.82724   0.84168   0.85045   0.86150   0.88651
 Alpha virt. eigenvalues --    0.90208   0.92779   0.94485   0.95029   0.97311
 Alpha virt. eigenvalues --    0.98640   0.99599   1.01968   1.04424   1.04906
 Alpha virt. eigenvalues --    1.05752   1.08199   1.08269   1.08862   1.11271
 Alpha virt. eigenvalues --    1.11411   1.12691   1.13480   1.13971   1.15531
 Alpha virt. eigenvalues --    1.17662   1.18183   1.20575   1.23541   1.25383
 Alpha virt. eigenvalues --    1.26457   1.30064   1.30426   1.31871   1.33753
 Alpha virt. eigenvalues --    1.34509   1.36855   1.39247   1.41335   1.43106
 Alpha virt. eigenvalues --    1.43847   1.44739   1.48986   1.50817   1.51734
 Alpha virt. eigenvalues --    1.53077   1.57239   1.58915   1.60732   1.61310
 Alpha virt. eigenvalues --    1.62967   1.66126   1.67936   1.68222   1.71417
 Alpha virt. eigenvalues --    1.73773   1.74571   1.76581   1.77962   1.79012
 Alpha virt. eigenvalues --    1.81413   1.81870   1.82975   1.84704   1.87378
 Alpha virt. eigenvalues --    1.88945   1.89749   1.91417   1.92185   1.94540
 Alpha virt. eigenvalues --    1.98573   1.99216   2.00899   2.04420   2.05747
 Alpha virt. eigenvalues --    2.06312   2.06817   2.08796   2.10692   2.13407
 Alpha virt. eigenvalues --    2.13929   2.14694   2.16556   2.16873   2.20913
 Alpha virt. eigenvalues --    2.21506   2.23916   2.25651   2.27152   2.28526
 Alpha virt. eigenvalues --    2.30458   2.31565   2.33300   2.36364   2.40274
 Alpha virt. eigenvalues --    2.42630   2.43506   2.45086   2.47450   2.49075
 Alpha virt. eigenvalues --    2.50842   2.52322   2.53379   2.53834   2.55967
 Alpha virt. eigenvalues --    2.57510   2.58787   2.59388   2.60102   2.62922
 Alpha virt. eigenvalues --    2.64024   2.66696   2.67238   2.68238   2.70083
 Alpha virt. eigenvalues --    2.72047   2.72475   2.74312   2.77008   2.78068
 Alpha virt. eigenvalues --    2.79350   2.80657   2.81826   2.82785   2.84360
 Alpha virt. eigenvalues --    2.86976   2.87416   2.89422   2.90781   2.96085
 Alpha virt. eigenvalues --    2.97379   2.98914   3.01345   3.01608   3.03185
 Alpha virt. eigenvalues --    3.06642   3.08027   3.13673   3.16424   3.32941
 Alpha virt. eigenvalues --    3.34253   3.36543   3.37144   3.45520   3.47097
 Alpha virt. eigenvalues --    3.47561   3.50074   3.50593   3.53311   3.56658
 Alpha virt. eigenvalues --    3.57615   3.59001   3.62124   3.63267   4.29283
 Alpha virt. eigenvalues --    4.37249   4.40603   4.48017   4.52880   4.53318
 Alpha virt. eigenvalues --    4.64647   4.73370   4.78435   4.85136   4.87439
 Alpha virt. eigenvalues --    4.96888
          Condensed to atoms (all electrons):
              1          2          3          4          5          6
     1  C    5.850378  -0.534807   0.072386  -0.156130   0.200108   0.076871
     2  C   -0.534807   8.108237  -0.142698  -0.191281   0.060153  -0.280832
     3  N    0.072386  -0.142698   7.548759   0.178861  -0.214367  -0.180091
     4  C   -0.156130  -0.191281   0.178861   5.604372   0.141067  -0.191112
     5  C    0.200108   0.060153  -0.214367   0.141067   5.583503   0.104341
     6  C    0.076871  -0.280832  -0.180091  -0.191112   0.104341   8.245066
     7  C   -0.140902   0.389499  -0.021344   0.003148  -0.093624  -1.165699
     8  C    0.100375  -0.974462  -0.095390   0.044575   0.061929  -0.066394
     9  H    0.377734  -0.063935   0.014690   0.023396  -0.021367   0.002468
    10  H    0.479975  -0.151205   0.029232   0.020202  -0.078383  -0.008163
    11  H    0.039645   0.214048  -0.021841   0.006167  -0.021996   0.032312
    12  H    0.026564   0.000163  -0.062895   0.385947  -0.038404   0.013056
    13  H   -0.001659   0.005971  -0.079197   0.430803  -0.019978  -0.019617
    14  H   -0.025274  -0.021322   0.014109  -0.029539   0.385550  -0.002647
    15  H   -0.069990   0.050618   0.005667  -0.026800   0.387223  -0.007788
    16  H   -0.004446   0.003335  -0.042421   0.023726   0.010249   0.267310
    17  H    0.001923   0.008515   0.015974  -0.005839   0.000265  -0.058307
    18  H    0.013275  -0.111337   0.014574   0.001504  -0.003207   0.016126
    19  O    0.018687  -0.213680   0.019921  -0.007050   0.000348   0.060156
    20  H    0.003571  -0.045459   0.002239  -0.002961   0.003579   0.021863
    21  O    0.018586  -0.006009   0.000147  -0.031859   0.000210   0.079094
    22  H   -0.005863   0.004865  -0.002421  -0.005045   0.002956  -0.082087
    23  C    0.058509  -0.215617   0.062945  -0.060318  -0.025127  -0.493898
    24  H    0.000372   0.007694  -0.003595   0.004352   0.002706  -0.065353
    25  H    0.001367   0.006046   0.015348  -0.000069   0.000113  -0.145403
    26  O    0.007759   0.002758   0.038795   0.010164   0.000093  -0.209732
    27  H    0.010400   0.004423   0.037189   0.008888  -0.001358  -0.050474
              7          8          9         10         11         12
     1  C   -0.140902   0.100375   0.377734   0.479975   0.039645   0.026564
     2  C    0.389499  -0.974462  -0.063935  -0.151205   0.214048   0.000163
     3  N   -0.021344  -0.095390   0.014690   0.029232  -0.021841  -0.062895
     4  C    0.003148   0.044575   0.023396   0.020202   0.006167   0.385947
     5  C   -0.093624   0.061929  -0.021367  -0.078383  -0.021996  -0.038404
     6  C   -1.165699  -0.066394   0.002468  -0.008163   0.032312   0.013056
     7  C    7.103890  -0.385457  -0.007900   0.020300   0.003169  -0.003318
     8  C   -0.385457   6.701055   0.014745   0.006486   0.001457  -0.001364
     9  H   -0.007900   0.014745   0.520438  -0.024749  -0.004615  -0.000104
    10  H    0.020300   0.006486  -0.024749   0.528741   0.004288  -0.000052
    11  H    0.003169   0.001457  -0.004615   0.004288   0.570663   0.000200
    12  H   -0.003318  -0.001364  -0.000104  -0.000052   0.000200   0.557157
    13  H    0.007593   0.002442  -0.000128   0.001171  -0.000468  -0.042679
    14  H    0.004977  -0.002013  -0.004973   0.004237   0.000940  -0.006442
    15  H    0.005464  -0.003649   0.000155  -0.005174  -0.000102   0.001021
    16  H    0.030507   0.037312   0.000003  -0.000026  -0.000247  -0.000390
    17  H    0.317137  -0.018100   0.000005  -0.000057  -0.000052   0.000009
    18  H   -0.084418   0.496734  -0.000078   0.000110  -0.006473   0.000005
    19  O   -0.125019   0.364313  -0.001227   0.005527   0.007771   0.000060
    20  H   -0.078367   0.064371   0.000187   0.000357  -0.000099   0.000000
    21  O    0.178253  -0.168293   0.000516  -0.001869  -0.000808   0.000366
    22  H    0.088915   0.013254  -0.000002   0.000178   0.000009  -0.000001
    23  C   -0.113911   0.024800   0.000448   0.000012   0.012804   0.011342
    24  H    0.027184  -0.004707   0.000000   0.000000  -0.000016   0.000020
    25  H   -0.004365   0.000151   0.000000   0.000000  -0.000021  -0.000011
    26  O    0.085005   0.002614   0.000013   0.000026  -0.000244   0.000088
    27  H   -0.022545  -0.003588  -0.000004  -0.000001  -0.000979  -0.000080
             13         14         15         16         17         18
     1  C   -0.001659  -0.025274  -0.069990  -0.004446   0.001923   0.013275
     2  C    0.005971  -0.021322   0.050618   0.003335   0.008515  -0.111337
     3  N   -0.079197   0.014109   0.005667  -0.042421   0.015974   0.014574
     4  C    0.430803  -0.029539  -0.026800   0.023726  -0.005839   0.001504
     5  C   -0.019978   0.385550   0.387223   0.010249   0.000265  -0.003207
     6  C   -0.019617  -0.002647  -0.007788   0.267310  -0.058307   0.016126
     7  C    0.007593   0.004977   0.005464   0.030507   0.317137  -0.084418
     8  C    0.002442  -0.002013  -0.003649   0.037312  -0.018100   0.496734
     9  H   -0.000128  -0.004973   0.000155   0.000003   0.000005  -0.000078
    10  H    0.001171   0.004237  -0.005174  -0.000026  -0.000057   0.000110
    11  H   -0.000468   0.000940  -0.000102  -0.000247  -0.000052  -0.006473
    12  H   -0.042679  -0.006442   0.001021  -0.000390   0.000009   0.000005
    13  H    0.564187   0.004082  -0.004697   0.005376  -0.000150   0.000007
    14  H    0.004082   0.526034  -0.024431  -0.000009   0.000000   0.000006
    15  H   -0.004697  -0.024431   0.516493  -0.000013   0.000000   0.000003
    16  H    0.005376  -0.000009  -0.000013   0.545689  -0.000590  -0.000180
    17  H   -0.000150   0.000000   0.000000  -0.000590   0.560543  -0.004416
    18  H    0.000007   0.000006   0.000003  -0.000180  -0.004416   0.524126
    19  O   -0.000023   0.000126   0.000037  -0.000745   0.005030  -0.055910
    20  H   -0.000002  -0.000001   0.000002  -0.000026  -0.000191   0.006085
    21  O   -0.001548  -0.000071  -0.000030  -0.005920  -0.044928   0.008423
    22  H    0.000112   0.000000   0.000000   0.002308  -0.006823  -0.000175
    23  C   -0.011649   0.000800  -0.000125  -0.047350   0.061339  -0.000763
    24  H    0.000028   0.000001   0.000000  -0.002114  -0.000043  -0.000025
    25  H    0.000008   0.000000   0.000000   0.001447   0.001564   0.000122
    26  O   -0.000161   0.000009   0.000004   0.009717  -0.001121  -0.002951
    27  H    0.000022   0.000000   0.000000   0.000075  -0.000007  -0.000545
             19         20         21         22         23         24
     1  C    0.018687   0.003571   0.018586  -0.005863   0.058509   0.000372
     2  C   -0.213680  -0.045459  -0.006009   0.004865  -0.215617   0.007694
     3  N    0.019921   0.002239   0.000147  -0.002421   0.062945  -0.003595
     4  C   -0.007050  -0.002961  -0.031859  -0.005045  -0.060318   0.004352
     5  C    0.000348   0.003579   0.000210   0.002956  -0.025127   0.002706
     6  C    0.060156   0.021863   0.079094  -0.082087  -0.493898  -0.065353
     7  C   -0.125019  -0.078367   0.178253   0.088915  -0.113911   0.027184
     8  C    0.364313   0.064371  -0.168293   0.013254   0.024800  -0.004707
     9  H   -0.001227   0.000187   0.000516  -0.000002   0.000448   0.000000
    10  H    0.005527   0.000357  -0.001869   0.000178   0.000012   0.000000
    11  H    0.007771  -0.000099  -0.000808   0.000009   0.012804  -0.000016
    12  H    0.000060   0.000000   0.000366  -0.000001   0.011342   0.000020
    13  H   -0.000023  -0.000002  -0.001548   0.000112  -0.011649   0.000028
    14  H    0.000126  -0.000001  -0.000071   0.000000   0.000800   0.000001
    15  H    0.000037   0.000002  -0.000030   0.000000  -0.000125   0.000000
    16  H   -0.000745  -0.000026  -0.005920   0.002308  -0.047350  -0.002114
    17  H    0.005030  -0.000191  -0.044928  -0.006823   0.061339  -0.000043
    18  H   -0.055910   0.006085   0.008423  -0.000175  -0.000763  -0.000025
    19  O    8.193585   0.255543  -0.003038  -0.000638   0.010716  -0.000031
    20  H    0.255543   0.354052   0.027065  -0.000221   0.001172   0.000000
    21  O   -0.003038   0.027065   8.367375   0.233543  -0.007873  -0.000444
    22  H   -0.000638  -0.000221   0.233543   0.347316   0.004608  -0.000010
    23  C    0.010716   0.001172  -0.007873   0.004608   5.845566   0.393528
    24  H   -0.000031   0.000000  -0.000444  -0.000010   0.393528   0.572066
    25  H    0.000014  -0.000001  -0.000248   0.000036   0.500159  -0.034851
    26  O   -0.002486   0.000047  -0.001330   0.000039   0.192444  -0.050421
    27  H    0.000152  -0.000002  -0.000102   0.000001   0.020824  -0.005542
             25         26         27
     1  C    0.001367   0.007759   0.010400
     2  C    0.006046   0.002758   0.004423
     3  N    0.015348   0.038795   0.037189
     4  C   -0.000069   0.010164   0.008888
     5  C    0.000113   0.000093  -0.001358
     6  C   -0.145403  -0.209732  -0.050474
     7  C   -0.004365   0.085005  -0.022545
     8  C    0.000151   0.002614  -0.003588
     9  H    0.000000   0.000013  -0.000004
    10  H    0.000000   0.000026  -0.000001
    11  H   -0.000021  -0.000244  -0.000979
    12  H   -0.000011   0.000088  -0.000080
    13  H    0.000008  -0.000161   0.000022
    14  H    0.000000   0.000009   0.000000
    15  H    0.000000   0.000004   0.000000
    16  H    0.001447   0.009717   0.000075
    17  H    0.001564  -0.001121  -0.000007
    18  H    0.000122  -0.002951  -0.000545
    19  O    0.000014  -0.002486   0.000152
    20  H   -0.000001   0.000047  -0.000002
    21  O   -0.000248  -0.001330  -0.000102
    22  H    0.000036   0.000039   0.000001
    23  C    0.500159   0.192444   0.020824
    24  H   -0.034851  -0.050421  -0.005542
    25  H    0.543341  -0.055182   0.006718
    26  O   -0.055182   8.264949   0.251036
    27  H    0.006718   0.251036   0.360816
 Mulliken atomic charges:
              1
     1  C   -0.419416
     2  C    0.086318
     3  N   -0.204575
     4  C   -0.179169
     5  C   -0.426583
     6  C    0.108930
     7  C   -0.018174
     8  C   -0.213196
     9  H    0.174284
    10  H    0.168836
    11  H    0.164490
    12  H    0.159741
    13  H    0.160152
    14  H    0.175851
    15  H    0.176113
    16  H    0.167422
    17  H    0.168319
    18  H    0.189378
    19  O   -0.532135
    20  H    0.387197
    21  O   -0.639209
    22  H    0.405145
    23  C   -0.225386
    24  H    0.159201
    25  H    0.163716
    26  O   -0.541933
    27  H    0.384683
 Sum of Mulliken atomic charges =   0.00000
 Mulliken charges with hydrogens summed into heavy atoms:
              1
     1  C   -0.076296
     2  C    0.250808
     3  N   -0.204575
     4  C    0.140724
     5  C   -0.074619
     6  C    0.276351
     7  C    0.150145
     8  C   -0.023818
    19  O   -0.144938
    21  O   -0.234063
    23  C    0.097531
    26  O   -0.157249
 Sum of Mulliken charges with hydrogens summed into heavy atoms =   0.00000
 Electronic spatial extent (au):  <R**2>=           1896.9397
 Charge=              0.0000 electrons
 Dipole moment (field-independent basis, Debye):
    X=              0.4965    Y=             -2.0151    Z=              4.3608  Tot=              4.8295
 Quadrupole moment (field-independent basis, Debye-Ang):
   XX=            -76.0706   YY=            -79.2218   ZZ=            -67.3694
   XY=             -3.7203   XZ=             -7.0614   YZ=              5.2302
 Traceless Quadrupole moment (field-independent basis, Debye-Ang):
   XX=             -1.8500   YY=             -5.0012   ZZ=              6.8512
   XY=             -3.7203   XZ=             -7.0614   YZ=              5.2302
 Octapole moment (field-independent basis, Debye-Ang**2):
  XXX=             19.8505  YYY=            -12.5265  ZZZ=             19.0653  XYY=             -5.8059
  XXY=              6.4702  XXZ=             22.6643  XZZ=             -5.1394  YZZ=              2.9972
  YYZ=             17.9016  XYZ=              2.1783
 Hexadecapole moment (field-independent basis, Debye-Ang**3):
 XXXX=          -1235.8791 YYYY=           -883.4436 ZZZZ=           -369.3969 XXXY=            -10.2003
 XXXZ=            -54.3530 YYYX=             10.5094 YYYZ=             48.7743 ZZZX=            -10.5266
 ZZZY=             44.9307 XXYY=           -323.0041 XXZZ=           -284.3612 YYZZ=           -211.8876
 XXYZ=             -1.6273 YYXZ=              8.6491 ZZXY=             -9.6417
 N-N= 8.192265062182D+02 E-N=-3.024394316718D+03  KE= 5.886619804622D+02
 1\1\GINC-COMPUTE-3-1\SP\RmPW1PW91\6-31+G(d,p)\C8H15N1O3\MAMICHETTI.IQU
 IR\17-May-2024\0\\# mpw1pw91/6-31+G** nmr scrf=(pcm,solvent=water)\\co
 mment\\0,1\C,0,2.149277,-0.007081,-0.600901\C,0,0.649641,-0.043421,-0.
 941452\N,0,0.045929,-1.096588,-0.053923\C,0,1.142832,-1.70066,0.742745
 \C,0,2.406462,-1.426164,-0.073434\C,0,-1.046591,-0.483451,0.743435\C,0
 ,-0.820287,1.036503,0.682169\C,0,-0.166884,1.257303,-0.69213\H,0,2.765
 308,0.255608,-1.466265\H,0,2.353076,0.723535,0.189\H,0,0.529087,-0.343
 593,-1.989549\H,0,0.964788,-2.770164,0.906665\H,0,1.226389,-1.226488,1
 .731862\H,0,2.485501,-2.135822,-0.906195\H,0,3.316579,-1.508092,0.5290
 7\H,0,-0.983138,-0.817588,1.785931\H,0,-1.745776,1.611339,0.80349\H,0,
 -0.95626,1.334205,-1.442724\O,0,0.580729,2.466523,-0.766035\H,0,0.9659
 89,2.587997,0.121015\O,0,0.148617,1.467282,1.653058\H,0,-0.284348,1.46
 4898,2.522361\C,0,-2.414535,-0.929833,0.216188\H,0,-2.553726,-1.996247
 ,0.443946\H,0,-3.215691,-0.372116,0.712375\O,0,-2.573602,-0.705273,-1.
 188592\H,0,-1.834727,-1.17878,-1.610692\\Version=AM64L-G09RevC.01\Stat
 e=1-A\HF=-594.1962913\RMSD=3.750e-09\Dipole=0.1953576,-0.7928161,1.715
 6638\Quadrupole=-1.3754505,-3.7182792,5.0937297,-2.7659178,-5.250011,3
 .8885498\PG=C01 [X(C8H15N1O3)]\\@


 LIFE CAN ONLY BE UNDERSTOOD BACKWARD, BUT MUST
 BE LIVED FORWARD. -- KIRKEGAARD
 Job cpu time:  0 days  0 hours  8 minutes 42.1 seconds.
 File lengths (MBytes):  RWF=    111 Int=      0 D2E=      0 Chk=      7 Scr=      1
 Normal termination of Gaussian 09 at Fri May 17 12:25:36 2024.
