 Entering Gaussian System, Link 0=g09
 Input=/home/mamichetti.iquir/Linux/01_Cardona_A1A3_R__S_R_R_050_OptB.gjc
 Output=/home/mamichetti.iquir/Linux/01_Cardona_A1A3_R__S_R_R_050_OptB.log
 Initial command:
 /opt/ohpc/pub/apps/software/Gaussian/09/AMD64.SSE4a-enabled/g09/l1.exe /local/mamichetti.iquir/Gau-405357.inp -scrdir=/local/mamichetti.iquir/
 Entering Link 1 = /opt/ohpc/pub/apps/software/Gaussian/09/AMD64.SSE4a-enabled/g09/l1.exe PID=    405358.
  
 Copyright (c) 1988,1990,1992,1993,1995,1998,2003,2009,2011,
            Gaussian, Inc.  All Rights Reserved.
  
 This is part of the Gaussian(R) 09 program.  It is based on
 the Gaussian(R) 03 system (copyright 2003, Gaussian, Inc.),
 the Gaussian(R) 98 system (copyright 1998, Gaussian, Inc.),
 the Gaussian(R) 94 system (copyright 1995, Gaussian, Inc.),
 the Gaussian 92(TM) system (copyright 1992, Gaussian, Inc.),
 the Gaussian 90(TM) system (copyright 1990, Gaussian, Inc.),
 the Gaussian 88(TM) system (copyright 1988, Gaussian, Inc.),
 the Gaussian 86(TM) system (copyright 1986, Carnegie Mellon
 University), and the Gaussian 82(TM) system (copyright 1983,
 Carnegie Mellon University). Gaussian is a federally registered
 trademark of Gaussian, Inc.
  
 This software contains proprietary and confidential information,
 including trade secrets, belonging to Gaussian, Inc.
  
 This software is provided under written license and may be
 used, copied, transmitted, or stored only in accord with that
 written license.
  
 The following legend is applicable only to US Government
 contracts under FAR:
  
                    RESTRICTED RIGHTS LEGEND
  
 Use, reproduction and disclosure by the US Government is
 subject to restrictions as set forth in subparagraphs (a)
 and (c) of the Commercial Computer Software - Restricted
 Rights clause in FAR 52.227-19.
  
 Gaussian, Inc.
 340 Quinnipiac St., Bldg. 40, Wallingford CT 06492
  
  
 ---------------------------------------------------------------
 Warning -- This program may not be used in any manner that
 competes with the business of Gaussian, Inc. or will provide
 assistance to any competitor of Gaussian, Inc.  The licensee
 of this program is prohibited from giving any competitor of
 Gaussian, Inc. access to this program.  By using this program,
 the user acknowledges that Gaussian, Inc. is engaged in the
 business of creating and licensing software in the field of
 computational chemistry and represents and warrants to the
 licensee that it is not a competitor of Gaussian, Inc. and that
 it will not use this program in any manner prohibited above.
 ---------------------------------------------------------------
  

 Cite this work as:
 Gaussian 09, Revision C.01,
 M. J. Frisch, G. W. Trucks, H. B. Schlegel, G. E. Scuseria, 
 M. A. Robb, J. R. Cheeseman, G. Scalmani, V. Barone, B. Mennucci, 
 G. A. Petersson, H. Nakatsuji, M. Caricato, X. Li, H. P. Hratchian, 
 A. F. Izmaylov, J. Bloino, G. Zheng, J. L. Sonnenberg, M. Hada, 
 M. Ehara, K. Toyota, R. Fukuda, J. Hasegawa, M. Ishida, T. Nakajima, 
 Y. Honda, O. Kitao, H. Nakai, T. Vreven, J. A. Montgomery, Jr., 
 J. E. Peralta, F. Ogliaro, M. Bearpark, J. J. Heyd, E. Brothers, 
 K. N. Kudin, V. N. Staroverov, T. Keith, R. Kobayashi, J. Normand, 
 K. Raghavachari, A. Rendell, J. C. Burant, S. S. Iyengar, J. Tomasi, 
 M. Cossi, N. Rega, J. M. Millam, M. Klene, J. E. Knox, J. B. Cross, 
 V. Bakken, C. Adamo, J. Jaramillo, R. Gomperts, R. E. Stratmann, 
 O. Yazyev, A. J. Austin, R. Cammi, C. Pomelli, J. W. Ochterski, 
 R. L. Martin, K. Morokuma, V. G. Zakrzewski, G. A. Voth, 
 P. Salvador, J. J. Dannenberg, S. Dapprich, A. D. Daniels, 
 O. Farkas, J. B. Foresman, J. V. Ortiz, J. Cioslowski, 
 and D. J. Fox, Gaussian, Inc., Wallingford CT, 2010.
 
 ******************************************
 Gaussian 09:  AM64L-G09RevC.01 23-Sep-2011
                17-May-2024 
 ******************************************
 %nprocshared=4
 Will use up to    4 processors via shared memory.
 ------------------------------------------------
 # mpw1pw91/6-31+G** nmr scrf=(pcm,solvent=water)
 ------------------------------------------------
 1/38=1/1;
 2/12=2,17=6,18=5,40=1/2;
 3/5=1,6=6,7=111,11=2,16=1,25=1,30=1,70=2201,72=1,74=-7/1,2,8,3;
 4//1;
 5/5=2,38=5,53=1/2;
 8/6=1,10=90,11=11/1;
 10/13=100,45=16/2;
 6/7=2,8=2,9=2,10=2,28=1/1;
 99/9=1/99;
 -------
 comment
 -------
 Charge =  0 Multiplicity = 1
 Symbolic Z-Matrix:
 6                    -2.54429  -0.01287   0.09269 
 6                    -1.22028   0.34303   0.78658 
 7                    -0.26139  -0.77839   0.46697 
 6                    -0.95478  -1.72556  -0.42735 
 6                    -2.43902  -1.53365  -0.10829 
 6                     0.98175  -0.19268  -0.06571 
 6                     0.97822   1.2469    0.49226 
 6                    -0.50676   1.64387   0.38233 
 1                    -3.4152    0.28869   0.68214 
 1                    -2.61068   0.48685  -0.8798 
 1                    -1.36758   0.37809   1.87361 
 1                    -0.61311  -2.7525   -0.25977 
 1                    -0.76216  -1.48636  -1.4878 
 1                    -2.70175  -2.06296   0.81562 
 1                    -3.0872   -1.90735  -0.90719 
 1                     0.9474   -0.13002  -1.16993 
 1                     1.28062   1.23707   1.54561 
 1                    -0.7636    2.48048   1.03568 
 8                    -0.78077   2.1185   -0.9454 
 1                    -0.69151   1.37826  -1.57114 
 8                     1.8499    2.14078  -0.18148 
 1                     1.35739   2.41821  -0.97748 
 6                     2.24795  -0.94918   0.29789 
 1                     3.11635  -0.35133  -0.01604 
 1                     2.30688  -1.08369   1.38707 
 8                     2.24758  -2.21808  -0.36846 
 1                     3.04348  -2.69349  -0.07916 
 
                          Input orientation:                          
 ---------------------------------------------------------------------
 Center     Atomic      Atomic             Coordinates (Angstroms)
 Number     Number       Type             X           Y           Z
 ---------------------------------------------------------------------
      1          6           0       -2.544294   -0.012865    0.092685
      2          6           0       -1.220284    0.343029    0.786580
      3          7           0       -0.261392   -0.778386    0.466967
      4          6           0       -0.954777   -1.725562   -0.427348
      5          6           0       -2.439024   -1.533648   -0.108287
      6          6           0        0.981753   -0.192677   -0.065706
      7          6           0        0.978216    1.246897    0.492263
      8          6           0       -0.506763    1.643870    0.382333
      9          1           0       -3.415202    0.288685    0.682141
     10          1           0       -2.610679    0.486851   -0.879802
     11          1           0       -1.367580    0.378092    1.873611
     12          1           0       -0.613114   -2.752504   -0.259766
     13          1           0       -0.762161   -1.486355   -1.487804
     14          1           0       -2.701745   -2.062962    0.815616
     15          1           0       -3.087204   -1.907354   -0.907186
     16          1           0        0.947395   -0.130016   -1.169930
     17          1           0        1.280618    1.237069    1.545614
     18          1           0       -0.763596    2.480484    1.035680
     19          8           0       -0.780765    2.118496   -0.945399
     20          1           0       -0.691508    1.378259   -1.571137
     21          8           0        1.849901    2.140779   -0.181475
     22          1           0        1.357392    2.418206   -0.977480
     23          6           0        2.247947   -0.949180    0.297886
     24          1           0        3.116353   -0.351328   -0.016037
     25          1           0        2.306876   -1.083686    1.387074
     26          8           0        2.247585   -2.218080   -0.368458
     27          1           0        3.043482   -2.693490   -0.079155
 ---------------------------------------------------------------------
                    Distance matrix (angstroms):
                    1          2          3          4          5
     1  C    0.000000
     2  C    1.536604   0.000000
     3  N    2.436750   1.509701   0.000000
     4  C    2.393811   2.413127   1.475712   0.000000
     5  C    1.537613   2.409986   2.375588   1.530235   0.000000
     6  C    3.534180   2.421227   1.473840   2.496131   3.674470
     7  C    3.762279   2.395204   2.374666   3.663012   4.446304
     8  C    2.642007   1.537763   2.436123   3.494191   3.751128
     9  H    1.094016   2.198073   3.336384   3.367766   2.213278
    10  H    1.095378   2.175020   2.988940   2.800267   2.169589
    11  H    2.170069   1.097525   2.130667   3.144865   2.954769
    12  H    3.370356   3.323525   2.132836   1.095184   2.200569
    13  H    2.800913   2.954547   2.138485   1.104033   2.171905
    14  H    2.179522   2.825661   2.779751   2.170414   1.096719
    15  H    2.209883   3.379121   3.338874   2.193294   1.094547
    16  H    3.714810   2.958130   2.135645   2.591419   3.816425
    17  H    4.278234   2.762237   2.757414   4.203184   4.924226
    18  H    3.205763   2.199847   3.346024   4.457334   4.497663
    19  O    2.954717   2.518970   3.264422   3.882710   4.097406
    20  H    2.852428   2.628713   2.998330   3.318323   3.697695
    21  O    4.901255   3.687150   3.660541   4.782809   5.648154
    22  H    4.720012   3.750024   3.863300   4.776985   5.548461
    23  C    4.887163   3.733263   2.520822   3.374341   4.740704
    24  H    5.671799   4.464610   3.438725   4.316456   5.680546
    25  H    5.133805   3.851878   2.745142   3.787151   4.996212
    26  O    5.295067   4.463128   3.010917   3.240550   4.743463
    27  H    6.199881   5.305624   3.858506   4.128462   5.603923
                    6          7          8          9         10
     6  C    0.000000
     7  C    1.543929   0.000000
     8  C    2.406101   1.541050   0.000000
     9  H    4.486000   4.500705   3.222643   0.000000
    10  H    3.745675   3.916682   2.712589   1.768104   0.000000
    11  H    3.099370   2.857569   2.137080   2.370728   3.022980
    12  H    3.022247   4.369564   4.444289   4.241193   3.855922
    13  H    2.595612   3.797400   3.655263   3.859800   2.771322
    14  H    4.224080   4.960024   4.329698   2.461114   3.063377
    15  H    4.494955   5.332485   4.575230   2.730592   2.441320
    16  H    1.106534   2.158640   2.769615   4.757912   3.622788
    17  H    2.174821   1.095943   2.171046   4.867827   4.646252
    18  H    3.377141   2.202487   1.092130   3.458321   3.324960
    19  O    3.036750   2.433222   1.436391   3.596853   2.452581
    20  H    2.744807   2.657603   1.980082   3.699046   2.226156
    21  O    2.492409   1.418726   2.473593   5.647778   4.808317
    22  H    2.790904   1.917259   2.433878   5.483325   4.414211
    23  C    1.519126   2.544161   3.784107   5.809580   5.201479
    24  H    2.141064   2.717411   4.155296   6.599870   5.852139
    25  H    2.158800   2.828010   4.045446   5.926425   5.638055
    26  O    2.407540   3.789222   4.802580   6.281304   5.583982
    27  H    3.241138   4.485364   5.624047   7.154547   6.536447
                   11         12         13         14         15
    11  H    0.000000
    12  H    3.862790   0.000000
    13  H    3.891247   1.770148   0.000000
    14  H    2.976255   2.448325   3.065975   0.000000
    15  H    3.989136   2.693428   2.433142   1.772241   0.000000
    16  H    3.857515   3.184498   2.205285   4.582019   4.416555
    17  H    2.803280   4.770986   4.559782   5.223248   5.914515
    18  H    2.342430   5.393050   4.701466   4.944467   5.331698
    19  O    3.364547   4.921874   3.645477   4.927061   4.639891
    20  H    3.650164   4.334633   2.866697   4.645390   4.120127
    21  O    4.205072   5.478758   4.656765   6.275596   6.425655
    22  H    4.440299   5.579807   4.471972   6.306556   6.202406
    23  C    4.161321   3.427626   3.540903   5.099804   5.552849
    24  H    4.920211   4.442294   4.300844   6.121405   6.457514
    25  H    3.984362   3.744780   4.224459   5.135351   5.919304
    26  O    4.983613   2.912219   3.293467   5.091361   5.370917
    27  H    5.718862   3.661529   4.233720   5.848574   6.236101
                   16         17         18         19         20
    16  H    0.000000
    17  H    3.058454   0.000000
    18  H    3.821900   2.446411   0.000000
    19  O    2.844777   3.351322   2.013952   0.000000
    20  H    2.263153   3.690983   2.831182   0.973378   0.000000
    21  O    2.635919   2.030668   2.902970   2.739431   2.995222
    22  H    2.588160   2.786931   2.924941   2.159299   2.373164
    23  C    2.125312   2.696708   4.623454   4.486590   4.189345
    24  H    2.466744   2.886465   4.917242   4.706514   4.462019
    25  H    3.048925   2.542488   4.717476   5.022741   4.878780
    26  O    2.587057   4.066540   5.754591   5.320682   4.797745
    27  H    3.486369   4.604005   6.519717   6.207290   5.723225
                   21         22         23         24         25
    21  O    0.000000
    22  H    0.976296   0.000000
    23  C    3.152154   3.709304   0.000000
    24  H    2.800333   3.418865   1.100047   0.000000
    25  H    3.614740   4.330806   1.099043   1.777729   0.000000
    26  O    4.380955   4.760094   1.433221   2.088952   2.090994
    27  H    4.980488   5.457043   1.953882   2.344145   2.298670
                   26         27
    26  O    0.000000
    27  H    0.971166   0.000000
 Stoichiometry    C8H15NO3
 Framework group  C1[X(C8H15NO3)]
 Deg. of freedom    75
 Full point group                 C1      NOp   1
 Largest Abelian subgroup         C1      NOp   1
 Largest concise Abelian subgroup C1      NOp   1
                         Standard orientation:                         
 ---------------------------------------------------------------------
 Center     Atomic      Atomic             Coordinates (Angstroms)
 Number     Number       Type             X           Y           Z
 ---------------------------------------------------------------------
      1          6           0       -2.544294   -0.012865    0.092685
      2          6           0       -1.220284    0.343029    0.786580
      3          7           0       -0.261392   -0.778386    0.466967
      4          6           0       -0.954777   -1.725562   -0.427348
      5          6           0       -2.439024   -1.533648   -0.108287
      6          6           0        0.981753   -0.192677   -0.065706
      7          6           0        0.978216    1.246897    0.492263
      8          6           0       -0.506763    1.643870    0.382333
      9          1           0       -3.415202    0.288685    0.682141
     10          1           0       -2.610679    0.486851   -0.879802
     11          1           0       -1.367580    0.378092    1.873611
     12          1           0       -0.613114   -2.752504   -0.259766
     13          1           0       -0.762161   -1.486355   -1.487804
     14          1           0       -2.701745   -2.062962    0.815616
     15          1           0       -3.087204   -1.907354   -0.907186
     16          1           0        0.947395   -0.130016   -1.169930
     17          1           0        1.280618    1.237069    1.545614
     18          1           0       -0.763596    2.480484    1.035680
     19          8           0       -0.780765    2.118496   -0.945399
     20          1           0       -0.691508    1.378259   -1.571137
     21          8           0        1.849901    2.140779   -0.181475
     22          1           0        1.357392    2.418206   -0.977480
     23          6           0        2.247947   -0.949180    0.297886
     24          1           0        3.116353   -0.351328   -0.016037
     25          1           0        2.306876   -1.083686    1.387074
     26          8           0        2.247585   -2.218080   -0.368458
     27          1           0        3.043482   -2.693490   -0.079155
 ---------------------------------------------------------------------
 Rotational constants (GHZ):      1.1062024      0.9468210      0.5732524
 Standard basis: 6-31+G(d,p) (6D, 7F)
 There are   303 symmetry adapted basis functions of A   symmetry.
 Integral buffers will be    131072 words long.
 Raffenetti 2 integral format.
 Two-electron integral symmetry is turned on.
   303 basis functions,   489 primitive gaussians,   303 cartesian basis functions
    47 alpha electrons       47 beta electrons
       nuclear repulsion energy       805.0365348528 Hartrees.
 NAtoms=   27 NActive=   27 NUniq=   27 SFac= 1.00D+00 NAtFMM=   60 NAOKFM=F Big=F
 ------------------------------------------------------------------------------
 Polarizable Continuum Model (PCM)
 =================================
 Model                : PCM.
 Atomic radii         : UFF (Universal Force Field).
 Polarization charges : Total charges.
 Charge compensation  : None.
 Solution method      : Matrix inversion.
 Cavity type          : Scaled VdW (van der Waals Surface) (Alpha=1.100).
 Cavity algorithm     : GePol (No added spheres)
                        Default sphere list used, NSphG=   27.
                        Lebedev-Laikov grids with approx.  5.0 points / Ang**2.
                        Smoothing algorithm: Karplus/York (Gamma=1.0000).
                        Polarization charges: spherical gaussians, with
                                              point-specific exponents (IZeta= 3).
                        Self-potential: point-specific (ISelfS= 7).
                        Self-field    : sphere-specific E.n sum rule (ISelfD= 2).
 Solvent              : Water, Eps=  78.355300 Eps(inf)=   1.777849
 ------------------------------------------------------------------------------
 One-electron integrals computed using PRISM.
 NBasis=   303 RedAO= T  NBF=   303
 NBsUse=   303 1.00D-06 NBFU=   303
 Harris functional with IExCor=  908 diagonalized for initial guess.
 ExpMin= 4.38D-02 ExpMax= 5.48D+03 ExpMxC= 8.25D+02 IAcc=2 IRadAn=         4 AccDes= 0.00D+00
 HarFok:  IExCor=  908 AccDes= 0.00D+00 IRadAn=         4 IDoV= 1
 ScaDFX=  1.000000  1.000000  1.000000  1.000000
 FoFCou: FMM=F IPFlag=           0 FMFlag=      100000 FMFlg1=           0
         NFxFlg=           0 DoJE=T BraDBF=F KetDBF=T FulRan=T
         Omega=  0.000000  0.000000  1.000000  0.000000  0.000000 ICntrl=     500 IOpCl=  0
         NMat0=    1 NMatS0=    1 NMatT0=    0 NMatD0=    1 NMtDS0=    0 NMtDT0=    0
         I1Cent=           4 NGrid=           0.
 Petite list used in FoFCou.
 Initial guess orbital symmetries:
       Occupied  (A) (A) (A) (A) (A) (A) (A) (A) (A) (A) (A) (A)
                 (A) (A) (A) (A) (A) (A) (A) (A) (A) (A) (A) (A)
                 (A) (A) (A) (A) (A) (A) (A) (A) (A) (A) (A) (A)
                 (A) (A) (A) (A) (A) (A) (A) (A) (A) (A) (A)
       Virtual   (A) (A) (A) (A) (A) (A) (A) (A) (A) (A) (A) (A)
                 (A) (A) (A) (A) (A) (A) (A) (A) (A) (A) (A) (A)
                 (A) (A) (A) (A) (A) (A) (A) (A) (A) (A) (A) (A)
                 (A) (A) (A) (A) (A) (A) (A) (A) (A) (A) (A) (A)
                 (A) (A) (A) (A) (A) (A) (A) (A) (A) (A) (A) (A)
                 (A) (A) (A) (A) (A) (A) (A) (A) (A) (A) (A) (A)
                 (A) (A) (A) (A) (A) (A) (A) (A) (A) (A) (A) (A)
                 (A) (A) (A) (A) (A) (A) (A) (A) (A) (A) (A) (A)
                 (A) (A) (A) (A) (A) (A) (A) (A) (A) (A) (A) (A)
                 (A) (A) (A) (A) (A) (A) (A) (A) (A) (A) (A) (A)
                 (A) (A) (A) (A) (A) (A) (A) (A) (A) (A) (A) (A)
                 (A) (A) (A) (A) (A) (A) (A) (A) (A) (A) (A) (A)
                 (A) (A) (A) (A) (A) (A) (A) (A) (A) (A) (A) (A)
                 (A) (A) (A) (A) (A) (A) (A) (A) (A) (A) (A) (A)
                 (A) (A) (A) (A) (A) (A) (A) (A) (A) (A) (A) (A)
                 (A) (A) (A) (A) (A) (A) (A) (A) (A) (A) (A) (A)
                 (A) (A) (A) (A) (A) (A) (A) (A) (A) (A) (A) (A)
                 (A) (A) (A) (A) (A) (A) (A) (A) (A) (A) (A) (A)
                 (A) (A) (A) (A) (A) (A) (A) (A) (A) (A) (A) (A)
                 (A) (A) (A) (A) (A) (A) (A) (A) (A) (A) (A) (A)
                 (A) (A) (A) (A) (A) (A) (A) (A) (A) (A) (A) (A)
                 (A) (A) (A) (A)
 The electronic state of the initial guess is 1-A.
 Requested convergence on RMS density matrix=1.00D-08 within 128 cycles.
 Requested convergence on MAX density matrix=1.00D-06.
 Requested convergence on             energy=1.00D-06.
 No special actions if energy rises.
 Error on total polarization charges =  0.01412
 SCF Done:  E(RmPW1PW91) =  -594.197205277     A.U. after   13 cycles
             Convg  =    0.5009D-08             -V/T =  2.0094
 Range of M.O.s used for correlation:     1   303
 NBasis=   303 NAE=    47 NBE=    47 NFC=     0 NFV=     0
 NROrb=    303 NOA=    47 NOB=    47 NVA=   256 NVB=   256

 **** Warning!!: The largest alpha MO coefficient is  0.69177567D+02

 NEqPCM:  Using equilibrium solvation (IEInf=0, Eps=  78.3553, EpsInf=   1.7778)
          Differentiating once with respect to magnetic field using GIAOs.
          Electric field/nuclear overlap derivatives assumed to be zero.
 FoFCou: FMM=F IPFlag=           0 FMFlag=    10101102 FMFlg1=           0
         NFxFlg=    40000000 DoJE=F BraDBF=F KetDBF=T FulRan=T
         Omega=  0.000000  0.000000  1.000000  0.000000  0.000000 ICntrl=    6100 IOpCl=  0
         NMat0=    1 NMatS0=    1 NMatT0=    0 NMatD0=    1 NMtDS0=    0 NMtDT0=    0
         I1Cent=           7 NGrid=        1824.
 Symmetry not used in FoFCou.
          There are     3 degrees of freedom in the 1st order CPHF.  IDoFFX=0.
      3 vectors produced by pass  0 Test12= 4.01D-13 3.33D-08 XBig12= 4.28D+01 1.26D+00.
 AX will form     3 AO Fock derivatives at one time.
      3 vectors produced by pass  1 Test12= 4.01D-13 3.33D-08 XBig12= 1.03D-01 4.32D-02.
      3 vectors produced by pass  2 Test12= 4.01D-13 3.33D-08 XBig12= 1.88D-04 2.85D-03.
      3 vectors produced by pass  3 Test12= 4.01D-13 3.33D-08 XBig12= 8.38D-07 1.87D-04.
      3 vectors produced by pass  4 Test12= 4.01D-13 3.33D-08 XBig12= 3.12D-09 9.04D-06.
      3 vectors produced by pass  5 Test12= 4.01D-13 3.33D-08 XBig12= 9.54D-12 4.68D-07.
 Inverted reduced A of dimension    18 with in-core refinement.
 Calculating GIAO nuclear magnetic shielding tensors.
 SCF GIAO Magnetic shielding tensor (ppm):
      1  C    Isotropic =   170.4507   Anisotropy =    21.7852
   XX=   176.2037   YX=     2.6805   ZX=     5.1873
   XY=    -8.1385   YY=   182.3122   ZY=    12.0665
   XZ=     5.9790   YZ=     5.8051   ZZ=   152.8363
   Eigenvalues:   148.9658   177.4122   184.9742
      2  C    Isotropic =   128.8915   Anisotropy =    50.3195
   XX=   142.0857   YX=   -14.0346   ZX=     1.2574
   XY=   -14.3999   YY=   151.6388   ZY=     9.2279
   XZ=    -0.6049   YZ=     6.7544   ZZ=    92.9500
   Eigenvalues:    91.7778   132.4588   162.4378
      3  N    Isotropic =   189.6492   Anisotropy =    88.1169
   XX=   247.0232   YX=    -4.1301   ZX=   -15.4129
   XY=     7.0612   YY=   193.7093   ZY=    23.3905
   XZ=   -10.0810   YZ=    22.4838   ZZ=   128.2152
   Eigenvalues:   119.7337   200.8201   248.3938
      4  C    Isotropic =   135.9167   Anisotropy =    56.1088
   XX=   142.8411   YX=    15.7671   ZX=    13.2517
   XY=    25.9100   YY=   132.9854   ZY=    20.2376
   XZ=     9.6794   YZ=    26.2985   ZZ=   131.9235
   Eigenvalues:   107.5209   126.9067   173.3225
      5  C    Isotropic =   165.1868   Anisotropy =    23.8325
   XX=   180.3337   YX=    -1.1605   ZX=     2.4877
   XY=     0.0847   YY=   174.9610   ZY=    16.8425
   XZ=    -6.3867   YZ=     8.9117   ZZ=   140.2657
   Eigenvalues:   135.9449   178.5404   181.0751
      6  C    Isotropic =   123.7773   Anisotropy =    52.0941
   XX=   135.2594   YX=    18.4909   ZX=    -7.6617
   XY=    33.6387   YY=   123.2837   ZY=   -10.7660
   XZ=   -13.7367   YZ=     3.4696   ZZ=   112.7889
   Eigenvalues:   101.0303   111.7949   158.5067
      7  C    Isotropic =   117.8039   Anisotropy =    51.1890
   XX=   130.4075   YX=    18.5440   ZX=   -23.0901
   XY=    12.6355   YY=   135.6158   ZY=    -6.3590
   XZ=   -11.8657   YZ=    -0.1218   ZZ=    87.3883
   Eigenvalues:    81.0891   120.3926   151.9299
      8  C    Isotropic =   120.5608   Anisotropy =    31.1199
   XX=   117.0930   YX=     6.3811   ZX=     1.2753
   XY=     3.9927   YY=   109.6119   ZY=   -15.3724
   XZ=    10.0479   YZ=   -11.8009   ZZ=   134.9774
   Eigenvalues:   100.6686   119.7063   141.3074
      9  H    Isotropic =    29.8464   Anisotropy =    11.7849
   XX=    34.9977   YX=    -2.0738   ZX=    -3.8897
   XY=    -3.3043   YY=    27.8177   ZY=     2.1659
   XZ=    -4.2312   YZ=     1.6333   ZZ=    26.7239
   Eigenvalues:    24.8078    27.0284    37.7030
     10  H    Isotropic =    29.8202   Anisotropy =     7.1079
   XX=    29.5117   YX=     0.4389   ZX=     2.9485
   XY=     1.2034   YY=    30.2477   ZY=    -4.0955
   XZ=     3.3360   YZ=    -3.8899   ZZ=    29.7011
   Eigenvalues:    24.3212    30.5805    34.5588
     11  H    Isotropic =    27.8639   Anisotropy =     9.0829
   XX=    26.5090   YX=    -1.2237   ZX=    -2.8611
   XY=    -0.7781   YY=    24.9261   ZY=     2.5413
   XZ=    -2.7747   YZ=     1.6455   ZZ=    32.1566
   Eigenvalues:    24.3149    25.3576    33.9191
     12  H    Isotropic =    28.1464   Anisotropy =     8.5952
   XX=    27.8294   YX=    -0.5561   ZX=     0.5610
   XY=    -1.2069   YY=    33.6024   ZY=     1.0389
   XZ=     0.8363   YZ=     1.6722   ZZ=    23.0075
   Eigenvalues:    22.7094    27.8533    33.8766
     13  H    Isotropic =    29.2138   Anisotropy =     7.4920
   XX=    28.1135   YX=     0.4168   ZX=     0.7851
   XY=     0.6524   YY=    26.9430   ZY=     3.9043
   XZ=    -0.8117   YZ=     2.9446   ZZ=    32.5850
   Eigenvalues:    25.2437    28.1893    34.2085
     14  H    Isotropic =    29.5229   Anisotropy =    10.9276
   XX=    28.8900   YX=     2.7177   ZX=    -3.3766
   XY=     3.0211   YY=    31.1915   ZY=    -4.0981
   XZ=    -3.6456   YZ=    -4.4846   ZZ=    28.4871
   Eigenvalues:    24.7394    27.0213    36.8079
     15  H    Isotropic =    29.5019   Anisotropy =    11.5802
   XX=    31.3749   YX=     3.3088   ZX=     4.2534
   XY=     3.9845   YY=    29.0706   ZY=     3.5671
   XZ=     4.2208   YZ=     3.1144   ZZ=    28.0600
   Eigenvalues:    24.8684    26.4152    37.2220
     16  H    Isotropic =    29.1466   Anisotropy =     4.0387
   XX=    30.1158   YX=    -0.9030   ZX=    -2.3395
   XY=    -1.6603   YY=    28.6282   ZY=    -1.7888
   XZ=    -2.1698   YZ=    -0.2437   ZZ=    28.6958
   Eigenvalues:    26.0604    29.5404    31.8391
     17  H    Isotropic =    27.7324   Anisotropy =     4.7207
   XX=    26.2964   YX=     2.0962   ZX=     0.2139
   XY=     0.9834   YY=    27.1585   ZY=     0.5453
   XZ=     2.8897   YZ=     1.2123   ZZ=    29.7422
   Eigenvalues:    25.0020    27.3156    30.8795
     18  H    Isotropic =    27.7645   Anisotropy =     8.5349
   XX=    24.2193   YX=    -1.6201   ZX=    -0.2390
   XY=    -1.0980   YY=    28.7464   ZY=     2.8428
   XZ=    -1.1011   YZ=     4.4099   ZZ=    30.3279
   Eigenvalues:    23.8164    26.0228    33.4545
     19  O    Isotropic =   302.0688   Anisotropy =    84.0864
   XX=   270.1223   YX=    -1.5026   ZX=   -33.6932
   XY=    -8.2197   YY=   340.4394   ZY=    45.9728
   XZ=   -12.1708   YZ=    14.2393   ZZ=   295.6446
   Eigenvalues:   254.9058   293.1741   358.1264
     20  H    Isotropic =    31.1078   Anisotropy =    14.5904
   XX=    24.0726   YX=    -1.6334   ZX=     1.1744
   XY=     0.0078   YY=    32.7054   ZY=     7.3052
   XZ=     1.3426   YZ=     4.4679   ZZ=    36.5452
   Eigenvalues:    23.6478    28.8408    40.8347
     21  O    Isotropic =   302.1301   Anisotropy =    34.4184
   XX=   288.9838   YX=    -4.0268   ZX=    17.2766
   XY=    24.3018   YY=   320.8236   ZY=   -14.5194
   XZ=    20.8558   YZ=    -6.3649   ZZ=   296.5829
   Eigenvalues:   269.2804   312.0342   325.0758
     22  H    Isotropic =    28.8089   Anisotropy =    14.3149
   XX=    30.2860   YX=     1.7800   ZX=     4.6927
   XY=    -0.6034   YY=    23.7668   ZY=    -7.1070
   XZ=     4.3085   YZ=    -7.7509   ZZ=    32.3738
   Eigenvalues:    18.7796    29.2949    38.3521
     23  C    Isotropic =   125.8900   Anisotropy =    50.0787
   XX=   115.4094   YX=    -8.7752   ZX=     3.4703
   XY=   -13.0213   YY=   145.5424   ZY=    21.8009
   XZ=    -1.9602   YZ=    21.8912   ZZ=   116.7183
   Eigenvalues:   102.0751   116.3192   159.2758
     24  H    Isotropic =    27.4821   Anisotropy =     5.1993
   XX=    30.4934   YX=    -0.1806   ZX=    -0.6122
   XY=     1.5882   YY=    29.8470   ZY=     0.5182
   XZ=    -0.7135   YZ=     2.1581   ZZ=    22.1059
   Eigenvalues:    21.8125    29.6855    30.9483
     25  H    Isotropic =    27.9058   Anisotropy =     5.1124
   XX=    25.9563   YX=    -1.4023   ZX=     2.7301
   XY=    -2.0142   YY=    28.1773   ZY=     2.9275
   XZ=     2.8651   YZ=     0.5285   ZZ=    29.5836
   Eigenvalues:    23.3098    29.0935    31.3140
     26  O    Isotropic =   312.5911   Anisotropy =    90.7490
   XX=   329.7671   YX=   -56.5355   ZX=    11.2523
   XY=   -37.3189   YY=   314.5838   ZY=    -0.9208
   XZ=    22.4246   YZ=    -9.9833   ZZ=   293.4223
   Eigenvalues:   272.1676   292.5153   373.0904
     27  H    Isotropic =    30.2860   Anisotropy =    21.7064
   XX=    35.5079   YX=    -9.4563   ZX=     4.9784
   XY=   -10.8404   YY=    32.1859   ZY=    -0.6622
   XZ=     4.4020   YZ=     0.4490   ZZ=    23.1642
   Eigenvalues:    20.0941    26.0070    44.7569
 End of Minotr Frequency-dependent properties file   721 does not exist.
 End of Minotr Frequency-dependent properties file   722 does not exist.

 **********************************************************************

            Population analysis using the SCF density.

 **********************************************************************

 Orbital symmetries:
       Occupied  (A) (A) (A) (A) (A) (A) (A) (A) (A) (A) (A) (A)
                 (A) (A) (A) (A) (A) (A) (A) (A) (A) (A) (A) (A)
                 (A) (A) (A) (A) (A) (A) (A) (A) (A) (A) (A) (A)
                 (A) (A) (A) (A) (A) (A) (A) (A) (A) (A) (A)
       Virtual   (A) (A) (A) (A) (A) (A) (A) (A) (A) (A) (A) (A)
                 (A) (A) (A) (A) (A) (A) (A) (A) (A) (A) (A) (A)
                 (A) (A) (A) (A) (A) (A) (A) (A) (A) (A) (A) (A)
                 (A) (A) (A) (A) (A) (A) (A) (A) (A) (A) (A) (A)
                 (A) (A) (A) (A) (A) (A) (A) (A) (A) (A) (A) (A)
                 (A) (A) (A) (A) (A) (A) (A) (A) (A) (A) (A) (A)
                 (A) (A) (A) (A) (A) (A) (A) (A) (A) (A) (A) (A)
                 (A) (A) (A) (A) (A) (A) (A) (A) (A) (A) (A) (A)
                 (A) (A) (A) (A) (A) (A) (A) (A) (A) (A) (A) (A)
                 (A) (A) (A) (A) (A) (A) (A) (A) (A) (A) (A) (A)
                 (A) (A) (A) (A) (A) (A) (A) (A) (A) (A) (A) (A)
                 (A) (A) (A) (A) (A) (A) (A) (A) (A) (A) (A) (A)
                 (A) (A) (A) (A) (A) (A) (A) (A) (A) (A) (A) (A)
                 (A) (A) (A) (A) (A) (A) (A) (A) (A) (A) (A) (A)
                 (A) (A) (A) (A) (A) (A) (A) (A) (A) (A) (A) (A)
                 (A) (A) (A) (A) (A) (A) (A) (A) (A) (A) (A) (A)
                 (A) (A) (A) (A) (A) (A) (A) (A) (A) (A) (A) (A)
                 (A) (A) (A) (A) (A) (A) (A) (A) (A) (A) (A) (A)
                 (A) (A) (A) (A) (A) (A) (A) (A) (A) (A) (A) (A)
                 (A) (A) (A) (A) (A) (A) (A) (A) (A) (A) (A) (A)
                 (A) (A) (A) (A) (A) (A) (A) (A) (A) (A) (A) (A)
                 (A) (A) (A) (A)
 The electronic state is 1-A.
 Alpha  occ. eigenvalues --  -19.27135 -19.25887 -19.25417 -14.41332 -10.30922
 Alpha  occ. eigenvalues --  -10.30817 -10.29494 -10.28258 -10.28140 -10.26807
 Alpha  occ. eigenvalues --  -10.24830 -10.24650  -1.08468  -1.05571  -1.05358
 Alpha  occ. eigenvalues --   -0.96523  -0.83192  -0.79530  -0.75509  -0.71748
 Alpha  occ. eigenvalues --   -0.66790  -0.62084  -0.60658  -0.58679  -0.54341
 Alpha  occ. eigenvalues --   -0.53709  -0.53222  -0.51010  -0.48286  -0.47821
 Alpha  occ. eigenvalues --   -0.46274  -0.45543  -0.43073  -0.42088  -0.40134
 Alpha  occ. eigenvalues --   -0.39557  -0.39064  -0.38317  -0.36222  -0.35717
 Alpha  occ. eigenvalues --   -0.35500  -0.34668  -0.33795  -0.31727  -0.29655
 Alpha  occ. eigenvalues --   -0.29172  -0.23226
 Alpha virt. eigenvalues --    0.00458   0.01365   0.01619   0.02186   0.03909
 Alpha virt. eigenvalues --    0.04265   0.04780   0.04833   0.05720   0.07332
 Alpha virt. eigenvalues --    0.07624   0.07900   0.08547   0.08934   0.09759
 Alpha virt. eigenvalues --    0.09895   0.11202   0.11754   0.12251   0.12941
 Alpha virt. eigenvalues --    0.13631   0.14050   0.14242   0.15058   0.15254
 Alpha virt. eigenvalues --    0.15367   0.16646   0.17053   0.18060   0.18516
 Alpha virt. eigenvalues --    0.18730   0.19249   0.20213   0.20363   0.20976
 Alpha virt. eigenvalues --    0.21448   0.22000   0.22421   0.23108   0.23326
 Alpha virt. eigenvalues --    0.23760   0.24755   0.24967   0.26051   0.26257
 Alpha virt. eigenvalues --    0.26799   0.27196   0.27710   0.28048   0.28456
 Alpha virt. eigenvalues --    0.28653   0.29960   0.30295   0.30993   0.31814
 Alpha virt. eigenvalues --    0.32869   0.33379   0.33659   0.34374   0.34874
 Alpha virt. eigenvalues --    0.35361   0.35527   0.36394   0.37135   0.37764
 Alpha virt. eigenvalues --    0.38430   0.39189   0.40055   0.40420   0.41429
 Alpha virt. eigenvalues --    0.42626   0.43255   0.44025   0.45039   0.45996
 Alpha virt. eigenvalues --    0.47918   0.63251   0.66427   0.66924   0.68125
 Alpha virt. eigenvalues --    0.69291   0.70785   0.71657   0.72694   0.73632
 Alpha virt. eigenvalues --    0.75062   0.76068   0.78090   0.79525   0.81216
 Alpha virt. eigenvalues --    0.82716   0.84782   0.87276   0.87310   0.88621
 Alpha virt. eigenvalues --    0.89427   0.91408   0.92641   0.94306   0.96049
 Alpha virt. eigenvalues --    0.98190   0.99762   1.01856   1.03269   1.05408
 Alpha virt. eigenvalues --    1.05981   1.06631   1.07799   1.07880   1.11289
 Alpha virt. eigenvalues --    1.11700   1.12845   1.13388   1.15015   1.15815
 Alpha virt. eigenvalues --    1.17120   1.19127   1.20706   1.23280   1.26185
 Alpha virt. eigenvalues --    1.27387   1.28050   1.29357   1.30337   1.31758
 Alpha virt. eigenvalues --    1.33577   1.35947   1.37048   1.39098   1.40811
 Alpha virt. eigenvalues --    1.43326   1.45531   1.46038   1.50577   1.51759
 Alpha virt. eigenvalues --    1.53332   1.56738   1.58408   1.59112   1.60437
 Alpha virt. eigenvalues --    1.61497   1.62804   1.63948   1.66172   1.68327
 Alpha virt. eigenvalues --    1.72232   1.73064   1.76953   1.77057   1.79638
 Alpha virt. eigenvalues --    1.81068   1.82568   1.85010   1.86167   1.87304
 Alpha virt. eigenvalues --    1.89689   1.90905   1.93573   1.94519   1.95865
 Alpha virt. eigenvalues --    1.97013   1.97794   2.00854   2.00979   2.02342
 Alpha virt. eigenvalues --    2.05088   2.06349   2.08055   2.08655   2.10232
 Alpha virt. eigenvalues --    2.10853   2.14045   2.16058   2.16780   2.17138
 Alpha virt. eigenvalues --    2.21132   2.23485   2.24580   2.27757   2.28613
 Alpha virt. eigenvalues --    2.30964   2.31647   2.33306   2.37776   2.39433
 Alpha virt. eigenvalues --    2.40846   2.42772   2.44999   2.45951   2.47175
 Alpha virt. eigenvalues --    2.48927   2.50806   2.51542   2.53524   2.55652
 Alpha virt. eigenvalues --    2.56652   2.58664   2.59879   2.62163   2.63942
 Alpha virt. eigenvalues --    2.65691   2.66490   2.67268   2.67789   2.69257
 Alpha virt. eigenvalues --    2.70691   2.71544   2.73842   2.75378   2.77763
 Alpha virt. eigenvalues --    2.79241   2.80238   2.80448   2.83253   2.84870
 Alpha virt. eigenvalues --    2.87450   2.89411   2.91283   2.92874   2.94139
 Alpha virt. eigenvalues --    2.97556   2.99260   3.01311   3.02194   3.04515
 Alpha virt. eigenvalues --    3.05322   3.10037   3.11767   3.14705   3.32388
 Alpha virt. eigenvalues --    3.35276   3.36174   3.36705   3.39998   3.45320
 Alpha virt. eigenvalues --    3.48612   3.51330   3.51925   3.54438   3.55860
 Alpha virt. eigenvalues --    3.57055   3.58023   3.60298   3.60750   4.27478
 Alpha virt. eigenvalues --    4.34749   4.39306   4.45696   4.48165   4.51311
 Alpha virt. eigenvalues --    4.55233   4.67858   4.78577   4.79540   4.87226
 Alpha virt. eigenvalues --    5.01089
          Condensed to atoms (all electrons):
              1          2          3          4          5          6
     1  C    5.903323  -0.565090   0.049889  -0.216703   0.135037   0.072761
     2  C   -0.565090   8.425138  -0.323966  -0.349655   0.322164  -0.501064
     3  N    0.049889  -0.323966   7.526234   0.227465  -0.169403  -0.317180
     4  C   -0.216703  -0.349655   0.227465   5.808746  -0.107538  -0.097166
     5  C    0.135037   0.322164  -0.169403  -0.107538   5.885185  -0.070043
     6  C    0.072761  -0.501064  -0.317180  -0.097166  -0.070043  10.266359
     7  C    0.033819   0.546811   0.066982  -0.078799  -0.044678  -2.347005
     8  C    0.172283  -1.388542  -0.122693   0.286068  -0.263923   1.060330
     9  H    0.373143  -0.056400   0.011161   0.022985  -0.021534   0.005222
    10  H    0.488717  -0.186336   0.032776   0.037139  -0.093951   0.002626
    11  H    0.054256   0.147659  -0.009755   0.019758  -0.031185   0.029173
    12  H    0.031377   0.001519  -0.046923   0.380855  -0.027194   0.005629
    13  H    0.007862   0.010516  -0.099868   0.417964  -0.036876  -0.007484
    14  H   -0.016484  -0.044875   0.015482  -0.028494   0.387560   0.004630
    15  H   -0.064052   0.043370   0.005156  -0.013432   0.374445  -0.006248
    16  H   -0.014650   0.037176  -0.077429   0.018856   0.021236   0.195773
    17  H    0.004941   0.004111   0.041688   0.005951   0.004497  -0.154241
    18  H    0.002370  -0.049302   0.016253  -0.000616   0.000998   0.036051
    19  O    0.027069  -0.102135   0.046950   0.020381  -0.014209   0.010039
    20  H   -0.003937  -0.058727   0.013143   0.006052  -0.005680   0.037337
    21  O    0.002675   0.009020   0.000772  -0.006939  -0.000164  -0.207834
    22  H    0.001480   0.014126   0.004669   0.000825   0.001280  -0.040192
    23  C   -0.029793   0.045813   0.272865  -0.090301   0.064853  -1.801476
    24  H    0.000358   0.008524   0.001788  -0.015096  -0.001035  -0.196425
    25  H   -0.000077   0.006653   0.014983   0.015316   0.002821  -0.145493
    26  O    0.001603   0.012822  -0.008241  -0.008105  -0.002660  -0.007482
    27  H   -0.000360  -0.001859  -0.000996   0.000035   0.000131   0.056283
              7          8          9         10         11         12
     1  C    0.033819   0.172283   0.373143   0.488717   0.054256   0.031377
     2  C    0.546811  -1.388542  -0.056400  -0.186336   0.147659   0.001519
     3  N    0.066982  -0.122693   0.011161   0.032776  -0.009755  -0.046923
     4  C   -0.078799   0.286068   0.022985   0.037139   0.019758   0.380855
     5  C   -0.044678  -0.263923  -0.021534  -0.093951  -0.031185  -0.027194
     6  C   -2.347005   1.060330   0.005222   0.002626   0.029173   0.005629
     7  C    8.016204  -1.365553  -0.003469  -0.007380  -0.039207   0.001150
     8  C   -1.365553   7.733765   0.011922   0.039937   0.096903  -0.003878
     9  H   -0.003469   0.011922   0.509108  -0.023338  -0.004471  -0.000096
    10  H   -0.007380   0.039937  -0.023338   0.527652   0.004076  -0.000053
    11  H   -0.039207   0.096903  -0.004471   0.004076   0.555153   0.000173
    12  H    0.001150  -0.003878  -0.000096  -0.000053   0.000173   0.536600
    13  H    0.010713  -0.005626  -0.000144   0.000556  -0.000590  -0.041216
    14  H   -0.001203   0.011800  -0.004905   0.004037   0.000693  -0.006000
    15  H    0.001716  -0.000338   0.000489  -0.005432  -0.000104   0.000727
    16  H    0.057707  -0.066833  -0.000006  -0.000254  -0.000675  -0.001133
    17  H    0.472652  -0.121630   0.000003  -0.000015   0.000224   0.000006
    18  H   -0.018662   0.343061   0.000253   0.000051  -0.002813   0.000004
    19  O   -0.161628   0.189336  -0.000607   0.010106   0.005754  -0.000011
    20  H   -0.018964   0.009628   0.000103   0.000234  -0.000012   0.000006
    21  O    0.359821  -0.026066   0.000012  -0.000154  -0.000383   0.000021
    22  H    0.073869  -0.097318   0.000000  -0.000010  -0.000016   0.000000
    23  C    0.648723  -0.632831   0.000856  -0.001273   0.000575  -0.000023
    24  H    0.083719  -0.011378   0.000000   0.000000  -0.000008  -0.000035
    25  H   -0.000117  -0.016535   0.000000   0.000000  -0.000028   0.000033
    26  O    0.031358  -0.029967   0.000001  -0.000030  -0.000263  -0.001954
    27  H   -0.007073   0.003978   0.000000   0.000000   0.000000   0.000039
             13         14         15         16         17         18
     1  C    0.007862  -0.016484  -0.064052  -0.014650   0.004941   0.002370
     2  C    0.010516  -0.044875   0.043370   0.037176   0.004111  -0.049302
     3  N   -0.099868   0.015482   0.005156  -0.077429   0.041688   0.016253
     4  C    0.417964  -0.028494  -0.013432   0.018856   0.005951  -0.000616
     5  C   -0.036876   0.387560   0.374445   0.021236   0.004497   0.000998
     6  C   -0.007484   0.004630  -0.006248   0.195773  -0.154241   0.036051
     7  C    0.010713  -0.001203   0.001716   0.057707   0.472652  -0.018662
     8  C   -0.005626   0.011800  -0.000338  -0.066833  -0.121630   0.343061
     9  H   -0.000144  -0.004905   0.000489  -0.000006   0.000003   0.000253
    10  H    0.000556   0.004037  -0.005432  -0.000254  -0.000015   0.000051
    11  H   -0.000590   0.000693  -0.000104  -0.000675   0.000224  -0.002813
    12  H   -0.041216  -0.006000   0.000727  -0.001133   0.000006   0.000004
    13  H    0.583202   0.003918  -0.004529   0.013855  -0.000021  -0.000019
    14  H    0.003918   0.519717  -0.024487  -0.000014  -0.000002  -0.000001
    15  H   -0.004529  -0.024487   0.514346  -0.000011   0.000000   0.000002
    16  H    0.013855  -0.000014  -0.000011   0.602931   0.004151  -0.000210
    17  H   -0.000021  -0.000002   0.000000   0.004151   0.530455  -0.003555
    18  H   -0.000019  -0.000001   0.000002  -0.000210  -0.003555   0.527810
    19  O   -0.000765   0.000136   0.000116   0.008992   0.013217  -0.048908
    20  H   -0.000235  -0.000004   0.000012  -0.001723  -0.000308   0.006008
    21  O   -0.000053  -0.000007  -0.000006  -0.003632  -0.055465  -0.000552
    22  H    0.000000   0.000000   0.000000   0.001997   0.006223  -0.000200
    23  C   -0.002683  -0.000694   0.000317   0.048710   0.058293   0.013313
    24  H    0.000040   0.000000   0.000000  -0.002994  -0.000292  -0.000004
    25  H    0.000008  -0.000001   0.000000   0.005011   0.003065  -0.000002
    26  O    0.000695  -0.000062   0.000014   0.007119   0.000301   0.000024
    27  H   -0.000001   0.000000   0.000000  -0.000126  -0.000013   0.000000
             19         20         21         22         23         24
     1  C    0.027069  -0.003937   0.002675   0.001480  -0.029793   0.000358
     2  C   -0.102135  -0.058727   0.009020   0.014126   0.045813   0.008524
     3  N    0.046950   0.013143   0.000772   0.004669   0.272865   0.001788
     4  C    0.020381   0.006052  -0.006939   0.000825  -0.090301  -0.015096
     5  C   -0.014209  -0.005680  -0.000164   0.001280   0.064853  -0.001035
     6  C    0.010039   0.037337  -0.207834  -0.040192  -1.801476  -0.196425
     7  C   -0.161628  -0.018964   0.359821   0.073869   0.648723   0.083719
     8  C    0.189336   0.009628  -0.026066  -0.097318  -0.632831  -0.011378
     9  H   -0.000607   0.000103   0.000012   0.000000   0.000856   0.000000
    10  H    0.010106   0.000234  -0.000154  -0.000010  -0.001273   0.000000
    11  H    0.005754  -0.000012  -0.000383  -0.000016   0.000575  -0.000008
    12  H   -0.000011   0.000006   0.000021   0.000000  -0.000023  -0.000035
    13  H   -0.000765  -0.000235  -0.000053   0.000000  -0.002683   0.000040
    14  H    0.000136  -0.000004  -0.000007   0.000000  -0.000694   0.000000
    15  H    0.000116   0.000012  -0.000006   0.000000   0.000317   0.000000
    16  H    0.008992  -0.001723  -0.003632   0.001997   0.048710  -0.002994
    17  H    0.013217  -0.000308  -0.055465   0.006223   0.058293  -0.000292
    18  H   -0.048908   0.006008  -0.000552  -0.000200   0.013313  -0.000004
    19  O    8.248447   0.257279  -0.021047   0.040612   0.057543  -0.000268
    20  H    0.257279   0.348459  -0.002970  -0.004075   0.020115   0.000005
    21  O   -0.021047  -0.002970   8.212097   0.246672   0.008086   0.007324
    22  H    0.040612  -0.004075   0.246672   0.354964   0.008573  -0.000135
    23  C    0.057543   0.020115   0.008086   0.008573   6.618875   0.495537
    24  H   -0.000268   0.000005   0.007324  -0.000135   0.495537   0.577003
    25  H    0.000147  -0.000002  -0.000233  -0.000001   0.485278  -0.045530
    26  O    0.000524   0.000071  -0.000886   0.000058   0.075553  -0.059028
    27  H   -0.000006   0.000000   0.000022   0.000000  -0.041420  -0.003630
             25         26         27
     1  C   -0.000077   0.001603  -0.000360
     2  C    0.006653   0.012822  -0.001859
     3  N    0.014983  -0.008241  -0.000996
     4  C    0.015316  -0.008105   0.000035
     5  C    0.002821  -0.002660   0.000131
     6  C   -0.145493  -0.007482   0.056283
     7  C   -0.000117   0.031358  -0.007073
     8  C   -0.016535  -0.029967   0.003978
     9  H    0.000000   0.000001   0.000000
    10  H    0.000000  -0.000030   0.000000
    11  H   -0.000028  -0.000263   0.000000
    12  H    0.000033  -0.001954   0.000039
    13  H    0.000008   0.000695  -0.000001
    14  H   -0.000001  -0.000062   0.000000
    15  H    0.000000   0.000014   0.000000
    16  H    0.005011   0.007119  -0.000126
    17  H    0.003065   0.000301  -0.000013
    18  H   -0.000002   0.000024   0.000000
    19  O    0.000147   0.000524  -0.000006
    20  H   -0.000002   0.000071   0.000000
    21  O   -0.000233  -0.000886   0.000022
    22  H   -0.000001   0.000058   0.000000
    23  C    0.485278   0.075553  -0.041420
    24  H   -0.045530  -0.059028  -0.003630
    25  H    0.564587  -0.047267  -0.005028
    26  O   -0.047267   8.398016   0.227276
    27  H   -0.005028   0.227276   0.378473
 Mulliken atomic charges:
              1
     1  C   -0.451816
     2  C   -0.007470
     3  N   -0.171799
     4  C   -0.255551
     5  C   -0.310135
     6  C    0.117122
     7  C   -0.311506
     8  C    0.194101
     9  H    0.179712
    10  H    0.170319
    11  H    0.175116
    12  H    0.170377
    13  H    0.150781
    14  H    0.179260
    15  H    0.177928
    16  H    0.146176
    17  H    0.185767
    18  H    0.178644
    19  O   -0.587064
    20  H    0.398186
    21  O   -0.520130
    22  H    0.386602
    23  C   -0.323382
    24  H    0.161560
    25  H    0.162413
    26  O   -0.589486
    27  H    0.394275
 Sum of Mulliken atomic charges =   0.00000
 Mulliken charges with hydrogens summed into heavy atoms:
              1
     1  C   -0.101785
     2  C    0.167645
     3  N   -0.171799
     4  C    0.065607
     5  C    0.047053
     6  C    0.263298
     7  C   -0.125739
     8  C    0.372745
    19  O   -0.188878
    21  O   -0.133528
    23  C    0.000591
    26  O   -0.195211
 Sum of Mulliken charges with hydrogens summed into heavy atoms =   0.00000
 Electronic spatial extent (au):  <R**2>=           2063.1116
 Charge=              0.0000 electrons
 Dipole moment (field-independent basis, Debye):
    X=             -1.0811    Y=             -1.3166    Z=              0.3489  Tot=              1.7389
 Quadrupole moment (field-independent basis, Debye-Ang):
   XX=            -68.1365   YY=            -81.6331   ZZ=            -69.6059
   XY=             -4.9030   XZ=              1.8555   YZ=              0.2453
 Traceless Quadrupole moment (field-independent basis, Debye-Ang):
   XX=              4.9887   YY=             -8.5079   ZZ=              3.5192
   XY=             -4.9030   XZ=              1.8555   YZ=              0.2453
 Octapole moment (field-independent basis, Debye-Ang**2):
  XXX=             24.3094  YYY=            -20.5469  ZZZ=             -8.5945  XYY=              7.3931
  XXY=            -37.1882  XXZ=              8.6376  XZZ=              1.6953  YZZ=             11.9439
  YYZ=              6.7219  XYZ=            -13.1486
 Hexadecapole moment (field-independent basis, Debye-Ang**3):
 XXXX=          -1238.6567 YYYY=          -1095.6486 ZZZZ=           -222.2204 XXXY=           -126.4666
 XXXZ=             10.9979 YYYX=            -60.5398 YYYZ=             -6.0924 ZZZX=              4.6840
 ZZZY=            -12.5220 XXYY=           -375.8504 XXZZ=           -256.5809 YYZZ=           -216.0078
 XXYZ=            -13.3999 YYXZ=             -6.3725 ZZXY=              8.2489
 N-N= 8.050365348528D+02 E-N=-2.995892750118D+03  KE= 5.886602374295D+02
 1\1\GINC-COMPUTE-3-1\SP\RmPW1PW91\6-31+G(d,p)\C8H15N1O3\MAMICHETTI.IQU
 IR\17-May-2024\0\\# mpw1pw91/6-31+G** nmr scrf=(pcm,solvent=water)\\co
 mment\\0,1\C,0,-2.544294,-0.012865,0.092685\C,0,-1.220284,0.343029,0.7
 8658\N,0,-0.261392,-0.778386,0.466967\C,0,-0.954777,-1.725562,-0.42734
 8\C,0,-2.439024,-1.533648,-0.108287\C,0,0.981753,-0.192677,-0.065706\C
 ,0,0.978216,1.246897,0.492263\C,0,-0.506763,1.64387,0.382333\H,0,-3.41
 5202,0.288685,0.682141\H,0,-2.610679,0.486851,-0.879802\H,0,-1.36758,0
 .378092,1.873611\H,0,-0.613114,-2.752504,-0.259766\H,0,-0.762161,-1.48
 6355,-1.487804\H,0,-2.701745,-2.062962,0.815616\H,0,-3.087204,-1.90735
 4,-0.907186\H,0,0.947395,-0.130016,-1.16993\H,0,1.280618,1.237069,1.54
 5614\H,0,-0.763596,2.480484,1.03568\O,0,-0.780765,2.118496,-0.945399\H
 ,0,-0.691508,1.378259,-1.571137\O,0,1.849901,2.140779,-0.181475\H,0,1.
 357392,2.418206,-0.97748\C,0,2.247947,-0.94918,0.297886\H,0,3.116353,-
 0.351328,-0.016037\H,0,2.306876,-1.083686,1.387074\O,0,2.247585,-2.218
 08,-0.368458\H,0,3.043482,-2.69349,-0.079155\\Version=AM64L-G09RevC.01
 \State=1-A\HF=-594.1972053\RMSD=5.009e-09\Dipole=-0.4253293,-0.5179815
 ,0.1372507\Quadrupole=3.7089731,-6.3254293,2.6164562,-3.6452529,1.3794
 955,0.1823506\PG=C01 [X(C8H15N1O3)]\\@


 One man practicing sportsmanship is far better than 50 preaching it.
 -- Knute K. Rockne
 Job cpu time:  0 days  0 hours  8 minutes 22.1 seconds.
 File lengths (MBytes):  RWF=    113 Int=      0 D2E=      0 Chk=      7 Scr=      1
 Normal termination of Gaussian 09 at Fri May 17 12:27:07 2024.
