 Entering Gaussian System, Link 0=g09
 Input=/home/mamichetti.iquir/Linux/02_Cardona_A1A3_R__R_R_R_007_OptB.gjc
 Output=/home/mamichetti.iquir/Linux/02_Cardona_A1A3_R__R_R_R_007_OptB.log
 Initial command:
 /opt/ohpc/pub/apps/software/Gaussian/09/AMD64.SSE4a-enabled/g09/l1.exe /local/mamichetti.iquir/Gau-712263.inp -scrdir=/local/mamichetti.iquir/
 Entering Link 1 = /opt/ohpc/pub/apps/software/Gaussian/09/AMD64.SSE4a-enabled/g09/l1.exe PID=    712264.
  
 Copyright (c) 1988,1990,1992,1993,1995,1998,2003,2009,2011,
            Gaussian, Inc.  All Rights Reserved.
  
 This is part of the Gaussian(R) 09 program.  It is based on
 the Gaussian(R) 03 system (copyright 2003, Gaussian, Inc.),
 the Gaussian(R) 98 system (copyright 1998, Gaussian, Inc.),
 the Gaussian(R) 94 system (copyright 1995, Gaussian, Inc.),
 the Gaussian 92(TM) system (copyright 1992, Gaussian, Inc.),
 the Gaussian 90(TM) system (copyright 1990, Gaussian, Inc.),
 the Gaussian 88(TM) system (copyright 1988, Gaussian, Inc.),
 the Gaussian 86(TM) system (copyright 1986, Carnegie Mellon
 University), and the Gaussian 82(TM) system (copyright 1983,
 Carnegie Mellon University). Gaussian is a federally registered
 trademark of Gaussian, Inc.
  
 This software contains proprietary and confidential information,
 including trade secrets, belonging to Gaussian, Inc.
  
 This software is provided under written license and may be
 used, copied, transmitted, or stored only in accord with that
 written license.
  
 The following legend is applicable only to US Government
 contracts under FAR:
  
                    RESTRICTED RIGHTS LEGEND
  
 Use, reproduction and disclosure by the US Government is
 subject to restrictions as set forth in subparagraphs (a)
 and (c) of the Commercial Computer Software - Restricted
 Rights clause in FAR 52.227-19.
  
 Gaussian, Inc.
 340 Quinnipiac St., Bldg. 40, Wallingford CT 06492
  
  
 ---------------------------------------------------------------
 Warning -- This program may not be used in any manner that
 competes with the business of Gaussian, Inc. or will provide
 assistance to any competitor of Gaussian, Inc.  The licensee
 of this program is prohibited from giving any competitor of
 Gaussian, Inc. access to this program.  By using this program,
 the user acknowledges that Gaussian, Inc. is engaged in the
 business of creating and licensing software in the field of
 computational chemistry and represents and warrants to the
 licensee that it is not a competitor of Gaussian, Inc. and that
 it will not use this program in any manner prohibited above.
 ---------------------------------------------------------------
  

 Cite this work as:
 Gaussian 09, Revision C.01,
 M. J. Frisch, G. W. Trucks, H. B. Schlegel, G. E. Scuseria, 
 M. A. Robb, J. R. Cheeseman, G. Scalmani, V. Barone, B. Mennucci, 
 G. A. Petersson, H. Nakatsuji, M. Caricato, X. Li, H. P. Hratchian, 
 A. F. Izmaylov, J. Bloino, G. Zheng, J. L. Sonnenberg, M. Hada, 
 M. Ehara, K. Toyota, R. Fukuda, J. Hasegawa, M. Ishida, T. Nakajima, 
 Y. Honda, O. Kitao, H. Nakai, T. Vreven, J. A. Montgomery, Jr., 
 J. E. Peralta, F. Ogliaro, M. Bearpark, J. J. Heyd, E. Brothers, 
 K. N. Kudin, V. N. Staroverov, T. Keith, R. Kobayashi, J. Normand, 
 K. Raghavachari, A. Rendell, J. C. Burant, S. S. Iyengar, J. Tomasi, 
 M. Cossi, N. Rega, J. M. Millam, M. Klene, J. E. Knox, J. B. Cross, 
 V. Bakken, C. Adamo, J. Jaramillo, R. Gomperts, R. E. Stratmann, 
 O. Yazyev, A. J. Austin, R. Cammi, C. Pomelli, J. W. Ochterski, 
 R. L. Martin, K. Morokuma, V. G. Zakrzewski, G. A. Voth, 
 P. Salvador, J. J. Dannenberg, S. Dapprich, A. D. Daniels, 
 O. Farkas, J. B. Foresman, J. V. Ortiz, J. Cioslowski, 
 and D. J. Fox, Gaussian, Inc., Wallingford CT, 2010.
 
 ******************************************
 Gaussian 09:  AM64L-G09RevC.01 23-Sep-2011
                17-May-2024 
 ******************************************
 %nprocshared=4
 Will use up to    4 processors via shared memory.
 ------------------------------------------------
 # mpw1pw91/6-31+G** nmr scrf=(pcm,solvent=water)
 ------------------------------------------------
 1/38=1/1;
 2/12=2,17=6,18=5,40=1/2;
 3/5=1,6=6,7=111,11=2,16=1,25=1,30=1,70=2201,72=1,74=-7/1,2,8,3;
 4//1;
 5/5=2,38=5,53=1/2;
 8/6=1,10=90,11=11/1;
 10/13=100,45=16/2;
 6/7=2,8=2,9=2,10=2,28=1/1;
 99/9=1/99;
 -------
 comment
 -------
 Charge =  0 Multiplicity = 1
 Symbolic Z-Matrix:
 6                     2.25878  -1.11731   0.20507 
 6                     1.26907  -0.16339  -0.48249 
 7                    -0.07933  -0.81848  -0.37562 
 6                     0.07662  -2.08368   0.36873 
 6                     1.53971  -2.47479   0.14527 
 6                    -1.03843   0.14855   0.19053 
 6                    -0.39732   1.51329  -0.08493 
 6                     1.08983   1.23716   0.12411 
 1                     3.24049  -1.12562  -0.27818 
 1                     2.40076  -0.8198    1.25178 
 1                     1.53204  -0.04043  -1.54246 
 1                    -0.62092  -2.84876   0.00913 
 1                    -0.12007  -1.94092   1.44505 
 1                     1.66345  -2.93181  -0.84406 
 1                     1.89902  -3.18821   0.89336 
 1                    -1.12179   0.02678   1.28516 
 1                    -0.55614   1.80101  -1.13561 
 1                     1.2843    1.20929   1.20581 
 8                     1.86932   2.26382  -0.48792 
 1                     2.79237   2.12637  -0.21768 
 8                    -0.94775   2.50205   0.78093 
 1                    -0.57775   3.35656   0.50319 
 6                    -2.44133   0.03169  -0.39854 
 1                    -3.07471   0.81676   0.02784 
 1                    -2.40099   0.17873  -1.48706 
 8                    -3.08375  -1.20826  -0.0812 
 1                    -2.62884  -1.90056  -0.58789 
 
                          Input orientation:                          
 ---------------------------------------------------------------------
 Center     Atomic      Atomic             Coordinates (Angstroms)
 Number     Number       Type             X           Y           Z
 ---------------------------------------------------------------------
      1          6           0        2.258778   -1.117308    0.205073
      2          6           0        1.269067   -0.163391   -0.482493
      3          7           0       -0.079329   -0.818481   -0.375624
      4          6           0        0.076618   -2.083681    0.368732
      5          6           0        1.539707   -2.474785    0.145270
      6          6           0       -1.038433    0.148554    0.190528
      7          6           0       -0.397318    1.513288   -0.084930
      8          6           0        1.089833    1.237157    0.124111
      9          1           0        3.240490   -1.125615   -0.278179
     10          1           0        2.400764   -0.819796    1.251781
     11          1           0        1.532037   -0.040425   -1.542462
     12          1           0       -0.620915   -2.848758    0.009132
     13          1           0       -0.120069   -1.940923    1.445046
     14          1           0        1.663449   -2.931810   -0.844062
     15          1           0        1.899015   -3.188214    0.893364
     16          1           0       -1.121790    0.026781    1.285163
     17          1           0       -0.556137    1.801007   -1.135614
     18          1           0        1.284303    1.209286    1.205808
     19          8           0        1.869316    2.263816   -0.487923
     20          1           0        2.792372    2.126369   -0.217682
     21          8           0       -0.947747    2.502049    0.780934
     22          1           0       -0.577749    3.356561    0.503189
     23          6           0       -2.441327    0.031686   -0.398537
     24          1           0       -3.074708    0.816762    0.027839
     25          1           0       -2.400993    0.178727   -1.487062
     26          8           0       -3.083754   -1.208258   -0.081203
     27          1           0       -2.628844   -1.900564   -0.587887
 ---------------------------------------------------------------------
                    Distance matrix (angstroms):
                    1          2          3          4          5
     1  C    0.000000
     2  C    1.536956   0.000000
     3  N    2.427602   1.502909   0.000000
     4  C    2.392171   2.415374   1.476183   0.000000
     5  C    1.537330   2.410368   2.374016   1.530858   0.000000
     6  C    3.531886   2.423803   1.474980   2.501593   3.678418
     7  C    3.749531   2.397112   2.371237   3.656311   4.439570
     8  C    2.629923   1.536759   2.417090   3.480576   3.739164
     9  H    1.094239   2.203209   3.335420   3.368452   2.211839
    10  H    1.097393   2.172398   2.966363   2.789056   2.169049
    11  H    2.177546   1.099003   2.136207   3.153697   2.962196
    12  H    3.365850   3.320380   2.136206   1.095996   2.196970
    13  H    2.806205   2.967276   2.139246   1.103412   2.174691
    14  H    2.178880   2.819648   2.779005   2.169844   1.096796
    15  H    2.211747   3.382214   3.337635   2.194621   1.094408
    16  H    3.728776   2.979424   2.135277   2.594239   3.826324
    17  H    4.270568   2.759854   2.768871   4.213578   4.931087
    18  H    2.713690   2.175967   2.910714   3.605944   3.842181
    19  O    3.473316   2.500332   3.648340   4.779995   4.792068
    20  H    3.314345   2.762894   4.116279   5.044177   4.782418
    21  O    4.869616   3.689862   3.621836   4.716795   5.600033
    22  H    5.305682   4.095407   4.295545   5.481105   6.214203
    23  C    4.876015   3.716467   2.510447   3.376911   4.735689
    24  H    5.676100   4.482133   3.436437   4.296468   5.669294
    25  H    5.124109   3.820411   2.760406   3.834191   5.023420
    26  O    5.350969   4.494422   3.043876   3.310099   4.799143
    27  H    5.013095   4.268792   2.777766   2.875444   4.271307
                    6          7          8          9         10
     6  C    0.000000
     7  C    1.532777   0.000000
     8  C    2.391440   1.526946   0.000000
     9  H    4.489140   4.498311   3.220226   0.000000
    10  H    3.727202   3.880637   2.687236   1.771847   0.000000
    11  H    3.105847   2.874167   2.145979   2.386391   3.028184
    12  H    3.031684   4.368786   4.431092   4.238186   3.845960
    13  H    2.604443   3.788043   3.648140   3.863624   2.765660
    14  H    4.226013   4.958018   4.318180   2.463660   3.065419
    15  H    4.500733   5.323000   4.564037   2.725139   2.447370
    16  H    1.104537   2.147491   2.775667   4.775096   3.623009
    17  H    2.172985   1.100883   2.148034   4.869773   4.616441
    18  H    2.747917   2.141558   1.099392   3.388310   2.316414
    19  O    3.659185   2.421430   1.426958   3.662288   3.580177
    20  H    4.330526   3.250787   1.950938   3.283271   3.315504
    21  O    2.428115   1.424900   2.486584   5.641187   4.740135
    22  H    3.255963   1.943218   2.723307   5.939645   5.184003
    23  C    1.526030   2.543908   3.767680   5.799731   5.185983
    24  H    2.149276   2.768805   4.186813   6.614242   5.844412
    25  H    2.161432   2.785990   3.987734   5.915153   5.617400
    26  O    2.469436   3.824103   4.841594   6.327850   5.657534
    27  H    2.708177   4.109387   4.917397   5.928368   5.463460
                   11         12         13         14         15
    11  H    0.000000
    12  H    3.863856   0.000000
    13  H    3.907243   1.771118   0.000000
    14  H    2.977438   2.439909   3.066400   0.000000
    15  H    3.997061   2.692052   2.436552   1.771972   0.000000
    16  H    3.878502   3.185570   2.213790   4.587419   4.428878
    17  H    2.813693   4.789045   4.566399   5.235563   5.919193
    18  H    3.029214   4.640001   3.457356   4.636205   4.451236
    19  O    2.556430   5.708479   5.037246   5.211885   5.624364
    20  H    2.835222   6.037703   5.271607   5.220344   5.502481
    21  O    4.244016   5.416053   4.567942   6.243859   6.363630
    22  H    4.491703   6.225106   5.399991   6.810408   7.008614
    23  C    4.135382   3.431771   3.560649   5.082321   5.556558
    24  H    4.941934   4.411064   4.282895   6.104272   6.444136
    25  H    3.939520   3.817452   4.277007   5.158350   5.957582
    26  O    4.980426   2.960570   3.413160   5.107692   5.449587
    27  H    4.656636   2.299409   3.229303   4.421863   4.934942
                   16         17         18         19         20
    16  H    0.000000
    17  H    3.054178   0.000000
    18  H    2.682144   3.036381   0.000000
    19  O    4.134595   2.552747   2.079182   0.000000
    20  H    4.689081   3.487259   2.267518   0.971573   0.000000
    21  O    2.532092   2.077974   2.614154   3.098806   3.889326
    22  H    3.463365   2.259622   2.927747   2.857363   3.659336
    23  C    2.139170   2.688442   4.223859   4.855104   5.640214
    24  H    2.453329   2.943732   4.532401   5.177195   6.016476
    25  H    3.056907   2.481693   4.679210   4.856070   5.689963
    26  O    2.691018   4.068944   5.155661   6.062477   6.757753
    27  H    3.081264   4.277587   5.310483   6.130701   6.763344
                   21         22         23         24         25
    21  O    0.000000
    22  H    0.971716   0.000000
    23  C    3.118433   3.916737   0.000000
    24  H    2.816258   3.593235   1.095131   0.000000
    25  H    3.557184   4.169406   1.099152   1.776487   0.000000
    26  O    4.367171   5.240148   1.432087   2.027974   2.089576
    27  H    4.907419   5.747591   1.950540   2.821662   2.276814
                   26         27
    26  O    0.000000
    27  H    0.971061   0.000000
 Stoichiometry    C8H15NO3
 Framework group  C1[X(C8H15NO3)]
 Deg. of freedom    75
 Full point group                 C1      NOp   1
 Largest Abelian subgroup         C1      NOp   1
 Largest concise Abelian subgroup C1      NOp   1
                         Standard orientation:                         
 ---------------------------------------------------------------------
 Center     Atomic      Atomic             Coordinates (Angstroms)
 Number     Number       Type             X           Y           Z
 ---------------------------------------------------------------------
      1          6           0        2.258780   -1.117305    0.205073
      2          6           0        1.269067   -0.163389   -0.482493
      3          7           0       -0.079328   -0.818481   -0.375624
      4          6           0        0.076621   -2.083681    0.368732
      5          6           0        1.539711   -2.474783    0.145270
      6          6           0       -1.038433    0.148553    0.190528
      7          6           0       -0.397320    1.513287   -0.084930
      8          6           0        1.089831    1.237159    0.124111
      9          1           0        3.240492   -1.125610   -0.278179
     10          1           0        2.400765   -0.819793    1.251781
     11          1           0        1.532037   -0.040423   -1.542462
     12          1           0       -0.620911   -2.848759    0.009132
     13          1           0       -0.120066   -1.940923    1.445046
     14          1           0        1.663453   -2.931808   -0.844062
     15          1           0        1.899020   -3.188211    0.893364
     16          1           0       -1.121790    0.026779    1.285163
     17          1           0       -0.556139    1.801006   -1.135614
     18          1           0        1.284301    1.209288    1.205808
     19          8           0        1.869313    2.263819   -0.487923
     20          1           0        2.792369    2.126373   -0.217682
     21          8           0       -0.947750    2.502048    0.780934
     22          1           0       -0.577754    3.356560    0.503189
     23          6           0       -2.441327    0.031683   -0.398537
     24          1           0       -3.074709    0.816758    0.027839
     25          1           0       -2.400993    0.178724   -1.487062
     26          8           0       -3.083752   -1.208262   -0.081203
     27          1           0       -2.628841   -1.900568   -0.587887
 ---------------------------------------------------------------------
 Rotational constants (GHZ):      1.0188855      0.9504985      0.5314332
 Standard basis: 6-31+G(d,p) (6D, 7F)
 There are   303 symmetry adapted basis functions of A   symmetry.
 Integral buffers will be    131072 words long.
 Raffenetti 2 integral format.
 Two-electron integral symmetry is turned on.
   303 basis functions,   489 primitive gaussians,   303 cartesian basis functions
    47 alpha electrons       47 beta electrons
       nuclear repulsion energy       794.8818459633 Hartrees.
 NAtoms=   27 NActive=   27 NUniq=   27 SFac= 1.00D+00 NAtFMM=   60 NAOKFM=F Big=F
 ------------------------------------------------------------------------------
 Polarizable Continuum Model (PCM)
 =================================
 Model                : PCM.
 Atomic radii         : UFF (Universal Force Field).
 Polarization charges : Total charges.
 Charge compensation  : None.
 Solution method      : Matrix inversion.
 Cavity type          : Scaled VdW (van der Waals Surface) (Alpha=1.100).
 Cavity algorithm     : GePol (No added spheres)
                        Default sphere list used, NSphG=   27.
                        Lebedev-Laikov grids with approx.  5.0 points / Ang**2.
                        Smoothing algorithm: Karplus/York (Gamma=1.0000).
                        Polarization charges: spherical gaussians, with
                                              point-specific exponents (IZeta= 3).
                        Self-potential: point-specific (ISelfS= 7).
                        Self-field    : sphere-specific E.n sum rule (ISelfD= 2).
 Solvent              : Water, Eps=  78.355300 Eps(inf)=   1.777849
 ------------------------------------------------------------------------------
 One-electron integrals computed using PRISM.
 NBasis=   303 RedAO= T  NBF=   303
 NBsUse=   303 1.00D-06 NBFU=   303
 Harris functional with IExCor=  908 diagonalized for initial guess.
 ExpMin= 4.38D-02 ExpMax= 5.48D+03 ExpMxC= 8.25D+02 IAcc=2 IRadAn=         4 AccDes= 0.00D+00
 HarFok:  IExCor=  908 AccDes= 0.00D+00 IRadAn=         4 IDoV= 1
 ScaDFX=  1.000000  1.000000  1.000000  1.000000
 FoFCou: FMM=F IPFlag=           0 FMFlag=      100000 FMFlg1=           0
         NFxFlg=           0 DoJE=T BraDBF=F KetDBF=T FulRan=T
         Omega=  0.000000  0.000000  1.000000  0.000000  0.000000 ICntrl=     500 IOpCl=  0
         NMat0=    1 NMatS0=    1 NMatT0=    0 NMatD0=    1 NMtDS0=    0 NMtDT0=    0
         I1Cent=           4 NGrid=           0.
 Petite list used in FoFCou.
 Initial guess orbital symmetries:
       Occupied  (A) (A) (A) (A) (A) (A) (A) (A) (A) (A) (A) (A)
                 (A) (A) (A) (A) (A) (A) (A) (A) (A) (A) (A) (A)
                 (A) (A) (A) (A) (A) (A) (A) (A) (A) (A) (A) (A)
                 (A) (A) (A) (A) (A) (A) (A) (A) (A) (A) (A)
       Virtual   (A) (A) (A) (A) (A) (A) (A) (A) (A) (A) (A) (A)
                 (A) (A) (A) (A) (A) (A) (A) (A) (A) (A) (A) (A)
                 (A) (A) (A) (A) (A) (A) (A) (A) (A) (A) (A) (A)
                 (A) (A) (A) (A) (A) (A) (A) (A) (A) (A) (A) (A)
                 (A) (A) (A) (A) (A) (A) (A) (A) (A) (A) (A) (A)
                 (A) (A) (A) (A) (A) (A) (A) (A) (A) (A) (A) (A)
                 (A) (A) (A) (A) (A) (A) (A) (A) (A) (A) (A) (A)
                 (A) (A) (A) (A) (A) (A) (A) (A) (A) (A) (A) (A)
                 (A) (A) (A) (A) (A) (A) (A) (A) (A) (A) (A) (A)
                 (A) (A) (A) (A) (A) (A) (A) (A) (A) (A) (A) (A)
                 (A) (A) (A) (A) (A) (A) (A) (A) (A) (A) (A) (A)
                 (A) (A) (A) (A) (A) (A) (A) (A) (A) (A) (A) (A)
                 (A) (A) (A) (A) (A) (A) (A) (A) (A) (A) (A) (A)
                 (A) (A) (A) (A) (A) (A) (A) (A) (A) (A) (A) (A)
                 (A) (A) (A) (A) (A) (A) (A) (A) (A) (A) (A) (A)
                 (A) (A) (A) (A) (A) (A) (A) (A) (A) (A) (A) (A)
                 (A) (A) (A) (A) (A) (A) (A) (A) (A) (A) (A) (A)
                 (A) (A) (A) (A) (A) (A) (A) (A) (A) (A) (A) (A)
                 (A) (A) (A) (A) (A) (A) (A) (A) (A) (A) (A) (A)
                 (A) (A) (A) (A) (A) (A) (A) (A) (A) (A) (A) (A)
                 (A) (A) (A) (A) (A) (A) (A) (A) (A) (A) (A) (A)
                 (A) (A) (A) (A)
 The electronic state of the initial guess is 1-A.
 Requested convergence on RMS density matrix=1.00D-08 within 128 cycles.
 Requested convergence on MAX density matrix=1.00D-06.
 Requested convergence on             energy=1.00D-06.
 No special actions if energy rises.
 Error on total polarization charges =  0.01467
 SCF Done:  E(RmPW1PW91) =  -594.199089394     A.U. after   13 cycles
             Convg  =    0.7540D-08             -V/T =  2.0094
 Range of M.O.s used for correlation:     1   303
 NBasis=   303 NAE=    47 NBE=    47 NFC=     0 NFV=     0
 NROrb=    303 NOA=    47 NOB=    47 NVA=   256 NVB=   256

 **** Warning!!: The largest alpha MO coefficient is  0.55916813D+02

 NEqPCM:  Using equilibrium solvation (IEInf=0, Eps=  78.3553, EpsInf=   1.7778)
          Differentiating once with respect to magnetic field using GIAOs.
          Electric field/nuclear overlap derivatives assumed to be zero.
 FoFCou: FMM=F IPFlag=           0 FMFlag=    10101102 FMFlg1=           0
         NFxFlg=    40000000 DoJE=F BraDBF=F KetDBF=T FulRan=T
         Omega=  0.000000  0.000000  1.000000  0.000000  0.000000 ICntrl=    6100 IOpCl=  0
         NMat0=    1 NMatS0=    1 NMatT0=    0 NMatD0=    1 NMtDS0=    0 NMtDT0=    0
         I1Cent=           7 NGrid=        1864.
 Symmetry not used in FoFCou.
          There are     3 degrees of freedom in the 1st order CPHF.  IDoFFX=0.
      3 vectors produced by pass  0 Test12= 4.01D-13 3.33D-08 XBig12= 4.57D+01 1.20D+00.
 AX will form     3 AO Fock derivatives at one time.
      3 vectors produced by pass  1 Test12= 4.01D-13 3.33D-08 XBig12= 1.18D-01 6.13D-02.
      3 vectors produced by pass  2 Test12= 4.01D-13 3.33D-08 XBig12= 2.94D-04 3.59D-03.
      3 vectors produced by pass  3 Test12= 4.01D-13 3.33D-08 XBig12= 1.05D-06 2.03D-04.
      3 vectors produced by pass  4 Test12= 4.01D-13 3.33D-08 XBig12= 3.00D-09 8.37D-06.
      3 vectors produced by pass  5 Test12= 4.01D-13 3.33D-08 XBig12= 1.13D-11 6.10D-07.
 Inverted reduced A of dimension    18 with in-core refinement.
 Calculating GIAO nuclear magnetic shielding tensors.
 SCF GIAO Magnetic shielding tensor (ppm):
      1  C    Isotropic =   163.1877   Anisotropy =    24.6669
   XX=   161.2797   YX=    -9.3024   ZX=     8.4311
   XY=     0.3028   YY=   175.1711   ZY=    -6.6013
   XZ=    13.4546   YZ=    -4.4205   ZZ=   153.1122
   Eigenvalues:   145.3775   164.5532   179.6322
      2  C    Isotropic =   125.8382   Anisotropy =    54.8228
   XX=   142.2577   YX=    15.8598   ZX=    -2.1809
   XY=    24.7866   YY=   141.3378   ZY=    -2.9602
   XZ=    -5.6453   YZ=    -1.1166   ZZ=    93.9192
   Eigenvalues:    93.6004   121.5276   162.3867
      3  N    Isotropic =   195.5189   Anisotropy =    91.2868
   XX=   245.8978   YX=   -16.4943   ZX=   -10.7942
   XY=   -25.2909   YY=   212.0986   ZY=    -9.1796
   XZ=   -14.4314   YZ=    -6.7363   ZZ=   128.5604
   Eigenvalues:   125.9832   204.1967   256.3768
      4  C    Isotropic =   136.2809   Anisotropy =    56.9890
   XX=   127.5074   YX=   -10.4386   ZX=     2.3945
   XY=   -20.0441   YY=   157.8716   ZY=   -22.5682
   XZ=    -4.0899   YZ=   -26.1847   ZZ=   123.4638
   Eigenvalues:   107.3672   127.2020   174.2736
      5  C    Isotropic =   163.9108   Anisotropy =    24.1395
   XX=   179.8550   YX=    -0.2610   ZX=     1.0376
   XY=    -0.8465   YY=   177.8850   ZY=   -11.8078
   XZ=    -4.7771   YZ=     0.1616   ZZ=   133.9924
   Eigenvalues:   133.1536   178.5750   180.0038
      6  C    Isotropic =   123.8535   Anisotropy =    38.0205
   XX=   118.7737   YX=   -10.4662   ZX=    -4.0348
   XY=   -17.6820   YY=   138.1540   ZY=    13.0592
   XZ=   -14.8835   YZ=     2.1462   ZZ=   114.6328
   Eigenvalues:   106.5791   115.7810   149.2006
      7  C    Isotropic =   115.0216   Anisotropy =    42.0534
   XX=   126.9857   YX=    -9.0090   ZX=   -11.0217
   XY=    -9.7121   YY=   128.1780   ZY=    27.5759
   XZ=    -3.9711   YZ=     6.9655   ZZ=    89.9010
   Eigenvalues:    82.9418   119.0657   143.0571
      8  C    Isotropic =   110.9166   Anisotropy =    14.8178
   XX=   116.1287   YX=     3.3630   ZX=   -12.1846
   XY=    -0.2284   YY=   117.7378   ZY=    -4.5587
   XZ=    -6.0402   YZ=     4.2235   ZZ=    98.8833
   Eigenvalues:    94.9511   117.0036   120.7951
      9  H    Isotropic =    29.5573   Anisotropy =     9.7929
   XX=    35.3659   YX=    -0.7098   ZX=    -2.5731
   XY=    -0.1034   YY=    27.5600   ZY=    -0.3113
   XZ=    -2.8291   YZ=    -0.1255   ZZ=    25.7459
   Eigenvalues:    25.0006    27.5853    36.0858
     10  H    Isotropic =    30.1347   Anisotropy =     8.1854
   XX=    28.4582   YX=     0.3803   ZX=     4.4825
   XY=    -0.0349   YY=    29.4107   ZY=     1.2873
   XZ=     4.2646   YZ=     1.5451   ZZ=    32.5350
   Eigenvalues:    25.5683    29.2441    35.5916
     11  H    Isotropic =    28.2421   Anisotropy =     6.9247
   XX=    28.7580   YX=     1.1560   ZX=    -3.1732
   XY=     0.7172   YY=    26.0362   ZY=    -1.7078
   XZ=    -2.4295   YZ=    -2.1864   ZZ=    29.9322
   Eigenvalues:    25.2085    26.6593    32.8586
     12  H    Isotropic =    28.4075   Anisotropy =     8.4017
   XX=    29.5311   YX=     2.2260   ZX=     1.2723
   XY=     2.9101   YY=    32.5086   ZY=     0.1904
   XZ=     1.4081   YZ=    -0.6652   ZZ=    23.1827
   Eigenvalues:    22.8487    28.3652    34.0086
     13  H    Isotropic =    28.9359   Anisotropy =     7.5366
   XX=    27.5639   YX=    -0.3786   ZX=    -1.2870
   XY=    -0.4109   YY=    27.9060   ZY=    -4.4583
   XZ=    -2.4413   YZ=    -2.8534   ZZ=    31.3379
   Eigenvalues:    24.8684    27.9790    33.9603
     14  H    Isotropic =    29.5190   Anisotropy =    10.5673
   XX=    27.6908   YX=    -1.3221   ZX=    -1.7553
   XY=    -1.4549   YY=    31.4052   ZY=     5.2499
   XZ=    -1.8312   YZ=     5.7314   ZZ=    29.4610
   Eigenvalues:    24.7637    27.2293    36.5639
     15  H    Isotropic =    29.4712   Anisotropy =    11.5056
   XX=    27.9521   YX=    -2.8636   ZX=     2.1433
   XY=    -3.3542   YY=    33.2235   ZY=    -4.8349
   XZ=     2.0856   YZ=    -4.1252   ZZ=    27.2379
   Eigenvalues:    24.7594    26.5125    37.1415
     16  H    Isotropic =    28.7283   Anisotropy =     4.6419
   XX=    29.6770   YX=    -0.8244   ZX=    -1.7705
   XY=    -0.5517   YY=    27.3348   ZY=     2.5870
   XZ=    -1.7754   YZ=     0.7738   ZZ=    29.1729
   Eigenvalues:    26.2991    28.0628    31.8229
     17  H    Isotropic =    27.6577   Anisotropy =     1.4626
   XX=    26.4517   YX=    -1.3052   ZX=    -0.1278
   XY=    -0.3140   YY=    28.1202   ZY=     1.1182
   XZ=     0.5176   YZ=    -0.5473   ZZ=    28.4010
   Eigenvalues:    26.0874    28.2529    28.6327
     18  H    Isotropic =    27.8013   Anisotropy =     3.1663
   XX=    26.4577   YX=     1.5686   ZX=    -0.2182
   XY=     1.6279   YY=    29.1129   ZY=    -0.8712
   XZ=     0.5994   YZ=    -0.0087   ZZ=    27.8333
   Eigenvalues:    25.6478    27.8439    29.9122
     19  O    Isotropic =   296.6590   Anisotropy =    30.0699
   XX=   315.0726   YX=    16.3877   ZX=    -0.4905
   XY=    -0.1854   YY=   276.1433   ZY=    -7.4362
   XZ=     6.8742   YZ=   -20.0402   ZZ=   298.7612
   Eigenvalues:   268.0524   305.2191   316.7056
     20  H    Isotropic =    29.7751   Anisotropy =    18.8635
   XX=    41.4921   YX=     2.2099   ZX=     3.8415
   XY=     2.3749   YY=    25.8901   ZY=    -2.6419
   XZ=     3.4113   YZ=    -2.2064   ZZ=    21.9432
   Eigenvalues:    19.9473    27.0273    42.3508
     21  O    Isotropic =   296.5698   Anisotropy =    41.5236
   XX=   269.9496   YX=    14.2699   ZX=    12.5874
   XY=     2.9990   YY=   315.0349   ZY=     5.1233
   XZ=   -13.4477   YZ=    19.7645   ZZ=   304.7250
   Eigenvalues:   268.1374   297.3198   324.2522
     22  H    Isotropic =    29.3815   Anisotropy =    19.1637
   XX=    24.4189   YX=     2.3594   ZX=    -4.0585
   XY=     3.4660   YY=    41.4624   ZY=    -1.6072
   XZ=    -2.6197   YZ=    -1.3821   ZZ=    22.2631
   Eigenvalues:    19.8195    26.1676    42.1573
     23  C    Isotropic =   124.9650   Anisotropy =    49.1765
   XX=   130.7546   YX=    18.2478   ZX=     5.8043
   XY=    24.3763   YY=   138.1872   ZY=   -16.6480
   XZ=     3.2878   YZ=   -14.1644   ZZ=   105.9532
   Eigenvalues:    94.7522   122.3935   157.7493
     24  H    Isotropic =    27.7218   Anisotropy =     5.3144
   XX=    30.6977   YX=     0.0797   ZX=     0.1765
   XY=    -1.5511   YY=    30.2420   ZY=     1.1160
   XZ=    -0.3898   YZ=     0.1788   ZZ=    22.2258
   Eigenvalues:    22.1736    29.7271    31.2648
     25  H    Isotropic =    27.9640   Anisotropy =     5.4961
   XX=    27.1248   YX=     2.3211   ZX=     1.9967
   XY=     2.2931   YY=    28.1687   ZY=    -4.3894
   XZ=     2.4477   YZ=    -2.0837   ZZ=    28.5986
   Eigenvalues:    22.7792    29.4848    31.6281
     26  O    Isotropic =   306.9851   Anisotropy =    22.2342
   XX=   302.0807   YX=   -15.4807   ZX=     2.1362
   XY=    -0.6850   YY=   315.4617   ZY=     2.3111
   XZ=   -13.0686   YZ=     7.5235   ZZ=   303.4131
   Eigenvalues:   296.5840   302.5635   321.8079
     27  H    Isotropic =    30.0541   Anisotropy =    14.7597
   XX=    29.3318   YX=    -1.5826   ZX=    -3.6559
   XY=    -2.2389   YY=    35.9070   ZY=     6.6819
   XZ=    -2.8010   YZ=     6.4213   ZZ=    24.9237
   Eigenvalues:    21.2702    28.9983    39.8939
 End of Minotr Frequency-dependent properties file   721 does not exist.
 End of Minotr Frequency-dependent properties file   722 does not exist.

 **********************************************************************

            Population analysis using the SCF density.

 **********************************************************************

 Orbital symmetries:
       Occupied  (A) (A) (A) (A) (A) (A) (A) (A) (A) (A) (A) (A)
                 (A) (A) (A) (A) (A) (A) (A) (A) (A) (A) (A) (A)
                 (A) (A) (A) (A) (A) (A) (A) (A) (A) (A) (A) (A)
                 (A) (A) (A) (A) (A) (A) (A) (A) (A) (A) (A)
       Virtual   (A) (A) (A) (A) (A) (A) (A) (A) (A) (A) (A) (A)
                 (A) (A) (A) (A) (A) (A) (A) (A) (A) (A) (A) (A)
                 (A) (A) (A) (A) (A) (A) (A) (A) (A) (A) (A) (A)
                 (A) (A) (A) (A) (A) (A) (A) (A) (A) (A) (A) (A)
                 (A) (A) (A) (A) (A) (A) (A) (A) (A) (A) (A) (A)
                 (A) (A) (A) (A) (A) (A) (A) (A) (A) (A) (A) (A)
                 (A) (A) (A) (A) (A) (A) (A) (A) (A) (A) (A) (A)
                 (A) (A) (A) (A) (A) (A) (A) (A) (A) (A) (A) (A)
                 (A) (A) (A) (A) (A) (A) (A) (A) (A) (A) (A) (A)
                 (A) (A) (A) (A) (A) (A) (A) (A) (A) (A) (A) (A)
                 (A) (A) (A) (A) (A) (A) (A) (A) (A) (A) (A) (A)
                 (A) (A) (A) (A) (A) (A) (A) (A) (A) (A) (A) (A)
                 (A) (A) (A) (A) (A) (A) (A) (A) (A) (A) (A) (A)
                 (A) (A) (A) (A) (A) (A) (A) (A) (A) (A) (A) (A)
                 (A) (A) (A) (A) (A) (A) (A) (A) (A) (A) (A) (A)
                 (A) (A) (A) (A) (A) (A) (A) (A) (A) (A) (A) (A)
                 (A) (A) (A) (A) (A) (A) (A) (A) (A) (A) (A) (A)
                 (A) (A) (A) (A) (A) (A) (A) (A) (A) (A) (A) (A)
                 (A) (A) (A) (A) (A) (A) (A) (A) (A) (A) (A) (A)
                 (A) (A) (A) (A) (A) (A) (A) (A) (A) (A) (A) (A)
                 (A) (A) (A) (A) (A) (A) (A) (A) (A) (A) (A) (A)
                 (A) (A) (A) (A)
 The electronic state is 1-A.
 Alpha  occ. eigenvalues --  -19.26214 -19.26183 -19.25615 -14.41472 -10.30811
 Alpha  occ. eigenvalues --  -10.30340 -10.29402 -10.28137 -10.27800 -10.27102
 Alpha  occ. eigenvalues --  -10.24773 -10.24749  -1.07467  -1.05790  -1.05609
 Alpha  occ. eigenvalues --   -0.96751  -0.83348  -0.79407  -0.75478  -0.71873
 Alpha  occ. eigenvalues --   -0.66246  -0.61546  -0.60617  -0.58485  -0.56328
 Alpha  occ. eigenvalues --   -0.53664  -0.52883  -0.50091  -0.48875  -0.47113
 Alpha  occ. eigenvalues --   -0.46033  -0.43886  -0.43421  -0.42864  -0.41136
 Alpha  occ. eigenvalues --   -0.39546  -0.39156  -0.38232  -0.36160  -0.35287
 Alpha  occ. eigenvalues --   -0.34990  -0.34800  -0.33664  -0.31183  -0.30103
 Alpha  occ. eigenvalues --   -0.29023  -0.23095
 Alpha virt. eigenvalues --    0.00818   0.01134   0.01819   0.02302   0.03158
 Alpha virt. eigenvalues --    0.04253   0.04663   0.05019   0.05571   0.06445
 Alpha virt. eigenvalues --    0.07822   0.08150   0.08732   0.09182   0.09461
 Alpha virt. eigenvalues --    0.10263   0.10745   0.11890   0.12116   0.12585
 Alpha virt. eigenvalues --    0.13323   0.13696   0.14384   0.14463   0.15480
 Alpha virt. eigenvalues --    0.16050   0.16144   0.16860   0.17852   0.18427
 Alpha virt. eigenvalues --    0.18574   0.19381   0.19728   0.20375   0.20974
 Alpha virt. eigenvalues --    0.21653   0.22259   0.22752   0.23103   0.23634
 Alpha virt. eigenvalues --    0.24141   0.24370   0.25124   0.25891   0.26335
 Alpha virt. eigenvalues --    0.26640   0.27091   0.27749   0.28219   0.28747
 Alpha virt. eigenvalues --    0.29533   0.30160   0.30887   0.31896   0.32063
 Alpha virt. eigenvalues --    0.32213   0.33242   0.33445   0.34027   0.34517
 Alpha virt. eigenvalues --    0.35014   0.35461   0.36274   0.36941   0.38281
 Alpha virt. eigenvalues --    0.38646   0.39046   0.39774   0.40519   0.40689
 Alpha virt. eigenvalues --    0.41094   0.42188   0.43455   0.44470   0.44823
 Alpha virt. eigenvalues --    0.45951   0.62891   0.64750   0.66719   0.68537
 Alpha virt. eigenvalues --    0.69845   0.70367   0.71190   0.72081   0.74372
 Alpha virt. eigenvalues --    0.75140   0.76660   0.79753   0.80219   0.81223
 Alpha virt. eigenvalues --    0.82850   0.84921   0.86822   0.86969   0.87623
 Alpha virt. eigenvalues --    0.88319   0.90672   0.91542   0.94529   0.96354
 Alpha virt. eigenvalues --    0.97691   0.99437   1.01400   1.04075   1.05282
 Alpha virt. eigenvalues --    1.05982   1.06612   1.07472   1.09540   1.10193
 Alpha virt. eigenvalues --    1.11558   1.12217   1.13768   1.14196   1.15198
 Alpha virt. eigenvalues --    1.18205   1.19308   1.20941   1.21998   1.23683
 Alpha virt. eigenvalues --    1.25720   1.27309   1.28838   1.29807   1.31911
 Alpha virt. eigenvalues --    1.33516   1.36059   1.37680   1.40301   1.43173
 Alpha virt. eigenvalues --    1.43755   1.45705   1.47160   1.49485   1.52777
 Alpha virt. eigenvalues --    1.53527   1.55240   1.58051   1.59720   1.60594
 Alpha virt. eigenvalues --    1.62054   1.62956   1.64244   1.68421   1.69593
 Alpha virt. eigenvalues --    1.71706   1.72191   1.75709   1.76578   1.79527
 Alpha virt. eigenvalues --    1.80797   1.82370   1.83453   1.85050   1.86958
 Alpha virt. eigenvalues --    1.88099   1.88515   1.90590   1.92154   1.95887
 Alpha virt. eigenvalues --    1.96444   2.00407   2.00872   2.02751   2.03560
 Alpha virt. eigenvalues --    2.04525   2.06739   2.08792   2.09667   2.10804
 Alpha virt. eigenvalues --    2.13362   2.13572   2.14381   2.17400   2.17536
 Alpha virt. eigenvalues --    2.20504   2.22378   2.24856   2.26220   2.29295
 Alpha virt. eigenvalues --    2.30014   2.33630   2.34355   2.36934   2.38875
 Alpha virt. eigenvalues --    2.39523   2.42067   2.43438   2.44205   2.45020
 Alpha virt. eigenvalues --    2.46557   2.48946   2.49706   2.52274   2.53899
 Alpha virt. eigenvalues --    2.56117   2.58433   2.59578   2.61659   2.63992
 Alpha virt. eigenvalues --    2.64616   2.66032   2.68569   2.69721   2.70771
 Alpha virt. eigenvalues --    2.71754   2.73476   2.75584   2.76103   2.76945
 Alpha virt. eigenvalues --    2.77936   2.80458   2.81828   2.83065   2.86089
 Alpha virt. eigenvalues --    2.87494   2.90120   2.91044   2.94273   2.95713
 Alpha virt. eigenvalues --    2.97993   2.99192   3.00054   3.02812   3.04629
 Alpha virt. eigenvalues --    3.04938   3.06822   3.12845   3.16858   3.31258
 Alpha virt. eigenvalues --    3.34174   3.35737   3.36121   3.38151   3.43361
 Alpha virt. eigenvalues --    3.48276   3.50609   3.52528   3.53704   3.55518
 Alpha virt. eigenvalues --    3.56544   3.57504   3.59858   3.60568   4.31059
 Alpha virt. eigenvalues --    4.34957   4.39716   4.40960   4.47095   4.47880
 Alpha virt. eigenvalues --    4.58504   4.67242   4.76323   4.78265   4.86566
 Alpha virt. eigenvalues --    4.93260
          Condensed to atoms (all electrons):
              1          2          3          4          5          6
     1  C    6.257849  -1.205695   0.160820  -0.277917   0.121176   0.182496
     2  C   -1.205695   9.860685  -0.541708  -0.461292   0.556925  -0.807730
     3  N    0.160820  -0.541708   7.481055   0.263915  -0.190997  -0.217926
     4  C   -0.277917  -0.461292   0.263915   5.793646  -0.028712  -0.087764
     5  C    0.121176   0.556925  -0.190997  -0.028712   5.765355  -0.212784
     6  C    0.182496  -0.807730  -0.217926  -0.087764  -0.212784   9.007458
     7  C   -0.170980   0.776480  -0.164075  -0.096958   0.036652  -0.841699
     8  C    0.265394  -1.565707   0.134923   0.280445  -0.272982   0.173803
     9  H    0.388126  -0.071616   0.014599   0.035058  -0.031256   0.001985
    10  H    0.502542  -0.220396   0.030824   0.019879  -0.073476   0.021739
    11  H    0.109982   0.057661   0.018683   0.021623  -0.030935   0.041055
    12  H    0.044289  -0.011646  -0.039523   0.369145  -0.016889  -0.009207
    13  H   -0.015202   0.029005  -0.101577   0.419724  -0.037751   0.009277
    14  H   -0.022257  -0.044418   0.013314  -0.032289   0.392321   0.009565
    15  H   -0.071525   0.050323   0.004822  -0.021428   0.383796  -0.006257
    16  H   -0.017374   0.068556  -0.070116   0.014645   0.008032   0.229730
    17  H    0.008848  -0.013303   0.045853   0.010532   0.001915  -0.128955
    18  H    0.050900  -0.247844   0.052036   0.010514   0.001493   0.023582
    19  O    0.014008  -0.163206   0.023606  -0.006756   0.004130   0.009172
    20  H   -0.015773   0.003757  -0.001405   0.000228  -0.003519  -0.005206
    21  O   -0.005315   0.050279   0.011833  -0.000882   0.004204  -0.144937
    22  H   -0.000111   0.004571  -0.003850  -0.000224  -0.000102   0.052763
    23  C    0.066056  -0.114211   0.193419  -0.030942   0.001685  -0.879986
    24  H   -0.000060   0.014534   0.012864  -0.002541   0.001289  -0.155275
    25  H   -0.000223   0.011489   0.008626   0.010088   0.003455  -0.121453
    26  O   -0.001913   0.034230   0.024760  -0.014978   0.024576  -0.146982
    27  H   -0.000858   0.014095   0.023651   0.003540   0.010333  -0.092891
              7          8          9         10         11         12
     1  C   -0.170980   0.265394   0.388126   0.502542   0.109982   0.044289
     2  C    0.776480  -1.565707  -0.071616  -0.220396   0.057661  -0.011646
     3  N   -0.164075   0.134923   0.014599   0.030824   0.018683  -0.039523
     4  C   -0.096958   0.280445   0.035058   0.019879   0.021623   0.369145
     5  C    0.036652  -0.272982  -0.031256  -0.073476  -0.030935  -0.016889
     6  C   -0.841699   0.173803   0.001985   0.021739   0.041055  -0.009207
     7  C    6.581017  -0.696494  -0.002475  -0.014014  -0.040283  -0.006002
     8  C   -0.696494   7.168295   0.006942   0.046829   0.053434  -0.000065
     9  H   -0.002475   0.006942   0.511383  -0.024558  -0.003822  -0.000101
    10  H   -0.014014   0.046829  -0.024558   0.530029   0.004249  -0.000028
    11  H   -0.040283   0.053434  -0.003822   0.004249   0.568102   0.000237
    12  H   -0.006002  -0.000065  -0.000101  -0.000028   0.000237   0.559768
    13  H    0.009269   0.002109  -0.000138   0.000965  -0.000539  -0.043503
    14  H   -0.003094   0.014986  -0.005042   0.004137   0.000826  -0.005948
    15  H    0.000437   0.001852   0.000385  -0.005480  -0.000131   0.000746
    16  H    0.054747  -0.033628  -0.000005  -0.000171  -0.000609  -0.001103
    17  H    0.352645  -0.022299   0.000005  -0.000009   0.000859   0.000010
    18  H   -0.145918   0.546133   0.000302   0.004075   0.004449   0.000018
    19  O   -0.165847   0.378293   0.000512   0.000660   0.008635   0.000070
    20  H    0.056826  -0.028593  -0.000074   0.000178  -0.000535   0.000000
    21  O    0.314761  -0.167153   0.000015  -0.000243  -0.000562   0.000023
    22  H   -0.004735  -0.034512   0.000000   0.000001  -0.000001   0.000000
    23  C    0.125906  -0.113778   0.000225   0.000936   0.016299   0.002782
    24  H    0.029469  -0.011408   0.000000   0.000000  -0.000007  -0.000049
    25  H    0.004968  -0.012081   0.000000   0.000000  -0.000041   0.000031
    26  O    0.024142  -0.023963   0.000001   0.000001  -0.000052  -0.000821
    27  H   -0.000394  -0.003354   0.000000   0.000000  -0.000008   0.000507
             13         14         15         16         17         18
     1  C   -0.015202  -0.022257  -0.071525  -0.017374   0.008848   0.050900
     2  C    0.029005  -0.044418   0.050323   0.068556  -0.013303  -0.247844
     3  N   -0.101577   0.013314   0.004822  -0.070116   0.045853   0.052036
     4  C    0.419724  -0.032289  -0.021428   0.014645   0.010532   0.010514
     5  C   -0.037751   0.392321   0.383796   0.008032   0.001915   0.001493
     6  C    0.009277   0.009565  -0.006257   0.229730  -0.128955   0.023582
     7  C    0.009269  -0.003094   0.000437   0.054747   0.352645  -0.145918
     8  C    0.002109   0.014986   0.001852  -0.033628  -0.022299   0.546133
     9  H   -0.000138  -0.005042   0.000385  -0.000005   0.000005   0.000302
    10  H    0.000965   0.004137  -0.005480  -0.000171  -0.000009   0.004075
    11  H   -0.000539   0.000826  -0.000131  -0.000609   0.000859   0.004449
    12  H   -0.043503  -0.005948   0.000746  -0.001103   0.000010   0.000018
    13  H    0.573640   0.003876  -0.004326   0.011811  -0.000029  -0.000348
    14  H    0.003876   0.518113  -0.024244  -0.000015  -0.000003  -0.000008
    15  H   -0.004326  -0.024244   0.512690  -0.000007   0.000000  -0.000021
    16  H    0.011811  -0.000015  -0.000007   0.570676   0.004030   0.000306
    17  H   -0.000029  -0.000003   0.000000   0.004030   0.557262   0.004632
    18  H   -0.000348  -0.000008  -0.000021   0.000306   0.004632   0.559145
    19  O   -0.000281  -0.000020  -0.000012  -0.001166   0.000979  -0.041934
    20  H    0.000002   0.000002   0.000000   0.000004  -0.000009  -0.005932
    21  O   -0.000185  -0.000007  -0.000007   0.001542  -0.040632  -0.002328
    22  H    0.000001   0.000000   0.000000   0.000118  -0.006155  -0.000368
    23  C   -0.010211  -0.000231  -0.000222  -0.009270   0.045887   0.014038
    24  H    0.000045   0.000000   0.000000  -0.001849   0.000159  -0.000007
    25  H   -0.000010  -0.000001   0.000000   0.004672   0.003251  -0.000003
    26  O   -0.001661  -0.000023  -0.000002   0.001927   0.000024   0.000000
    27  H    0.000128  -0.000004   0.000000   0.000143   0.000026   0.000000
             19         20         21         22         23         24
     1  C    0.014008  -0.015773  -0.005315  -0.000111   0.066056  -0.000060
     2  C   -0.163206   0.003757   0.050279   0.004571  -0.114211   0.014534
     3  N    0.023606  -0.001405   0.011833  -0.003850   0.193419   0.012864
     4  C   -0.006756   0.000228  -0.000882  -0.000224  -0.030942  -0.002541
     5  C    0.004130  -0.003519   0.004204  -0.000102   0.001685   0.001289
     6  C    0.009172  -0.005206  -0.144937   0.052763  -0.879986  -0.155275
     7  C   -0.165847   0.056826   0.314761  -0.004735   0.125906   0.029469
     8  C    0.378293  -0.028593  -0.167153  -0.034512  -0.113778  -0.011408
     9  H    0.000512  -0.000074   0.000015   0.000000   0.000225   0.000000
    10  H    0.000660   0.000178  -0.000243   0.000001   0.000936   0.000000
    11  H    0.008635  -0.000535  -0.000562  -0.000001   0.016299  -0.000007
    12  H    0.000070   0.000000   0.000023   0.000000   0.002782  -0.000049
    13  H   -0.000281   0.000002  -0.000185   0.000001  -0.010211   0.000045
    14  H   -0.000020   0.000002  -0.000007   0.000000  -0.000231   0.000000
    15  H   -0.000012   0.000000  -0.000007   0.000000  -0.000222   0.000000
    16  H   -0.001166   0.000004   0.001542   0.000118  -0.009270  -0.001849
    17  H    0.000979  -0.000009  -0.040632  -0.006155   0.045887   0.000159
    18  H   -0.041934  -0.005932  -0.002328  -0.000368   0.014038  -0.000007
    19  O    8.242873   0.241605  -0.002717   0.007205   0.004273  -0.000007
    20  H    0.241605   0.368351   0.000069  -0.000287   0.000558   0.000000
    21  O   -0.002717   0.000069   8.268186   0.237273   0.027921   0.005338
    22  H    0.007205  -0.000287   0.237273   0.368314  -0.010551  -0.000121
    23  C    0.004273   0.000558   0.027921  -0.010551   5.807636   0.483739
    24  H   -0.000007   0.000000   0.005338  -0.000121   0.483739   0.539477
    25  H   -0.000082   0.000000   0.000287  -0.000003   0.445408  -0.032806
    26  O    0.000080  -0.000001  -0.000264   0.000019   0.206803  -0.058753
    27  H    0.000000   0.000000   0.000031   0.000000   0.037165   0.006585
             25         26         27
     1  C   -0.000223  -0.001913  -0.000858
     2  C    0.011489   0.034230   0.014095
     3  N    0.008626   0.024760   0.023651
     4  C    0.010088  -0.014978   0.003540
     5  C    0.003455   0.024576   0.010333
     6  C   -0.121453  -0.146982  -0.092891
     7  C    0.004968   0.024142  -0.000394
     8  C   -0.012081  -0.023963  -0.003354
     9  H    0.000000   0.000001   0.000000
    10  H    0.000000   0.000001   0.000000
    11  H   -0.000041  -0.000052  -0.000008
    12  H    0.000031  -0.000821   0.000507
    13  H   -0.000010  -0.001661   0.000128
    14  H   -0.000001  -0.000023  -0.000004
    15  H    0.000000  -0.000002   0.000000
    16  H    0.004672   0.001927   0.000143
    17  H    0.003251   0.000024   0.000026
    18  H   -0.000003   0.000000   0.000000
    19  O   -0.000082   0.000080   0.000000
    20  H    0.000000  -0.000001   0.000000
    21  O    0.000287  -0.000264   0.000031
    22  H   -0.000003   0.000019   0.000000
    23  C    0.445408   0.206803   0.037165
    24  H   -0.032806  -0.058753   0.006585
    25  H    0.562481  -0.042393  -0.007145
    26  O   -0.042393   8.255063   0.256904
    27  H   -0.007145   0.256904   0.377660
 Mulliken atomic charges:
              1
     1  C   -0.367282
     2  C   -0.063821
     3  N   -0.188427
     4  C   -0.190295
     5  C   -0.417932
     6  C    0.096426
     7  C   -0.014348
     8  C   -0.087420
     9  H    0.179551
    10  H    0.171331
    11  H    0.171434
    12  H    0.157259
    13  H    0.155909
    14  H    0.180465
    15  H    0.178609
    16  H    0.164373
    17  H    0.174476
    18  H    0.173088
    19  O   -0.554073
    20  H    0.389757
    21  O   -0.556530
    22  H    0.390753
    23  C   -0.311334
    24  H    0.169384
    25  H    0.161486
    26  O   -0.536724
    27  H    0.373885
 Sum of Mulliken atomic charges =   0.00000
 Mulliken charges with hydrogens summed into heavy atoms:
              1
     1  C   -0.016400
     2  C    0.107614
     3  N   -0.188427
     4  C    0.122872
     5  C   -0.058858
     6  C    0.260799
     7  C    0.160129
     8  C    0.085668
    19  O   -0.164317
    21  O   -0.165777
    23  C    0.019536
    26  O   -0.162839
 Sum of Mulliken charges with hydrogens summed into heavy atoms =   0.00000
 Electronic spatial extent (au):  <R**2>=           2164.5282
 Charge=              0.0000 electrons
 Dipole moment (field-independent basis, Debye):
    X=              4.9274    Y=             -0.8045    Z=             -0.3466  Tot=              5.0047
 Quadrupole moment (field-independent basis, Debye-Ang):
   XX=            -76.9123   YY=            -69.5615   ZZ=            -75.5320
   XY=             -1.9574   XZ=              6.5683   YZ=              0.1635
 Traceless Quadrupole moment (field-independent basis, Debye-Ang):
   XX=             -2.9104   YY=              4.4404   ZZ=             -1.5301
   XY=             -1.9574   XZ=              6.5683   YZ=              0.1635
 Octapole moment (field-independent basis, Debye-Ang**2):
  XXX=             71.0238  YYY=              9.0988  ZZZ=             -0.4384  XYY=             -1.5994
  XXY=             20.8590  XXZ=             -7.2717  XZZ=             -1.1265  YZZ=             -2.6266
  YYZ=             -1.7213  XYZ=              3.9463
 Hexadecapole moment (field-independent basis, Debye-Ang**3):
 XXXX=          -1408.9246 YYYY=          -1121.1375 ZZZZ=           -201.6273 XXXY=              6.5098
 XXXZ=             14.3337 YYYX=             15.0760 YYYZ=             21.6331 ZZZX=              6.9030
 ZZZY=             -0.7489 XXYY=           -425.3083 XXZZ=           -254.9052 YYZZ=           -251.9277
 XXYZ=             17.7543 YYXZ=             32.7389 ZZXY=              4.6678
 N-N= 7.948818459633D+02 E-N=-2.975522653391D+03  KE= 5.886611867093D+02
 1\1\GINC-COMPUTE-3-0\SP\RmPW1PW91\6-31+G(d,p)\C8H15N1O3\MAMICHETTI.IQU
 IR\17-May-2024\0\\# mpw1pw91/6-31+G** nmr scrf=(pcm,solvent=water)\\co
 mment\\0,1\C,0,2.258778,-1.117308,0.205073\C,0,1.269067,-0.163391,-0.4
 82493\N,0,-0.079329,-0.818481,-0.375624\C,0,0.076618,-2.083681,0.36873
 2\C,0,1.539707,-2.474785,0.14527\C,0,-1.038433,0.148554,0.190528\C,0,-
 0.397318,1.513288,-0.08493\C,0,1.089833,1.237157,0.124111\H,0,3.24049,
 -1.125615,-0.278179\H,0,2.400764,-0.819796,1.251781\H,0,1.532037,-0.04
 0425,-1.542462\H,0,-0.620915,-2.848758,0.009132\H,0,-0.120069,-1.94092
 3,1.445046\H,0,1.663449,-2.93181,-0.844062\H,0,1.899015,-3.188214,0.89
 3364\H,0,-1.12179,0.026781,1.285163\H,0,-0.556137,1.801007,-1.135614\H
 ,0,1.284303,1.209286,1.205808\O,0,1.869316,2.263816,-0.487923\H,0,2.79
 2372,2.126369,-0.217682\O,0,-0.947747,2.502049,0.780934\H,0,-0.577749,
 3.356561,0.503189\C,0,-2.441327,0.031686,-0.398537\H,0,-3.074708,0.816
 762,0.027839\H,0,-2.400993,0.178727,-1.487062\O,0,-3.083754,-1.208258,
 -0.081203\H,0,-2.628844,-1.900564,-0.587887\\Version=AM64L-G09RevC.01\
 State=1-A\HF=-594.1990894\RMSD=7.540e-09\Dipole=1.9385902,-0.3165184,-
 0.1363588\Quadrupole=-2.1637957,3.3013583,-1.1375626,-1.455268,4.88339
 05,0.121566\PG=C01 [X(C8H15N1O3)]\\@


 AS FAR AS THE LAWS OF MATHEMATICS REFER TO REALITY,
 THEY ARE NOT CERTAIN; AND AS FAR AS THEY ARE CERTAIN,
 THEY DO NOT REFER TO REALITY.

                                         -- ALBERT EINSTEIN
 Job cpu time:  0 days  0 hours  8 minutes 49.4 seconds.
 File lengths (MBytes):  RWF=    115 Int=      0 D2E=      0 Chk=      7 Scr=      1
 Normal termination of Gaussian 09 at Fri May 17 12:28:30 2024.
