 Entering Gaussian System, Link 0=g09
 Input=/home/mamichetti.iquir/Linux/02_Cardona_A1A3_R__R_R_R_033_OptB.gjc
 Output=/home/mamichetti.iquir/Linux/02_Cardona_A1A3_R__R_R_R_033_OptB.log
 Initial command:
 /opt/ohpc/pub/apps/software/Gaussian/09/AMD64.SSE4a-enabled/g09/l1.exe /local/mamichetti.iquir/Gau-711082.inp -scrdir=/local/mamichetti.iquir/
 Entering Link 1 = /opt/ohpc/pub/apps/software/Gaussian/09/AMD64.SSE4a-enabled/g09/l1.exe PID=    711083.
  
 Copyright (c) 1988,1990,1992,1993,1995,1998,2003,2009,2011,
            Gaussian, Inc.  All Rights Reserved.
  
 This is part of the Gaussian(R) 09 program.  It is based on
 the Gaussian(R) 03 system (copyright 2003, Gaussian, Inc.),
 the Gaussian(R) 98 system (copyright 1998, Gaussian, Inc.),
 the Gaussian(R) 94 system (copyright 1995, Gaussian, Inc.),
 the Gaussian 92(TM) system (copyright 1992, Gaussian, Inc.),
 the Gaussian 90(TM) system (copyright 1990, Gaussian, Inc.),
 the Gaussian 88(TM) system (copyright 1988, Gaussian, Inc.),
 the Gaussian 86(TM) system (copyright 1986, Carnegie Mellon
 University), and the Gaussian 82(TM) system (copyright 1983,
 Carnegie Mellon University). Gaussian is a federally registered
 trademark of Gaussian, Inc.
  
 This software contains proprietary and confidential information,
 including trade secrets, belonging to Gaussian, Inc.
  
 This software is provided under written license and may be
 used, copied, transmitted, or stored only in accord with that
 written license.
  
 The following legend is applicable only to US Government
 contracts under FAR:
  
                    RESTRICTED RIGHTS LEGEND
  
 Use, reproduction and disclosure by the US Government is
 subject to restrictions as set forth in subparagraphs (a)
 and (c) of the Commercial Computer Software - Restricted
 Rights clause in FAR 52.227-19.
  
 Gaussian, Inc.
 340 Quinnipiac St., Bldg. 40, Wallingford CT 06492
  
  
 ---------------------------------------------------------------
 Warning -- This program may not be used in any manner that
 competes with the business of Gaussian, Inc. or will provide
 assistance to any competitor of Gaussian, Inc.  The licensee
 of this program is prohibited from giving any competitor of
 Gaussian, Inc. access to this program.  By using this program,
 the user acknowledges that Gaussian, Inc. is engaged in the
 business of creating and licensing software in the field of
 computational chemistry and represents and warrants to the
 licensee that it is not a competitor of Gaussian, Inc. and that
 it will not use this program in any manner prohibited above.
 ---------------------------------------------------------------
  

 Cite this work as:
 Gaussian 09, Revision C.01,
 M. J. Frisch, G. W. Trucks, H. B. Schlegel, G. E. Scuseria, 
 M. A. Robb, J. R. Cheeseman, G. Scalmani, V. Barone, B. Mennucci, 
 G. A. Petersson, H. Nakatsuji, M. Caricato, X. Li, H. P. Hratchian, 
 A. F. Izmaylov, J. Bloino, G. Zheng, J. L. Sonnenberg, M. Hada, 
 M. Ehara, K. Toyota, R. Fukuda, J. Hasegawa, M. Ishida, T. Nakajima, 
 Y. Honda, O. Kitao, H. Nakai, T. Vreven, J. A. Montgomery, Jr., 
 J. E. Peralta, F. Ogliaro, M. Bearpark, J. J. Heyd, E. Brothers, 
 K. N. Kudin, V. N. Staroverov, T. Keith, R. Kobayashi, J. Normand, 
 K. Raghavachari, A. Rendell, J. C. Burant, S. S. Iyengar, J. Tomasi, 
 M. Cossi, N. Rega, J. M. Millam, M. Klene, J. E. Knox, J. B. Cross, 
 V. Bakken, C. Adamo, J. Jaramillo, R. Gomperts, R. E. Stratmann, 
 O. Yazyev, A. J. Austin, R. Cammi, C. Pomelli, J. W. Ochterski, 
 R. L. Martin, K. Morokuma, V. G. Zakrzewski, G. A. Voth, 
 P. Salvador, J. J. Dannenberg, S. Dapprich, A. D. Daniels, 
 O. Farkas, J. B. Foresman, J. V. Ortiz, J. Cioslowski, 
 and D. J. Fox, Gaussian, Inc., Wallingford CT, 2010.
 
 ******************************************
 Gaussian 09:  AM64L-G09RevC.01 23-Sep-2011
                17-May-2024 
 ******************************************
 %nprocshared=4
 Will use up to    4 processors via shared memory.
 ------------------------------------------------
 # mpw1pw91/6-31+G** nmr scrf=(pcm,solvent=water)
 ------------------------------------------------
 1/38=1/1;
 2/12=2,17=6,18=5,40=1/2;
 3/5=1,6=6,7=111,11=2,16=1,25=1,30=1,70=2201,72=1,74=-7/1,2,8,3;
 4//1;
 5/5=2,38=5,53=1/2;
 8/6=1,10=90,11=11/1;
 10/13=100,45=16/2;
 6/7=2,8=2,9=2,10=2,28=1/1;
 99/9=1/99;
 -------
 comment
 -------
 Charge =  0 Multiplicity = 1
 Symbolic Z-Matrix:
 6                    -2.46394   0.60658  -0.08355 
 6                    -1.04586   0.58293   0.50815 
 7                    -0.49783  -0.78631   0.20338 
 6                    -1.54155  -1.56181  -0.50002 
 6                    -2.8548   -0.87937  -0.10434 
 6                     0.77984  -0.63729  -0.51733 
 6                     1.2775    0.74538  -0.06788 
 6                    -0.01517   1.56741  -0.05294 
 1                    -3.15094   1.22844   0.49837 
 1                    -2.43698   0.99909  -1.10771 
 1                    -1.09001   0.72505   1.59641 
 1                    -1.51269  -2.61931  -0.21477 
 1                    -1.4001   -1.50948  -1.59241 
 1                    -3.16815  -1.20699   0.89435 
 1                    -3.66636  -1.10362  -0.80331 
 1                     0.62623  -0.60636  -1.61243 
 1                     1.67868   0.68764   0.94945 
 1                    -0.26452   1.82564  -1.09472 
 8                     0.04051   2.74949   0.7425 
 1                     0.7429    3.30653   0.36532 
 8                     2.32373   1.29148  -0.86274 
 1                     1.98782   1.35601  -1.77417 
 6                     1.74091  -1.78658  -0.22123 
 1                     1.34391  -2.71831  -0.65238 
 1                     2.7096   -1.5868   -0.69143 
 8                     1.97701  -1.94337   1.17836 
 1                     1.09378  -1.87764   1.5857 
 
                          Input orientation:                          
 ---------------------------------------------------------------------
 Center     Atomic      Atomic             Coordinates (Angstroms)
 Number     Number       Type             X           Y           Z
 ---------------------------------------------------------------------
      1          6           0       -2.463939    0.606582   -0.083545
      2          6           0       -1.045856    0.582928    0.508153
      3          7           0       -0.497825   -0.786313    0.203375
      4          6           0       -1.541553   -1.561807   -0.500020
      5          6           0       -2.854797   -0.879368   -0.104340
      6          6           0        0.779843   -0.637293   -0.517326
      7          6           0        1.277503    0.745376   -0.067881
      8          6           0       -0.015166    1.567407   -0.052943
      9          1           0       -3.150938    1.228438    0.498367
     10          1           0       -2.436981    0.999091   -1.107713
     11          1           0       -1.090010    0.725047    1.596406
     12          1           0       -1.512694   -2.619308   -0.214769
     13          1           0       -1.400104   -1.509475   -1.592412
     14          1           0       -3.168150   -1.206988    0.894354
     15          1           0       -3.666363   -1.103616   -0.803306
     16          1           0        0.626231   -0.606357   -1.612431
     17          1           0        1.678676    0.687636    0.949447
     18          1           0       -0.264522    1.825641   -1.094715
     19          8           0        0.040507    2.749488    0.742495
     20          1           0        0.742902    3.306534    0.365318
     21          8           0        2.323727    1.291481   -0.862739
     22          1           0        1.987821    1.356008   -1.774171
     23          6           0        1.740905   -1.786580   -0.221228
     24          1           0        1.343905   -2.718309   -0.652383
     25          1           0        2.709599   -1.586801   -0.691427
     26          8           0        1.977014   -1.943368    1.178357
     27          1           0        1.093778   -1.877636    1.585696
 ---------------------------------------------------------------------
                    Distance matrix (angstroms):
                    1          2          3          4          5
     1  C    0.000000
     2  C    1.536758   0.000000
     3  N    2.426537   1.506004   0.000000
     4  C    2.392939   2.421160   1.478352   0.000000
     5  C    1.536636   2.405353   2.378795   1.531958   0.000000
     6  C    3.501073   2.423577   1.474467   2.498781   3.666029
     7  C    3.744048   2.399209   2.360390   3.668367   4.440386
     8  C    2.630705   1.531780   2.416331   3.510230   3.748714
     9  H    1.094209   2.201851   3.344436   3.372294   2.212194
    10  H    1.097137   2.172428   2.943968   2.780158   2.170239
    11  H    2.173465   1.098382   2.139025   3.135059   2.929361
    12  H    3.365777   3.315851   2.136510   1.095678   2.200188
    13  H    2.808224   2.985970   2.135866   1.102754   2.174287
    14  H    2.177438   2.803049   2.790171   2.171634   1.096775
    15  H    2.211031   3.381037   3.339719   2.194707   1.094294
    16  H    3.654841   2.950788   2.143137   2.617180   3.803476
    17  H    4.270234   2.762024   2.732454   4.186983   4.911043
    18  H    2.710351   2.173477   2.926051   3.668688   3.873944
    19  O    3.398034   2.434971   3.616952   4.757523   4.718952
    20  H    4.216046   3.261608   4.279839   5.446860   5.539476
    21  O    4.898773   3.706141   3.662647   4.818009   5.666116
    22  H    4.820583   3.874255   3.831274   4.753271   5.588935
    23  C    4.840134   3.729960   2.488520   3.301936   4.685848
    24  H    5.087057   4.237448   2.803016   3.112327   4.616401
    25  H    5.652074   4.500018   3.424766   4.255532   5.639826
    26  O    5.274154   3.996134   2.900723   3.916995   5.111145
    27  H    4.649199   3.434168   2.373815   3.375638   4.409536
                    6          7          8          9         10
     6  C    0.000000
     7  C    1.536698   0.000000
     8  C    2.389224   1.531976   0.000000
     9  H    4.468067   4.490554   3.201860   0.000000
    10  H    3.657084   3.865619   2.701983   1.772520   0.000000
    11  H    3.133717   2.894025   2.141311   2.388832   3.033429
    12  H    3.045595   4.373542   4.449422   4.242353   3.839852
    13  H    2.582379   3.818131   3.708803   3.864317   2.757345
    14  H    4.231317   4.949894   4.305339   2.467469   3.067518
    15  H    4.479731   5.329299   4.585700   2.720017   2.454673
    16  H    1.106259   2.153363   2.751117   4.699888   3.495064
    17  H    2.171350   1.095094   2.155895   4.880688   4.611675
    18  H    2.736808   2.144575   1.101886   3.350516   2.324421
    19  O    3.688367   2.490649   1.425881   3.543799   3.553183
    20  H    4.041559   2.651978   1.942723   4.415674   4.195923
    21  O    2.494606   1.422890   2.490447   5.641679   4.775965
    22  H    2.648041   1.946497   2.649391   5.620280   4.488923
    23  C    1.527146   2.578577   3.789635   5.791224   5.099073
    24  H    2.160332   3.513284   4.535831   6.091359   5.321794
    25  H    2.157738   2.806913   4.216756   6.609620   5.774722
    26  O    2.452426   3.044958   4.220240   6.067836   5.776464
    27  H    2.461647   3.106165   3.972810   5.370996   5.291150
                   11         12         13         14         15
    11  H    0.000000
    12  H    3.826712   0.000000
    13  H    3.906124   1.772655   0.000000
    14  H    2.923064   2.442404   3.066185   0.000000
    15  H    3.967395   2.698516   2.433791   1.772273   0.000000
    16  H    3.874888   3.252757   2.218571   4.587162   4.396398
    17  H    2.843515   4.740899   4.557108   5.204263   5.903403
    18  H    3.022395   4.699980   3.558124   4.645890   4.498665
    19  O    2.470950   5.670340   5.066154   5.096297   5.565680
    20  H    3.396943   6.367089   5.623088   5.995672   6.344819
    21  O    4.245214   5.516544   4.716428   6.284142   6.451449
    22  H    4.607813   5.521637   4.440953   6.346181   6.241965
    23  C    4.198350   3.358479   3.438440   5.067472   5.481223
    24  H    4.778880   2.891620   3.142375   5.003511   5.266194
    25  H    5.001585   4.372760   4.208018   6.099745   6.395223
    26  O    4.086788   3.817821   4.389801   5.205346   6.039857
    27  H    3.397500   3.253529   4.056521   4.369411   5.381949
                   16         17         18         19         20
    16  H    0.000000
    17  H    3.057005   0.000000
    18  H    2.641228   3.041327   0.000000
    19  O    4.141310   2.641526   2.078912   0.000000
    20  H    4.385866   2.841744   2.310767   0.972585   0.000000
    21  O    2.654302   2.016119   2.652955   3.148913   2.840347
    22  H    2.393943   2.821416   2.399013   3.473820   3.151474
    23  C    2.137959   2.737900   4.222897   4.939234   5.223012
    24  H    2.428392   3.778676   4.840473   5.791488   6.139679
    25  H    2.479907   2.988032   4.544535   5.289951   5.378600
    26  O    3.376494   2.657741   4.939309   5.095383   5.453947
    27  H    3.473149   2.706943   4.769050   4.819818   5.337420
                   21         22         23         24         25
    21  O    0.000000
    22  H    0.973501   0.000000
    23  C    3.197761   3.514037   0.000000
    24  H    4.133124   4.274704   1.100737   0.000000
    25  H    2.909081   3.217674   1.095156   1.773966   0.000000
    26  O    3.840642   4.427575   1.427994   2.086377   2.039586
    27  H    4.189381   4.748102   1.921468   2.403808   2.807268
                   26         27
    26  O    0.000000
    27  H    0.974860   0.000000
 Stoichiometry    C8H15NO3
 Framework group  C1[X(C8H15NO3)]
 Deg. of freedom    75
 Full point group                 C1      NOp   1
 Largest Abelian subgroup         C1      NOp   1
 Largest concise Abelian subgroup C1      NOp   1
                         Standard orientation:                         
 ---------------------------------------------------------------------
 Center     Atomic      Atomic             Coordinates (Angstroms)
 Number     Number       Type             X           Y           Z
 ---------------------------------------------------------------------
      1          6           0       -2.463939    0.606583   -0.083545
      2          6           0       -1.045856    0.582928    0.508153
      3          7           0       -0.497825   -0.786313    0.203375
      4          6           0       -1.541553   -1.561807   -0.500020
      5          6           0       -2.854797   -0.879367   -0.104340
      6          6           0        0.779843   -0.637293   -0.517326
      7          6           0        1.277503    0.745376   -0.067881
      8          6           0       -0.015166    1.567407   -0.052943
      9          1           0       -3.150938    1.228439    0.498367
     10          1           0       -2.436981    0.999091   -1.107713
     11          1           0       -1.090010    0.725047    1.596406
     12          1           0       -1.512694   -2.619308   -0.214769
     13          1           0       -1.400104   -1.509475   -1.592412
     14          1           0       -3.168150   -1.206987    0.894354
     15          1           0       -3.666363   -1.103615   -0.803306
     16          1           0        0.626231   -0.606357   -1.612431
     17          1           0        1.678676    0.687636    0.949447
     18          1           0       -0.264522    1.825641   -1.094715
     19          8           0        0.040507    2.749488    0.742495
     20          1           0        0.742903    3.306534    0.365318
     21          8           0        2.323727    1.291481   -0.862739
     22          1           0        1.987821    1.356008   -1.774171
     23          6           0        1.740905   -1.786580   -0.221228
     24          1           0        1.343905   -2.718309   -0.652383
     25          1           0        2.709599   -1.586801   -0.691427
     26          8           0        1.977014   -1.943368    1.178357
     27          1           0        1.093778   -1.877636    1.585696
 ---------------------------------------------------------------------
 Rotational constants (GHZ):      1.0945257      0.8954631      0.5745167
 Standard basis: 6-31+G(d,p) (6D, 7F)
 There are   303 symmetry adapted basis functions of A   symmetry.
 Integral buffers will be    131072 words long.
 Raffenetti 2 integral format.
 Two-electron integral symmetry is turned on.
   303 basis functions,   489 primitive gaussians,   303 cartesian basis functions
    47 alpha electrons       47 beta electrons
       nuclear repulsion energy       800.0824793749 Hartrees.
 NAtoms=   27 NActive=   27 NUniq=   27 SFac= 1.00D+00 NAtFMM=   60 NAOKFM=F Big=F
 ------------------------------------------------------------------------------
 Polarizable Continuum Model (PCM)
 =================================
 Model                : PCM.
 Atomic radii         : UFF (Universal Force Field).
 Polarization charges : Total charges.
 Charge compensation  : None.
 Solution method      : Matrix inversion.
 Cavity type          : Scaled VdW (van der Waals Surface) (Alpha=1.100).
 Cavity algorithm     : GePol (No added spheres)
                        Default sphere list used, NSphG=   27.
                        Lebedev-Laikov grids with approx.  5.0 points / Ang**2.
                        Smoothing algorithm: Karplus/York (Gamma=1.0000).
                        Polarization charges: spherical gaussians, with
                                              point-specific exponents (IZeta= 3).
                        Self-potential: point-specific (ISelfS= 7).
                        Self-field    : sphere-specific E.n sum rule (ISelfD= 2).
 Solvent              : Water, Eps=  78.355300 Eps(inf)=   1.777849
 ------------------------------------------------------------------------------
 One-electron integrals computed using PRISM.
 NBasis=   303 RedAO= T  NBF=   303
 NBsUse=   303 1.00D-06 NBFU=   303
 Harris functional with IExCor=  908 diagonalized for initial guess.
 ExpMin= 4.38D-02 ExpMax= 5.48D+03 ExpMxC= 8.25D+02 IAcc=2 IRadAn=         4 AccDes= 0.00D+00
 HarFok:  IExCor=  908 AccDes= 0.00D+00 IRadAn=         4 IDoV= 1
 ScaDFX=  1.000000  1.000000  1.000000  1.000000
 FoFCou: FMM=F IPFlag=           0 FMFlag=      100000 FMFlg1=           0
         NFxFlg=           0 DoJE=T BraDBF=F KetDBF=T FulRan=T
         Omega=  0.000000  0.000000  1.000000  0.000000  0.000000 ICntrl=     500 IOpCl=  0
         NMat0=    1 NMatS0=    1 NMatT0=    0 NMatD0=    1 NMtDS0=    0 NMtDT0=    0
         I1Cent=           4 NGrid=           0.
 Petite list used in FoFCou.
 Initial guess orbital symmetries:
       Occupied  (A) (A) (A) (A) (A) (A) (A) (A) (A) (A) (A) (A)
                 (A) (A) (A) (A) (A) (A) (A) (A) (A) (A) (A) (A)
                 (A) (A) (A) (A) (A) (A) (A) (A) (A) (A) (A) (A)
                 (A) (A) (A) (A) (A) (A) (A) (A) (A) (A) (A)
       Virtual   (A) (A) (A) (A) (A) (A) (A) (A) (A) (A) (A) (A)
                 (A) (A) (A) (A) (A) (A) (A) (A) (A) (A) (A) (A)
                 (A) (A) (A) (A) (A) (A) (A) (A) (A) (A) (A) (A)
                 (A) (A) (A) (A) (A) (A) (A) (A) (A) (A) (A) (A)
                 (A) (A) (A) (A) (A) (A) (A) (A) (A) (A) (A) (A)
                 (A) (A) (A) (A) (A) (A) (A) (A) (A) (A) (A) (A)
                 (A) (A) (A) (A) (A) (A) (A) (A) (A) (A) (A) (A)
                 (A) (A) (A) (A) (A) (A) (A) (A) (A) (A) (A) (A)
                 (A) (A) (A) (A) (A) (A) (A) (A) (A) (A) (A) (A)
                 (A) (A) (A) (A) (A) (A) (A) (A) (A) (A) (A) (A)
                 (A) (A) (A) (A) (A) (A) (A) (A) (A) (A) (A) (A)
                 (A) (A) (A) (A) (A) (A) (A) (A) (A) (A) (A) (A)
                 (A) (A) (A) (A) (A) (A) (A) (A) (A) (A) (A) (A)
                 (A) (A) (A) (A) (A) (A) (A) (A) (A) (A) (A) (A)
                 (A) (A) (A) (A) (A) (A) (A) (A) (A) (A) (A) (A)
                 (A) (A) (A) (A) (A) (A) (A) (A) (A) (A) (A) (A)
                 (A) (A) (A) (A) (A) (A) (A) (A) (A) (A) (A) (A)
                 (A) (A) (A) (A) (A) (A) (A) (A) (A) (A) (A) (A)
                 (A) (A) (A) (A) (A) (A) (A) (A) (A) (A) (A) (A)
                 (A) (A) (A) (A) (A) (A) (A) (A) (A) (A) (A) (A)
                 (A) (A) (A) (A) (A) (A) (A) (A) (A) (A) (A) (A)
                 (A) (A) (A) (A)
 The electronic state of the initial guess is 1-A.
 Requested convergence on RMS density matrix=1.00D-08 within 128 cycles.
 Requested convergence on MAX density matrix=1.00D-06.
 Requested convergence on             energy=1.00D-06.
 No special actions if energy rises.
 Error on total polarization charges =  0.01433
 SCF Done:  E(RmPW1PW91) =  -594.202442622     A.U. after   13 cycles
             Convg  =    0.3018D-08             -V/T =  2.0094
 Range of M.O.s used for correlation:     1   303
 NBasis=   303 NAE=    47 NBE=    47 NFC=     0 NFV=     0
 NROrb=    303 NOA=    47 NOB=    47 NVA=   256 NVB=   256

 **** Warning!!: The largest alpha MO coefficient is  0.74205708D+02

 NEqPCM:  Using equilibrium solvation (IEInf=0, Eps=  78.3553, EpsInf=   1.7778)
          Differentiating once with respect to magnetic field using GIAOs.
          Electric field/nuclear overlap derivatives assumed to be zero.
 FoFCou: FMM=F IPFlag=           0 FMFlag=    10101102 FMFlg1=           0
         NFxFlg=    40000000 DoJE=F BraDBF=F KetDBF=T FulRan=T
         Omega=  0.000000  0.000000  1.000000  0.000000  0.000000 ICntrl=    6100 IOpCl=  0
         NMat0=    1 NMatS0=    1 NMatT0=    0 NMatD0=    1 NMtDS0=    0 NMtDT0=    0
         I1Cent=           7 NGrid=        1869.
 Symmetry not used in FoFCou.
          There are     3 degrees of freedom in the 1st order CPHF.  IDoFFX=0.
      3 vectors produced by pass  0 Test12= 4.01D-13 3.33D-08 XBig12= 3.21D+01 9.32D-01.
 AX will form     3 AO Fock derivatives at one time.
      3 vectors produced by pass  1 Test12= 4.01D-13 3.33D-08 XBig12= 8.80D-02 4.44D-02.
      3 vectors produced by pass  2 Test12= 4.01D-13 3.33D-08 XBig12= 1.72D-04 2.37D-03.
      3 vectors produced by pass  3 Test12= 4.01D-13 3.33D-08 XBig12= 8.13D-07 1.81D-04.
      3 vectors produced by pass  4 Test12= 4.01D-13 3.33D-08 XBig12= 2.97D-09 1.28D-05.
      3 vectors produced by pass  5 Test12= 4.01D-13 3.33D-08 XBig12= 8.14D-12 4.39D-07.
 Inverted reduced A of dimension    18 with in-core refinement.
 Calculating GIAO nuclear magnetic shielding tensors.
 SCF GIAO Magnetic shielding tensor (ppm):
      1  C    Isotropic =   161.8204   Anisotropy =    25.9583
   XX=   173.0298   YX=    11.3626   ZX=    10.1664
   XY=     1.2448   YY=   164.4344   ZY=     0.3357
   XZ=    12.6889   YZ=    -6.1552   ZZ=   147.9970
   Eigenvalues:   142.3987   163.9365   179.1259
      2  C    Isotropic =   128.5583   Anisotropy =    52.3832
   XX=   125.8908   YX=    -0.7593   ZX=     1.0585
   XY=    -7.2837   YY=   160.8984   ZY=    10.9257
   XZ=    -2.6476   YZ=    12.4804   ZZ=    98.8857
   Eigenvalues:    96.7505   125.4440   163.4804
      3  N    Isotropic =   205.8035   Anisotropy =    71.5585
   XX=   252.1273   YX=    -3.6607   ZX=    -9.3768
   XY=     2.5195   YY=   232.9495   ZY=    34.4290
   XZ=    -8.2615   YZ=    30.9207   ZZ=   132.3338
   Eigenvalues:   122.1245   241.7769   253.5092
      4  C    Isotropic =   139.8418   Anisotropy =    56.6083
   XX=   159.1954   YX=    14.2737   ZX=    15.6084
   XY=    23.7009   YY=   127.8334   ZY=    13.4935
   XZ=    13.0065   YZ=    20.9294   ZZ=   132.4967
   Eigenvalues:   112.0480   129.8968   177.5807
      5  C    Isotropic =   164.7954   Anisotropy =    21.9498
   XX=   179.3554   YX=    -0.9693   ZX=     4.5413
   XY=     1.7602   YY=   176.9570   ZY=    11.2023
   XZ=    -6.7184   YZ=     6.3652   ZZ=   138.0738
   Eigenvalues:   136.1511   178.8065   179.4285
      6  C    Isotropic =   122.0191   Anisotropy =    43.4477
   XX=   138.5480   YX=    16.9300   ZX=    -8.4683
   XY=    15.3913   YY=   108.6199   ZY=    -9.8043
   XZ=   -16.8144   YZ=     2.1049   ZZ=   118.8894
   Eigenvalues:   101.3864   113.6866   150.9843
      7  C    Isotropic =   115.4842   Anisotropy =    44.2913
   XX=   136.0291   YX=     3.3951   ZX=   -31.4107
   XY=     2.9086   YY=   119.7450   ZY=    -7.1684
   XZ=   -11.7017   YZ=     6.4347   ZZ=    90.6785
   Eigenvalues:    82.0491   119.3918   145.0117
      8  C    Isotropic =   110.8834   Anisotropy =    17.7924
   XX=   114.9392   YX=    -4.3636   ZX=    -2.9933
   XY=    -0.0852   YY=   116.5074   ZY=    15.1794
   XZ=    -0.7387   YZ=     5.5022   ZZ=   101.2037
   Eigenvalues:    95.9678   113.9375   122.7450
      9  H    Isotropic =    29.4391   Anisotropy =     9.7036
   XX=    31.8638   YX=    -3.2397   ZX=    -2.2714
   XY=    -3.8047   YY=    30.2366   ZY=     2.6119
   XZ=    -2.5139   YZ=     2.5052   ZZ=    26.2169
   Eigenvalues:    24.8858    27.5234    35.9082
     10  H    Isotropic =    30.0090   Anisotropy =     8.2021
   XX=    29.0929   YX=    -0.3114   ZX=     2.6122
   XY=     0.1996   YY=    29.5451   ZY=    -4.2299
   XZ=     2.4635   YZ=    -4.2731   ZZ=    31.3890
   Eigenvalues:    25.3847    29.1653    35.4771
     11  H    Isotropic =    28.2070   Anisotropy =     6.8298
   XX=    26.4878   YX=    -1.1403   ZX=    -1.1278
   XY=    -0.9345   YY=    27.4569   ZY=     3.3463
   XZ=    -0.2573   YZ=     2.8438   ZZ=    30.6763
   Eigenvalues:    25.3024    26.5584    32.7602
     12  H    Isotropic =    28.3740   Anisotropy =     9.4363
   XX=    27.5515   YX=     1.9743   ZX=     0.6788
   XY=     1.3502   YY=    34.2742   ZY=    -0.0763
   XZ=     1.0674   YZ=    -0.0133   ZZ=    23.2963
   Eigenvalues:    23.1115    27.3456    34.6649
     13  H    Isotropic =    29.2021   Anisotropy =     8.4938
   XX=    28.3528   YX=     0.5724   ZX=     2.1382
   XY=     0.9653   YY=    26.7500   ZY=     4.1363
   XZ=     0.6135   YZ=     3.6907   ZZ=    32.5034
   Eigenvalues:    24.7684    27.9732    34.8646
     14  H    Isotropic =    29.5637   Anisotropy =    10.7149
   XX=    29.9849   YX=     2.0848   ZX=    -4.7555
   XY=     2.3202   YY=    28.6538   ZY=    -2.9548
   XZ=    -5.1489   YZ=    -3.1895   ZZ=    30.0523
   Eigenvalues:    24.9124    27.0716    36.7069
     15  H    Isotropic =    29.5012   Anisotropy =    11.6944
   XX=    34.2490   YX=     2.4688   ZX=     4.4244
   XY=     3.0825   YY=    27.3415   ZY=     1.9499
   XZ=     4.1901   YZ=     1.5080   ZZ=    26.9131
   Eigenvalues:    24.8207    26.3855    37.2975
     16  H    Isotropic =    29.2326   Anisotropy =     3.7786
   XX=    29.0091   YX=    -0.7884   ZX=    -2.2117
   XY=    -0.7752   YY=    27.6900   ZY=    -0.0580
   XZ=    -0.6520   YZ=    -0.4678   ZZ=    30.9987
   Eigenvalues:    27.1097    28.8364    31.7517
     17  H    Isotropic =    27.4075   Anisotropy =     2.3704
   XX=    27.0859   YX=     1.1985   ZX=    -0.1613
   XY=     0.4753   YY=    27.8702   ZY=    -1.7881
   XZ=     1.0324   YZ=    -0.8000   ZZ=    27.2665
   Eigenvalues:    25.6899    27.5449    28.9878
     18  H    Isotropic =    27.9650   Anisotropy =     2.6680
   XX=    26.3942   YX=     0.3460   ZX=     0.7937
   XY=     1.1793   YY=    29.4628   ZY=     0.7932
   XZ=     1.0106   YZ=    -0.4117   ZZ=    28.0381
   Eigenvalues:    25.8852    28.2661    29.7437
     19  O    Isotropic =   297.9481   Anisotropy =    42.8228
   XX=   288.8512   YX=    33.4029   ZX=    15.3628
   XY=    22.8143   YY=   300.4387   ZY=    -1.7439
   XZ=    -2.0156   YZ=    12.2966   ZZ=   304.5544
   Eigenvalues:   265.8551   301.4926   326.4966
     20  H    Isotropic =    29.3673   Anisotropy =    18.4021
   XX=    29.6113   YX=     7.4296   ZX=    -5.7112
   XY=     8.7363   YY=    35.0100   ZY=    -0.9163
   XZ=    -4.3769   YZ=    -1.0464   ZZ=    23.4806
   Eigenvalues:    19.7496    26.7170    41.6354
     21  O    Isotropic =   293.8359   Anisotropy =    89.7875
   XX=   277.6490   YX=    -2.5345   ZX=    33.6962
   XY=     9.7523   YY=   257.0586   ZY=   -15.8725
   XZ=    -9.1288   YZ=   -28.8199   ZZ=   346.8001
   Eigenvalues:   250.2725   277.5409   353.6942
     22  H    Isotropic =    30.8872   Anisotropy =    15.9610
   XX=    27.7759   YX=     2.2070   ZX=     0.7950
   XY=     1.3981   YY=    24.1282   ZY=    -3.5604
   XZ=     1.1744   YZ=    -3.6294   ZZ=    40.7575
   Eigenvalues:    22.6313    28.5024    41.5279
     23  C    Isotropic =   135.9383   Anisotropy =    57.4887
   XX=   115.4706   YX=    -4.7910   ZX=     9.2404
   XY=    -4.9435   YY=   121.0793   ZY=    -7.3664
   XZ=    12.3103   YZ=    -5.5549   ZZ=   171.2650
   Eigenvalues:   111.9036   121.6472   174.2641
     24  H    Isotropic =    27.8807   Anisotropy =     7.5752
   XX=    25.0187   YX=    -0.9536   ZX=     1.9906
   XY=    -1.3529   YY=    30.0115   ZY=     2.4279
   XZ=     2.1344   YZ=     4.6241   ZZ=    28.6118
   Eigenvalues:    23.0058    27.7055    32.9308
     25  H    Isotropic =    27.9181   Anisotropy =     6.5250
   XX=    29.3092   YX=    -2.2819   ZX=    -2.2463
   XY=    -1.1779   YY=    26.1273   ZY=    -0.8578
   XZ=    -4.2961   YZ=    -0.3498   ZZ=    28.3177
   Eigenvalues:    24.1566    27.3295    32.2681
     26  O    Isotropic =   329.0425   Anisotropy =    46.1213
   XX=   346.6492   YX=    -2.8598   ZX=   -21.2234
   XY=    -8.2923   YY=   314.8361   ZY=    24.6607
   XZ=   -13.4268   YZ=     4.5226   ZZ=   325.6421
   Eigenvalues:   303.8300   323.5074   359.7900
     27  H    Isotropic =    29.2173   Anisotropy =    15.8701
   XX=    36.8896   YX=    -2.5980   ZX=    -4.9497
   XY=    -4.1388   YY=    21.2107   ZY=    -4.7614
   XZ=    -5.7640   YZ=    -2.9426   ZZ=    29.5518
   Eigenvalues:    18.2293    29.6253    39.7974
 End of Minotr Frequency-dependent properties file   721 does not exist.
 End of Minotr Frequency-dependent properties file   722 does not exist.

 **********************************************************************

            Population analysis using the SCF density.

 **********************************************************************

 Orbital symmetries:
       Occupied  (A) (A) (A) (A) (A) (A) (A) (A) (A) (A) (A) (A)
                 (A) (A) (A) (A) (A) (A) (A) (A) (A) (A) (A) (A)
                 (A) (A) (A) (A) (A) (A) (A) (A) (A) (A) (A) (A)
                 (A) (A) (A) (A) (A) (A) (A) (A) (A) (A) (A)
       Virtual   (A) (A) (A) (A) (A) (A) (A) (A) (A) (A) (A) (A)
                 (A) (A) (A) (A) (A) (A) (A) (A) (A) (A) (A) (A)
                 (A) (A) (A) (A) (A) (A) (A) (A) (A) (A) (A) (A)
                 (A) (A) (A) (A) (A) (A) (A) (A) (A) (A) (A) (A)
                 (A) (A) (A) (A) (A) (A) (A) (A) (A) (A) (A) (A)
                 (A) (A) (A) (A) (A) (A) (A) (A) (A) (A) (A) (A)
                 (A) (A) (A) (A) (A) (A) (A) (A) (A) (A) (A) (A)
                 (A) (A) (A) (A) (A) (A) (A) (A) (A) (A) (A) (A)
                 (A) (A) (A) (A) (A) (A) (A) (A) (A) (A) (A) (A)
                 (A) (A) (A) (A) (A) (A) (A) (A) (A) (A) (A) (A)
                 (A) (A) (A) (A) (A) (A) (A) (A) (A) (A) (A) (A)
                 (A) (A) (A) (A) (A) (A) (A) (A) (A) (A) (A) (A)
                 (A) (A) (A) (A) (A) (A) (A) (A) (A) (A) (A) (A)
                 (A) (A) (A) (A) (A) (A) (A) (A) (A) (A) (A) (A)
                 (A) (A) (A) (A) (A) (A) (A) (A) (A) (A) (A) (A)
                 (A) (A) (A) (A) (A) (A) (A) (A) (A) (A) (A) (A)
                 (A) (A) (A) (A) (A) (A) (A) (A) (A) (A) (A) (A)
                 (A) (A) (A) (A) (A) (A) (A) (A) (A) (A) (A) (A)
                 (A) (A) (A) (A) (A) (A) (A) (A) (A) (A) (A) (A)
                 (A) (A) (A) (A) (A) (A) (A) (A) (A) (A) (A) (A)
                 (A) (A) (A) (A) (A) (A) (A) (A) (A) (A) (A) (A)
                 (A) (A) (A) (A)
 The electronic state is 1-A.
 Alpha  occ. eigenvalues --  -19.26523 -19.26094 -19.25064 -14.41920 -10.30556
 Alpha  occ. eigenvalues --  -10.30436 -10.29392 -10.28420 -10.28127 -10.27135
 Alpha  occ. eigenvalues --  -10.24808 -10.24763  -1.07642  -1.05822  -1.05378
 Alpha  occ. eigenvalues --   -0.96932  -0.83134  -0.79696  -0.75227  -0.71636
 Alpha  occ. eigenvalues --   -0.66904  -0.62736  -0.60858  -0.57776  -0.56107
 Alpha  occ. eigenvalues --   -0.52901  -0.51531  -0.50216  -0.49107  -0.48568
 Alpha  occ. eigenvalues --   -0.45297  -0.44889  -0.44033  -0.41671  -0.40890
 Alpha  occ. eigenvalues --   -0.40077  -0.39019  -0.37870  -0.37040  -0.35849
 Alpha  occ. eigenvalues --   -0.35154  -0.34681  -0.33092  -0.32121  -0.29908
 Alpha  occ. eigenvalues --   -0.28068  -0.23800
 Alpha virt. eigenvalues --    0.00766   0.01178   0.01935   0.02214   0.03794
 Alpha virt. eigenvalues --    0.04177   0.04508   0.04763   0.05252   0.06970
 Alpha virt. eigenvalues --    0.07907   0.08504   0.08582   0.09083   0.09257
 Alpha virt. eigenvalues --    0.09778   0.11080   0.11824   0.12327   0.12891
 Alpha virt. eigenvalues --    0.13356   0.13926   0.14144   0.14872   0.15503
 Alpha virt. eigenvalues --    0.15734   0.16283   0.17124   0.17340   0.17858
 Alpha virt. eigenvalues --    0.18690   0.19308   0.19944   0.20390   0.20871
 Alpha virt. eigenvalues --    0.21408   0.21782   0.21976   0.23212   0.23303
 Alpha virt. eigenvalues --    0.23878   0.23998   0.25109   0.25618   0.25917
 Alpha virt. eigenvalues --    0.26394   0.27526   0.28149   0.28597   0.28917
 Alpha virt. eigenvalues --    0.29171   0.30320   0.30551   0.31336   0.31943
 Alpha virt. eigenvalues --    0.32273   0.32821   0.33864   0.34538   0.34675
 Alpha virt. eigenvalues --    0.34829   0.35153   0.36405   0.36911   0.38092
 Alpha virt. eigenvalues --    0.38364   0.39167   0.40044   0.40606   0.41343
 Alpha virt. eigenvalues --    0.41395   0.42161   0.43654   0.44373   0.46828
 Alpha virt. eigenvalues --    0.47114   0.63132   0.64961   0.66115   0.67468
 Alpha virt. eigenvalues --    0.69319   0.70826   0.71844   0.72191   0.74621
 Alpha virt. eigenvalues --    0.75315   0.76577   0.79018   0.79860   0.81453
 Alpha virt. eigenvalues --    0.81876   0.84527   0.85742   0.86853   0.89397
 Alpha virt. eigenvalues --    0.90138   0.91476   0.93876   0.95675   0.95860
 Alpha virt. eigenvalues --    0.98422   0.99338   1.02352   1.02984   1.04596
 Alpha virt. eigenvalues --    1.06108   1.06582   1.07508   1.09325   1.10314
 Alpha virt. eigenvalues --    1.10814   1.12238   1.13106   1.14399   1.15729
 Alpha virt. eigenvalues --    1.17985   1.18837   1.21914   1.22404   1.24758
 Alpha virt. eigenvalues --    1.26290   1.27566   1.28114   1.31064   1.32539
 Alpha virt. eigenvalues --    1.33990   1.35759   1.36606   1.37795   1.41071
 Alpha virt. eigenvalues --    1.42247   1.44352   1.47049   1.47873   1.50169
 Alpha virt. eigenvalues --    1.54202   1.54839   1.57043   1.58514   1.62187
 Alpha virt. eigenvalues --    1.62807   1.63315   1.64860   1.67716   1.68969
 Alpha virt. eigenvalues --    1.71361   1.73788   1.76853   1.77756   1.79603
 Alpha virt. eigenvalues --    1.82110   1.82944   1.84153   1.85905   1.87819
 Alpha virt. eigenvalues --    1.88417   1.89716   1.92372   1.93103   1.95646
 Alpha virt. eigenvalues --    1.97414   1.99302   2.02206   2.02894   2.04364
 Alpha virt. eigenvalues --    2.04497   2.05107   2.08102   2.09881   2.11474
 Alpha virt. eigenvalues --    2.11898   2.14684   2.15322   2.16958   2.17548
 Alpha virt. eigenvalues --    2.20665   2.23601   2.23966   2.26679   2.27047
 Alpha virt. eigenvalues --    2.30017   2.33687   2.34140   2.37322   2.38319
 Alpha virt. eigenvalues --    2.39506   2.42019   2.44362   2.44749   2.46988
 Alpha virt. eigenvalues --    2.48080   2.49757   2.51579   2.51947   2.53620
 Alpha virt. eigenvalues --    2.55220   2.58803   2.59487   2.61934   2.62921
 Alpha virt. eigenvalues --    2.64726   2.65752   2.67111   2.68702   2.69829
 Alpha virt. eigenvalues --    2.71020   2.72360   2.74588   2.75665   2.76979
 Alpha virt. eigenvalues --    2.78976   2.82089   2.83311   2.83558   2.85310
 Alpha virt. eigenvalues --    2.85781   2.89705   2.90327   2.92193   2.94725
 Alpha virt. eigenvalues --    2.97565   2.98468   3.00630   3.03578   3.05046
 Alpha virt. eigenvalues --    3.06735   3.08060   3.11744   3.18350   3.31315
 Alpha virt. eigenvalues --    3.34846   3.35656   3.36147   3.38507   3.45182
 Alpha virt. eigenvalues --    3.48261   3.49238   3.52337   3.53932   3.55797
 Alpha virt. eigenvalues --    3.56659   3.58328   3.61341   3.62712   4.28589
 Alpha virt. eigenvalues --    4.36608   4.40085   4.41247   4.47990   4.49989
 Alpha virt. eigenvalues --    4.56227   4.70817   4.76035   4.79612   4.86622
 Alpha virt. eigenvalues --    4.93223
          Condensed to atoms (all electrons):
              1          2          3          4          5          6
     1  C    6.234431  -1.244441   0.245081  -0.232295   0.171750   0.107193
     2  C   -1.244441   9.707960  -0.626727  -0.273388   0.229197  -0.470408
     3  N    0.245081  -0.626727   7.672221   0.244495  -0.207107  -0.618084
     4  C   -0.232295  -0.273388   0.244495   5.587835   0.180267  -0.261066
     5  C    0.171750   0.229197  -0.207107   0.180267   5.509045   0.060711
     6  C    0.107193  -0.470408  -0.618084  -0.261066   0.060711  10.247886
     7  C   -0.052441   0.291847   0.053752  -0.015538  -0.059064  -1.686858
     8  C    0.098983  -0.913890   0.024061   0.148133  -0.108409   0.427666
     9  H    0.394234  -0.077249   0.014692   0.027197  -0.022557   0.003040
    10  H    0.509730  -0.222889   0.032741   0.015649  -0.069292   0.015798
    11  H    0.108869   0.056332   0.018923   0.016264  -0.023422   0.049118
    12  H    0.042527  -0.018135  -0.046707   0.376081  -0.026747   0.012504
    13  H   -0.011379   0.027047  -0.086082   0.427280  -0.036387  -0.017248
    14  H   -0.021238  -0.040609   0.013762  -0.032243   0.390856   0.006578
    15  H   -0.068637   0.054103   0.002709  -0.022171   0.377705  -0.004460
    16  H   -0.017163   0.067472  -0.032246   0.023188   0.005609   0.111297
    17  H    0.014632  -0.023254   0.060861   0.011442  -0.001411  -0.251315
    18  H    0.058015  -0.293483   0.057740   0.011868  -0.001064  -0.010978
    19  O    0.025732  -0.155088   0.026228  -0.001218  -0.002193   0.035314
    20  H   -0.006254   0.044246  -0.003237  -0.000494   0.000331   0.012243
    21  O   -0.001755   0.030365  -0.003269  -0.004939   0.003934   0.033882
    22  H    0.005368  -0.004677   0.012155   0.001692  -0.000116  -0.123050
    23  C    0.053923  -0.115051   0.292645   0.019066  -0.021305  -1.425131
    24  H    0.000084  -0.007239  -0.021572   0.017090   0.008052   0.010915
    25  H    0.000776   0.010308   0.019032  -0.003522  -0.001313  -0.210127
    26  O    0.006904  -0.018609   0.036683   0.002107  -0.003618  -0.172107
    27  H   -0.000113   0.018411   0.047287   0.004286  -0.004164  -0.101424
              7          8          9         10         11         12
     1  C   -0.052441   0.098983   0.394234   0.509730   0.108869   0.042527
     2  C    0.291847  -0.913890  -0.077249  -0.222889   0.056332  -0.018135
     3  N    0.053752   0.024061   0.014692   0.032741   0.018923  -0.046707
     4  C   -0.015538   0.148133   0.027197   0.015649   0.016264   0.376081
     5  C   -0.059064  -0.108409  -0.022557  -0.069292  -0.023422  -0.026747
     6  C   -1.686858   0.427666   0.003040   0.015798   0.049118   0.012504
     7  C    7.061189  -0.370440  -0.003864  -0.008451  -0.053116  -0.001359
     8  C   -0.370440   6.022359   0.006303   0.041997   0.076076  -0.000131
     9  H   -0.003864   0.006303   0.510052  -0.024243  -0.003705  -0.000099
    10  H   -0.008451   0.041997  -0.024243   0.529034   0.004148  -0.000042
    11  H   -0.053116   0.076076  -0.003705   0.004148   0.555685   0.000230
    12  H   -0.001359  -0.000131  -0.000099  -0.000042   0.000230   0.540054
    13  H    0.011287  -0.001779  -0.000139   0.001030  -0.000483  -0.041134
    14  H   -0.002202   0.013223  -0.004917   0.004157   0.000858  -0.006062
    15  H    0.001126   0.001273   0.000293  -0.005364  -0.000121   0.000720
    16  H    0.074394  -0.051061  -0.000008  -0.000218  -0.000597  -0.000900
    17  H    0.540004  -0.081813   0.000004  -0.000008   0.000805   0.000010
    18  H   -0.063400   0.532888   0.000386   0.003382   0.004348   0.000012
    19  O   -0.130747   0.305684   0.000473   0.001693   0.009285   0.000056
    20  H   -0.050481   0.005122  -0.000009  -0.000012  -0.000037   0.000000
    21  O    0.226473  -0.094626   0.000000  -0.000168  -0.000562   0.000011
    22  H    0.134327  -0.057434   0.000000  -0.000003   0.000003   0.000000
    23  C    0.306744  -0.026327   0.000246   0.000231   0.006628  -0.001781
    24  H   -0.021705  -0.002437   0.000000   0.000002   0.000012  -0.000013
    25  H    0.029615  -0.009092   0.000000   0.000000  -0.000003  -0.000007
    26  O    0.027970  -0.018533   0.000003   0.000017   0.001317   0.001545
    27  H   -0.002714  -0.008576  -0.000001  -0.000001  -0.000444  -0.000355
             13         14         15         16         17         18
     1  C   -0.011379  -0.021238  -0.068637  -0.017163   0.014632   0.058015
     2  C    0.027047  -0.040609   0.054103   0.067472  -0.023254  -0.293483
     3  N   -0.086082   0.013762   0.002709  -0.032246   0.060861   0.057740
     4  C    0.427280  -0.032243  -0.022171   0.023188   0.011442   0.011868
     5  C   -0.036387   0.390856   0.377705   0.005609  -0.001411  -0.001064
     6  C   -0.017248   0.006578  -0.004460   0.111297  -0.251315  -0.010978
     7  C    0.011287  -0.002202   0.001126   0.074394   0.540004  -0.063400
     8  C   -0.001779   0.013223   0.001273  -0.051061  -0.081813   0.532888
     9  H   -0.000139  -0.004917   0.000293  -0.000008   0.000004   0.000386
    10  H    0.001030   0.004157  -0.005364  -0.000218  -0.000008   0.003382
    11  H   -0.000483   0.000858  -0.000121  -0.000597   0.000805   0.004348
    12  H   -0.041134  -0.006062   0.000720  -0.000900   0.000010   0.000012
    13  H    0.568624   0.003935  -0.004503   0.011813  -0.000022  -0.000218
    14  H    0.003935   0.518573  -0.023871  -0.000014  -0.000002  -0.000006
    15  H   -0.004503  -0.023871   0.512412  -0.000015   0.000000  -0.000024
    16  H    0.011813  -0.000014  -0.000015   0.594774   0.004243   0.000826
    17  H   -0.000022  -0.000002   0.000000   0.004243   0.519372   0.004467
    18  H   -0.000218  -0.000006  -0.000024   0.000826   0.004467   0.572951
    19  O   -0.000197   0.000030  -0.000007  -0.001563  -0.004652  -0.045629
    20  H    0.000000   0.000000   0.000000   0.000025  -0.000076  -0.004346
    21  O    0.000034  -0.000004  -0.000006  -0.002521  -0.055354  -0.010072
    22  H   -0.000013   0.000000   0.000000   0.004697   0.007000   0.005066
    23  C   -0.006247  -0.001011   0.000183   0.044777   0.050244   0.014472
    24  H    0.000082   0.000003   0.000000  -0.001839   0.000100   0.000008
    25  H    0.000009   0.000000   0.000000   0.001496   0.000550  -0.000005
    26  O   -0.000357   0.000031  -0.000004   0.008473   0.010676   0.000185
    27  H    0.000107   0.000000  -0.000001   0.000626   0.000040  -0.000007
             19         20         21         22         23         24
     1  C    0.025732  -0.006254  -0.001755   0.005368   0.053923   0.000084
     2  C   -0.155088   0.044246   0.030365  -0.004677  -0.115051  -0.007239
     3  N    0.026228  -0.003237  -0.003269   0.012155   0.292645  -0.021572
     4  C   -0.001218  -0.000494  -0.004939   0.001692   0.019066   0.017090
     5  C   -0.002193   0.000331   0.003934  -0.000116  -0.021305   0.008052
     6  C    0.035314   0.012243   0.033882  -0.123050  -1.425131   0.010915
     7  C   -0.130747  -0.050481   0.226473   0.134327   0.306744  -0.021705
     8  C    0.305684   0.005122  -0.094626  -0.057434  -0.026327  -0.002437
     9  H    0.000473  -0.000009   0.000000   0.000000   0.000246   0.000000
    10  H    0.001693  -0.000012  -0.000168  -0.000003   0.000231   0.000002
    11  H    0.009285  -0.000037  -0.000562   0.000003   0.006628   0.000012
    12  H    0.000056   0.000000   0.000011   0.000000  -0.001781  -0.000013
    13  H   -0.000197   0.000000   0.000034  -0.000013  -0.006247   0.000082
    14  H    0.000030   0.000000  -0.000004   0.000000  -0.001011   0.000003
    15  H   -0.000007   0.000000  -0.000006   0.000000   0.000183   0.000000
    16  H   -0.001563   0.000025  -0.002521   0.004697   0.044777  -0.001839
    17  H   -0.004652  -0.000076  -0.055354   0.007000   0.050244   0.000100
    18  H   -0.045629  -0.004346  -0.010072   0.005066   0.014472   0.000008
    19  O    8.266497   0.231651  -0.007153  -0.002025  -0.007001   0.000044
    20  H    0.231651   0.376714   0.009307   0.000020  -0.000577   0.000000
    21  O   -0.007153   0.009307   8.179075   0.249459  -0.037756  -0.000905
    22  H   -0.002025   0.000020   0.249459   0.373656   0.020460  -0.000002
    23  C   -0.007001  -0.000577  -0.037756   0.020460   5.904744   0.373881
    24  H    0.000044   0.000000  -0.000905  -0.000002   0.373881   0.584008
    25  H   -0.000042   0.000000   0.008214   0.000008   0.534379  -0.039113
    26  O    0.000895   0.000030  -0.004406   0.000371   0.253915  -0.049556
    27  H   -0.000122   0.000001   0.000556  -0.000004   0.048978  -0.003929
             25         26         27
     1  C    0.000776   0.006904  -0.000113
     2  C    0.010308  -0.018609   0.018411
     3  N    0.019032   0.036683   0.047287
     4  C   -0.003522   0.002107   0.004286
     5  C   -0.001313  -0.003618  -0.004164
     6  C   -0.210127  -0.172107  -0.101424
     7  C    0.029615   0.027970  -0.002714
     8  C   -0.009092  -0.018533  -0.008576
     9  H    0.000000   0.000003  -0.000001
    10  H    0.000000   0.000017  -0.000001
    11  H   -0.000003   0.001317  -0.000444
    12  H   -0.000007   0.001545  -0.000355
    13  H    0.000009  -0.000357   0.000107
    14  H    0.000000   0.000031   0.000000
    15  H    0.000000  -0.000004  -0.000001
    16  H    0.001496   0.008473   0.000626
    17  H    0.000550   0.010676   0.000040
    18  H   -0.000005   0.000185  -0.000007
    19  O   -0.000042   0.000895  -0.000122
    20  H    0.000000   0.000030   0.000001
    21  O    0.008214  -0.004406   0.000556
    22  H    0.000008   0.000371  -0.000004
    23  C    0.534379   0.253915   0.048978
    24  H   -0.039113  -0.049556  -0.003929
    25  H    0.539034  -0.052912   0.006195
    26  O   -0.052912   8.275887   0.250844
    27  H    0.006195   0.250844   0.359124
 Mulliken atomic charges:
              1
     1  C   -0.422518
     2  C   -0.032153
     3  N   -0.230036
     4  C   -0.267065
     5  C   -0.349290
     6  C    0.218112
     7  C   -0.236350
     8  C    0.040780
     9  H    0.179867
    10  H    0.171081
    11  H    0.173589
    12  H    0.169721
    13  H    0.154939
    14  H    0.180173
    15  H    0.178658
    16  H    0.154435
    17  H    0.193456
    18  H    0.162617
    19  O   -0.545945
    20  H    0.385831
    21  O   -0.517814
    22  H    0.373041
    23  C   -0.283329
    24  H    0.154029
    25  H    0.166522
    26  O   -0.557750
    27  H    0.385399
 Sum of Mulliken atomic charges =   0.00000
 Mulliken charges with hydrogens summed into heavy atoms:
              1
     1  C   -0.071570
     2  C    0.141435
     3  N   -0.230036
     4  C    0.057596
     5  C    0.009541
     6  C    0.372547
     7  C   -0.042893
     8  C    0.203398
    19  O   -0.160114
    21  O   -0.144773
    23  C    0.037222
    26  O   -0.172352
 Sum of Mulliken charges with hydrogens summed into heavy atoms =   0.00000
 Electronic spatial extent (au):  <R**2>=           2097.5753
 Charge=              0.0000 electrons
 Dipole moment (field-independent basis, Debye):
    X=             -3.7241    Y=              0.0852    Z=             -4.6026  Tot=              5.9211
 Quadrupole moment (field-independent basis, Debye-Ang):
   XX=            -81.3235   YY=            -75.8089   ZZ=            -70.5293
   XY=              6.4749   XZ=             -4.8385   YZ=             -1.5648
 Traceless Quadrupole moment (field-independent basis, Debye-Ang):
   XX=             -5.4362   YY=              0.0783   ZZ=              5.3579
   XY=              6.4749   XZ=             -4.8385   YZ=             -1.5648
 Octapole moment (field-independent basis, Debye-Ang**2):
  XXX=            -33.4591  YYY=             15.1698  ZZZ=             -9.4050  XYY=              2.4409
  XXY=              5.7085  XXZ=            -11.0117  XZZ=              4.3986  YZZ=              5.2462
  YYZ=            -20.0680  XYZ=              9.7780
 Hexadecapole moment (field-independent basis, Debye-Ang**3):
 XXXX=          -1448.0688 YYYY=          -1010.6295 ZZZZ=           -251.6655 XXXY=              6.2105
 XXXZ=            -22.6891 YYYX=             81.2581 YYYZ=            -19.6056 ZZZX=            -24.4525
 ZZZY=            -28.6439 XXYY=           -435.5504 XXZZ=           -273.2706 YYZZ=           -230.3099
 XXYZ=             31.4524 YYXZ=            -18.6800 ZZXY=             21.6216
 N-N= 8.000824793749D+02 E-N=-2.985622804627D+03  KE= 5.886592608473D+02
 1\1\GINC-COMPUTE-3-0\SP\RmPW1PW91\6-31+G(d,p)\C8H15N1O3\MAMICHETTI.IQU
 IR\17-May-2024\0\\# mpw1pw91/6-31+G** nmr scrf=(pcm,solvent=water)\\co
 mment\\0,1\C,0,-2.463939,0.606582,-0.083545\C,0,-1.045856,0.582928,0.5
 08153\N,0,-0.497825,-0.786313,0.203375\C,0,-1.541553,-1.561807,-0.5000
 2\C,0,-2.854797,-0.879368,-0.10434\C,0,0.779843,-0.637293,-0.517326\C,
 0,1.277503,0.745376,-0.067881\C,0,-0.015166,1.567407,-0.052943\H,0,-3.
 150938,1.228438,0.498367\H,0,-2.436981,0.999091,-1.107713\H,0,-1.09001
 ,0.725047,1.596406\H,0,-1.512694,-2.619308,-0.214769\H,0,-1.400104,-1.
 509475,-1.592412\H,0,-3.16815,-1.206988,0.894354\H,0,-3.666363,-1.1036
 16,-0.803306\H,0,0.626231,-0.606357,-1.612431\H,0,1.678676,0.687636,0.
 949447\H,0,-0.264522,1.825641,-1.094715\O,0,0.040507,2.749488,0.742495
 \H,0,0.742902,3.306534,0.365318\O,0,2.323727,1.291481,-0.862739\H,0,1.
 987821,1.356008,-1.774171\C,0,1.740905,-1.78658,-0.221228\H,0,1.343905
 ,-2.718309,-0.652383\H,0,2.709599,-1.586801,-0.691427\O,0,1.977014,-1.
 943368,1.178357\H,0,1.093778,-1.877636,1.585696\\Version=AM64L-G09RevC
 .01\State=1-A\HF=-594.2024426\RMSD=3.018e-09\Dipole=-1.4651674,0.03352
 42,-1.8107967\Quadrupole=-4.041711,0.0582071,3.9835039,4.8139495,-3.59
 73103,-1.1633875\PG=C01 [X(C8H15N1O3)]\\@


 AND HERE I AM, FOR ALL MY LORE,
 THE WRETCHED FOOL I WAS BEFORE.
 CALLED MASTER OF ARTS, AND DOCTOR TO BOOT,
 FOR TEN YEARS ALMOST I CONFUTE
 AND UP AND DOWN, WHEREVER IT GOES
 I DRAG MY STUDENTS BY THE NOSE --
 AND SEE THAT FOR ALL OUR SCIENCE AND ART
 WE CAN KNOW NOTHING.  IT BURNS MY HEART.

                                       -- FAUST
 Job cpu time:  0 days  0 hours  8 minutes 39.2 seconds.
 File lengths (MBytes):  RWF=    115 Int=      0 D2E=      0 Chk=      7 Scr=      1
 Normal termination of Gaussian 09 at Fri May 17 12:17:56 2024.
