 Entering Gaussian System, Link 0=g09
 Input=/home/mamichetti.iquir/Linux/02_Cardona_A1A3_R__R_R_R_037_OptB.gjc
 Output=/home/mamichetti.iquir/Linux/02_Cardona_A1A3_R__R_R_R_037_OptB.log
 Initial command:
 /opt/ohpc/pub/apps/software/Gaussian/09/AMD64.SSE4a-enabled/g09/l1.exe /local/mamichetti.iquir/Gau-712429.inp -scrdir=/local/mamichetti.iquir/
 Entering Link 1 = /opt/ohpc/pub/apps/software/Gaussian/09/AMD64.SSE4a-enabled/g09/l1.exe PID=    712430.
  
 Copyright (c) 1988,1990,1992,1993,1995,1998,2003,2009,2011,
            Gaussian, Inc.  All Rights Reserved.
  
 This is part of the Gaussian(R) 09 program.  It is based on
 the Gaussian(R) 03 system (copyright 2003, Gaussian, Inc.),
 the Gaussian(R) 98 system (copyright 1998, Gaussian, Inc.),
 the Gaussian(R) 94 system (copyright 1995, Gaussian, Inc.),
 the Gaussian 92(TM) system (copyright 1992, Gaussian, Inc.),
 the Gaussian 90(TM) system (copyright 1990, Gaussian, Inc.),
 the Gaussian 88(TM) system (copyright 1988, Gaussian, Inc.),
 the Gaussian 86(TM) system (copyright 1986, Carnegie Mellon
 University), and the Gaussian 82(TM) system (copyright 1983,
 Carnegie Mellon University). Gaussian is a federally registered
 trademark of Gaussian, Inc.
  
 This software contains proprietary and confidential information,
 including trade secrets, belonging to Gaussian, Inc.
  
 This software is provided under written license and may be
 used, copied, transmitted, or stored only in accord with that
 written license.
  
 The following legend is applicable only to US Government
 contracts under FAR:
  
                    RESTRICTED RIGHTS LEGEND
  
 Use, reproduction and disclosure by the US Government is
 subject to restrictions as set forth in subparagraphs (a)
 and (c) of the Commercial Computer Software - Restricted
 Rights clause in FAR 52.227-19.
  
 Gaussian, Inc.
 340 Quinnipiac St., Bldg. 40, Wallingford CT 06492
  
  
 ---------------------------------------------------------------
 Warning -- This program may not be used in any manner that
 competes with the business of Gaussian, Inc. or will provide
 assistance to any competitor of Gaussian, Inc.  The licensee
 of this program is prohibited from giving any competitor of
 Gaussian, Inc. access to this program.  By using this program,
 the user acknowledges that Gaussian, Inc. is engaged in the
 business of creating and licensing software in the field of
 computational chemistry and represents and warrants to the
 licensee that it is not a competitor of Gaussian, Inc. and that
 it will not use this program in any manner prohibited above.
 ---------------------------------------------------------------
  

 Cite this work as:
 Gaussian 09, Revision C.01,
 M. J. Frisch, G. W. Trucks, H. B. Schlegel, G. E. Scuseria, 
 M. A. Robb, J. R. Cheeseman, G. Scalmani, V. Barone, B. Mennucci, 
 G. A. Petersson, H. Nakatsuji, M. Caricato, X. Li, H. P. Hratchian, 
 A. F. Izmaylov, J. Bloino, G. Zheng, J. L. Sonnenberg, M. Hada, 
 M. Ehara, K. Toyota, R. Fukuda, J. Hasegawa, M. Ishida, T. Nakajima, 
 Y. Honda, O. Kitao, H. Nakai, T. Vreven, J. A. Montgomery, Jr., 
 J. E. Peralta, F. Ogliaro, M. Bearpark, J. J. Heyd, E. Brothers, 
 K. N. Kudin, V. N. Staroverov, T. Keith, R. Kobayashi, J. Normand, 
 K. Raghavachari, A. Rendell, J. C. Burant, S. S. Iyengar, J. Tomasi, 
 M. Cossi, N. Rega, J. M. Millam, M. Klene, J. E. Knox, J. B. Cross, 
 V. Bakken, C. Adamo, J. Jaramillo, R. Gomperts, R. E. Stratmann, 
 O. Yazyev, A. J. Austin, R. Cammi, C. Pomelli, J. W. Ochterski, 
 R. L. Martin, K. Morokuma, V. G. Zakrzewski, G. A. Voth, 
 P. Salvador, J. J. Dannenberg, S. Dapprich, A. D. Daniels, 
 O. Farkas, J. B. Foresman, J. V. Ortiz, J. Cioslowski, 
 and D. J. Fox, Gaussian, Inc., Wallingford CT, 2010.
 
 ******************************************
 Gaussian 09:  AM64L-G09RevC.01 23-Sep-2011
                17-May-2024 
 ******************************************
 %nprocshared=4
 Will use up to    4 processors via shared memory.
 ------------------------------------------------
 # mpw1pw91/6-31+G** nmr scrf=(pcm,solvent=water)
 ------------------------------------------------
 1/38=1/1;
 2/12=2,17=6,18=5,40=1/2;
 3/5=1,6=6,7=111,11=2,16=1,25=1,30=1,70=2201,72=1,74=-7/1,2,8,3;
 4//1;
 5/5=2,38=5,53=1/2;
 8/6=1,10=90,11=11/1;
 10/13=100,45=16/2;
 6/7=2,8=2,9=2,10=2,28=1/1;
 99/9=1/99;
 -------
 comment
 -------
 Charge =  0 Multiplicity = 1
 Symbolic Z-Matrix:
 6                     2.31626  -0.34703  -0.40137 
 6                     0.96934   0.2123   -0.96328 
 7                    -0.1027   -0.76007  -0.57437 
 6                     0.59862  -2.02033  -0.25123 
 6                     1.92729  -1.60703   0.39587 
 6                    -0.87082  -0.17924   0.5682 
 6                    -0.27256   1.20985   0.86595 
 6                     0.51584   1.57003  -0.40761 
 1                     2.97832  -0.60555  -1.23452 
 1                     2.84039   0.3892    0.21445 
 1                     1.03351   0.28518  -2.05421 
 1                     0.78764  -2.57004  -1.18234 
 1                    -0.03193  -2.65291   0.37932 
 1                     2.68618  -2.39456   0.34834 
 1                     1.76527  -1.35582   1.44986 
 1                    -0.77261  -0.81902   1.45411 
 1                    -1.04903   1.95972   1.06585 
 1                     1.36182   2.21521  -0.15913 
 8                    -0.27013   2.32161  -1.33925 
 1                    -0.91704   1.72396  -1.74903 
 8                     0.66919   1.1797    1.94732 
 1                     0.21294   0.79928   2.71657 
 6                    -2.35646  -0.11413   0.20095 
 1                    -2.95119   0.18082   1.07178 
 1                    -2.51993   0.63447  -0.5897 
 8                    -2.83398  -1.39333  -0.21606 
 1                    -2.19121  -1.67982  -0.89175 
 
                          Input orientation:                          
 ---------------------------------------------------------------------
 Center     Atomic      Atomic             Coordinates (Angstroms)
 Number     Number       Type             X           Y           Z
 ---------------------------------------------------------------------
      1          6           0        2.316261   -0.347034   -0.401367
      2          6           0        0.969335    0.212302   -0.963277
      3          7           0       -0.102696   -0.760073   -0.574368
      4          6           0        0.598619   -2.020333   -0.251230
      5          6           0        1.927293   -1.607031    0.395868
      6          6           0       -0.870818   -0.179244    0.568202
      7          6           0       -0.272555    1.209852    0.865946
      8          6           0        0.515842    1.570032   -0.407612
      9          1           0        2.978321   -0.605554   -1.234520
     10          1           0        2.840390    0.389199    0.214453
     11          1           0        1.033508    0.285178   -2.054211
     12          1           0        0.787635   -2.570042   -1.182336
     13          1           0       -0.031925   -2.652911    0.379318
     14          1           0        2.686183   -2.394560    0.348338
     15          1           0        1.765265   -1.355822    1.449863
     16          1           0       -0.772612   -0.819019    1.454107
     17          1           0       -1.049025    1.959719    1.065850
     18          1           0        1.361821    2.215206   -0.159125
     19          8           0       -0.270132    2.321609   -1.339245
     20          1           0       -0.917044    1.723955   -1.749031
     21          8           0        0.669193    1.179703    1.947315
     22          1           0        0.212944    0.799283    2.716574
     23          6           0       -2.356458   -0.114126    0.200951
     24          1           0       -2.951192    0.180820    1.071782
     25          1           0       -2.519931    0.634473   -0.589699
     26          8           0       -2.833984   -1.393325   -0.216060
     27          1           0       -2.191207   -1.679819   -0.891747
 ---------------------------------------------------------------------
                    Distance matrix (angstroms):
                    1          2          3          4          5
     1  C    0.000000
     2  C    1.562949   0.000000
     3  N    2.460058   1.498671   0.000000
     4  C    2.402658   2.372573   1.478011   0.000000
     5  C    1.540932   2.464738   2.404070   1.534578   0.000000
     6  C    3.335519   2.425881   1.494269   2.494057   3.146061
     7  C    3.275965   2.425583   2.446214   3.527197   3.604876
     8  C    2.629960   1.535529   2.416565   3.594722   3.568123
     9  H    1.095126   2.185975   3.154733   2.937931   2.183067
    10  H    1.093611   2.217924   3.256504   3.323890   2.202633
    11  H    2.185644   1.095247   2.138561   2.958927   3.222141
    12  H    2.808625   2.796863   2.106728   1.097664   2.171851
    13  H    3.382383   3.318814   2.120698   1.093312   2.220962
    14  H    2.211620   3.385798   3.361663   2.203963   1.094703
    15  H    2.179060   2.985927   2.818103   2.167108   1.095566
    16  H    3.634101   3.153054   2.137048   2.496318   3.005049
    17  H    4.335780   3.353297   3.314079   4.504469   4.693512
    18  H    2.744943   2.193702   3.342083   4.304736   3.903495
    19  O    3.832845   2.475239   3.179597   4.559711   4.824262
    20  H    4.069331   2.541836   2.865901   4.308171   4.877121
    21  O    3.249626   3.081801   3.273748   3.883144   3.428657
    22  H    3.931862   3.802365   3.655341   4.111793   3.756996
    23  C    4.717132   3.538768   2.469374   3.545500   4.540626
    24  H    5.494985   4.417351   3.421844   4.381392   5.239550
    25  H    4.938378   3.534511   2.790702   4.109490   5.076759
    26  O    5.258715   4.195427   2.826540   3.489576   4.805194
    27  H    4.725892   3.684327   2.304027   2.882593   4.315703
                    6          7          8          9         10
     6  C    0.000000
     7  C    1.541479   0.000000
     8  C    2.436187   1.540535   0.000000
     9  H    4.271700   4.275026   3.388326   0.000000
    10  H    3.771118   3.284561   2.680458   1.762975   0.000000
    11  H    3.274018   3.329886   2.151770   2.290763   2.902151
    12  H    3.395698   4.427986   4.220697   2.942965   3.862891
    13  H    2.618864   3.900724   4.330422   3.982176   4.187100
    14  H    4.196215   4.691890   4.582557   2.406518   2.791240
    15  H    3.018376   3.328115   3.684005   3.039789   2.393163
    16  H    1.097171   2.170785   3.291455   4.619933   4.006285
    17  H    2.203310   1.097801   2.184435   5.300174   4.280065
    18  H    3.353665   2.175475   1.092555   3.424359   2.379081
    19  O    3.202100   2.469590   1.431979   4.373980   3.977880
    20  H    2.998979   2.741856   1.968822   4.567844   4.444677
    21  O    2.473929   1.434279   2.391977   4.317787   2.888218
    22  H    2.597606   1.956809   3.232080   5.023148   3.651335
    23  C    1.531744   2.556910   3.384796   5.546345   5.221183
    24  H    2.170529   2.876868   4.017318   6.410658   5.858401
    25  H    2.173118   2.738734   3.181877   5.673115   5.425851
    26  O    2.437843   3.808961   4.476551   5.953212   5.963326
    27  H    2.475198   3.888561   4.257233   5.291083   5.551710
                   11         12         13         14         15
    11  H    0.000000
    12  H    2.995480   0.000000
    13  H    3.961007   1.765590   0.000000
    14  H    3.960375   2.445044   2.730534   0.000000
    15  H    3.937878   3.059177   2.461381   1.772124   0.000000
    16  H    4.097513   3.528638   2.250988   3.958323   2.594031
    17  H    4.108018   5.380185   4.773068   5.781552   4.365834
    18  H    2.724729   4.926992   5.092250   4.823007   3.937493
    19  O    2.521449   5.007169   5.268401   5.816355   5.044350
    20  H    2.442922   4.654620   4.946742   5.860407   5.187748
    21  O    4.116444   4.885625   4.199894   4.404581   2.806728
    22  H    4.868061   5.184990   4.176167   4.682530   2.942573
    23  C    4.091096   4.222597   3.446839   5.536274   4.482208
    24  H    5.065625   5.160147   4.126943   6.239868   4.974855
    25  H    3.859240   4.643288   4.235099   6.095784   5.146260
    26  O    4.599311   3.928674   3.129308   5.638551   4.891809
    27  H    3.951117   3.122569   2.687938   5.083070   4.608881
                   16         17         18         19         20
    16  H    0.000000
    17  H    2.819314   0.000000
    18  H    4.045348   2.716250   0.000000
    19  O    4.233066   2.553844   2.016749   0.000000
    20  H    4.092392   2.827819   2.821764   0.971396   0.000000
    21  O    2.513353   2.082709   2.447262   3.603853   4.058982
    22  H    2.276850   2.379930   3.405055   4.358957   4.698246
    23  C    2.139122   2.599666   4.402390   3.557775   3.041855
    24  H    2.427357   2.604373   4.925032   4.193341   3.804735
    25  H    3.056617   2.580830   4.213325   2.910299   2.258377
    26  O    2.714505   4.009024   5.534394   4.651410   3.967631
    27  H    2.873399   4.287540   5.322778   4.461189   3.734181
                   21         22         23         24         25
    21  O    0.000000
    22  H    0.971927   0.000000
    23  C    3.725365   3.710054   0.000000
    24  H    3.856360   3.619336   1.095011   0.000000
    25  H    4.111475   4.292693   1.101023   1.775474   0.000000
    26  O    4.855194   4.763575   1.427683   2.037206   2.085713
    27  H    4.941561   4.994584   1.916427   2.809804   2.356956
                   26         27
    26  O    0.000000
    27  H    0.975599   0.000000
 Stoichiometry    C8H15NO3
 Framework group  C1[X(C8H15NO3)]
 Deg. of freedom    75
 Full point group                 C1      NOp   1
 Largest Abelian subgroup         C1      NOp   1
 Largest concise Abelian subgroup C1      NOp   1
                         Standard orientation:                         
 ---------------------------------------------------------------------
 Center     Atomic      Atomic             Coordinates (Angstroms)
 Number     Number       Type             X           Y           Z
 ---------------------------------------------------------------------
      1          6           0        2.316261   -0.347033   -0.401367
      2          6           0        0.969335    0.212302   -0.963277
      3          7           0       -0.102696   -0.760073   -0.574368
      4          6           0        0.598620   -2.020333   -0.251230
      5          6           0        1.927294   -1.607030    0.395868
      6          6           0       -0.870818   -0.179244    0.568202
      7          6           0       -0.272555    1.209852    0.865946
      8          6           0        0.515842    1.570032   -0.407612
      9          1           0        2.978321   -0.605553   -1.234520
     10          1           0        2.840390    0.389200    0.214453
     11          1           0        1.033508    0.285178   -2.054211
     12          1           0        0.787636   -2.570042   -1.182336
     13          1           0       -0.031924   -2.652911    0.379318
     14          1           0        2.686184   -2.394559    0.348338
     15          1           0        1.765266   -1.355821    1.449863
     16          1           0       -0.772612   -0.819019    1.454107
     17          1           0       -1.049026    1.959719    1.065850
     18          1           0        1.361820    2.215206   -0.159125
     19          8           0       -0.270133    2.321609   -1.339245
     20          1           0       -0.917044    1.723955   -1.749031
     21          8           0        0.669193    1.179703    1.947315
     22          1           0        0.212944    0.799283    2.716574
     23          6           0       -2.356458   -0.114127    0.200951
     24          1           0       -2.951192    0.180819    1.071782
     25          1           0       -2.519931    0.634472   -0.589699
     26          8           0       -2.833983   -1.393326   -0.216060
     27          1           0       -2.191206   -1.679820   -0.891747
 ---------------------------------------------------------------------
 Rotational constants (GHZ):      1.0845870      0.9230235      0.7112951
 Standard basis: 6-31+G(d,p) (6D, 7F)
 There are   303 symmetry adapted basis functions of A   symmetry.
 Integral buffers will be    131072 words long.
 Raffenetti 2 integral format.
 Two-electron integral symmetry is turned on.
   303 basis functions,   489 primitive gaussians,   303 cartesian basis functions
    47 alpha electrons       47 beta electrons
       nuclear repulsion energy       815.0861510659 Hartrees.
 NAtoms=   27 NActive=   27 NUniq=   27 SFac= 1.00D+00 NAtFMM=   60 NAOKFM=F Big=F
 ------------------------------------------------------------------------------
 Polarizable Continuum Model (PCM)
 =================================
 Model                : PCM.
 Atomic radii         : UFF (Universal Force Field).
 Polarization charges : Total charges.
 Charge compensation  : None.
 Solution method      : Matrix inversion.
 Cavity type          : Scaled VdW (van der Waals Surface) (Alpha=1.100).
 Cavity algorithm     : GePol (No added spheres)
                        Default sphere list used, NSphG=   27.
                        Lebedev-Laikov grids with approx.  5.0 points / Ang**2.
                        Smoothing algorithm: Karplus/York (Gamma=1.0000).
                        Polarization charges: spherical gaussians, with
                                              point-specific exponents (IZeta= 3).
                        Self-potential: point-specific (ISelfS= 7).
                        Self-field    : sphere-specific E.n sum rule (ISelfD= 2).
 Solvent              : Water, Eps=  78.355300 Eps(inf)=   1.777849
 ------------------------------------------------------------------------------
 One-electron integrals computed using PRISM.
 NBasis=   303 RedAO= T  NBF=   303
 NBsUse=   303 1.00D-06 NBFU=   303
 Harris functional with IExCor=  908 diagonalized for initial guess.
 ExpMin= 4.38D-02 ExpMax= 5.48D+03 ExpMxC= 8.25D+02 IAcc=2 IRadAn=         4 AccDes= 0.00D+00
 HarFok:  IExCor=  908 AccDes= 0.00D+00 IRadAn=         4 IDoV= 1
 ScaDFX=  1.000000  1.000000  1.000000  1.000000
 FoFCou: FMM=F IPFlag=           0 FMFlag=      100000 FMFlg1=           0
         NFxFlg=           0 DoJE=T BraDBF=F KetDBF=T FulRan=T
         Omega=  0.000000  0.000000  1.000000  0.000000  0.000000 ICntrl=     500 IOpCl=  0
         NMat0=    1 NMatS0=    1 NMatT0=    0 NMatD0=    1 NMtDS0=    0 NMtDT0=    0
         I1Cent=           4 NGrid=           0.
 Petite list used in FoFCou.
 Initial guess orbital symmetries:
       Occupied  (A) (A) (A) (A) (A) (A) (A) (A) (A) (A) (A) (A)
                 (A) (A) (A) (A) (A) (A) (A) (A) (A) (A) (A) (A)
                 (A) (A) (A) (A) (A) (A) (A) (A) (A) (A) (A) (A)
                 (A) (A) (A) (A) (A) (A) (A) (A) (A) (A) (A)
       Virtual   (A) (A) (A) (A) (A) (A) (A) (A) (A) (A) (A) (A)
                 (A) (A) (A) (A) (A) (A) (A) (A) (A) (A) (A) (A)
                 (A) (A) (A) (A) (A) (A) (A) (A) (A) (A) (A) (A)
                 (A) (A) (A) (A) (A) (A) (A) (A) (A) (A) (A) (A)
                 (A) (A) (A) (A) (A) (A) (A) (A) (A) (A) (A) (A)
                 (A) (A) (A) (A) (A) (A) (A) (A) (A) (A) (A) (A)
                 (A) (A) (A) (A) (A) (A) (A) (A) (A) (A) (A) (A)
                 (A) (A) (A) (A) (A) (A) (A) (A) (A) (A) (A) (A)
                 (A) (A) (A) (A) (A) (A) (A) (A) (A) (A) (A) (A)
                 (A) (A) (A) (A) (A) (A) (A) (A) (A) (A) (A) (A)
                 (A) (A) (A) (A) (A) (A) (A) (A) (A) (A) (A) (A)
                 (A) (A) (A) (A) (A) (A) (A) (A) (A) (A) (A) (A)
                 (A) (A) (A) (A) (A) (A) (A) (A) (A) (A) (A) (A)
                 (A) (A) (A) (A) (A) (A) (A) (A) (A) (A) (A) (A)
                 (A) (A) (A) (A) (A) (A) (A) (A) (A) (A) (A) (A)
                 (A) (A) (A) (A) (A) (A) (A) (A) (A) (A) (A) (A)
                 (A) (A) (A) (A) (A) (A) (A) (A) (A) (A) (A) (A)
                 (A) (A) (A) (A) (A) (A) (A) (A) (A) (A) (A) (A)
                 (A) (A) (A) (A) (A) (A) (A) (A) (A) (A) (A) (A)
                 (A) (A) (A) (A) (A) (A) (A) (A) (A) (A) (A) (A)
                 (A) (A) (A) (A) (A) (A) (A) (A) (A) (A) (A) (A)
                 (A) (A) (A) (A)
 The electronic state of the initial guess is 1-A.
 Requested convergence on RMS density matrix=1.00D-08 within 128 cycles.
 Requested convergence on MAX density matrix=1.00D-06.
 Requested convergence on             energy=1.00D-06.
 No special actions if energy rises.
 Error on total polarization charges =  0.01429
 SCF Done:  E(RmPW1PW91) =  -594.195106925     A.U. after   13 cycles
             Convg  =    0.4140D-08             -V/T =  2.0094
 Range of M.O.s used for correlation:     1   303
 NBasis=   303 NAE=    47 NBE=    47 NFC=     0 NFV=     0
 NROrb=    303 NOA=    47 NOB=    47 NVA=   256 NVB=   256

 **** Warning!!: The largest alpha MO coefficient is  0.68792169D+02

 NEqPCM:  Using equilibrium solvation (IEInf=0, Eps=  78.3553, EpsInf=   1.7778)
          Differentiating once with respect to magnetic field using GIAOs.
          Electric field/nuclear overlap derivatives assumed to be zero.
 FoFCou: FMM=F IPFlag=           0 FMFlag=    10101102 FMFlg1=           0
         NFxFlg=    40000000 DoJE=F BraDBF=F KetDBF=T FulRan=T
         Omega=  0.000000  0.000000  1.000000  0.000000  0.000000 ICntrl=    6100 IOpCl=  0
         NMat0=    1 NMatS0=    1 NMatT0=    0 NMatD0=    1 NMtDS0=    0 NMtDT0=    0
         I1Cent=           7 NGrid=        1783.
 Symmetry not used in FoFCou.
          There are     3 degrees of freedom in the 1st order CPHF.  IDoFFX=0.
      3 vectors produced by pass  0 Test12= 4.01D-13 3.33D-08 XBig12= 3.16D+01 9.09D-01.
 AX will form     3 AO Fock derivatives at one time.
      3 vectors produced by pass  1 Test12= 4.01D-13 3.33D-08 XBig12= 7.22D-02 4.54D-02.
      3 vectors produced by pass  2 Test12= 4.01D-13 3.33D-08 XBig12= 1.54D-04 3.29D-03.
      3 vectors produced by pass  3 Test12= 4.01D-13 3.33D-08 XBig12= 8.04D-07 1.70D-04.
      3 vectors produced by pass  4 Test12= 4.01D-13 3.33D-08 XBig12= 2.25D-09 6.88D-06.
      3 vectors produced by pass  5 Test12= 4.01D-13 3.33D-08 XBig12= 7.63D-12 5.31D-07.
 Inverted reduced A of dimension    18 with in-core refinement.
 Calculating GIAO nuclear magnetic shielding tensors.
 SCF GIAO Magnetic shielding tensor (ppm):
      1  C    Isotropic =   163.5845   Anisotropy =    31.5481
   XX=   177.5943   YX=    -1.6723   ZX=    10.5228
   XY=    -0.3341   YY=   169.3668   ZY=   -15.3644
   XZ=    11.2700   YZ=   -19.5374   ZZ=   143.7925
   Eigenvalues:   132.9879   173.1491   184.6166
      2  C    Isotropic =   120.9039   Anisotropy =    47.4091
   XX=   122.9602   YX=    20.7951   ZX=   -10.4075
   XY=     7.5050   YY=   143.0784   ZY=    -7.3564
   XZ=     0.8951   YZ=   -12.2754   ZZ=    96.6730
   Eigenvalues:    94.5402   115.6615   152.5099
      3  N    Isotropic =   186.9757   Anisotropy =    67.7658
   XX=   187.3882   YX=    14.1903   ZX=   -34.0344
   XY=     3.9392   YY=   206.2172   ZY=   -14.8422
   XZ=   -56.0442   YZ=   -10.2912   ZZ=   167.3216
   Eigenvalues:   130.9769   197.7973   232.1529
      4  C    Isotropic =   137.5273   Anisotropy =    59.8631
   XX=   141.0808   YX=   -22.3189   ZX=     3.3574
   XY=   -12.5709   YY=   164.4885   ZY=   -15.0676
   XZ=    21.0230   YZ=    -8.0813   ZZ=   107.0125
   Eigenvalues:   102.4829   132.6629   177.4360
      5  C    Isotropic =   169.7497   Anisotropy =    21.1137
   XX=   176.8835   YX=     1.4528   ZX=     9.6213
   XY=     4.4263   YY=   179.8069   ZY=    -6.8357
   XZ=    12.6748   YZ=   -14.7826   ZZ=   152.5588
   Eigenvalues:   144.6856   180.7380   183.8255
      6  C    Isotropic =   116.0391   Anisotropy =    29.5077
   XX=   103.8962   YX=     5.9395   ZX=   -13.3458
   XY=     2.8351   YY=   125.4638   ZY=    15.8783
   XZ=   -17.5732   YZ=     7.4680   ZZ=   118.7572
   Eigenvalues:    91.1664   121.2399   135.7109
      7  C    Isotropic =   113.0009   Anisotropy =    22.9623
   XX=   108.0723   YX=     3.9903   ZX=     9.1734
   XY=    -4.0222   YY=   104.8461   ZY=   -10.3082
   XZ=     3.5837   YZ=     5.8338   ZZ=   126.0843
   Eigenvalues:   104.3878   106.3058   128.3091
      8  C    Isotropic =   109.4562   Anisotropy =    20.4669
   XX=   106.2319   YX=   -18.6185   ZX=     6.7388
   XY=    -3.1381   YY=   107.8952   ZY=     0.4738
   XZ=    -0.0583   YZ=   -12.5541   ZZ=   114.2415
   Eigenvalues:    95.9846   109.2832   123.1008
      9  H    Isotropic =    29.6227   Anisotropy =    11.5223
   XX=    33.1563   YX=    -1.8453   ZX=    -5.5224
   XY=    -2.4409   YY=    25.9218   ZY=    -0.3464
   XZ=    -5.3275   YZ=    -1.1092   ZZ=    29.7899
   Eigenvalues:    23.9370    27.6269    37.3042
     10  H    Isotropic =    29.7910   Anisotropy =     8.3426
   XX=    32.3788   YX=     2.8420   ZX=     2.0357
   XY=     2.6335   YY=    30.3746   ZY=     2.1325
   XZ=     2.3672   YZ=     2.1712   ZZ=    26.6196
   Eigenvalues:    25.4870    28.5332    35.3527
     11  H    Isotropic =    28.0620   Anisotropy =     8.0832
   XX=    27.2089   YX=    -0.7214   ZX=    -2.2082
   XY=    -0.1213   YY=    24.7927   ZY=    -2.2991
   XZ=    -1.4857   YZ=    -2.9350   ZZ=    32.1845
   Eigenvalues:    23.6753    27.0599    33.4509
     12  H    Isotropic =    28.6209   Anisotropy =    11.5004
   XX=    26.1726   YX=    -2.6561   ZX=    -0.1191
   XY=    -1.8571   YY=    32.1431   ZY=     6.1219
   XZ=     1.5744   YZ=     5.4522   ZZ=    27.5470
   Eigenvalues:    22.5961    26.9788    36.2879
     13  H    Isotropic =    28.6251   Anisotropy =     8.7613
   XX=    28.9790   YX=     1.3848   ZX=    -0.0315
   XY=     2.1484   YY=    33.1051   ZY=    -3.2034
   XZ=    -0.7496   YZ=    -2.3531   ZZ=    23.7911
   Eigenvalues:    23.0238    28.3855    34.4659
     14  H    Isotropic =    30.0703   Anisotropy =    12.6362
   XX=    32.0954   YX=    -5.5959   ZX=     0.8489
   XY=    -6.0585   YY=    32.7465   ZY=    -1.5798
   XZ=     1.0430   YZ=    -1.4871   ZZ=    25.3692
   Eigenvalues:    25.0463    26.6702    38.4945
     15  H    Isotropic =    29.6938   Anisotropy =     8.3750
   XX=    26.8784   YX=    -0.8371   ZX=     0.7050
   XY=    -0.6907   YY=    27.0804   ZY=     0.1394
   XZ=     1.2662   YZ=    -1.0837   ZZ=    35.1226
   Eigenvalues:    26.1865    27.6178    35.2771
     16  H    Isotropic =    28.9972   Anisotropy =     6.0763
   XX=    29.2697   YX=     0.2692   ZX=    -2.4754
   XY=    -0.1305   YY=    26.2305   ZY=    -0.0237
   XZ=    -2.2798   YZ=    -1.1745   ZZ=    31.4912
   Eigenvalues:    26.1446    27.7989    33.0480
     17  H    Isotropic =    27.7781   Anisotropy =     4.9303
   XX=    27.8638   YX=    -3.0602   ZX=     0.9066
   XY=    -1.8914   YY=    28.4243   ZY=     2.8726
   XZ=     1.1190   YZ=     1.9707   ZZ=    27.0460
   Eigenvalues:    23.8113    28.4579    31.0649
     18  H    Isotropic =    27.5553   Anisotropy =     5.0858
   XX=    27.6212   YX=     1.9507   ZX=     1.7361
   XY=     1.5758   YY=    29.9865   ZY=    -1.5057
   XZ=     1.9576   YZ=    -1.1385   ZZ=    25.0582
   Eigenvalues:    23.4680    28.2520    30.9458
     19  O    Isotropic =   270.4370   Anisotropy =    30.8945
   XX=   260.5068   YX=   -30.7054   ZX=    15.1817
   XY=    -9.2613   YY=   276.6710   ZY=    10.7879
   XZ=    12.3995   YZ=    -0.1263   ZZ=   274.1332
   Eigenvalues:   240.7651   279.5126   291.0334
     20  H    Isotropic =    30.1924   Anisotropy =    13.0083
   XX=    31.2648   YX=     3.5216   ZX=     7.6999
   XY=     4.2317   YY=    30.2365   ZY=    -0.7342
   XZ=     7.7996   YZ=    -0.0890   ZZ=    29.0761
   Eigenvalues:    21.3785    30.3342    38.8646
     21  O    Isotropic =   278.3754   Anisotropy =    83.3375
   XX=   253.7904   YX=    41.9015   ZX=    -9.6965
   XY=    38.5209   YY=   272.1022   ZY=   -44.2872
   XZ=     8.5327   YZ=   -19.2766   ZZ=   309.2336
   Eigenvalues:   217.2747   283.9177   333.9338
     22  H    Isotropic =    30.4778   Anisotropy =    17.8546
   XX=    26.7857   YX=     2.2515   ZX=    -2.7731
   XY=     3.8509   YY=    24.3114   ZY=    -4.5685
   XZ=    -3.8943   YZ=    -3.7756   ZZ=    40.3363
   Eigenvalues:    22.0791    26.9735    42.3809
     23  C    Isotropic =   129.3751   Anisotropy =    47.0689
   XX=   127.1136   YX=     9.0539   ZX=     6.0492
   XY=    16.7735   YY=   150.3722   ZY=     7.7071
   XZ=    10.7874   YZ=    18.1066   ZZ=   110.6396
   Eigenvalues:   105.6712   121.6998   160.7544
     24  H    Isotropic =    28.0332   Anisotropy =     6.7051
   XX=    30.0636   YX=     0.2432   ZX=    -2.4054
   XY=    -0.9591   YY=    27.2053   ZY=     3.1894
   XZ=    -3.4211   YZ=     2.7402   ZZ=    26.8307
   Eigenvalues:    23.4431    28.1532    32.5032
     25  H    Isotropic =    28.4783   Anisotropy =     6.3058
   XX=    29.2873   YX=     1.4054   ZX=     2.2715
   XY=     0.0465   YY=    32.0849   ZY=    -3.2961
   XZ=     2.4369   YZ=    -1.2258   ZZ=    24.0626
   Eigenvalues:    22.5676    30.1851    32.6822
     26  O    Isotropic =   311.7334   Anisotropy =    30.5294
   XX=   322.0127   YX=    -9.3192   ZX=   -15.0282
   XY=     3.0332   YY=   315.9628   ZY=    10.5569
   XZ=   -20.0188   YZ=    -5.2056   ZZ=   297.2247
   Eigenvalues:   288.1235   314.9904   332.0863
     27  H    Isotropic =    29.0740   Anisotropy =    14.8037
   XX=    33.1654   YX=     0.9273   ZX=    -6.4084
   XY=    -1.2152   YY=    25.1594   ZY=     6.6001
   XZ=    -5.8463   YZ=     7.0786   ZZ=    28.8973
   Eigenvalues:    18.9108    29.3682    38.9431
 End of Minotr Frequency-dependent properties file   721 does not exist.
 End of Minotr Frequency-dependent properties file   722 does not exist.

 **********************************************************************

            Population analysis using the SCF density.

 **********************************************************************

 Orbital symmetries:
       Occupied  (A) (A) (A) (A) (A) (A) (A) (A) (A) (A) (A) (A)
                 (A) (A) (A) (A) (A) (A) (A) (A) (A) (A) (A) (A)
                 (A) (A) (A) (A) (A) (A) (A) (A) (A) (A) (A) (A)
                 (A) (A) (A) (A) (A) (A) (A) (A) (A) (A) (A)
       Virtual   (A) (A) (A) (A) (A) (A) (A) (A) (A) (A) (A) (A)
                 (A) (A) (A) (A) (A) (A) (A) (A) (A) (A) (A) (A)
                 (A) (A) (A) (A) (A) (A) (A) (A) (A) (A) (A) (A)
                 (A) (A) (A) (A) (A) (A) (A) (A) (A) (A) (A) (A)
                 (A) (A) (A) (A) (A) (A) (A) (A) (A) (A) (A) (A)
                 (A) (A) (A) (A) (A) (A) (A) (A) (A) (A) (A) (A)
                 (A) (A) (A) (A) (A) (A) (A) (A) (A) (A) (A) (A)
                 (A) (A) (A) (A) (A) (A) (A) (A) (A) (A) (A) (A)
                 (A) (A) (A) (A) (A) (A) (A) (A) (A) (A) (A) (A)
                 (A) (A) (A) (A) (A) (A) (A) (A) (A) (A) (A) (A)
                 (A) (A) (A) (A) (A) (A) (A) (A) (A) (A) (A) (A)
                 (A) (A) (A) (A) (A) (A) (A) (A) (A) (A) (A) (A)
                 (A) (A) (A) (A) (A) (A) (A) (A) (A) (A) (A) (A)
                 (A) (A) (A) (A) (A) (A) (A) (A) (A) (A) (A) (A)
                 (A) (A) (A) (A) (A) (A) (A) (A) (A) (A) (A) (A)
                 (A) (A) (A) (A) (A) (A) (A) (A) (A) (A) (A) (A)
                 (A) (A) (A) (A) (A) (A) (A) (A) (A) (A) (A) (A)
                 (A) (A) (A) (A) (A) (A) (A) (A) (A) (A) (A) (A)
                 (A) (A) (A) (A) (A) (A) (A) (A) (A) (A) (A) (A)
                 (A) (A) (A) (A) (A) (A) (A) (A) (A) (A) (A) (A)
                 (A) (A) (A) (A) (A) (A) (A) (A) (A) (A) (A) (A)
                 (A) (A) (A) (A)
 The electronic state is 1-A.
 Alpha  occ. eigenvalues --  -19.26155 -19.26050 -19.25297 -14.42089 -10.30836
 Alpha  occ. eigenvalues --  -10.30768 -10.29686 -10.28422 -10.28064 -10.27066
 Alpha  occ. eigenvalues --  -10.24547 -10.24212  -1.07264  -1.05857  -1.05645
 Alpha  occ. eigenvalues --   -0.96553  -0.82274  -0.79360  -0.75749  -0.71737
 Alpha  occ. eigenvalues --   -0.66723  -0.62248  -0.60677  -0.59063  -0.55381
 Alpha  occ. eigenvalues --   -0.53924  -0.52070  -0.49629  -0.48328  -0.46946
 Alpha  occ. eigenvalues --   -0.45577  -0.44767  -0.43543  -0.43408  -0.41609
 Alpha  occ. eigenvalues --   -0.39770  -0.38883  -0.37113  -0.36909  -0.35835
 Alpha  occ. eigenvalues --   -0.35102  -0.33841  -0.33463  -0.30683  -0.29785
 Alpha  occ. eigenvalues --   -0.29547  -0.24287
 Alpha virt. eigenvalues --    0.00694   0.01298   0.02009   0.02588   0.03654
 Alpha virt. eigenvalues --    0.03824   0.04385   0.04602   0.04949   0.07226
 Alpha virt. eigenvalues --    0.07547   0.07590   0.08123   0.09131   0.09712
 Alpha virt. eigenvalues --    0.10107   0.11195   0.11673   0.12359   0.12553
 Alpha virt. eigenvalues --    0.12870   0.13182   0.13842   0.14325   0.15617
 Alpha virt. eigenvalues --    0.16547   0.16563   0.16714   0.17390   0.18259
 Alpha virt. eigenvalues --    0.18567   0.19129   0.19639   0.20128   0.20214
 Alpha virt. eigenvalues --    0.20786   0.21361   0.21739   0.22519   0.23288
 Alpha virt. eigenvalues --    0.23741   0.23974   0.24875   0.25560   0.25844
 Alpha virt. eigenvalues --    0.26763   0.26980   0.27097   0.28226   0.28726
 Alpha virt. eigenvalues --    0.29887   0.30464   0.31094   0.31385   0.31695
 Alpha virt. eigenvalues --    0.32214   0.33157   0.33644   0.34115   0.35174
 Alpha virt. eigenvalues --    0.35392   0.37028   0.37478   0.37864   0.38632
 Alpha virt. eigenvalues --    0.39085   0.39876   0.40247   0.41361   0.41939
 Alpha virt. eigenvalues --    0.43138   0.43453   0.44876   0.45850   0.46767
 Alpha virt. eigenvalues --    0.48275   0.64562   0.66024   0.67788   0.68303
 Alpha virt. eigenvalues --    0.70417   0.71087   0.72313   0.73586   0.74789
 Alpha virt. eigenvalues --    0.76217   0.77186   0.78922   0.79393   0.81508
 Alpha virt. eigenvalues --    0.82881   0.84800   0.86715   0.87534   0.88212
 Alpha virt. eigenvalues --    0.89612   0.92669   0.93901   0.93960   0.95731
 Alpha virt. eigenvalues --    0.98999   0.99463   1.02247   1.02728   1.03153
 Alpha virt. eigenvalues --    1.05584   1.06515   1.07002   1.07880   1.09507
 Alpha virt. eigenvalues --    1.10341   1.11990   1.13932   1.14558   1.15738
 Alpha virt. eigenvalues --    1.16086   1.19611   1.21234   1.22353   1.24724
 Alpha virt. eigenvalues --    1.26853   1.27957   1.29807   1.32060   1.33814
 Alpha virt. eigenvalues --    1.34945   1.37205   1.38273   1.40210   1.41660
 Alpha virt. eigenvalues --    1.42448   1.44440   1.47658   1.50145   1.50996
 Alpha virt. eigenvalues --    1.52921   1.53966   1.59105   1.59594   1.61039
 Alpha virt. eigenvalues --    1.62677   1.64937   1.67369   1.70036   1.71323
 Alpha virt. eigenvalues --    1.73842   1.75582   1.76751   1.78442   1.78930
 Alpha virt. eigenvalues --    1.80017   1.80532   1.82919   1.84272   1.85716
 Alpha virt. eigenvalues --    1.88585   1.89111   1.91261   1.92864   1.93648
 Alpha virt. eigenvalues --    1.95732   1.97954   1.99585   2.01610   2.03454
 Alpha virt. eigenvalues --    2.04696   2.05469   2.07503   2.08173   2.11535
 Alpha virt. eigenvalues --    2.14934   2.15677   2.18095   2.19563   2.20735
 Alpha virt. eigenvalues --    2.23130   2.24158   2.26836   2.28451   2.29413
 Alpha virt. eigenvalues --    2.31976   2.35066   2.36440   2.37007   2.38506
 Alpha virt. eigenvalues --    2.40199   2.44278   2.45810   2.46296   2.47246
 Alpha virt. eigenvalues --    2.49188   2.51012   2.51805   2.53697   2.56611
 Alpha virt. eigenvalues --    2.57875   2.58287   2.60032   2.61680   2.63306
 Alpha virt. eigenvalues --    2.65273   2.66324   2.66473   2.68049   2.69458
 Alpha virt. eigenvalues --    2.69614   2.70951   2.74427   2.75741   2.77584
 Alpha virt. eigenvalues --    2.78571   2.80829   2.82314   2.83776   2.85039
 Alpha virt. eigenvalues --    2.87437   2.89484   2.89715   2.90581   2.93814
 Alpha virt. eigenvalues --    2.95520   2.98750   3.01762   3.03544   3.05081
 Alpha virt. eigenvalues --    3.07751   3.09773   3.10897   3.17619   3.32781
 Alpha virt. eigenvalues --    3.34039   3.36977   3.39040   3.41835   3.43059
 Alpha virt. eigenvalues --    3.45580   3.49884   3.52617   3.54198   3.55320
 Alpha virt. eigenvalues --    3.58572   3.59955   3.60442   3.63032   4.30905
 Alpha virt. eigenvalues --    4.33789   4.37725   4.43055   4.54788   4.58699
 Alpha virt. eigenvalues --    4.59426   4.69701   4.75899   4.88034   4.90995
 Alpha virt. eigenvalues --    5.00981
          Condensed to atoms (all electrons):
              1          2          3          4          5          6
     1  C    6.324900  -0.673085   0.234910   0.189035  -0.210452  -0.055098
     2  C   -0.673085   8.237708  -0.193896  -0.369346   0.363155  -1.526466
     3  N    0.234910  -0.193896   7.560457   0.160348  -0.296356  -0.193814
     4  C    0.189035  -0.369346   0.160348   5.822900  -0.024082  -0.077636
     5  C   -0.210452   0.363155  -0.296356  -0.024082   5.711320   0.049981
     6  C   -0.055098  -1.526466  -0.193814  -0.077636   0.049981   9.867114
     7  C   -0.070888   1.470032   0.002888  -0.133115   0.049081  -2.610400
     8  C   -0.357332  -1.232963  -0.222853  -0.104635   0.175568   1.767821
     9  H    0.400506  -0.076291   0.012054  -0.001395  -0.034340   0.020382
    10  H    0.465697  -0.135318   0.019671   0.030831  -0.054593   0.003232
    11  H    0.019365   0.311825  -0.025095  -0.013798   0.002496   0.005293
    12  H    0.021171  -0.027462  -0.035143   0.405012  -0.064061   0.010531
    13  H    0.020601   0.012702  -0.050690   0.395580  -0.033275   0.011071
    14  H   -0.015971   0.006813   0.016072  -0.031415   0.354973   0.000146
    15  H   -0.054836  -0.010150   0.006940  -0.068470   0.432596   0.026924
    16  H   -0.008975   0.045174  -0.061195   0.047416  -0.011038   0.281949
    17  H    0.008093   0.004492   0.019726  -0.002388  -0.003976  -0.131061
    18  H    0.041225  -0.149274   0.017860   0.002722  -0.002948   0.056855
    19  O    0.039591  -0.097472   0.021101   0.015252  -0.014122   0.073050
    20  H    0.014999  -0.070089   0.017029   0.005094  -0.000888   0.034608
    21  O    0.034079  -0.057451   0.030761   0.006557  -0.041625   0.063162
    22  H   -0.004342  -0.002412  -0.007193   0.003176  -0.000733  -0.056642
    23  C    0.151984  -0.091542   0.173392   0.044596  -0.132946  -1.026920
    24  H    0.000905   0.010275   0.007711  -0.002910   0.000359  -0.139787
    25  H   -0.002957  -0.003397   0.023045   0.004333   0.001113  -0.118739
    26  O    0.004201  -0.002672   0.014015  -0.012963  -0.001431  -0.079483
    27  H   -0.004565   0.031322   0.045386  -0.006305   0.007602  -0.085976
              7          8          9         10         11         12
     1  C   -0.070888  -0.357332   0.400506   0.465697   0.019365   0.021171
     2  C    1.470032  -1.232963  -0.076291  -0.135318   0.311825  -0.027462
     3  N    0.002888  -0.222853   0.012054   0.019671  -0.025095  -0.035143
     4  C   -0.133115  -0.104635  -0.001395   0.030831  -0.013798   0.405012
     5  C    0.049081   0.175568  -0.034340  -0.054593   0.002496  -0.064061
     6  C   -2.610400   1.767821   0.020382   0.003232   0.005293   0.010531
     7  C    8.267014  -1.740058  -0.016575  -0.004878   0.013051   0.005724
     8  C   -1.740058   7.776850   0.029540   0.009473  -0.049389  -0.005520
     9  H   -0.016575   0.029540   0.524946  -0.025986  -0.007800   0.001176
    10  H   -0.004878   0.009473  -0.025986   0.514914   0.003597  -0.000035
    11  H    0.013051  -0.049389  -0.007800   0.003597   0.546407   0.001469
    12  H    0.005724  -0.005520   0.001176  -0.000035   0.001469   0.534598
    13  H   -0.005981  -0.001020  -0.000120  -0.000126  -0.000130  -0.025389
    14  H    0.002988   0.003926  -0.005838   0.001691   0.000007  -0.003233
    15  H   -0.005339   0.004520   0.003868  -0.006748  -0.000129   0.003916
    16  H    0.040792  -0.025421   0.000001  -0.000034  -0.000279  -0.000021
    17  H    0.362940  -0.044642   0.000004  -0.000047  -0.000105   0.000004
    18  H   -0.079672   0.450803   0.000203   0.001145   0.001441   0.000004
    19  O   -0.196857   0.337785  -0.000725   0.001204   0.005171   0.000095
    20  H   -0.044138   0.046188   0.000004  -0.000008  -0.001285   0.000004
    21  O    0.191405  -0.101174   0.000544  -0.000490   0.000448   0.000122
    22  H    0.057014   0.014215  -0.000003   0.000088   0.000010   0.000001
    23  C    0.147322  -0.380172   0.001208  -0.000351   0.011649   0.006326
    24  H    0.014334  -0.008261   0.000000   0.000000   0.000001  -0.000001
    25  H    0.071630  -0.004902   0.000000   0.000000  -0.000073   0.000017
    26  O    0.014111  -0.005053   0.000003   0.000018   0.000381   0.000451
    27  H    0.012954  -0.015413  -0.000001  -0.000001  -0.000143  -0.000357
             13         14         15         16         17         18
     1  C    0.020601  -0.015971  -0.054836  -0.008975   0.008093   0.041225
     2  C    0.012702   0.006813  -0.010150   0.045174   0.004492  -0.149274
     3  N   -0.050690   0.016072   0.006940  -0.061195   0.019726   0.017860
     4  C    0.395580  -0.031415  -0.068470   0.047416  -0.002388   0.002722
     5  C   -0.033275   0.354973   0.432596  -0.011038  -0.003976  -0.002948
     6  C    0.011071   0.000146   0.026924   0.281949  -0.131061   0.056855
     7  C   -0.005981   0.002988  -0.005339   0.040792   0.362940  -0.079672
     8  C   -0.001020   0.003926   0.004520  -0.025421  -0.044642   0.450803
     9  H   -0.000120  -0.005838   0.003868   0.000001   0.000004   0.000203
    10  H   -0.000126   0.001691  -0.006748  -0.000034  -0.000047   0.001145
    11  H   -0.000130   0.000007  -0.000129  -0.000279  -0.000105   0.001441
    12  H   -0.025389  -0.003233   0.003916  -0.000021   0.000004   0.000004
    13  H    0.521789   0.001196  -0.005405   0.001163  -0.000006   0.000006
    14  H    0.001196   0.522403  -0.024861  -0.000153   0.000000  -0.000009
    15  H   -0.005405  -0.024861   0.512216   0.000723   0.000021   0.000023
    16  H    0.001163  -0.000153   0.000723   0.546048   0.000609  -0.000172
    17  H   -0.000006   0.000000   0.000021   0.000609   0.559182  -0.001404
    18  H    0.000006  -0.000009   0.000023  -0.000172  -0.001404   0.525155
    19  O   -0.000020   0.000011  -0.000035   0.000004  -0.001646  -0.054778
    20  H    0.000004   0.000000   0.000002  -0.000011  -0.000520   0.006204
    21  O    0.000359   0.000219  -0.002212  -0.014966  -0.041298  -0.000454
    22  H    0.000007  -0.000001   0.000099   0.005175  -0.003805   0.000074
    23  C   -0.016490  -0.000166   0.006376  -0.022003   0.100814   0.001306
    24  H   -0.000034   0.000000  -0.000002  -0.004356   0.001050   0.000002
    25  H   -0.000022   0.000000   0.000001   0.004785  -0.000785  -0.000033
    26  O    0.001628   0.000035  -0.000109   0.002589   0.000581   0.000020
    27  H   -0.000109  -0.000006   0.000003   0.000304  -0.000011   0.000001
             19         20         21         22         23         24
     1  C    0.039591   0.014999   0.034079  -0.004342   0.151984   0.000905
     2  C   -0.097472  -0.070089  -0.057451  -0.002412  -0.091542   0.010275
     3  N    0.021101   0.017029   0.030761  -0.007193   0.173392   0.007711
     4  C    0.015252   0.005094   0.006557   0.003176   0.044596  -0.002910
     5  C   -0.014122  -0.000888  -0.041625  -0.000733  -0.132946   0.000359
     6  C    0.073050   0.034608   0.063162  -0.056642  -1.026920  -0.139787
     7  C   -0.196857  -0.044138   0.191405   0.057014   0.147322   0.014334
     8  C    0.337785   0.046188  -0.101174   0.014215  -0.380172  -0.008261
     9  H   -0.000725   0.000004   0.000544  -0.000003   0.001208   0.000000
    10  H    0.001204  -0.000008  -0.000490   0.000088  -0.000351   0.000000
    11  H    0.005171  -0.001285   0.000448   0.000010   0.011649   0.000001
    12  H    0.000095   0.000004   0.000122   0.000001   0.006326  -0.000001
    13  H   -0.000020   0.000004   0.000359   0.000007  -0.016490  -0.000034
    14  H    0.000011   0.000000   0.000219  -0.000001  -0.000166   0.000000
    15  H   -0.000035   0.000002  -0.002212   0.000099   0.006376  -0.000002
    16  H    0.000004  -0.000011  -0.014966   0.005175  -0.022003  -0.004356
    17  H   -0.001646  -0.000520  -0.041298  -0.003805   0.100814   0.001050
    18  H   -0.054778   0.006204  -0.000454   0.000074   0.001306   0.000002
    19  O    8.144515   0.256824   0.006525  -0.000350  -0.025493  -0.000040
    20  H    0.256824   0.364463  -0.000568   0.000006  -0.005755  -0.000001
    21  O    0.006525  -0.000568   8.218836   0.236963   0.008527  -0.000212
    22  H   -0.000350   0.000006   0.236963   0.374403   0.004045   0.000069
    23  C   -0.025493  -0.005755   0.008527   0.004045   6.166750   0.505206
    24  H   -0.000040  -0.000001  -0.000212   0.000069   0.505206   0.534114
    25  H    0.002586   0.001805   0.000051   0.000022   0.373403  -0.038176
    26  O   -0.000145  -0.000405   0.000963   0.000129   0.195936  -0.058745
    27  H   -0.000105   0.000071  -0.000126  -0.000001   0.027184   0.006652
             25         26         27
     1  C   -0.002957   0.004201  -0.004565
     2  C   -0.003397  -0.002672   0.031322
     3  N    0.023045   0.014015   0.045386
     4  C    0.004333  -0.012963  -0.006305
     5  C    0.001113  -0.001431   0.007602
     6  C   -0.118739  -0.079483  -0.085976
     7  C    0.071630   0.014111   0.012954
     8  C   -0.004902  -0.005053  -0.015413
     9  H    0.000000   0.000003  -0.000001
    10  H    0.000000   0.000018  -0.000001
    11  H   -0.000073   0.000381  -0.000143
    12  H    0.000017   0.000451  -0.000357
    13  H   -0.000022   0.001628  -0.000109
    14  H    0.000000   0.000035  -0.000006
    15  H    0.000001  -0.000109   0.000003
    16  H    0.004785   0.002589   0.000304
    17  H   -0.000785   0.000581  -0.000011
    18  H   -0.000033   0.000020   0.000001
    19  O    0.002586  -0.000145  -0.000105
    20  H    0.001805  -0.000405   0.000071
    21  O    0.000051   0.000963  -0.000126
    22  H    0.000022   0.000129  -0.000001
    23  C    0.373403   0.195936   0.027184
    24  H   -0.038176  -0.058745   0.006652
    25  H    0.602234  -0.049167  -0.004717
    26  O   -0.049167   8.269143   0.238049
    27  H   -0.004717   0.238049   0.365701
 Mulliken atomic charges:
              1
     1  C   -0.512763
     2  C    0.225791
     3  N   -0.297130
     4  C   -0.284394
     5  C   -0.221378
     6  C   -0.170096
     7  C    0.184621
     8  C   -0.317878
     9  H    0.174633
    10  H    0.177051
    11  H    0.175616
    12  H    0.170600
    13  H    0.172710
    14  H    0.171174
    15  H    0.180066
    16  H    0.171889
    17  H    0.174178
    18  H    0.183696
    19  O   -0.511926
    20  H    0.376364
    21  O   -0.538944
    22  H    0.379985
    23  C   -0.224183
    24  H    0.171848
    25  H    0.137943
    26  O   -0.532080
    27  H    0.382607
 Sum of Mulliken atomic charges =   0.00000
 Mulliken charges with hydrogens summed into heavy atoms:
              1
     1  C   -0.161078
     2  C    0.401407
     3  N   -0.297130
     4  C    0.058916
     5  C    0.129861
     6  C    0.001793
     7  C    0.358799
     8  C   -0.134182
    19  O   -0.135561
    21  O   -0.158958
    23  C    0.085608
    26  O   -0.149473
 Sum of Mulliken charges with hydrogens summed into heavy atoms =   0.00000
 Electronic spatial extent (au):  <R**2>=           1918.1561
 Charge=              0.0000 electrons
 Dipole moment (field-independent basis, Debye):
    X=              1.3962    Y=             -1.6687    Z=              1.1966  Tot=              2.4831
 Quadrupole moment (field-independent basis, Debye-Ang):
   XX=            -80.7783   YY=            -81.9091   ZZ=            -67.8919
   XY=             -8.9354   XZ=             -3.6866   YZ=              2.5263
 Traceless Quadrupole moment (field-independent basis, Debye-Ang):
   XX=             -3.9185   YY=             -5.0494   ZZ=              8.9678
   XY=             -8.9354   XZ=             -3.6866   YZ=              2.5263
 Octapole moment (field-independent basis, Debye-Ang**2):
  XXX=             30.1837  YYY=            -26.0082  ZZZ=             16.9081  XYY=              8.1963
  XXY=             24.7597  XXZ=             -3.8791  XZZ=            -14.3206  YZZ=             -6.1401
  YYZ=              5.6360  XYZ=             -3.7345
 Hexadecapole moment (field-independent basis, Debye-Ang**3):
 XXXX=          -1255.1284 YYYY=           -952.2448 ZZZZ=           -381.7132 XXXY=            -73.9112
 XXXZ=            -13.1395 YYYX=              2.1574 YYYZ=             41.9875 ZZZX=              1.0038
 ZZZY=              6.6578 XXYY=           -356.6024 XXZZ=           -254.0847 YYZZ=           -246.8609
 XXYZ=             -0.2606 YYXZ=              1.4532 ZZXY=            -10.9977
 N-N= 8.150861510659D+02 E-N=-3.015556918866D+03  KE= 5.886580547467D+02
 1\1\GINC-COMPUTE-3-0\SP\RmPW1PW91\6-31+G(d,p)\C8H15N1O3\MAMICHETTI.IQU
 IR\17-May-2024\0\\# mpw1pw91/6-31+G** nmr scrf=(pcm,solvent=water)\\co
 mment\\0,1\C,0,2.316261,-0.347034,-0.401367\C,0,0.969335,0.212302,-0.9
 63277\N,0,-0.102696,-0.760073,-0.574368\C,0,0.598619,-2.020333,-0.2512
 3\C,0,1.927293,-1.607031,0.395868\C,0,-0.870818,-0.179244,0.568202\C,0
 ,-0.272555,1.209852,0.865946\C,0,0.515842,1.570032,-0.407612\H,0,2.978
 321,-0.605554,-1.23452\H,0,2.84039,0.389199,0.214453\H,0,1.033508,0.28
 5178,-2.054211\H,0,0.787635,-2.570042,-1.182336\H,0,-0.031925,-2.65291
 1,0.379318\H,0,2.686183,-2.39456,0.348338\H,0,1.765265,-1.355822,1.449
 863\H,0,-0.772612,-0.819019,1.454107\H,0,-1.049025,1.959719,1.06585\H,
 0,1.361821,2.215206,-0.159125\O,0,-0.270132,2.321609,-1.339245\H,0,-0.
 917044,1.723955,-1.749031\O,0,0.669193,1.179703,1.947315\H,0,0.212944,
 0.799283,2.716574\C,0,-2.356458,-0.114126,0.200951\H,0,-2.951192,0.180
 82,1.071782\H,0,-2.519931,0.634473,-0.589699\O,0,-2.833984,-1.393325,-
 0.21606\H,0,-2.191207,-1.679819,-0.891747\\Version=AM64L-G09RevC.01\St
 ate=1-A\HF=-594.1951069\RMSD=4.140e-09\Dipole=0.5493259,-0.6565242,0.4
 707863\Quadrupole=-2.913307,-3.7540659,6.6673729,-6.64325,-2.7409107,1
 .878246\PG=C01 [X(C8H15N1O3)]\\@


 ROSE IS A RED
 TY COBB IS BLUE
 'CAUSE PETE JUST HIT
 NO. 4592.
 Job cpu time:  0 days  0 hours  8 minutes 50.7 seconds.
 File lengths (MBytes):  RWF=    110 Int=      0 D2E=      0 Chk=      7 Scr=      1
 Normal termination of Gaussian 09 at Fri May 17 12:30:31 2024.
