 Entering Gaussian System, Link 0=g09
 Input=/home/mamichetti.iquir/Linux/02_Cardona_A1A3_R__R_R_R_020_OptB.gjc
 Output=/home/mamichetti.iquir/Linux/02_Cardona_A1A3_R__R_R_R_020_OptB.log
 Initial command:
 /opt/ohpc/pub/apps/software/Gaussian/09/AMD64.SSE4a-enabled/g09/l1.exe /local/mamichetti.iquir/Gau-711721.inp -scrdir=/local/mamichetti.iquir/
 Entering Link 1 = /opt/ohpc/pub/apps/software/Gaussian/09/AMD64.SSE4a-enabled/g09/l1.exe PID=    711722.
  
 Copyright (c) 1988,1990,1992,1993,1995,1998,2003,2009,2011,
            Gaussian, Inc.  All Rights Reserved.
  
 This is part of the Gaussian(R) 09 program.  It is based on
 the Gaussian(R) 03 system (copyright 2003, Gaussian, Inc.),
 the Gaussian(R) 98 system (copyright 1998, Gaussian, Inc.),
 the Gaussian(R) 94 system (copyright 1995, Gaussian, Inc.),
 the Gaussian 92(TM) system (copyright 1992, Gaussian, Inc.),
 the Gaussian 90(TM) system (copyright 1990, Gaussian, Inc.),
 the Gaussian 88(TM) system (copyright 1988, Gaussian, Inc.),
 the Gaussian 86(TM) system (copyright 1986, Carnegie Mellon
 University), and the Gaussian 82(TM) system (copyright 1983,
 Carnegie Mellon University). Gaussian is a federally registered
 trademark of Gaussian, Inc.
  
 This software contains proprietary and confidential information,
 including trade secrets, belonging to Gaussian, Inc.
  
 This software is provided under written license and may be
 used, copied, transmitted, or stored only in accord with that
 written license.
  
 The following legend is applicable only to US Government
 contracts under FAR:
  
                    RESTRICTED RIGHTS LEGEND
  
 Use, reproduction and disclosure by the US Government is
 subject to restrictions as set forth in subparagraphs (a)
 and (c) of the Commercial Computer Software - Restricted
 Rights clause in FAR 52.227-19.
  
 Gaussian, Inc.
 340 Quinnipiac St., Bldg. 40, Wallingford CT 06492
  
  
 ---------------------------------------------------------------
 Warning -- This program may not be used in any manner that
 competes with the business of Gaussian, Inc. or will provide
 assistance to any competitor of Gaussian, Inc.  The licensee
 of this program is prohibited from giving any competitor of
 Gaussian, Inc. access to this program.  By using this program,
 the user acknowledges that Gaussian, Inc. is engaged in the
 business of creating and licensing software in the field of
 computational chemistry and represents and warrants to the
 licensee that it is not a competitor of Gaussian, Inc. and that
 it will not use this program in any manner prohibited above.
 ---------------------------------------------------------------
  

 Cite this work as:
 Gaussian 09, Revision C.01,
 M. J. Frisch, G. W. Trucks, H. B. Schlegel, G. E. Scuseria, 
 M. A. Robb, J. R. Cheeseman, G. Scalmani, V. Barone, B. Mennucci, 
 G. A. Petersson, H. Nakatsuji, M. Caricato, X. Li, H. P. Hratchian, 
 A. F. Izmaylov, J. Bloino, G. Zheng, J. L. Sonnenberg, M. Hada, 
 M. Ehara, K. Toyota, R. Fukuda, J. Hasegawa, M. Ishida, T. Nakajima, 
 Y. Honda, O. Kitao, H. Nakai, T. Vreven, J. A. Montgomery, Jr., 
 J. E. Peralta, F. Ogliaro, M. Bearpark, J. J. Heyd, E. Brothers, 
 K. N. Kudin, V. N. Staroverov, T. Keith, R. Kobayashi, J. Normand, 
 K. Raghavachari, A. Rendell, J. C. Burant, S. S. Iyengar, J. Tomasi, 
 M. Cossi, N. Rega, J. M. Millam, M. Klene, J. E. Knox, J. B. Cross, 
 V. Bakken, C. Adamo, J. Jaramillo, R. Gomperts, R. E. Stratmann, 
 O. Yazyev, A. J. Austin, R. Cammi, C. Pomelli, J. W. Ochterski, 
 R. L. Martin, K. Morokuma, V. G. Zakrzewski, G. A. Voth, 
 P. Salvador, J. J. Dannenberg, S. Dapprich, A. D. Daniels, 
 O. Farkas, J. B. Foresman, J. V. Ortiz, J. Cioslowski, 
 and D. J. Fox, Gaussian, Inc., Wallingford CT, 2010.
 
 ******************************************
 Gaussian 09:  AM64L-G09RevC.01 23-Sep-2011
                17-May-2024 
 ******************************************
 %nprocshared=4
 Will use up to    4 processors via shared memory.
 ------------------------------------------------
 # mpw1pw91/6-31+G** nmr scrf=(pcm,solvent=water)
 ------------------------------------------------
 1/38=1/1;
 2/12=2,17=6,18=5,40=1/2;
 3/5=1,6=6,7=111,11=2,16=1,25=1,30=1,70=2201,72=1,74=-7/1,2,8,3;
 4//1;
 5/5=2,38=5,53=1/2;
 8/6=1,10=90,11=11/1;
 10/13=100,45=16/2;
 6/7=2,8=2,9=2,10=2,28=1/1;
 99/9=1/99;
 -------
 comment
 -------
 Charge =  0 Multiplicity = 1
 Symbolic Z-Matrix:
 6                     2.26694  -1.11063   0.20581 
 6                     1.27271  -0.15882  -0.47905 
 7                    -0.07409  -0.81804  -0.37548 
 6                     0.08661  -2.08276   0.36886 
 6                     1.55077  -2.4695    0.14511 
 6                    -1.03891   0.14448   0.19009 
 6                    -0.40246   1.50921  -0.09388 
 6                     1.08851   1.23394   0.12605 
 1                     3.24651  -1.11538  -0.28156 
 1                     2.41204  -0.81388   1.25184 
 1                     1.53674  -0.03506  -1.53877 
 1                    -0.60845  -2.84997   0.00925 
 1                    -0.11032  -1.94052   1.44517 
 1                     1.6756   -2.92586  -0.84437 
 1                     1.91186  -3.18234   0.89288 
 1                    -1.11862   0.02526   1.28537 
 1                    -0.55706   1.78916  -1.14684 
 1                     1.26958   1.20749   1.21074 
 8                     1.96306   2.17522  -0.49492 
 1                     1.83303   3.0251   -0.04076 
 8                    -0.95411   2.50574   0.76376 
 1                    -0.6179    3.36347   0.45437 
 6                    -2.44202   0.01695  -0.39532 
 1                    -3.0792    0.79915   0.03071 
 1                    -2.40547   0.16149  -1.48427 
 8                    -3.07671  -1.22628  -0.07376 
 1                    -2.62054  -1.91657  -0.58203 
 
                          Input orientation:                          
 ---------------------------------------------------------------------
 Center     Atomic      Atomic             Coordinates (Angstroms)
 Number     Number       Type             X           Y           Z
 ---------------------------------------------------------------------
      1          6           0        2.266936   -1.110629    0.205807
      2          6           0        1.272707   -0.158815   -0.479051
      3          7           0       -0.074091   -0.818041   -0.375479
      4          6           0        0.086612   -2.082764    0.368861
      5          6           0        1.550774   -2.469499    0.145108
      6          6           0       -1.038911    0.144484    0.190086
      7          6           0       -0.402462    1.509208   -0.093884
      8          6           0        1.088512    1.233944    0.126053
      9          1           0        3.246506   -1.115377   -0.281556
     10          1           0        2.412041   -0.813877    1.251842
     11          1           0        1.536737   -0.035063   -1.538774
     12          1           0       -0.608450   -2.849971    0.009251
     13          1           0       -0.110324   -1.940517    1.445169
     14          1           0        1.675595   -2.925855   -0.844372
     15          1           0        1.911861   -3.182343    0.892876
     16          1           0       -1.118618    0.025259    1.285369
     17          1           0       -0.557063    1.789156   -1.146844
     18          1           0        1.269575    1.207485    1.210744
     19          8           0        1.963062    2.175224   -0.494920
     20          1           0        1.833029    3.025104   -0.040755
     21          8           0       -0.954113    2.505737    0.763763
     22          1           0       -0.617901    3.363470    0.454365
     23          6           0       -2.442015    0.016951   -0.395321
     24          1           0       -3.079201    0.799148    0.030710
     25          1           0       -2.405470    0.161488   -1.484269
     26          8           0       -3.076706   -1.226279   -0.073758
     27          1           0       -2.620543   -1.916568   -0.582033
 ---------------------------------------------------------------------
                    Distance matrix (angstroms):
                    1          2          3          4          5
     1  C    0.000000
     2  C    1.537359   0.000000
     3  N    2.429796   1.503054   0.000000
     4  C    2.392790   2.413992   1.476276   0.000000
     5  C    1.537238   2.409597   2.374555   1.530817   0.000000
     6  C    3.536125   2.425554   1.475532   2.501879   3.679864
     7  C    3.752206   2.395171   2.367110   3.654530   4.438734
     8  C    2.625275   1.529659   2.411187   3.473228   3.732230
     9  H    1.094122   2.202248   3.335205   3.368057   2.211605
    10  H    1.096953   2.173288   2.971371   2.792373   2.169729
    11  H    2.175683   1.099108   2.135668   3.151986   2.960090
    12  H    3.366272   3.319565   2.135953   1.095918   2.196694
    13  H    2.806439   2.964770   2.139164   1.103384   2.174679
    14  H    2.178900   2.819980   2.779234   2.169701   1.096773
    15  H    2.211366   3.381187   3.338061   2.194356   1.094389
    16  H    3.730640   2.977498   2.135558   2.595444   3.827488
    17  H    4.267715   2.754741   2.761475   4.207546   4.924252
    18  H    2.716299   2.173061   2.902464   3.596374   3.838602
    19  O    3.373453   2.434046   3.622692   4.732615   4.706705
    20  H    4.165736   3.262423   4.303360   5.413693   5.504986
    21  O    4.874892   3.688245   3.622128   4.721588   5.604477
    22  H    5.329318   4.105138   4.297605   5.492278   6.230756
    23  C    4.879243   3.719820   2.510910   3.374423   4.734645
    24  H    5.679708   4.485159   3.436710   4.294431   5.668669
    25  H    5.128939   3.826492   2.761199   3.831609   5.022831
    26  O    5.352200   4.496792   3.045224   3.306971   4.796569
    27  H    5.015743   4.272903   2.780979   2.874110   4.270170
                    6          7          8          9         10
     6  C    0.000000
     7  C    1.532377   0.000000
     8  C    2.391015   1.532040   0.000000
     9  H    4.491603   4.498737   3.215959   0.000000
    10  H    3.735619   3.889618   2.685647   1.771593   0.000000
    11  H    3.107275   2.869316   2.140779   2.381383   3.026590
    12  H    3.030637   4.365262   4.423990   4.237224   3.848776
    13  H    2.604753   3.788751   3.640670   3.864032   2.769299
    14  H    4.226775   4.954931   4.311649   2.462185   3.065439
    15  H    4.502083   5.323574   4.557358   2.726338   2.447175
    16  H    1.104632   2.148796   2.770624   4.776046   3.629163
    17  H    2.173593   1.100453   2.153240   4.863350   4.620071
    18  H    2.738763   2.142148   1.100017   3.395718   2.322245
    19  O    3.688493   2.490002   1.427044   3.538475   3.491058
    20  H    4.074224   2.701515   1.946891   4.381722   4.091923
    21  O    2.431422   1.425815   2.489267   5.643612   4.752794
    22  H    3.257140   1.945579   2.748548   5.961149   5.221757
    23  C    1.525669   2.545088   3.770613   5.801240   5.192810
    24  H    2.148667   2.772118   4.191416   6.616456   5.852072
    25  H    2.161305   2.785958   3.993896   5.917916   5.625482
    26  O    2.470063   3.825556   4.841659   6.327597   5.661593
    27  H    2.710288   4.110245   4.917743   5.929119   5.468631
                   11         12         13         14         15
    11  H    0.000000
    12  H    3.862890   0.000000
    13  H    3.904802   1.771185   0.000000
    14  H    2.976265   2.439527   3.066333   0.000000
    15  H    3.994873   2.691325   2.436471   1.771902   0.000000
    16  H    3.876897   3.186800   2.215055   4.588300   4.430188
    17  H    2.804529   4.781286   4.563833   5.225665   5.913700
    18  H    3.029051   4.629634   3.445140   4.633881   4.447939
    19  O    2.481280   5.667402   5.000220   5.121109   5.534629
    20  H    3.420011   6.362376   5.535520   6.007037   6.277761
    21  O    4.238122   5.419629   4.576622   6.245291   6.370615
    22  H    4.490556   6.229371   5.419558   6.819271   7.031334
    23  C    4.140128   3.427081   3.557509   5.080991   5.554383
    24  H    4.946319   4.406942   4.280267   6.103237   6.442538
    25  H    3.947480   3.811662   4.274076   5.157155   5.955785
    26  O    4.984890   2.955597   3.408328   5.105563   5.444848
    27  H    4.662445   2.295512   3.226658   4.420892   4.931554
                   16         17         18         19         20
    16  H    0.000000
    17  H    3.056524   0.000000
    18  H    2.665838   3.038613   0.000000
    19  O    4.157948   2.631555   2.080080   0.000000
    20  H    4.412470   2.909216   2.277602   0.972353   0.000000
    21  O    2.540060   2.078835   2.613434   3.194281   2.947058
    22  H    3.476340   2.246338   2.963604   2.995737   2.523231
    23  C    2.139198   2.694168   4.215770   4.906400   5.239342
    24  H    2.452949   2.954307   4.524497   5.253027   5.393514
    25  H    3.057031   2.485914   4.675806   4.911010   5.314970
    26  O    2.692152   4.073446   5.144250   6.094823   6.494678
    27  H    3.084422   4.278943   5.301582   6.144899   6.674384
                   21         22         23         24         25
    21  O    0.000000
    22  H    0.971839   0.000000
    23  C    3.122721   3.904939   0.000000
    24  H    2.822377   3.579557   1.095144   0.000000
    25  H    3.557469   4.148059   1.099106   1.776425   0.000000
    26  O    4.374333   5.233587   1.432430   2.028121   2.089497
    27  H    4.913750   5.741385   1.950700   2.821513   2.275654
                   26         27
    26  O    0.000000
    27  H    0.971044   0.000000
 Stoichiometry    C8H15NO3
 Framework group  C1[X(C8H15NO3)]
 Deg. of freedom    75
 Full point group                 C1      NOp   1
 Largest Abelian subgroup         C1      NOp   1
 Largest concise Abelian subgroup C1      NOp   1
                         Standard orientation:                         
 ---------------------------------------------------------------------
 Center     Atomic      Atomic             Coordinates (Angstroms)
 Number     Number       Type             X           Y           Z
 ---------------------------------------------------------------------
      1          6           0        2.266936   -1.110630    0.205807
      2          6           0        1.272707   -0.158815   -0.479051
      3          7           0       -0.074091   -0.818041   -0.375479
      4          6           0        0.086611   -2.082764    0.368861
      5          6           0        1.550773   -2.469499    0.145108
      6          6           0       -1.038911    0.144484    0.190086
      7          6           0       -0.402462    1.509208   -0.093884
      8          6           0        1.088512    1.233944    0.126053
      9          1           0        3.246506   -1.115378   -0.281556
     10          1           0        2.412041   -0.813878    1.251842
     11          1           0        1.536737   -0.035063   -1.538774
     12          1           0       -0.608451   -2.849971    0.009251
     13          1           0       -0.110325   -1.940517    1.445169
     14          1           0        1.675594   -2.925855   -0.844372
     15          1           0        1.911860   -3.182343    0.892876
     16          1           0       -1.118618    0.025259    1.285369
     17          1           0       -0.557062    1.789156   -1.146844
     18          1           0        1.269575    1.207485    1.210744
     19          8           0        1.963063    2.175224   -0.494920
     20          1           0        1.833030    3.025104   -0.040755
     21          8           0       -0.954112    2.505737    0.763763
     22          1           0       -0.617900    3.363470    0.454365
     23          6           0       -2.442015    0.016952   -0.395321
     24          1           0       -3.079201    0.799149    0.030710
     25          1           0       -2.405470    0.161489   -1.484269
     26          8           0       -3.076706   -1.226278   -0.073758
     27          1           0       -2.620544   -1.916567   -0.582033
 ---------------------------------------------------------------------
 Rotational constants (GHZ):      1.0229520      0.9476446      0.5311189
 Standard basis: 6-31+G(d,p) (6D, 7F)
 There are   303 symmetry adapted basis functions of A   symmetry.
 Integral buffers will be    131072 words long.
 Raffenetti 2 integral format.
 Two-electron integral symmetry is turned on.
   303 basis functions,   489 primitive gaussians,   303 cartesian basis functions
    47 alpha electrons       47 beta electrons
       nuclear repulsion energy       794.9085386763 Hartrees.
 NAtoms=   27 NActive=   27 NUniq=   27 SFac= 1.00D+00 NAtFMM=   60 NAOKFM=F Big=F
 ------------------------------------------------------------------------------
 Polarizable Continuum Model (PCM)
 =================================
 Model                : PCM.
 Atomic radii         : UFF (Universal Force Field).
 Polarization charges : Total charges.
 Charge compensation  : None.
 Solution method      : Matrix inversion.
 Cavity type          : Scaled VdW (van der Waals Surface) (Alpha=1.100).
 Cavity algorithm     : GePol (No added spheres)
                        Default sphere list used, NSphG=   27.
                        Lebedev-Laikov grids with approx.  5.0 points / Ang**2.
                        Smoothing algorithm: Karplus/York (Gamma=1.0000).
                        Polarization charges: spherical gaussians, with
                                              point-specific exponents (IZeta= 3).
                        Self-potential: point-specific (ISelfS= 7).
                        Self-field    : sphere-specific E.n sum rule (ISelfD= 2).
 Solvent              : Water, Eps=  78.355300 Eps(inf)=   1.777849
 ------------------------------------------------------------------------------
 One-electron integrals computed using PRISM.
 NBasis=   303 RedAO= T  NBF=   303
 NBsUse=   303 1.00D-06 NBFU=   303
 Harris functional with IExCor=  908 diagonalized for initial guess.
 ExpMin= 4.38D-02 ExpMax= 5.48D+03 ExpMxC= 8.25D+02 IAcc=2 IRadAn=         4 AccDes= 0.00D+00
 HarFok:  IExCor=  908 AccDes= 0.00D+00 IRadAn=         4 IDoV= 1
 ScaDFX=  1.000000  1.000000  1.000000  1.000000
 FoFCou: FMM=F IPFlag=           0 FMFlag=      100000 FMFlg1=           0
         NFxFlg=           0 DoJE=T BraDBF=F KetDBF=T FulRan=T
         Omega=  0.000000  0.000000  1.000000  0.000000  0.000000 ICntrl=     500 IOpCl=  0
         NMat0=    1 NMatS0=    1 NMatT0=    0 NMatD0=    1 NMtDS0=    0 NMtDT0=    0
         I1Cent=           4 NGrid=           0.
 Petite list used in FoFCou.
 Initial guess orbital symmetries:
       Occupied  (A) (A) (A) (A) (A) (A) (A) (A) (A) (A) (A) (A)
                 (A) (A) (A) (A) (A) (A) (A) (A) (A) (A) (A) (A)
                 (A) (A) (A) (A) (A) (A) (A) (A) (A) (A) (A) (A)
                 (A) (A) (A) (A) (A) (A) (A) (A) (A) (A) (A)
       Virtual   (A) (A) (A) (A) (A) (A) (A) (A) (A) (A) (A) (A)
                 (A) (A) (A) (A) (A) (A) (A) (A) (A) (A) (A) (A)
                 (A) (A) (A) (A) (A) (A) (A) (A) (A) (A) (A) (A)
                 (A) (A) (A) (A) (A) (A) (A) (A) (A) (A) (A) (A)
                 (A) (A) (A) (A) (A) (A) (A) (A) (A) (A) (A) (A)
                 (A) (A) (A) (A) (A) (A) (A) (A) (A) (A) (A) (A)
                 (A) (A) (A) (A) (A) (A) (A) (A) (A) (A) (A) (A)
                 (A) (A) (A) (A) (A) (A) (A) (A) (A) (A) (A) (A)
                 (A) (A) (A) (A) (A) (A) (A) (A) (A) (A) (A) (A)
                 (A) (A) (A) (A) (A) (A) (A) (A) (A) (A) (A) (A)
                 (A) (A) (A) (A) (A) (A) (A) (A) (A) (A) (A) (A)
                 (A) (A) (A) (A) (A) (A) (A) (A) (A) (A) (A) (A)
                 (A) (A) (A) (A) (A) (A) (A) (A) (A) (A) (A) (A)
                 (A) (A) (A) (A) (A) (A) (A) (A) (A) (A) (A) (A)
                 (A) (A) (A) (A) (A) (A) (A) (A) (A) (A) (A) (A)
                 (A) (A) (A) (A) (A) (A) (A) (A) (A) (A) (A) (A)
                 (A) (A) (A) (A) (A) (A) (A) (A) (A) (A) (A) (A)
                 (A) (A) (A) (A) (A) (A) (A) (A) (A) (A) (A) (A)
                 (A) (A) (A) (A) (A) (A) (A) (A) (A) (A) (A) (A)
                 (A) (A) (A) (A) (A) (A) (A) (A) (A) (A) (A) (A)
                 (A) (A) (A) (A) (A) (A) (A) (A) (A) (A) (A) (A)
                 (A) (A) (A) (A)
 The electronic state of the initial guess is 1-A.
 Requested convergence on RMS density matrix=1.00D-08 within 128 cycles.
 Requested convergence on MAX density matrix=1.00D-06.
 Requested convergence on             energy=1.00D-06.
 No special actions if energy rises.
 Error on total polarization charges =  0.01471
 SCF Done:  E(RmPW1PW91) =  -594.197791210     A.U. after   13 cycles
             Convg  =    0.8308D-08             -V/T =  2.0094
 Range of M.O.s used for correlation:     1   303
 NBasis=   303 NAE=    47 NBE=    47 NFC=     0 NFV=     0
 NROrb=    303 NOA=    47 NOB=    47 NVA=   256 NVB=   256

 **** Warning!!: The largest alpha MO coefficient is  0.73072975D+02

 NEqPCM:  Using equilibrium solvation (IEInf=0, Eps=  78.3553, EpsInf=   1.7778)
          Differentiating once with respect to magnetic field using GIAOs.
          Electric field/nuclear overlap derivatives assumed to be zero.
 FoFCou: FMM=F IPFlag=           0 FMFlag=    10101102 FMFlg1=           0
         NFxFlg=    40000000 DoJE=F BraDBF=F KetDBF=T FulRan=T
         Omega=  0.000000  0.000000  1.000000  0.000000  0.000000 ICntrl=    6100 IOpCl=  0
         NMat0=    1 NMatS0=    1 NMatT0=    0 NMatD0=    1 NMtDS0=    0 NMtDT0=    0
         I1Cent=           7 NGrid=        1858.
 Symmetry not used in FoFCou.
          There are     3 degrees of freedom in the 1st order CPHF.  IDoFFX=0.
      3 vectors produced by pass  0 Test12= 4.01D-13 3.33D-08 XBig12= 4.28D+01 1.22D+00.
 AX will form     3 AO Fock derivatives at one time.
      3 vectors produced by pass  1 Test12= 4.01D-13 3.33D-08 XBig12= 1.12D-01 7.19D-02.
      3 vectors produced by pass  2 Test12= 4.01D-13 3.33D-08 XBig12= 2.94D-04 3.44D-03.
      3 vectors produced by pass  3 Test12= 4.01D-13 3.33D-08 XBig12= 1.11D-06 2.98D-04.
      3 vectors produced by pass  4 Test12= 4.01D-13 3.33D-08 XBig12= 3.65D-09 1.99D-05.
      3 vectors produced by pass  5 Test12= 4.01D-13 3.33D-08 XBig12= 1.14D-11 7.08D-07.
 Inverted reduced A of dimension    18 with in-core refinement.
 Calculating GIAO nuclear magnetic shielding tensors.
 SCF GIAO Magnetic shielding tensor (ppm):
      1  C    Isotropic =   162.6113   Anisotropy =    25.6495
   XX=   160.8511   YX=    -9.7131   ZX=     8.6994
   XY=    -0.1232   YY=   174.7570   ZY=    -6.8717
   XZ=    13.5561   YZ=    -4.8524   ZZ=   152.2260
   Eigenvalues:   144.4534   163.6696   179.7110
      2  C    Isotropic =   128.2005   Anisotropy =    56.2534
   XX=   149.4975   YX=    16.1725   ZX=    -0.6465
   XY=    22.9635   YY=   141.7053   ZY=    -4.0382
   XZ=    -3.4024   YZ=    -1.3860   ZZ=    93.3987
   Eigenvalues:    93.2291   125.6696   165.7028
      3  N    Isotropic =   196.5214   Anisotropy =    91.5105
   XX=   246.7829   YX=   -17.4489   ZX=   -10.1910
   XY=   -25.7052   YY=   212.5124   ZY=    -9.7994
   XZ=   -12.8188   YZ=    -8.5403   ZZ=   130.2688
   Eigenvalues:   127.5952   204.4406   257.5284
      4  C    Isotropic =   136.4149   Anisotropy =    57.0356
   XX=   127.6940   YX=   -10.6318   ZX=     2.5576
   XY=   -20.1825   YY=   157.8461   ZY=   -22.5975
   XZ=    -3.8354   YZ=   -26.1586   ZZ=   123.7045
   Eigenvalues:   107.5961   127.2099   174.4386
      5  C    Isotropic =   163.9788   Anisotropy =    24.1538
   XX=   179.8999   YX=    -0.3764   ZX=     0.9828
   XY=    -0.8845   YY=   177.8779   ZY=   -11.7065
   XZ=    -4.6680   YZ=     0.0885   ZZ=   134.1587
   Eigenvalues:   133.3218   178.5334   180.0814
      6  C    Isotropic =   124.0922   Anisotropy =    39.3614
   XX=   120.0842   YX=   -10.9947   ZX=    -4.1095
   XY=   -18.8017   YY=   138.3385   ZY=    13.3947
   XZ=   -15.0726   YZ=     2.1149   ZZ=   113.8538
   Eigenvalues:   106.5481   115.3953   150.3331
      7  C    Isotropic =   113.2221   Anisotropy =    37.1708
   XX=   127.3973   YX=    -7.7455   ZX=    -9.1527
   XY=    -9.6151   YY=   122.7264   ZY=    24.0259
   XZ=    -3.5821   YZ=     3.7478   ZZ=    89.5425
   Eigenvalues:    84.2735   117.3900   138.0026
      8  C    Isotropic =   110.8139   Anisotropy =    16.2727
   XX=   120.4147   YX=     1.8855   ZX=    -8.1077
   XY=    -0.3980   YY=   114.8224   ZY=    -8.9370
   XZ=    -0.7997   YZ=    -0.5527   ZZ=    97.2047
   Eigenvalues:    95.3218   115.4576   121.6624
      9  H    Isotropic =    29.5137   Anisotropy =     9.7655
   XX=    35.3089   YX=    -0.7677   ZX=    -2.5627
   XY=    -0.1469   YY=    27.5373   ZY=    -0.3149
   XZ=    -2.8014   YZ=    -0.1321   ZZ=    25.6951
   Eigenvalues:    24.9547    27.5624    36.0241
     10  H    Isotropic =    30.0198   Anisotropy =     8.2836
   XX=    28.3326   YX=     0.2480   ZX=     4.5936
   XY=    -0.1202   YY=    29.3297   ZY=     1.3272
   XZ=     4.3851   YZ=     1.5402   ZZ=    32.3972
   Eigenvalues:    25.3019    29.2154    35.5422
     11  H    Isotropic =    28.1519   Anisotropy =     6.8964
   XX=    28.4668   YX=     1.0335   ZX=    -3.3598
   XY=     0.7916   YY=    26.1074   ZY=    -1.7440
   XZ=    -2.4218   YZ=    -1.8867   ZZ=    29.8814
   Eigenvalues:    25.3368    26.3693    32.7494
     12  H    Isotropic =    28.4026   Anisotropy =     8.3838
   XX=    29.5034   YX=     2.2409   ZX=     1.2621
   XY=     2.8610   YY=    32.5144   ZY=     0.2017
   XZ=     1.4254   YZ=    -0.6577   ZZ=    23.1900
   Eigenvalues:    22.8547    28.3612    33.9918
     13  H    Isotropic =    28.9216   Anisotropy =     7.5679
   XX=    27.5096   YX=    -0.3599   ZX=    -1.2769
   XY=    -0.4617   YY=    27.9019   ZY=    -4.4461
   XZ=    -2.4037   YZ=    -2.8918   ZZ=    31.3533
   Eigenvalues:    24.8502    27.9478    33.9669
     14  H    Isotropic =    29.4891   Anisotropy =    10.5745
   XX=    27.6598   YX=    -1.3581   ZX=    -1.7996
   XY=    -1.4779   YY=    31.3721   ZY=     5.2454
   XZ=    -1.8402   YZ=     5.7058   ZZ=    29.4353
   Eigenvalues:    24.7481    27.1803    36.5388
     15  H    Isotropic =    29.4599   Anisotropy =    11.5241
   XX=    27.9377   YX=    -2.9083   ZX=     2.1570
   XY=    -3.3876   YY=    33.1941   ZY=    -4.8088
   XZ=     2.1183   YZ=    -4.1197   ZZ=    27.2479
   Eigenvalues:    24.7712    26.4659    37.1426
     16  H    Isotropic =    28.7514   Anisotropy =     4.6613
   XX=    29.7189   YX=    -0.7346   ZX=    -1.8524
   XY=    -0.5862   YY=    27.4075   ZY=     2.6454
   XZ=    -1.7830   YZ=     0.7239   ZZ=    29.1280
   Eigenvalues:    26.3158    28.0795    31.8590
     17  H    Isotropic =    27.7991   Anisotropy =     1.7853
   XX=    26.3499   YX=    -1.3843   ZX=    -0.0515
   XY=    -0.2347   YY=    28.5099   ZY=     1.1778
   XZ=     0.3852   YZ=    -0.4368   ZZ=    28.5373
   Eigenvalues:    26.0494    28.3586    28.9893
     18  H    Isotropic =    27.8237   Anisotropy =     2.9802
   XX=    26.7281   YX=     1.9380   ZX=     0.0391
   XY=     1.2381   YY=    28.8517   ZY=    -1.1254
   XZ=     0.6077   YZ=    -0.2379   ZZ=    27.8914
   Eigenvalues:    25.7072    27.9535    29.8105
     19  O    Isotropic =   299.8949   Anisotropy =    36.8980
   XX=   266.8671   YX=     0.0187   ZX=     8.4435
   XY=    13.4122   YY=   322.0011   ZY=    -7.7674
   XZ=   -15.7253   YZ=    -0.9741   ZZ=   310.8164
   Eigenvalues:   265.8462   309.3449   324.4936
     20  H    Isotropic =    29.6258   Anisotropy =    18.6665
   XX=    24.9896   YX=     3.2923   ZX=    -2.6264
   XY=     1.9806   YY=    39.6817   ZY=     6.4150
   XZ=    -1.7997   YZ=     6.0716   ZZ=    24.2061
   Eigenvalues:    20.1364    26.6708    42.0702
     21  O    Isotropic =   299.1881   Anisotropy =    40.2780
   XX=   269.2306   YX=    15.2154   ZX=    15.2837
   XY=     3.2442   YY=   316.2319   ZY=     3.9689
   XZ=   -15.0518   YZ=    17.5161   ZZ=   312.1019
   Eigenvalues:   267.3995   304.1247   326.0401
     22  H    Isotropic =    29.5702   Anisotropy =    19.3226
   XX=    24.2698   YX=     1.7624   ZX=    -4.0173
   XY=     2.8401   YY=    41.7797   ZY=    -2.2986
   XZ=    -2.5096   YZ=    -2.2848   ZZ=    22.6610
   Eigenvalues:    20.0970    26.1617    42.4519
     23  C    Isotropic =   125.0552   Anisotropy =    49.1384
   XX=   130.6198   YX=    18.1922   ZX=     5.8043
   XY=    24.1674   YY=   138.5008   ZY=   -16.7220
   XZ=     3.2496   YZ=   -14.3089   ZZ=   106.0449
   Eigenvalues:    94.8368   122.5146   157.8141
     24  H    Isotropic =    27.7497   Anisotropy =     5.3415
   XX=    30.7420   YX=     0.1037   ZX=     0.1506
   XY=    -1.5769   YY=    30.2875   ZY=     1.0941
   XZ=    -0.4132   YZ=     0.1480   ZZ=    22.2196
   Eigenvalues:    22.1714    29.7670    31.3107
     25  H    Isotropic =    27.9654   Anisotropy =     5.5084
   XX=    27.1178   YX=     2.3607   ZX=     2.0529
   XY=     2.2544   YY=    28.1888   ZY=    -4.3976
   XZ=     2.4591   YZ=    -2.0842   ZZ=    28.5896
   Eigenvalues:    22.7554    29.5031    31.6376
     26  O    Isotropic =   306.8771   Anisotropy =    22.1423
   XX=   301.8700   YX=   -15.4085   ZX=     2.1640
   XY=    -0.6548   YY=   315.3145   ZY=     2.3722
   XZ=   -13.1522   YZ=     7.4480   ZZ=   303.4469
   Eigenvalues:   296.4323   302.5604   321.6386
     27  H    Isotropic =    30.0492   Anisotropy =    14.7501
   XX=    29.3074   YX=    -1.5536   ZX=    -3.6897
   XY=    -2.2676   YY=    35.9039   ZY=     6.6578
   XZ=    -2.8367   YZ=     6.3968   ZZ=    24.9363
   Eigenvalues:    21.2767    28.9883    39.8826
 End of Minotr Frequency-dependent properties file   721 does not exist.
 End of Minotr Frequency-dependent properties file   722 does not exist.

 **********************************************************************

            Population analysis using the SCF density.

 **********************************************************************

 Orbital symmetries:
       Occupied  (A) (A) (A) (A) (A) (A) (A) (A) (A) (A) (A) (A)
                 (A) (A) (A) (A) (A) (A) (A) (A) (A) (A) (A) (A)
                 (A) (A) (A) (A) (A) (A) (A) (A) (A) (A) (A) (A)
                 (A) (A) (A) (A) (A) (A) (A) (A) (A) (A) (A)
       Virtual   (A) (A) (A) (A) (A) (A) (A) (A) (A) (A) (A) (A)
                 (A) (A) (A) (A) (A) (A) (A) (A) (A) (A) (A) (A)
                 (A) (A) (A) (A) (A) (A) (A) (A) (A) (A) (A) (A)
                 (A) (A) (A) (A) (A) (A) (A) (A) (A) (A) (A) (A)
                 (A) (A) (A) (A) (A) (A) (A) (A) (A) (A) (A) (A)
                 (A) (A) (A) (A) (A) (A) (A) (A) (A) (A) (A) (A)
                 (A) (A) (A) (A) (A) (A) (A) (A) (A) (A) (A) (A)
                 (A) (A) (A) (A) (A) (A) (A) (A) (A) (A) (A) (A)
                 (A) (A) (A) (A) (A) (A) (A) (A) (A) (A) (A) (A)
                 (A) (A) (A) (A) (A) (A) (A) (A) (A) (A) (A) (A)
                 (A) (A) (A) (A) (A) (A) (A) (A) (A) (A) (A) (A)
                 (A) (A) (A) (A) (A) (A) (A) (A) (A) (A) (A) (A)
                 (A) (A) (A) (A) (A) (A) (A) (A) (A) (A) (A) (A)
                 (A) (A) (A) (A) (A) (A) (A) (A) (A) (A) (A) (A)
                 (A) (A) (A) (A) (A) (A) (A) (A) (A) (A) (A) (A)
                 (A) (A) (A) (A) (A) (A) (A) (A) (A) (A) (A) (A)
                 (A) (A) (A) (A) (A) (A) (A) (A) (A) (A) (A) (A)
                 (A) (A) (A) (A) (A) (A) (A) (A) (A) (A) (A) (A)
                 (A) (A) (A) (A) (A) (A) (A) (A) (A) (A) (A) (A)
                 (A) (A) (A) (A) (A) (A) (A) (A) (A) (A) (A) (A)
                 (A) (A) (A) (A) (A) (A) (A) (A) (A) (A) (A) (A)
                 (A) (A) (A) (A)
 The electronic state is 1-A.
 Alpha  occ. eigenvalues --  -19.26514 -19.26333 -19.25627 -14.41501 -10.30749
 Alpha  occ. eigenvalues --  -10.30386 -10.29434 -10.28187 -10.27997 -10.27106
 Alpha  occ. eigenvalues --  -10.24743 -10.24717  -1.07701  -1.05928  -1.05658
 Alpha  occ. eigenvalues --   -0.96815  -0.83346  -0.79547  -0.75536  -0.71617
 Alpha  occ. eigenvalues --   -0.66528  -0.61734  -0.60680  -0.57840  -0.56551
 Alpha  occ. eigenvalues --   -0.54174  -0.52719  -0.50177  -0.49660  -0.46516
 Alpha  occ. eigenvalues --   -0.46124  -0.44344  -0.43312  -0.42924  -0.40383
 Alpha  occ. eigenvalues --   -0.39559  -0.39149  -0.38748  -0.35944  -0.35611
 Alpha  occ. eigenvalues --   -0.34920  -0.34501  -0.33882  -0.32449  -0.30356
 Alpha  occ. eigenvalues --   -0.28103  -0.23223
 Alpha virt. eigenvalues --    0.00328   0.01039   0.01953   0.02364   0.03562
 Alpha virt. eigenvalues --    0.04094   0.04705   0.05020   0.05633   0.06464
 Alpha virt. eigenvalues --    0.07782   0.08063   0.08721   0.09246   0.09513
 Alpha virt. eigenvalues --    0.10050   0.10764   0.11820   0.12209   0.12791
 Alpha virt. eigenvalues --    0.13299   0.13920   0.14241   0.14461   0.15275
 Alpha virt. eigenvalues --    0.15999   0.16282   0.16911   0.17614   0.18415
 Alpha virt. eigenvalues --    0.18594   0.19345   0.19563   0.20398   0.20865
 Alpha virt. eigenvalues --    0.21158   0.22011   0.22816   0.23045   0.23877
 Alpha virt. eigenvalues --    0.24195   0.24883   0.25559   0.25829   0.26068
 Alpha virt. eigenvalues --    0.26075   0.26724   0.27703   0.28414   0.28900
 Alpha virt. eigenvalues --    0.29743   0.30073   0.30755   0.31774   0.31871
 Alpha virt. eigenvalues --    0.32283   0.33013   0.33447   0.34183   0.34347
 Alpha virt. eigenvalues --    0.35185   0.35547   0.36461   0.37102   0.38334
 Alpha virt. eigenvalues --    0.38516   0.38809   0.39486   0.40129   0.40588
 Alpha virt. eigenvalues --    0.40830   0.41687   0.43536   0.44350   0.45495
 Alpha virt. eigenvalues --    0.46274   0.63253   0.64863   0.66509   0.68457
 Alpha virt. eigenvalues --    0.69751   0.70286   0.71276   0.72011   0.74421
 Alpha virt. eigenvalues --    0.74696   0.76648   0.79752   0.80537   0.81743
 Alpha virt. eigenvalues --    0.82810   0.84184   0.86427   0.86838   0.87282
 Alpha virt. eigenvalues --    0.88518   0.90540   0.91246   0.94606   0.97317
 Alpha virt. eigenvalues --    0.97669   0.99544   1.01492   1.02709   1.04517
 Alpha virt. eigenvalues --    1.05773   1.06545   1.07504   1.09459   1.10116
 Alpha virt. eigenvalues --    1.11400   1.13174   1.13663   1.14147   1.15144
 Alpha virt. eigenvalues --    1.18472   1.19368   1.21217   1.22002   1.23930
 Alpha virt. eigenvalues --    1.25787   1.27196   1.29472   1.29788   1.31660
 Alpha virt. eigenvalues --    1.34316   1.34656   1.37491   1.41172   1.42025
 Alpha virt. eigenvalues --    1.43687   1.44322   1.47822   1.49181   1.52046
 Alpha virt. eigenvalues --    1.54622   1.55234   1.58154   1.59209   1.61122
 Alpha virt. eigenvalues --    1.61879   1.62614   1.63770   1.67760   1.70684
 Alpha virt. eigenvalues --    1.71957   1.72484   1.74604   1.76301   1.79101
 Alpha virt. eigenvalues --    1.80291   1.82258   1.83695   1.86307   1.87959
 Alpha virt. eigenvalues --    1.88351   1.88554   1.90995   1.92005   1.95814
 Alpha virt. eigenvalues --    1.96390   1.98892   2.01403   2.02771   2.03816
 Alpha virt. eigenvalues --    2.04268   2.06760   2.08176   2.08915   2.09906
 Alpha virt. eigenvalues --    2.11463   2.13230   2.14465   2.17422   2.17988
 Alpha virt. eigenvalues --    2.21189   2.23250   2.25716   2.27050   2.29570
 Alpha virt. eigenvalues --    2.30272   2.32843   2.33909   2.36434   2.37792
 Alpha virt. eigenvalues --    2.40157   2.41737   2.42888   2.43328   2.45331
 Alpha virt. eigenvalues --    2.47241   2.49158   2.50306   2.51885   2.52167
 Alpha virt. eigenvalues --    2.55497   2.58590   2.59052   2.61140   2.62997
 Alpha virt. eigenvalues --    2.64823   2.65989   2.68874   2.69278   2.69537
 Alpha virt. eigenvalues --    2.71749   2.72494   2.75636   2.75838   2.76557
 Alpha virt. eigenvalues --    2.79929   2.81303   2.82346   2.84270   2.85636
 Alpha virt. eigenvalues --    2.88856   2.90050   2.91133   2.93768   2.94703
 Alpha virt. eigenvalues --    2.96241   2.99924   3.00980   3.01763   3.04248
 Alpha virt. eigenvalues --    3.04934   3.07733   3.11807   3.15860   3.31258
 Alpha virt. eigenvalues --    3.34064   3.35634   3.36119   3.38099   3.43372
 Alpha virt. eigenvalues --    3.47898   3.50079   3.52304   3.54123   3.55421
 Alpha virt. eigenvalues --    3.56391   3.57121   3.59914   3.60804   4.30937
 Alpha virt. eigenvalues --    4.34858   4.39034   4.40764   4.47452   4.47950
 Alpha virt. eigenvalues --    4.57465   4.68335   4.76261   4.78346   4.85701
 Alpha virt. eigenvalues --    4.93028
          Condensed to atoms (all electrons):
              1          2          3          4          5          6
     1  C    6.238553  -1.384354   0.239604  -0.264371   0.204745   0.186757
     2  C   -1.384354  10.518904  -0.718315  -0.521540   0.551158  -0.784715
     3  N    0.239604  -0.718315   7.511793   0.282197  -0.216408  -0.268817
     4  C   -0.264371  -0.521540   0.282197   5.835685  -0.053762  -0.067324
     5  C    0.204745   0.551158  -0.216408  -0.053762   5.688414  -0.239906
     6  C    0.186757  -0.784715  -0.268817  -0.067324  -0.239906   9.292334
     7  C   -0.154155   0.615162  -0.098224  -0.090053   0.076910  -1.018863
     8  C    0.215599  -1.577495   0.161228   0.272137  -0.240450   0.245229
     9  H    0.393021  -0.077831   0.015243   0.035576  -0.031728   0.002540
    10  H    0.513311  -0.238207   0.033043   0.023892  -0.080518   0.018372
    11  H    0.114520   0.036501   0.023465   0.020785  -0.029393   0.040314
    12  H    0.043063  -0.011962  -0.039363   0.364678  -0.011220  -0.006078
    13  H   -0.014260   0.029135  -0.101587   0.423715  -0.042423   0.004439
    14  H   -0.021675  -0.046984   0.013759  -0.028652   0.388592   0.008610
    15  H   -0.072194   0.049166   0.004902  -0.021507   0.385445  -0.006152
    16  H   -0.015468   0.064630  -0.068861   0.017052   0.004778   0.217377
    17  H    0.012748  -0.030573   0.047605   0.011537   0.000219  -0.151291
    18  H    0.048009  -0.246436   0.049878   0.011276  -0.001557   0.010177
    19  O    0.035374  -0.171117   0.027435  -0.005540   0.000646   0.011971
    20  H   -0.008060   0.050676  -0.003830   0.000011  -0.000387   0.016704
    21  O   -0.000509   0.036209   0.011010  -0.001055   0.002555  -0.156155
    22  H   -0.000731   0.004990  -0.003994  -0.000126  -0.000197   0.053836
    23  C    0.083265  -0.135501   0.213803  -0.040241   0.006525  -1.010128
    24  H   -0.000157   0.015051   0.012880  -0.002601   0.001397  -0.156281
    25  H   -0.000023   0.011072   0.008596   0.009929   0.003216  -0.126412
    26  O   -0.002872   0.037792   0.022684  -0.016349   0.025385  -0.144062
    27  H   -0.000679   0.013605   0.023507   0.004137   0.009995  -0.093517
              7          8          9         10         11         12
     1  C   -0.154155   0.215599   0.393021   0.513311   0.114520   0.043063
     2  C    0.615162  -1.577495  -0.077831  -0.238207   0.036501  -0.011962
     3  N   -0.098224   0.161228   0.015243   0.033043   0.023465  -0.039363
     4  C   -0.090053   0.272137   0.035576   0.023892   0.020785   0.364678
     5  C    0.076910  -0.240450  -0.031728  -0.080518  -0.029393  -0.011220
     6  C   -1.018863   0.245229   0.002540   0.018372   0.040314  -0.006078
     7  C    6.309241  -0.293170  -0.002111  -0.008585  -0.046607  -0.007635
     8  C   -0.293170   6.708164   0.006388   0.052350   0.073995   0.000843
     9  H   -0.002111   0.006388   0.511752  -0.024159  -0.003811  -0.000104
    10  H   -0.008585   0.052350  -0.024159   0.530439   0.004243  -0.000029
    11  H   -0.046607   0.073995  -0.003811   0.004243   0.564573   0.000235
    12  H   -0.007635   0.000843  -0.000104  -0.000029   0.000235   0.559554
    13  H    0.014571   0.000223  -0.000136   0.000922  -0.000537  -0.043486
    14  H   -0.001997   0.016091  -0.005051   0.004157   0.000815  -0.006019
    15  H    0.000586   0.002141   0.000412  -0.005467  -0.000129   0.000676
    16  H    0.070808  -0.042432  -0.000004  -0.000172  -0.000604  -0.001096
    17  H    0.404886  -0.045578   0.000005  -0.000009   0.001037   0.000010
    18  H   -0.088185   0.506811   0.000340   0.003282   0.004405   0.000014
    19  O   -0.115240   0.300389   0.000466   0.001934   0.010539   0.000065
    20  H   -0.041507  -0.008609  -0.000010  -0.000018  -0.000075   0.000000
    21  O    0.313462  -0.150888   0.000014  -0.000254  -0.000432   0.000023
    22  H   -0.000731  -0.035721   0.000000   0.000000  -0.000003   0.000000
    23  C    0.170978  -0.099227   0.000296   0.000933   0.015795   0.000813
    24  H    0.029558  -0.013318   0.000000   0.000000  -0.000007  -0.000048
    25  H    0.008338  -0.012487   0.000000   0.000000  -0.000037   0.000036
    26  O    0.023436  -0.026217   0.000001   0.000000  -0.000057  -0.000833
    27  H    0.000175  -0.003657   0.000000   0.000000  -0.000007   0.000560
             13         14         15         16         17         18
     1  C   -0.014260  -0.021675  -0.072194  -0.015468   0.012748   0.048009
     2  C    0.029135  -0.046984   0.049166   0.064630  -0.030573  -0.246436
     3  N   -0.101587   0.013759   0.004902  -0.068861   0.047605   0.049878
     4  C    0.423715  -0.028652  -0.021507   0.017052   0.011537   0.011276
     5  C   -0.042423   0.388592   0.385445   0.004778   0.000219  -0.001557
     6  C    0.004439   0.008610  -0.006152   0.217377  -0.151291   0.010177
     7  C    0.014571  -0.001997   0.000586   0.070808   0.404886  -0.088185
     8  C    0.000223   0.016091   0.002141  -0.042432  -0.045578   0.506811
     9  H   -0.000136  -0.005051   0.000412  -0.000004   0.000005   0.000340
    10  H    0.000922   0.004157  -0.005467  -0.000172  -0.000009   0.003282
    11  H   -0.000537   0.000815  -0.000129  -0.000604   0.001037   0.004405
    12  H   -0.043486  -0.006019   0.000676  -0.001096   0.000010   0.000014
    13  H    0.573467   0.003887  -0.004309   0.011748  -0.000030  -0.000348
    14  H    0.003887   0.518685  -0.024196  -0.000015  -0.000003  -0.000008
    15  H   -0.004309  -0.024196   0.512301  -0.000007   0.000000  -0.000029
    16  H    0.011748  -0.000015  -0.000007   0.570152   0.003985   0.000496
    17  H   -0.000030  -0.000003   0.000000   0.003985   0.553442   0.004561
    18  H   -0.000348  -0.000008  -0.000029   0.000496   0.004561   0.558206
    19  O   -0.000261   0.000017  -0.000010  -0.001266  -0.001958  -0.042422
    20  H    0.000000   0.000000   0.000000   0.000019  -0.000044  -0.005352
    21  O   -0.000206  -0.000008  -0.000007   0.001433  -0.040576  -0.002375
    22  H    0.000001   0.000000   0.000000   0.000097  -0.006838  -0.000184
    23  C   -0.009060  -0.000191  -0.000339  -0.002302   0.054196   0.015659
    24  H    0.000044   0.000000   0.000000  -0.001881   0.000175  -0.000007
    25  H   -0.000010  -0.000001   0.000000   0.004669   0.003280  -0.000002
    26  O   -0.001706  -0.000026  -0.000002   0.001847   0.000037   0.000007
    27  H    0.000116  -0.000004   0.000000   0.000121   0.000023   0.000000
             19         20         21         22         23         24
     1  C    0.035374  -0.008060  -0.000509  -0.000731   0.083265  -0.000157
     2  C   -0.171117   0.050676   0.036209   0.004990  -0.135501   0.015051
     3  N    0.027435  -0.003830   0.011010  -0.003994   0.213803   0.012880
     4  C   -0.005540   0.000011  -0.001055  -0.000126  -0.040241  -0.002601
     5  C    0.000646  -0.000387   0.002555  -0.000197   0.006525   0.001397
     6  C    0.011971   0.016704  -0.156155   0.053836  -1.010128  -0.156281
     7  C   -0.115240  -0.041507   0.313462  -0.000731   0.170978   0.029558
     8  C    0.300389  -0.008609  -0.150888  -0.035721  -0.099227  -0.013318
     9  H    0.000466  -0.000010   0.000014   0.000000   0.000296   0.000000
    10  H    0.001934  -0.000018  -0.000254   0.000000   0.000933   0.000000
    11  H    0.010539  -0.000075  -0.000432  -0.000003   0.015795  -0.000007
    12  H    0.000065   0.000000   0.000023   0.000000   0.000813  -0.000048
    13  H   -0.000261   0.000000  -0.000206   0.000001  -0.009060   0.000044
    14  H    0.000017   0.000000  -0.000008   0.000000  -0.000191   0.000000
    15  H   -0.000010   0.000000  -0.000007   0.000000  -0.000339   0.000000
    16  H   -0.001266   0.000019   0.001433   0.000097  -0.002302  -0.001881
    17  H   -0.001958  -0.000044  -0.040576  -0.006838   0.054196   0.000175
    18  H   -0.042422  -0.005352  -0.002375  -0.000184   0.015659  -0.000007
    19  O    8.260464   0.234076  -0.002273   0.001563   0.003340  -0.000007
    20  H    0.234076   0.381423   0.004103   0.001548  -0.001525   0.000000
    21  O   -0.002273   0.004103   8.262903   0.237716   0.034711   0.005479
    22  H    0.001563   0.001548   0.237716   0.373867  -0.011708  -0.000140
    23  C    0.003340  -0.001525   0.034711  -0.011708   5.849992   0.486058
    24  H   -0.000007   0.000000   0.005479  -0.000140   0.486058   0.539294
    25  H   -0.000084   0.000001   0.000321  -0.000002   0.447929  -0.032740
    26  O    0.000073   0.000002  -0.000182   0.000019   0.206329  -0.058754
    27  H    0.000000   0.000000   0.000028   0.000000   0.037589   0.006572
             25         26         27
     1  C   -0.000023  -0.002872  -0.000679
     2  C    0.011072   0.037792   0.013605
     3  N    0.008596   0.022684   0.023507
     4  C    0.009929  -0.016349   0.004137
     5  C    0.003216   0.025385   0.009995
     6  C   -0.126412  -0.144062  -0.093517
     7  C    0.008338   0.023436   0.000175
     8  C   -0.012487  -0.026217  -0.003657
     9  H    0.000000   0.000001   0.000000
    10  H    0.000000   0.000000   0.000000
    11  H   -0.000037  -0.000057  -0.000007
    12  H    0.000036  -0.000833   0.000560
    13  H   -0.000010  -0.001706   0.000116
    14  H   -0.000001  -0.000026  -0.000004
    15  H    0.000000  -0.000002   0.000000
    16  H    0.004669   0.001847   0.000121
    17  H    0.003280   0.000037   0.000023
    18  H   -0.000002   0.000007   0.000000
    19  O   -0.000084   0.000073   0.000000
    20  H    0.000001   0.000002   0.000000
    21  O    0.000321  -0.000182   0.000028
    22  H   -0.000002   0.000019   0.000000
    23  C    0.447929   0.206329   0.037589
    24  H   -0.032740  -0.058754   0.006572
    25  H    0.562210  -0.042401  -0.007182
    26  O   -0.042401   8.255124   0.257164
    27  H   -0.007182   0.257164   0.377516
 Mulliken atomic charges:
              1
     1  C   -0.389060
     2  C   -0.089023
     3  N   -0.183232
     4  C   -0.199485
     5  C   -0.402029
     6  C    0.121042
     7  C   -0.071050
     8  C   -0.012341
     9  H    0.178892
    10  H    0.170540
    11  H    0.170478
    12  H    0.157303
    13  H    0.156092
    14  H    0.180219
    15  H    0.178719
    16  H    0.164894
    17  H    0.179155
    18  H    0.173783
    19  O   -0.548172
    20  H    0.380854
    21  O   -0.555047
    22  H    0.386737
    23  C   -0.317991
    24  H    0.169435
    25  H    0.161786
    26  O   -0.536438
    27  H    0.373940
 Sum of Mulliken atomic charges =   0.00000
 Mulliken charges with hydrogens summed into heavy atoms:
              1
     1  C   -0.039628
     2  C    0.081455
     3  N   -0.183232
     4  C    0.113910
     5  C   -0.043092
     6  C    0.285936
     7  C    0.108105
     8  C    0.161442
    19  O   -0.167318
    21  O   -0.168310
    23  C    0.013231
    26  O   -0.162498
 Sum of Mulliken charges with hydrogens summed into heavy atoms =   0.00000
 Electronic spatial extent (au):  <R**2>=           2164.6705
 Charge=              0.0000 electrons
 Dipole moment (field-independent basis, Debye):
    X=              2.7058    Y=              1.1323    Z=             -0.0632  Tot=              2.9338
 Quadrupole moment (field-independent basis, Debye-Ang):
   XX=            -87.2820   YY=            -58.8216   ZZ=            -75.5118
   XY=             -3.2391   XZ=              7.6044   YZ=              0.7985
 Traceless Quadrupole moment (field-independent basis, Debye-Ang):
   XX=            -13.4102   YY=             15.0502   ZZ=             -1.6400
   XY=             -3.2391   XZ=              7.6044   YZ=              0.7985
 Octapole moment (field-independent basis, Debye-Ang**2):
  XXX=             30.7918  YYY=             53.8486  ZZZ=             -0.4032  XYY=              7.5642
  XXY=              5.6032  XXZ=             -3.9920  XZZ=             -1.4610  YZZ=             -2.6617
  YYZ=             -0.9554  XYZ=              6.1904
 Hexadecapole moment (field-independent basis, Debye-Ang**3):
 XXXX=          -1538.1967 YYYY=           -957.8281 ZZZZ=           -199.9202 XXXY=            -65.8931
 XXXZ=             25.2917 YYYX=             71.7184 YYYZ=             21.6447 ZZZX=              6.8300
 ZZZY=             -0.3991 XXYY=           -436.6551 XXZZ=           -255.5269 YYZZ=           -252.4324
 XXYZ=             25.5568 YYXZ=             37.8912 ZZXY=              3.9696
 N-N= 7.949085386763D+02 E-N=-2.975544150900D+03  KE= 5.886661514047D+02
 1\1\GINC-COMPUTE-3-0\SP\RmPW1PW91\6-31+G(d,p)\C8H15N1O3\MAMICHETTI.IQU
 IR\17-May-2024\0\\# mpw1pw91/6-31+G** nmr scrf=(pcm,solvent=water)\\co
 mment\\0,1\C,0,2.266936,-1.110629,0.205807\C,0,1.272707,-0.158815,-0.4
 79051\N,0,-0.074091,-0.818041,-0.375479\C,0,0.086612,-2.082764,0.36886
 1\C,0,1.550774,-2.469499,0.145108\C,0,-1.038911,0.144484,0.190086\C,0,
 -0.402462,1.509208,-0.093884\C,0,1.088512,1.233944,0.126053\H,0,3.2465
 06,-1.115377,-0.281556\H,0,2.412041,-0.813877,1.251842\H,0,1.536737,-0
 .035063,-1.538774\H,0,-0.60845,-2.849971,0.009251\H,0,-0.110324,-1.940
 517,1.445169\H,0,1.675595,-2.925855,-0.844372\H,0,1.911861,-3.182343,0
 .892876\H,0,-1.118618,0.025259,1.285369\H,0,-0.557063,1.789156,-1.1468
 44\H,0,1.269575,1.207485,1.210744\O,0,1.963062,2.175224,-0.49492\H,0,1
 .833029,3.025104,-0.040755\O,0,-0.954113,2.505737,0.763763\H,0,-0.6179
 01,3.36347,0.454365\C,0,-2.442015,0.016951,-0.395321\H,0,-3.079201,0.7
 99148,0.03071\H,0,-2.40547,0.161488,-1.484269\O,0,-3.076706,-1.226279,
 -0.073758\H,0,-2.620543,-1.916568,-0.582033\\Version=AM64L-G09RevC.01\
 State=1-A\HF=-594.1977912\RMSD=8.308e-09\Dipole=1.064525,0.4454724,-0.
 0248765\Quadrupole=-9.9701717,11.1894621,-1.2192903,-2.4081924,5.65369
 44,0.5936758\PG=C01 [X(C8H15N1O3)]\\@


 A BIRD IN THE HAND IS SAFER THAN ONE OVERHEAD.

                       -- NEWTON'S SEVENTH LAW
 Job cpu time:  0 days  0 hours  8 minutes 39.5 seconds.
 File lengths (MBytes):  RWF=    115 Int=      0 D2E=      0 Chk=      7 Scr=      1
 Normal termination of Gaussian 09 at Fri May 17 12:23:43 2024.
