 Entering Gaussian System, Link 0=g09
 Input=/home/mamichetti.iquir/Linux/02_Cardona_A1A3_R__R_R_R_050_OptB.gjc
 Output=/home/mamichetti.iquir/Linux/02_Cardona_A1A3_R__R_R_R_050_OptB.log
 Initial command:
 /opt/ohpc/pub/apps/software/Gaussian/09/AMD64.SSE4a-enabled/g09/l1.exe /local/mamichetti.iquir/Gau-711427.inp -scrdir=/local/mamichetti.iquir/
 Entering Link 1 = /opt/ohpc/pub/apps/software/Gaussian/09/AMD64.SSE4a-enabled/g09/l1.exe PID=    711428.
  
 Copyright (c) 1988,1990,1992,1993,1995,1998,2003,2009,2011,
            Gaussian, Inc.  All Rights Reserved.
  
 This is part of the Gaussian(R) 09 program.  It is based on
 the Gaussian(R) 03 system (copyright 2003, Gaussian, Inc.),
 the Gaussian(R) 98 system (copyright 1998, Gaussian, Inc.),
 the Gaussian(R) 94 system (copyright 1995, Gaussian, Inc.),
 the Gaussian 92(TM) system (copyright 1992, Gaussian, Inc.),
 the Gaussian 90(TM) system (copyright 1990, Gaussian, Inc.),
 the Gaussian 88(TM) system (copyright 1988, Gaussian, Inc.),
 the Gaussian 86(TM) system (copyright 1986, Carnegie Mellon
 University), and the Gaussian 82(TM) system (copyright 1983,
 Carnegie Mellon University). Gaussian is a federally registered
 trademark of Gaussian, Inc.
  
 This software contains proprietary and confidential information,
 including trade secrets, belonging to Gaussian, Inc.
  
 This software is provided under written license and may be
 used, copied, transmitted, or stored only in accord with that
 written license.
  
 The following legend is applicable only to US Government
 contracts under FAR:
  
                    RESTRICTED RIGHTS LEGEND
  
 Use, reproduction and disclosure by the US Government is
 subject to restrictions as set forth in subparagraphs (a)
 and (c) of the Commercial Computer Software - Restricted
 Rights clause in FAR 52.227-19.
  
 Gaussian, Inc.
 340 Quinnipiac St., Bldg. 40, Wallingford CT 06492
  
  
 ---------------------------------------------------------------
 Warning -- This program may not be used in any manner that
 competes with the business of Gaussian, Inc. or will provide
 assistance to any competitor of Gaussian, Inc.  The licensee
 of this program is prohibited from giving any competitor of
 Gaussian, Inc. access to this program.  By using this program,
 the user acknowledges that Gaussian, Inc. is engaged in the
 business of creating and licensing software in the field of
 computational chemistry and represents and warrants to the
 licensee that it is not a competitor of Gaussian, Inc. and that
 it will not use this program in any manner prohibited above.
 ---------------------------------------------------------------
  

 Cite this work as:
 Gaussian 09, Revision C.01,
 M. J. Frisch, G. W. Trucks, H. B. Schlegel, G. E. Scuseria, 
 M. A. Robb, J. R. Cheeseman, G. Scalmani, V. Barone, B. Mennucci, 
 G. A. Petersson, H. Nakatsuji, M. Caricato, X. Li, H. P. Hratchian, 
 A. F. Izmaylov, J. Bloino, G. Zheng, J. L. Sonnenberg, M. Hada, 
 M. Ehara, K. Toyota, R. Fukuda, J. Hasegawa, M. Ishida, T. Nakajima, 
 Y. Honda, O. Kitao, H. Nakai, T. Vreven, J. A. Montgomery, Jr., 
 J. E. Peralta, F. Ogliaro, M. Bearpark, J. J. Heyd, E. Brothers, 
 K. N. Kudin, V. N. Staroverov, T. Keith, R. Kobayashi, J. Normand, 
 K. Raghavachari, A. Rendell, J. C. Burant, S. S. Iyengar, J. Tomasi, 
 M. Cossi, N. Rega, J. M. Millam, M. Klene, J. E. Knox, J. B. Cross, 
 V. Bakken, C. Adamo, J. Jaramillo, R. Gomperts, R. E. Stratmann, 
 O. Yazyev, A. J. Austin, R. Cammi, C. Pomelli, J. W. Ochterski, 
 R. L. Martin, K. Morokuma, V. G. Zakrzewski, G. A. Voth, 
 P. Salvador, J. J. Dannenberg, S. Dapprich, A. D. Daniels, 
 O. Farkas, J. B. Foresman, J. V. Ortiz, J. Cioslowski, 
 and D. J. Fox, Gaussian, Inc., Wallingford CT, 2010.
 
 ******************************************
 Gaussian 09:  AM64L-G09RevC.01 23-Sep-2011
                17-May-2024 
 ******************************************
 %nprocshared=4
 Will use up to    4 processors via shared memory.
 ------------------------------------------------
 # mpw1pw91/6-31+G** nmr scrf=(pcm,solvent=water)
 ------------------------------------------------
 1/38=1/1;
 2/12=2,17=6,18=5,40=1/2;
 3/5=1,6=6,7=111,11=2,16=1,25=1,30=1,70=2201,72=1,74=-7/1,2,8,3;
 4//1;
 5/5=2,38=5,53=1/2;
 8/6=1,10=90,11=11/1;
 10/13=100,45=16/2;
 6/7=2,8=2,9=2,10=2,28=1/1;
 99/9=1/99;
 -------
 comment
 -------
 Charge =  0 Multiplicity = 1
 Symbolic Z-Matrix:
 6                     2.30223  -1.04358   0.23963 
 6                     1.30075  -0.11557  -0.46531 
 7                    -0.02797  -0.81785  -0.40527 
 6                     0.15396  -2.09417   0.31112 
 6                     1.63702  -2.42472   0.12251 
 6                    -1.03202   0.10247   0.15423 
 6                    -0.43899   1.49425  -0.12235 
 6                     1.05413   1.26856   0.13696 
 1                     3.29974  -1.00247  -0.20824 
 1                     2.39505  -0.76419   1.2965 
 1                     1.59239   0.02398  -1.51593 
 1                    -0.50694  -2.87036  -0.08959 
 1                    -0.07879  -1.9875    1.38456 
 1                     1.80692  -2.84796  -0.87517 
 1                     2.00179  -3.14516   0.86115 
 1                    -1.11347  -0.01889   1.25123 
 1                    -0.5803    1.76651  -1.17499 
 1                     1.20747   1.24153   1.22792 
 8                     1.90911   2.24399  -0.45325 
 1                     1.64976   3.10304  -0.07833 
 8                    -1.0185    2.55722   0.62524 
 1                    -0.91469   2.33553   1.56746 
 6                    -2.42408  -0.06894  -0.42875 
 1                    -3.05527   0.76754  -0.09436 
 1                    -2.36958  -0.03971  -1.52605 
 8                    -2.96808  -1.31724   0.01878 
 1                    -3.83652  -1.41843  -0.40378 
 
                          Input orientation:                          
 ---------------------------------------------------------------------
 Center     Atomic      Atomic             Coordinates (Angstroms)
 Number     Number       Type             X           Y           Z
 ---------------------------------------------------------------------
      1          6           0        2.302228   -1.043585    0.239627
      2          6           0        1.300747   -0.115566   -0.465308
      3          7           0       -0.027965   -0.817850   -0.405266
      4          6           0        0.153956   -2.094172    0.311117
      5          6           0        1.637022   -2.424721    0.122513
      6          6           0       -1.032019    0.102469    0.154232
      7          6           0       -0.438991    1.494245   -0.122347
      8          6           0        1.054133    1.268558    0.136959
      9          1           0        3.299742   -1.002466   -0.208241
     10          1           0        2.395049   -0.764192    1.296503
     11          1           0        1.592385    0.023980   -1.515933
     12          1           0       -0.506939   -2.870362   -0.089589
     13          1           0       -0.078790   -1.987498    1.384562
     14          1           0        1.806919   -2.847955   -0.875166
     15          1           0        2.001788   -3.145157    0.861150
     16          1           0       -1.113465   -0.018885    1.251234
     17          1           0       -0.580296    1.766509   -1.174993
     18          1           0        1.207469    1.241527    1.227916
     19          8           0        1.909108    2.243987   -0.453245
     20          1           0        1.649761    3.103042   -0.078331
     21          8           0       -1.018505    2.557223    0.625244
     22          1           0       -0.914687    2.335526    1.567460
     23          6           0       -2.424076   -0.068942   -0.428746
     24          1           0       -3.055272    0.767537   -0.094356
     25          1           0       -2.369575   -0.039714   -1.526048
     26          8           0       -2.968079   -1.317240    0.018776
     27          1           0       -3.836522   -1.418428   -0.403775
 ---------------------------------------------------------------------
                    Distance matrix (angstroms):
                    1          2          3          4          5
     1  C    0.000000
     2  C    1.536593   0.000000
     3  N    2.428300   1.504089   0.000000
     4  C    2.392471   2.415129   1.474889   0.000000
     5  C    1.537450   2.406410   2.373345   1.531117   0.000000
     6  C    3.526746   2.423462   1.472464   2.501276   3.675796
     7  C    3.753117   2.394953   2.365326   3.662815   4.441630
     8  C    2.629503   1.529491   2.412062   3.485485   3.739021
     9  H    1.094217   2.201966   3.338643   3.370093   2.212882
    10  H    1.097116   2.173060   2.961401   2.786096   2.170303
    11  H    2.173836   1.099245   2.137240   3.145434   2.946631
    12  H    3.367034   3.316292   2.131167   1.095362   2.200035
    13  H    2.805547   2.971409   2.138725   1.103555   2.174383
    14  H    2.178037   2.808940   2.776496   2.169733   1.096976
    15  H    2.212049   3.380735   3.337674   2.195812   1.094380
    16  H    3.706793   2.963829   2.135567   2.607104   3.824557
    17  H    4.266934   2.753939   2.752537   4.201489   4.915936
    18  H    2.719733   2.171960   2.904241   3.616255   3.853285
    19  O    3.382713   2.436748   3.623451   4.741775   4.711938
    20  H    4.209671   3.260521   4.277271   5.422189   5.531425
    21  O    4.913429   3.702976   3.665275   4.807163   5.667833
    22  H    4.850781   3.879194   3.823834   4.726798   5.590979
    23  C    4.871817   3.725294   2.510530   3.360834   4.727166
    24  H    5.665202   4.460087   3.431429   4.318904   5.679363
    25  H    5.094223   3.821281   2.710126   3.736868   4.945587
    26  O    5.282026   4.461080   3.012220   3.230509   4.737534
    27  H    6.183747   5.300261   3.855620   4.109941   5.590106
                    6          7          8          9         10
     6  C    0.000000
     7  C    1.537927   0.000000
     8  C    2.389998   1.532186   0.000000
     9  H    4.485133   4.496562   3.212394   0.000000
    10  H    3.714927   3.891716   2.697160   1.771863   0.000000
    11  H    3.111769   2.868841   2.137929   2.383006   3.029073
    12  H    3.028677   4.365259   4.429326   4.241926   3.844312
    13  H    2.605824   3.810912   3.666324   3.862873   2.761179
    14  H    4.221875   4.946266   4.305434   2.465591   3.066612
    15  H    4.500088   5.333734   4.572022   2.723859   2.452179
    16  H    1.106695   2.152023   2.756374   4.751199   3.587088
    17  H    2.177136   1.096430   2.154189   4.863798   4.622274
    18  H    2.732317   2.144273   1.102012   3.387574   2.331943
    19  O    3.688544   2.487001   1.425056   3.540247   3.513815
    20  H    4.031063   2.636864   1.940735   4.426569   4.171465
    21  O    2.499570   1.422902   2.488957   5.658033   4.809858
    22  H    2.645283   1.946661   2.657255   5.661865   4.542689
    23  C    1.518903   2.545191   3.769200   5.803635   5.165639
    24  H    2.144216   2.715477   4.146292   6.597885   5.829810
    25  H    2.152351   2.837351   4.024791   5.899548   5.585097
    26  O    2.404631   3.784263   4.783148   6.279825   5.540902
    27  H    3.238786   4.483981   5.606317   7.151050   6.492415
                   11         12         13         14         15
    11  H    0.000000
    12  H    3.849524   0.000000
    13  H    3.905348   1.770842   0.000000
    14  H    2.950359   2.443680   3.066375   0.000000
    15  H    3.982658   2.696874   2.437814   1.772314   0.000000
    16  H    3.870488   3.208832   2.227951   4.588448   4.430637
    17  H    2.805921   4.762778   4.571149   5.204034   5.910795
    18  H    3.026432   4.645713   3.479311   4.637473   4.473081
    19  O    2.481542   5.667989   5.023419   5.110414   5.547891
    20  H    3.398619   6.350830   5.571494   6.006164   6.328233
    21  O    4.221221   5.498306   4.702565   6.280939   6.457163
    22  H    4.597387   5.478443   4.406894   6.343661   6.248407
    23  C    4.162039   3.411509   3.531191   5.081685   5.542130
    24  H    4.916754   4.441659   4.317043   6.109202   6.464984
    25  H    3.962485   3.680407   4.184879   5.074738   5.869523
    26  O    4.995201   2.912240   3.265365   5.093410   5.361945
    27  H    5.726296   3.645950   4.200302   5.840735   6.218319
                   16         17         18         19         20
    16  H    0.000000
    17  H    3.059163   0.000000
    18  H    2.641196   3.040671   0.000000
    19  O    4.142679   2.635534   2.079309   0.000000
    20  H    4.376024   2.821727   2.316709   0.972521   0.000000
    21  O    2.652775   2.014475   2.655039   3.135630   2.812931
    22  H    2.383855   2.820753   2.411570   3.473535   3.142308
    23  C    2.131323   2.706527   4.201188   4.911896   5.174980
    24  H    2.489917   2.879449   4.488210   5.191702   5.252826
    25  H    3.048203   2.566554   4.692669   4.967225   5.303571
    26  O    2.577648   4.078738   5.044255   6.057400   6.393181
    27  H    3.480347   4.619698   5.931241   6.813809   7.116804
                   21         22         23         24         25
    21  O    0.000000
    22  H    0.973498   0.000000
    23  C    3.159631   3.470527   0.000000
    24  H    2.805213   3.130867   1.099965   0.000000
    25  H    3.632840   4.162722   1.099043   1.780892   0.000000
    26  O    4.379510   4.467386   1.433340   2.089664   2.092071
    27  H    4.980552   5.149277   1.953648   2.341908   2.304839
                   26         27
    26  O    0.000000
    27  H    0.971072   0.000000
 Stoichiometry    C8H15NO3
 Framework group  C1[X(C8H15NO3)]
 Deg. of freedom    75
 Full point group                 C1      NOp   1
 Largest Abelian subgroup         C1      NOp   1
 Largest concise Abelian subgroup C1      NOp   1
                         Standard orientation:                         
 ---------------------------------------------------------------------
 Center     Atomic      Atomic             Coordinates (Angstroms)
 Number     Number       Type             X           Y           Z
 ---------------------------------------------------------------------
      1          6           0        2.302227   -1.043587    0.239627
      2          6           0        1.300747   -0.115567   -0.465308
      3          7           0       -0.027966   -0.817850   -0.405266
      4          6           0        0.153954   -2.094172    0.311117
      5          6           0        1.637020   -2.424722    0.122513
      6          6           0       -1.032019    0.102470    0.154232
      7          6           0       -0.438990    1.494245   -0.122347
      8          6           0        1.054134    1.268557    0.136959
      9          1           0        3.299741   -1.002469   -0.208241
     10          1           0        2.395048   -0.764194    1.296503
     11          1           0        1.592385    0.023979   -1.515933
     12          1           0       -0.506941   -2.870361   -0.089589
     13          1           0       -0.078792   -1.987498    1.384562
     14          1           0        1.806917   -2.847956   -0.875166
     15          1           0        2.001785   -3.145159    0.861150
     16          1           0       -1.113465   -0.018884    1.251234
     17          1           0       -0.580295    1.766510   -1.174993
     18          1           0        1.207470    1.241526    1.227916
     19          8           0        1.909110    2.243986   -0.453245
     20          1           0        1.649764    3.103041   -0.078331
     21          8           0       -1.018503    2.557224    0.625244
     22          1           0       -0.914685    2.335527    1.567460
     23          6           0       -2.424076   -0.068940   -0.428746
     24          1           0       -3.055271    0.767540   -0.094356
     25          1           0       -2.369575   -0.039712   -1.526048
     26          8           0       -2.968080   -1.317237    0.018776
     27          1           0       -3.836523   -1.418425   -0.403775
 ---------------------------------------------------------------------
 Rotational constants (GHZ):      1.0233151      0.9486910      0.5297718
 Standard basis: 6-31+G(d,p) (6D, 7F)
 There are   303 symmetry adapted basis functions of A   symmetry.
 Integral buffers will be    131072 words long.
 Raffenetti 2 integral format.
 Two-electron integral symmetry is turned on.
   303 basis functions,   489 primitive gaussians,   303 cartesian basis functions
    47 alpha electrons       47 beta electrons
       nuclear repulsion energy       794.6317428970 Hartrees.
 NAtoms=   27 NActive=   27 NUniq=   27 SFac= 1.00D+00 NAtFMM=   60 NAOKFM=F Big=F
 ------------------------------------------------------------------------------
 Polarizable Continuum Model (PCM)
 =================================
 Model                : PCM.
 Atomic radii         : UFF (Universal Force Field).
 Polarization charges : Total charges.
 Charge compensation  : None.
 Solution method      : Matrix inversion.
 Cavity type          : Scaled VdW (van der Waals Surface) (Alpha=1.100).
 Cavity algorithm     : GePol (No added spheres)
                        Default sphere list used, NSphG=   27.
                        Lebedev-Laikov grids with approx.  5.0 points / Ang**2.
                        Smoothing algorithm: Karplus/York (Gamma=1.0000).
                        Polarization charges: spherical gaussians, with
                                              point-specific exponents (IZeta= 3).
                        Self-potential: point-specific (ISelfS= 7).
                        Self-field    : sphere-specific E.n sum rule (ISelfD= 2).
 Solvent              : Water, Eps=  78.355300 Eps(inf)=   1.777849
 ------------------------------------------------------------------------------
 One-electron integrals computed using PRISM.
 NBasis=   303 RedAO= T  NBF=   303
 NBsUse=   303 1.00D-06 NBFU=   303
 Harris functional with IExCor=  908 diagonalized for initial guess.
 ExpMin= 4.38D-02 ExpMax= 5.48D+03 ExpMxC= 8.25D+02 IAcc=2 IRadAn=         4 AccDes= 0.00D+00
 HarFok:  IExCor=  908 AccDes= 0.00D+00 IRadAn=         4 IDoV= 1
 ScaDFX=  1.000000  1.000000  1.000000  1.000000
 FoFCou: FMM=F IPFlag=           0 FMFlag=      100000 FMFlg1=           0
         NFxFlg=           0 DoJE=T BraDBF=F KetDBF=T FulRan=T
         Omega=  0.000000  0.000000  1.000000  0.000000  0.000000 ICntrl=     500 IOpCl=  0
         NMat0=    1 NMatS0=    1 NMatT0=    0 NMatD0=    1 NMtDS0=    0 NMtDT0=    0
         I1Cent=           4 NGrid=           0.
 Petite list used in FoFCou.
 Initial guess orbital symmetries:
       Occupied  (A) (A) (A) (A) (A) (A) (A) (A) (A) (A) (A) (A)
                 (A) (A) (A) (A) (A) (A) (A) (A) (A) (A) (A) (A)
                 (A) (A) (A) (A) (A) (A) (A) (A) (A) (A) (A) (A)
                 (A) (A) (A) (A) (A) (A) (A) (A) (A) (A) (A)
       Virtual   (A) (A) (A) (A) (A) (A) (A) (A) (A) (A) (A) (A)
                 (A) (A) (A) (A) (A) (A) (A) (A) (A) (A) (A) (A)
                 (A) (A) (A) (A) (A) (A) (A) (A) (A) (A) (A) (A)
                 (A) (A) (A) (A) (A) (A) (A) (A) (A) (A) (A) (A)
                 (A) (A) (A) (A) (A) (A) (A) (A) (A) (A) (A) (A)
                 (A) (A) (A) (A) (A) (A) (A) (A) (A) (A) (A) (A)
                 (A) (A) (A) (A) (A) (A) (A) (A) (A) (A) (A) (A)
                 (A) (A) (A) (A) (A) (A) (A) (A) (A) (A) (A) (A)
                 (A) (A) (A) (A) (A) (A) (A) (A) (A) (A) (A) (A)
                 (A) (A) (A) (A) (A) (A) (A) (A) (A) (A) (A) (A)
                 (A) (A) (A) (A) (A) (A) (A) (A) (A) (A) (A) (A)
                 (A) (A) (A) (A) (A) (A) (A) (A) (A) (A) (A) (A)
                 (A) (A) (A) (A) (A) (A) (A) (A) (A) (A) (A) (A)
                 (A) (A) (A) (A) (A) (A) (A) (A) (A) (A) (A) (A)
                 (A) (A) (A) (A) (A) (A) (A) (A) (A) (A) (A) (A)
                 (A) (A) (A) (A) (A) (A) (A) (A) (A) (A) (A) (A)
                 (A) (A) (A) (A) (A) (A) (A) (A) (A) (A) (A) (A)
                 (A) (A) (A) (A) (A) (A) (A) (A) (A) (A) (A) (A)
                 (A) (A) (A) (A) (A) (A) (A) (A) (A) (A) (A) (A)
                 (A) (A) (A) (A) (A) (A) (A) (A) (A) (A) (A) (A)
                 (A) (A) (A) (A) (A) (A) (A) (A) (A) (A) (A) (A)
                 (A) (A) (A) (A)
 The electronic state of the initial guess is 1-A.
 Requested convergence on RMS density matrix=1.00D-08 within 128 cycles.
 Requested convergence on MAX density matrix=1.00D-06.
 Requested convergence on             energy=1.00D-06.
 No special actions if energy rises.
 Error on total polarization charges =  0.01435
 SCF Done:  E(RmPW1PW91) =  -594.198197085     A.U. after   13 cycles
             Convg  =    0.6116D-08             -V/T =  2.0094
 Range of M.O.s used for correlation:     1   303
 NBasis=   303 NAE=    47 NBE=    47 NFC=     0 NFV=     0
 NROrb=    303 NOA=    47 NOB=    47 NVA=   256 NVB=   256

 **** Warning!!: The largest alpha MO coefficient is  0.58440647D+02

 NEqPCM:  Using equilibrium solvation (IEInf=0, Eps=  78.3553, EpsInf=   1.7778)
          Differentiating once with respect to magnetic field using GIAOs.
          Electric field/nuclear overlap derivatives assumed to be zero.
 FoFCou: FMM=F IPFlag=           0 FMFlag=    10101102 FMFlg1=           0
         NFxFlg=    40000000 DoJE=F BraDBF=F KetDBF=T FulRan=T
         Omega=  0.000000  0.000000  1.000000  0.000000  0.000000 ICntrl=    6100 IOpCl=  0
         NMat0=    1 NMatS0=    1 NMatT0=    0 NMatD0=    1 NMtDS0=    0 NMtDT0=    0
         I1Cent=           7 NGrid=        1871.
 Symmetry not used in FoFCou.
          There are     3 degrees of freedom in the 1st order CPHF.  IDoFFX=0.
      3 vectors produced by pass  0 Test12= 4.01D-13 3.33D-08 XBig12= 3.85D+01 1.10D+00.
 AX will form     3 AO Fock derivatives at one time.
      3 vectors produced by pass  1 Test12= 4.01D-13 3.33D-08 XBig12= 1.05D-01 4.55D-02.
      3 vectors produced by pass  2 Test12= 4.01D-13 3.33D-08 XBig12= 2.21D-04 3.25D-03.
      3 vectors produced by pass  3 Test12= 4.01D-13 3.33D-08 XBig12= 1.06D-06 1.83D-04.
      3 vectors produced by pass  4 Test12= 4.01D-13 3.33D-08 XBig12= 3.68D-09 1.10D-05.
      3 vectors produced by pass  5 Test12= 4.01D-13 3.33D-08 XBig12= 1.17D-11 5.88D-07.
      1 vectors produced by pass  6 Test12= 4.01D-13 3.33D-08 XBig12= 3.90D-14 3.68D-08.
 Inverted reduced A of dimension    19 with in-core refinement.
 Calculating GIAO nuclear magnetic shielding tensors.
 SCF GIAO Magnetic shielding tensor (ppm):
      1  C    Isotropic =   162.2940   Anisotropy =    25.3099
   XX=   160.0459   YX=    -9.8398   ZX=     8.8902
   XY=    -0.3214   YY=   174.4880   ZY=    -6.0786
   XZ=    14.1701   YZ=    -4.0598   ZZ=   152.3480
   Eigenvalues:   143.9954   163.7193   179.1672
      2  C    Isotropic =   128.7111   Anisotropy =    52.5104
   XX=   146.2219   YX=    15.7494   ZX=     1.1700
   XY=    22.4991   YY=   142.7102   ZY=    -3.0976
   XZ=    -1.5802   YZ=    -1.7103   ZZ=    97.2011
   Eigenvalues:    97.0589   125.3563   163.7180
      3  N    Isotropic =   193.7745   Anisotropy =    93.5768
   XX=   247.3043   YX=   -15.5133   ZX=    -7.4376
   XY=   -26.0231   YY=   207.0996   ZY=    -7.0501
   XZ=    -4.0292   YZ=    -6.6092   ZZ=   126.9196
   Eigenvalues:   125.8637   199.3007   256.1590
      4  C    Isotropic =   137.1772   Anisotropy =    56.1778
   XX=   129.6867   YX=   -10.9232   ZX=     2.8625
   XY=   -20.3158   YY=   157.9921   ZY=   -22.6509
   XZ=    -3.5141   YZ=   -25.2872   ZZ=   123.8529
   Eigenvalues:   108.4482   128.4544   174.6291
      5  C    Isotropic =   164.4144   Anisotropy =    23.0992
   XX=   179.7630   YX=    -0.1997   ZX=     2.5723
   XY=    -0.3857   YY=   177.9515   ZY=   -10.4639
   XZ=    -3.3020   YZ=     0.8460   ZZ=   135.5285
   Eigenvalues:   134.9867   178.4425   179.8138
      6  C    Isotropic =   123.5546   Anisotropy =    40.7274
   XX=   116.2903   YX=   -12.8532   ZX=    -5.4419
   XY=   -19.0370   YY=   138.9607   ZY=    12.3872
   XZ=   -15.6624   YZ=     1.4748   ZZ=   115.4127
   Eigenvalues:   103.7394   116.2181   150.7062
      7  C    Isotropic =   112.6654   Anisotropy =    38.4479
   XX=   127.5479   YX=    -6.7426   ZX=   -11.8518
   XY=    -7.8702   YY=   124.5751   ZY=    23.7190
   XZ=    -6.7896   YZ=     3.0192   ZZ=    85.8732
   Eigenvalues:    80.6969   119.0020   138.2974
      8  C    Isotropic =   111.1922   Anisotropy =    17.2268
   XX=   120.3924   YX=     4.2962   ZX=    -8.3769
   XY=     0.4303   YY=   114.2657   ZY=    -8.7650
   XZ=    -0.3572   YZ=    -1.3751   ZZ=    98.9185
   Eigenvalues:    96.8587   114.0412   122.6767
      9  H    Isotropic =    29.5113   Anisotropy =     9.7275
   XX=    35.4988   YX=    -0.4124   ZX=    -2.1947
   XY=     0.2425   YY=    27.5234   ZY=    -0.3661
   XZ=    -2.3729   YZ=    -0.2179   ZZ=    25.5117
   Eigenvalues:    24.9780    27.5595    35.9963
     10  H    Isotropic =    30.0620   Anisotropy =     8.2805
   XX=    28.1064   YX=     0.1136   ZX=     4.3118
   XY=    -0.3056   YY=    29.2380   ZY=     1.4052
   XZ=     4.1717   YZ=     1.6148   ZZ=    32.8417
   Eigenvalues:    25.4201    29.1836    35.5824
     11  H    Isotropic =    28.1685   Anisotropy =     7.0126
   XX=    28.5135   YX=     1.2332   ZX=    -3.3141
   XY=     0.8668   YY=    26.1389   ZY=    -1.7976
   XZ=    -2.4659   YZ=    -2.0345   ZZ=    29.8530
   Eigenvalues:    25.3099    26.3519    32.8436
     12  H    Isotropic =    28.1878   Anisotropy =     8.3316
   XX=    29.1052   YX=     2.2526   ZX=     1.3344
   XY=     2.7360   YY=    32.2744   ZY=     0.7140
   XZ=     1.5351   YZ=     0.0014   ZZ=    23.1838
   Eigenvalues:    22.8493    27.9719    33.7422
     13  H    Isotropic =    29.0323   Anisotropy =     7.5634
   XX=    27.9043   YX=    -0.3328   ZX=    -1.3572
   XY=    -0.3802   YY=    28.0585   ZY=    -4.5789
   XZ=    -2.5174   YZ=    -3.1237   ZZ=    31.1340
   Eigenvalues:    24.7897    28.2326    34.0745
     14  H    Isotropic =    29.5505   Anisotropy =    10.5883
   XX=    27.8973   YX=    -1.5852   ZX=    -2.0788
   XY=    -1.7028   YY=    30.9896   ZY=     5.1454
   XZ=    -2.1220   YZ=     5.6643   ZZ=    29.7646
   Eigenvalues:    24.8459    27.1962    36.6094
     15  H    Isotropic =    29.5180   Anisotropy =    11.4464
   XX=    28.0741   YX=    -3.0207   ZX=     2.2245
   XY=    -3.4840   YY=    33.2069   ZY=    -4.6246
   XZ=     2.1578   YZ=    -3.9931   ZZ=    27.2730
   Eigenvalues:    24.9034    26.5017    37.1489
     16  H    Isotropic =    28.9842   Anisotropy =     4.6013
   XX=    30.3552   YX=    -0.4665   ZX=    -1.8528
   XY=    -0.2861   YY=    27.3397   ZY=     2.5345
   XZ=    -1.6682   YZ=     0.9161   ZZ=    29.2576
   Eigenvalues:    26.2299    28.6709    32.0517
     17  H    Isotropic =    27.9448   Anisotropy =     1.1561
   XX=    26.6292   YX=    -0.9463   ZX=    -0.0615
   XY=    -0.0864   YY=    28.5398   ZY=     0.8564
   XZ=     0.3120   YZ=    -0.8849   ZZ=    28.6653
   Eigenvalues:    26.4922    28.6266    28.7155
     18  H    Isotropic =    28.0033   Anisotropy =     2.8048
   XX=    26.8227   YX=     1.8434   ZX=    -0.1314
   XY=     1.2714   YY=    28.9982   ZY=    -0.9042
   XZ=     0.5717   YZ=    -0.0500   ZZ=    28.1889
   Eigenvalues:    25.9332    28.2035    29.8731
     19  O    Isotropic =   298.3031   Anisotropy =    39.7039
   XX=   267.8679   YX=    -2.2140   ZX=     6.0935
   XY=     8.6902   YY=   321.7955   ZY=    -8.0363
   XZ=   -16.3685   YZ=    -5.9714   ZZ=   305.2460
   Eigenvalues:   267.0777   303.0592   324.7724
     20  H    Isotropic =    29.3537   Anisotropy =    18.1807
   XX=    25.2207   YX=     1.1457   ZX=    -3.4465
   XY=    -0.2658   YY=    40.1592   ZY=     5.1235
   XZ=    -2.5736   YZ=     4.7886   ZZ=    22.6813
   Eigenvalues:    19.7132    26.8738    41.4742
     21  O    Isotropic =   290.8306   Anisotropy =    89.1420
   XX=   256.1510   YX=    -8.7435   ZX=    17.9478
   XY=   -11.6577   YY=   266.5431   ZY=   -15.1780
   XZ=    -6.9137   YZ=    23.1119   ZZ=   349.7978
   Eigenvalues:   249.4416   272.7916   350.2586
     22  H    Isotropic =    30.7966   Anisotropy =    15.4287
   XX=    23.8513   YX=    -2.7351   ZX=    -0.7171
   XY=    -1.7999   YY=    27.5265   ZY=     1.2519
   XZ=    -0.5555   YZ=     0.1563   ZZ=    41.0121
   Eigenvalues:    22.7662    28.5413    41.0824
     23  C    Isotropic =   125.9220   Anisotropy =    48.6156
   XX=   128.6282   YX=    18.1812   ZX=    -1.0530
   XY=    23.6899   YY=   137.5235   ZY=   -15.1047
   XZ=    -5.4161   YZ=   -13.8428   ZZ=   111.6143
   Eigenvalues:   103.1034   116.3301   158.3324
     24  H    Isotropic =    27.5040   Anisotropy =     5.0547
   XX=    29.9651   YX=     0.3313   ZX=     0.2360
   XY=    -1.3541   YY=    30.5839   ZY=     0.5332
   XZ=    -0.7591   YZ=    -0.5619   ZZ=    21.9629
   Eigenvalues:    21.9542    29.6840    30.8738
     25  H    Isotropic =    27.9351   Anisotropy =     4.9719
   XX=    27.0277   YX=     1.7673   ZX=     1.2325
   XY=     2.5367   YY=    27.4379   ZY=    -3.7466
   XZ=     1.9966   YZ=    -1.6457   ZZ=    29.3398
   Eigenvalues:    23.4869    29.0688    31.2497
     26  O    Isotropic =   312.6421   Anisotropy =    89.8411
   XX=   353.0956   YX=    35.6798   ZX=    23.4857
   XY=    15.5376   YY=   284.5236   ZY=    -3.9751
   XZ=    35.1904   YZ=     4.5881   ZZ=   300.3071
   Eigenvalues:   271.9344   293.4557   372.5362
     27  H    Isotropic =    30.2899   Anisotropy =    21.6006
   XX=    40.4464   YX=     4.9021   ZX=     7.7733
   XY=     6.2336   YY=    25.9525   ZY=    -0.1041
   XZ=     7.0627   YZ=    -1.1481   ZZ=    24.4706
   Eigenvalues:    20.1219    26.0574    44.6903
 End of Minotr Frequency-dependent properties file   721 does not exist.
 End of Minotr Frequency-dependent properties file   722 does not exist.

 **********************************************************************

            Population analysis using the SCF density.

 **********************************************************************

 Orbital symmetries:
       Occupied  (A) (A) (A) (A) (A) (A) (A) (A) (A) (A) (A) (A)
                 (A) (A) (A) (A) (A) (A) (A) (A) (A) (A) (A) (A)
                 (A) (A) (A) (A) (A) (A) (A) (A) (A) (A) (A) (A)
                 (A) (A) (A) (A) (A) (A) (A) (A) (A) (A) (A)
       Virtual   (A) (A) (A) (A) (A) (A) (A) (A) (A) (A) (A) (A)
                 (A) (A) (A) (A) (A) (A) (A) (A) (A) (A) (A) (A)
                 (A) (A) (A) (A) (A) (A) (A) (A) (A) (A) (A) (A)
                 (A) (A) (A) (A) (A) (A) (A) (A) (A) (A) (A) (A)
                 (A) (A) (A) (A) (A) (A) (A) (A) (A) (A) (A) (A)
                 (A) (A) (A) (A) (A) (A) (A) (A) (A) (A) (A) (A)
                 (A) (A) (A) (A) (A) (A) (A) (A) (A) (A) (A) (A)
                 (A) (A) (A) (A) (A) (A) (A) (A) (A) (A) (A) (A)
                 (A) (A) (A) (A) (A) (A) (A) (A) (A) (A) (A) (A)
                 (A) (A) (A) (A) (A) (A) (A) (A) (A) (A) (A) (A)
                 (A) (A) (A) (A) (A) (A) (A) (A) (A) (A) (A) (A)
                 (A) (A) (A) (A) (A) (A) (A) (A) (A) (A) (A) (A)
                 (A) (A) (A) (A) (A) (A) (A) (A) (A) (A) (A) (A)
                 (A) (A) (A) (A) (A) (A) (A) (A) (A) (A) (A) (A)
                 (A) (A) (A) (A) (A) (A) (A) (A) (A) (A) (A) (A)
                 (A) (A) (A) (A) (A) (A) (A) (A) (A) (A) (A) (A)
                 (A) (A) (A) (A) (A) (A) (A) (A) (A) (A) (A) (A)
                 (A) (A) (A) (A) (A) (A) (A) (A) (A) (A) (A) (A)
                 (A) (A) (A) (A) (A) (A) (A) (A) (A) (A) (A) (A)
                 (A) (A) (A) (A) (A) (A) (A) (A) (A) (A) (A) (A)
                 (A) (A) (A) (A) (A) (A) (A) (A) (A) (A) (A) (A)
                 (A) (A) (A) (A)
 The electronic state is 1-A.
 Alpha  occ. eigenvalues --  -19.26598 -19.26094 -19.25406 -14.41207 -10.30757
 Alpha  occ. eigenvalues --  -10.30491 -10.29421 -10.28288 -10.27878 -10.26642
 Alpha  occ. eigenvalues --  -10.24619 -10.24545  -1.07711  -1.05846  -1.05480
 Alpha  occ. eigenvalues --   -0.96641  -0.83190  -0.79460  -0.75415  -0.71512
 Alpha  occ. eigenvalues --   -0.66205  -0.62753  -0.60653  -0.57391  -0.55669
 Alpha  occ. eigenvalues --   -0.53856  -0.52474  -0.50092  -0.49484  -0.46964
 Alpha  occ. eigenvalues --   -0.45432  -0.45363  -0.43465  -0.41828  -0.40481
 Alpha  occ. eigenvalues --   -0.39649  -0.38840  -0.37930  -0.36879  -0.35609
 Alpha  occ. eigenvalues --   -0.34966  -0.34616  -0.33074  -0.32239  -0.29645
 Alpha  occ. eigenvalues --   -0.28373  -0.22974
 Alpha virt. eigenvalues --    0.00893   0.01267   0.01889   0.01980   0.03393
 Alpha virt. eigenvalues --    0.04179   0.04497   0.04884   0.05599   0.07288
 Alpha virt. eigenvalues --    0.07855   0.08004   0.08512   0.09181   0.09395
 Alpha virt. eigenvalues --    0.09989   0.11103   0.12081   0.12410   0.12856
 Alpha virt. eigenvalues --    0.13154   0.14107   0.14216   0.14441   0.15428
 Alpha virt. eigenvalues --    0.15850   0.16198   0.17410   0.17912   0.18330
 Alpha virt. eigenvalues --    0.18459   0.19423   0.19791   0.20539   0.21120
 Alpha virt. eigenvalues --    0.21588   0.22593   0.22849   0.23163   0.23604
 Alpha virt. eigenvalues --    0.24120   0.24905   0.25335   0.25979   0.26213
 Alpha virt. eigenvalues --    0.26736   0.26813   0.27443   0.28302   0.28765
 Alpha virt. eigenvalues --    0.29506   0.29851   0.30304   0.31580   0.31924
 Alpha virt. eigenvalues --    0.32488   0.32706   0.34086   0.34355   0.34862
 Alpha virt. eigenvalues --    0.35093   0.35769   0.36276   0.37929   0.38139
 Alpha virt. eigenvalues --    0.38550   0.38897   0.39048   0.39861   0.40947
 Alpha virt. eigenvalues --    0.42124   0.43379   0.43690   0.44652   0.45394
 Alpha virt. eigenvalues --    0.45911   0.62853   0.65208   0.66868   0.67942
 Alpha virt. eigenvalues --    0.70116   0.70747   0.71113   0.72441   0.74186
 Alpha virt. eigenvalues --    0.74842   0.76646   0.79745   0.80353   0.82285
 Alpha virt. eigenvalues --    0.82559   0.85255   0.86121   0.86512   0.87834
 Alpha virt. eigenvalues --    0.89568   0.91079   0.91921   0.95620   0.96908
 Alpha virt. eigenvalues --    0.98032   0.99867   1.02216   1.03470   1.05114
 Alpha virt. eigenvalues --    1.06313   1.06437   1.07616   1.07753   1.10705
 Alpha virt. eigenvalues --    1.11775   1.13341   1.13763   1.14931   1.15774
 Alpha virt. eigenvalues --    1.18367   1.19092   1.20695   1.22016   1.24554
 Alpha virt. eigenvalues --    1.26559   1.26861   1.28789   1.30056   1.32211
 Alpha virt. eigenvalues --    1.33834   1.35414   1.36569   1.37967   1.41687
 Alpha virt. eigenvalues --    1.43065   1.44196   1.47672   1.48994   1.53464
 Alpha virt. eigenvalues --    1.54187   1.55419   1.58081   1.60169   1.61407
 Alpha virt. eigenvalues --    1.62255   1.63366   1.63866   1.65854   1.67518
 Alpha virt. eigenvalues --    1.71780   1.72669   1.75342   1.78501   1.80415
 Alpha virt. eigenvalues --    1.81937   1.83768   1.84760   1.86988   1.87706
 Alpha virt. eigenvalues --    1.88155   1.89860   1.92316   1.93924   1.95848
 Alpha virt. eigenvalues --    1.98614   1.98896   2.00025   2.01936   2.03177
 Alpha virt. eigenvalues --    2.03577   2.05256   2.08822   2.09201   2.09503
 Alpha virt. eigenvalues --    2.11272   2.12664   2.14999   2.17270   2.18317
 Alpha virt. eigenvalues --    2.18742   2.24256   2.25871   2.26516   2.28427
 Alpha virt. eigenvalues --    2.31309   2.32134   2.34221   2.36769   2.38499
 Alpha virt. eigenvalues --    2.39818   2.41224   2.44097   2.45199   2.45923
 Alpha virt. eigenvalues --    2.48247   2.48533   2.51228   2.52237   2.54372
 Alpha virt. eigenvalues --    2.56567   2.58520   2.60081   2.62461   2.65309
 Alpha virt. eigenvalues --    2.65612   2.66690   2.68289   2.68671   2.69216
 Alpha virt. eigenvalues --    2.71648   2.72661   2.73756   2.75531   2.77390
 Alpha virt. eigenvalues --    2.79591   2.80062   2.81980   2.83476   2.84665
 Alpha virt. eigenvalues --    2.85600   2.89556   2.90534   2.93973   2.94330
 Alpha virt. eigenvalues --    2.97118   2.99912   3.01042   3.01909   3.03495
 Alpha virt. eigenvalues --    3.07077   3.08975   3.11429   3.17052   3.31595
 Alpha virt. eigenvalues --    3.34636   3.35635   3.36317   3.37701   3.43224
 Alpha virt. eigenvalues --    3.47978   3.51471   3.52886   3.54274   3.55865
 Alpha virt. eigenvalues --    3.56122   3.57652   3.58539   3.61280   4.33826
 Alpha virt. eigenvalues --    4.36182   4.40358   4.40617   4.47359   4.47758
 Alpha virt. eigenvalues --    4.57834   4.65977   4.76050   4.78956   4.85951
 Alpha virt. eigenvalues --    4.93467
          Condensed to atoms (all electrons):
              1          2          3          4          5          6
     1  C    6.245010  -1.342216   0.246792  -0.237678   0.156984   0.115114
     2  C   -1.342216  10.146254  -0.709111  -0.323987   0.394841  -0.265238
     3  N    0.246792  -0.709111   7.520780   0.249524  -0.197342  -0.138079
     4  C   -0.237678  -0.323987   0.249524   5.623373   0.139355  -0.186104
     5  C    0.156984   0.394841  -0.197342   0.139355   5.558466  -0.087512
     6  C    0.115114  -0.265238  -0.138079  -0.186104  -0.087512   8.563510
     7  C   -0.048431   0.153523  -0.091010  -0.059276  -0.014847  -1.319454
     8  C    0.181330  -1.306450   0.099700   0.174669  -0.176689   0.307485
     9  H    0.393011  -0.077224   0.014556   0.032602  -0.027723   0.001107
    10  H    0.512117  -0.228299   0.032236   0.022843  -0.080133   0.015146
    11  H    0.112639   0.038697   0.021281   0.018073  -0.029354   0.027684
    12  H    0.042333  -0.023663  -0.042634   0.377484  -0.027324   0.013712
    13  H   -0.013219   0.038922  -0.105961   0.419142  -0.031605  -0.005493
    14  H   -0.018739  -0.043628   0.012992  -0.032554   0.388041   0.006965
    15  H   -0.069181   0.051026   0.004032  -0.019583   0.379326  -0.006582
    16  H   -0.019338   0.069053  -0.083974   0.029094   0.010948   0.249198
    17  H    0.013499  -0.018622   0.045829   0.010581  -0.000118  -0.170542
    18  H    0.056846  -0.283481   0.053259   0.011551  -0.002066  -0.001328
    19  O    0.023350  -0.151778   0.027981  -0.004212  -0.000390   0.013079
    20  H   -0.007148   0.047200  -0.003706  -0.000164   0.000074   0.020071
    21  O   -0.005017   0.033641  -0.007311  -0.006179   0.003950   0.010134
    22  H    0.004825  -0.001894   0.009810   0.002545   0.000317  -0.082026
    23  C    0.068262  -0.202658   0.155764  -0.011267   0.001230  -0.857224
    24  H   -0.000098   0.009277   0.001867  -0.013766  -0.000408  -0.146118
    25  H   -0.000469   0.008131   0.010725   0.017257   0.002625  -0.124440
    26  O   -0.001248   0.009420  -0.016992  -0.010893  -0.003456   0.001018
    27  H   -0.000055  -0.001672  -0.000195   0.000185  -0.000158   0.047710
              7          8          9         10         11         12
     1  C   -0.048431   0.181330   0.393011   0.512117   0.112639   0.042333
     2  C    0.153523  -1.306450  -0.077224  -0.228299   0.038697  -0.023663
     3  N   -0.091010   0.099700   0.014556   0.032236   0.021281  -0.042634
     4  C   -0.059276   0.174669   0.032602   0.022843   0.018073   0.377484
     5  C   -0.014847  -0.176689  -0.027723  -0.080133  -0.029354  -0.027324
     6  C   -1.319454   0.307485   0.001107   0.015146   0.027684   0.013712
     7  C    6.969284  -0.300946  -0.002656  -0.007421  -0.034509  -0.001218
     8  C   -0.300946   6.427746   0.007165   0.047453   0.083214   0.002941
     9  H   -0.002656   0.007165   0.513272  -0.024349  -0.003606  -0.000098
    10  H   -0.007421   0.047453  -0.024349   0.531228   0.004239  -0.000029
    11  H   -0.034509   0.083214  -0.003606   0.004239   0.566894   0.000236
    12  H   -0.001218   0.002941  -0.000098  -0.000029   0.000236   0.542814
    13  H    0.007230  -0.006600  -0.000154   0.000914  -0.000557  -0.041805
    14  H   -0.001577   0.015575  -0.004988   0.004183   0.000859  -0.006026
    15  H    0.001318   0.001556   0.000355  -0.005412  -0.000127   0.000754
    16  H    0.013367  -0.054483  -0.000007  -0.000179  -0.000641  -0.001075
    17  H    0.473075  -0.084310   0.000005  -0.000007   0.001047   0.000009
    18  H   -0.058406   0.514300   0.000365   0.003380   0.004461   0.000013
    19  O   -0.092137   0.285493   0.000568   0.001709   0.009729   0.000058
    20  H   -0.060578   0.005259  -0.000006  -0.000015  -0.000080   0.000000
    21  O    0.262335  -0.097567  -0.000001  -0.000155  -0.000723   0.000000
    22  H    0.092458  -0.058867   0.000000  -0.000001   0.000007   0.000001
    23  C    0.258568  -0.075610   0.000115   0.000995   0.011524  -0.001796
    24  H    0.054139  -0.011068   0.000000   0.000000  -0.000009  -0.000036
    25  H   -0.012341  -0.008217   0.000000   0.000000  -0.000034   0.000036
    26  O    0.017235  -0.006050  -0.000002  -0.000010  -0.000181  -0.002501
    27  H   -0.006108   0.002142   0.000000   0.000000   0.000000   0.000053
             13         14         15         16         17         18
     1  C   -0.013219  -0.018739  -0.069181  -0.019338   0.013499   0.056846
     2  C    0.038922  -0.043628   0.051026   0.069053  -0.018622  -0.283481
     3  N   -0.105961   0.012992   0.004032  -0.083974   0.045829   0.053259
     4  C    0.419142  -0.032554  -0.019583   0.029094   0.010581   0.011551
     5  C   -0.031605   0.388041   0.379326   0.010948  -0.000118  -0.002066
     6  C   -0.005493   0.006965  -0.006582   0.249198  -0.170542  -0.001328
     7  C    0.007230  -0.001577   0.001318   0.013367   0.473075  -0.058406
     8  C   -0.006600   0.015575   0.001556  -0.054483  -0.084310   0.514300
     9  H   -0.000154  -0.004988   0.000355  -0.000007   0.000005   0.000365
    10  H    0.000914   0.004183  -0.005412  -0.000179  -0.000007   0.003380
    11  H   -0.000557   0.000859  -0.000127  -0.000641   0.001047   0.004461
    12  H   -0.041805  -0.006026   0.000754  -0.001075   0.000009   0.000013
    13  H    0.580621   0.003955  -0.004416   0.012534  -0.000025  -0.000315
    14  H    0.003955   0.521803  -0.024396  -0.000015  -0.000003  -0.000008
    15  H   -0.004416  -0.024396   0.514969  -0.000007   0.000000  -0.000026
    16  H    0.012534  -0.000015  -0.000007   0.588037   0.004105   0.000642
    17  H   -0.000025  -0.000003   0.000000   0.004105   0.527387   0.004503
    18  H   -0.000315  -0.000008  -0.000026   0.000642   0.004503   0.571316
    19  O   -0.000244   0.000015  -0.000009  -0.001427  -0.003363  -0.044912
    20  H    0.000001   0.000000   0.000000   0.000027  -0.000146  -0.004234
    21  O    0.000101  -0.000004  -0.000005  -0.006990  -0.059792  -0.011002
    22  H   -0.000018   0.000000   0.000000   0.004735   0.007131   0.005029
    23  C   -0.002478  -0.000660  -0.000157   0.024087   0.058949   0.016786
    24  H    0.000037   0.000000   0.000000  -0.002493  -0.000216  -0.000015
    25  H    0.000008  -0.000001   0.000000   0.004826   0.002781  -0.000003
    26  O    0.000903  -0.000045   0.000001   0.006790   0.000245  -0.000001
    27  H    0.000003   0.000000   0.000000  -0.000092  -0.000009   0.000000
             19         20         21         22         23         24
     1  C    0.023350  -0.007148  -0.005017   0.004825   0.068262  -0.000098
     2  C   -0.151778   0.047200   0.033641  -0.001894  -0.202658   0.009277
     3  N    0.027981  -0.003706  -0.007311   0.009810   0.155764   0.001867
     4  C   -0.004212  -0.000164  -0.006179   0.002545  -0.011267  -0.013766
     5  C   -0.000390   0.000074   0.003950   0.000317   0.001230  -0.000408
     6  C    0.013079   0.020071   0.010134  -0.082026  -0.857224  -0.146118
     7  C   -0.092137  -0.060578   0.262335   0.092458   0.258568   0.054139
     8  C    0.285493   0.005259  -0.097567  -0.058867  -0.075610  -0.011068
     9  H    0.000568  -0.000006  -0.000001   0.000000   0.000115   0.000000
    10  H    0.001709  -0.000015  -0.000155  -0.000001   0.000995   0.000000
    11  H    0.009729  -0.000080  -0.000723   0.000007   0.011524  -0.000009
    12  H    0.000058   0.000000   0.000000   0.000001  -0.001796  -0.000036
    13  H   -0.000244   0.000001   0.000101  -0.000018  -0.002478   0.000037
    14  H    0.000015   0.000000  -0.000004   0.000000  -0.000660   0.000000
    15  H   -0.000009   0.000000  -0.000005   0.000000  -0.000157   0.000000
    16  H   -0.001427   0.000027  -0.006990   0.004735   0.024087  -0.002493
    17  H   -0.003363  -0.000146  -0.059792   0.007131   0.058949  -0.000216
    18  H   -0.044912  -0.004234  -0.011002   0.005029   0.016786  -0.000015
    19  O    8.266596   0.231307  -0.009291  -0.001493  -0.004598  -0.000010
    20  H    0.231307   0.377576   0.010176   0.000005  -0.000968  -0.000001
    21  O   -0.009291   0.010176   8.200887   0.246267  -0.045275   0.008679
    22  H   -0.001493   0.000005   0.246267   0.374011   0.022156  -0.000294
    23  C   -0.004598  -0.000968  -0.045275   0.022156   5.823519   0.470638
    24  H   -0.000010  -0.000001   0.008679  -0.000294   0.470638   0.575945
    25  H   -0.000096   0.000001  -0.000946   0.000053   0.471873  -0.045036
    26  O    0.000026   0.000004  -0.001532   0.000127   0.082832  -0.058076
    27  H    0.000000   0.000000   0.000063  -0.000001  -0.033818  -0.003921
             25         26         27
     1  C   -0.000469  -0.001248  -0.000055
     2  C    0.008131   0.009420  -0.001672
     3  N    0.010725  -0.016992  -0.000195
     4  C    0.017257  -0.010893   0.000185
     5  C    0.002625  -0.003456  -0.000158
     6  C   -0.124440   0.001018   0.047710
     7  C   -0.012341   0.017235  -0.006108
     8  C   -0.008217  -0.006050   0.002142
     9  H    0.000000  -0.000002   0.000000
    10  H    0.000000  -0.000010   0.000000
    11  H   -0.000034  -0.000181   0.000000
    12  H    0.000036  -0.002501   0.000053
    13  H    0.000008   0.000903   0.000003
    14  H   -0.000001  -0.000045   0.000000
    15  H    0.000000   0.000001   0.000000
    16  H    0.004826   0.006790  -0.000092
    17  H    0.002781   0.000245  -0.000009
    18  H   -0.000003  -0.000001   0.000000
    19  O   -0.000096   0.000026   0.000000
    20  H    0.000001   0.000004   0.000000
    21  O   -0.000946  -0.001532   0.000063
    22  H    0.000053   0.000127  -0.000001
    23  C    0.471873   0.082832  -0.033818
    24  H   -0.045036  -0.058076  -0.003921
    25  H    0.562687  -0.047400  -0.004792
    26  O   -0.047400   8.385911   0.229207
    27  H   -0.004792   0.229207   0.379002
 Mulliken atomic charges:
              1
     1  C   -0.409276
     2  C   -0.020065
     3  N   -0.110814
     4  C   -0.222614
     5  C   -0.357030
     6  C   -0.001794
     7  C   -0.191616
     8  C    0.030827
     9  H    0.177694
    10  H    0.169567
    11  H    0.169237
    12  H    0.167763
    13  H    0.148519
    14  H    0.178255
    15  H    0.176566
    16  H    0.153276
    17  H    0.188005
    18  H    0.163343
    19  O   -0.545951
    20  H    0.385347
    21  O   -0.524445
    22  H    0.375115
    23  C   -0.230790
    24  H    0.160980
    25  H    0.162775
    26  O   -0.585333
    27  H    0.392457
 Sum of Mulliken atomic charges =   0.00000
 Mulliken charges with hydrogens summed into heavy atoms:
              1
     1  C   -0.062015
     2  C    0.149173
     3  N   -0.110814
     4  C    0.093668
     5  C   -0.002209
     6  C    0.151482
     7  C   -0.003611
     8  C    0.194170
    19  O   -0.160603
    21  O   -0.149329
    23  C    0.092965
    26  O   -0.192877
 Sum of Mulliken charges with hydrogens summed into heavy atoms =   0.00000
 Electronic spatial extent (au):  <R**2>=           2166.7196
 Charge=              0.0000 electrons
 Dipole moment (field-independent basis, Debye):
    X=             -0.7865    Y=             -0.0392    Z=              2.0801  Tot=              2.2241
 Quadrupole moment (field-independent basis, Debye-Ang):
   XX=            -69.7857   YY=            -76.1615   ZZ=            -70.2250
   XY=             -2.1562   XZ=              6.4534   YZ=              4.6516
 Traceless Quadrupole moment (field-independent basis, Debye-Ang):
   XX=              2.2717   YY=             -4.1041   ZZ=              1.8324
   XY=             -2.1562   XZ=              6.4534   YZ=              4.6516
 Octapole moment (field-independent basis, Debye-Ang**2):
  XXX=            -62.6297  YYY=              8.1585  ZZZ=             10.3683  XYY=             14.4717
  XXY=            -16.9565  XXZ=            -12.7463  XZZ=             -6.9237  YZZ=             11.8393
  YYZ=              9.3056  XYZ=             -0.2000
 Hexadecapole moment (field-independent basis, Debye-Ang**3):
 XXXX=          -1144.5344 YYYY=          -1210.3555 ZZZZ=           -180.5724 XXXY=             43.4757
 XXXZ=             67.4412 YYYX=             74.8575 YYYZ=             21.3383 ZZZX=             -3.0069
 ZZZY=             22.9925 XXYY=           -443.2166 XXZZ=           -250.6736 YYZZ=           -223.4847
 XXYZ=             35.7146 YYXZ=             20.5170 ZZXY=             -8.6044
 N-N= 7.946317428970D+02 E-N=-2.975316872879D+03  KE= 5.886660840297D+02
 1\1\GINC-COMPUTE-3-0\SP\RmPW1PW91\6-31+G(d,p)\C8H15N1O3\MAMICHETTI.IQU
 IR\17-May-2024\0\\# mpw1pw91/6-31+G** nmr scrf=(pcm,solvent=water)\\co
 mment\\0,1\C,0,2.302228,-1.043585,0.239627\C,0,1.300747,-0.115566,-0.4
 65308\N,0,-0.027965,-0.81785,-0.405266\C,0,0.153956,-2.094172,0.311117
 \C,0,1.637022,-2.424721,0.122513\C,0,-1.032019,0.102469,0.154232\C,0,-
 0.438991,1.494245,-0.122347\C,0,1.054133,1.268558,0.136959\H,0,3.29974
 2,-1.002466,-0.208241\H,0,2.395049,-0.764192,1.296503\H,0,1.592385,0.0
 2398,-1.515933\H,0,-0.506939,-2.870362,-0.089589\H,0,-0.07879,-1.98749
 8,1.384562\H,0,1.806919,-2.847955,-0.875166\H,0,2.001788,-3.145157,0.8
 6115\H,0,-1.113465,-0.018885,1.251234\H,0,-0.580296,1.766509,-1.174993
 \H,0,1.207469,1.241527,1.227916\O,0,1.909108,2.243987,-0.453245\H,0,1.
 649761,3.103042,-0.078331\O,0,-1.018505,2.557223,0.625244\H,0,-0.91468
 7,2.335526,1.56746\C,0,-2.424076,-0.068942,-0.428746\H,0,-3.055272,0.7
 67537,-0.094356\H,0,-2.369575,-0.039714,-1.526048\O,0,-2.968079,-1.317
 24,0.018776\H,0,-3.836522,-1.418428,-0.403775\\Version=AM64L-G09RevC.0
 1\State=1-A\HF=-594.1981971\RMSD=6.116e-09\Dipole=-0.3094331,-0.015421
 3,0.8183656\Quadrupole=1.6889232,-3.0512656,1.3623424,-1.6030676,4.797
 9283,3.4583797\PG=C01 [X(C8H15N1O3)]\\@


 We make a living by what we get,
 we make a life by what we give.
                   -- Sir Winston Churchill
 There are more things in heaven and earth, Horatio,
 than are dreamt of in your philosophy.
                   -- Hamlet, Act I, Scene 5
 The chemist is a guest at the physicist's table and
 frequently dines well.
                   -- Richard Bersohn
 Job cpu time:  0 days  0 hours  8 minutes 46.0 seconds.
 File lengths (MBytes):  RWF=    115 Int=      0 D2E=      0 Chk=      7 Scr=      1
 Normal termination of Gaussian 09 at Fri May 17 12:21:26 2024.
