 Entering Gaussian System, Link 0=g09
 Input=/home/mamichetti.iquir/Linux/02_Cardona_A1A3_R__R_R_R_034_OptB.gjc
 Output=/home/mamichetti.iquir/Linux/02_Cardona_A1A3_R__R_R_R_034_OptB.log
 Initial command:
 /opt/ohpc/pub/apps/software/Gaussian/09/AMD64.SSE4a-enabled/g09/l1.exe /local/mamichetti.iquir/Gau-711392.inp -scrdir=/local/mamichetti.iquir/
 Entering Link 1 = /opt/ohpc/pub/apps/software/Gaussian/09/AMD64.SSE4a-enabled/g09/l1.exe PID=    711393.
  
 Copyright (c) 1988,1990,1992,1993,1995,1998,2003,2009,2011,
            Gaussian, Inc.  All Rights Reserved.
  
 This is part of the Gaussian(R) 09 program.  It is based on
 the Gaussian(R) 03 system (copyright 2003, Gaussian, Inc.),
 the Gaussian(R) 98 system (copyright 1998, Gaussian, Inc.),
 the Gaussian(R) 94 system (copyright 1995, Gaussian, Inc.),
 the Gaussian 92(TM) system (copyright 1992, Gaussian, Inc.),
 the Gaussian 90(TM) system (copyright 1990, Gaussian, Inc.),
 the Gaussian 88(TM) system (copyright 1988, Gaussian, Inc.),
 the Gaussian 86(TM) system (copyright 1986, Carnegie Mellon
 University), and the Gaussian 82(TM) system (copyright 1983,
 Carnegie Mellon University). Gaussian is a federally registered
 trademark of Gaussian, Inc.
  
 This software contains proprietary and confidential information,
 including trade secrets, belonging to Gaussian, Inc.
  
 This software is provided under written license and may be
 used, copied, transmitted, or stored only in accord with that
 written license.
  
 The following legend is applicable only to US Government
 contracts under FAR:
  
                    RESTRICTED RIGHTS LEGEND
  
 Use, reproduction and disclosure by the US Government is
 subject to restrictions as set forth in subparagraphs (a)
 and (c) of the Commercial Computer Software - Restricted
 Rights clause in FAR 52.227-19.
  
 Gaussian, Inc.
 340 Quinnipiac St., Bldg. 40, Wallingford CT 06492
  
  
 ---------------------------------------------------------------
 Warning -- This program may not be used in any manner that
 competes with the business of Gaussian, Inc. or will provide
 assistance to any competitor of Gaussian, Inc.  The licensee
 of this program is prohibited from giving any competitor of
 Gaussian, Inc. access to this program.  By using this program,
 the user acknowledges that Gaussian, Inc. is engaged in the
 business of creating and licensing software in the field of
 computational chemistry and represents and warrants to the
 licensee that it is not a competitor of Gaussian, Inc. and that
 it will not use this program in any manner prohibited above.
 ---------------------------------------------------------------
  

 Cite this work as:
 Gaussian 09, Revision C.01,
 M. J. Frisch, G. W. Trucks, H. B. Schlegel, G. E. Scuseria, 
 M. A. Robb, J. R. Cheeseman, G. Scalmani, V. Barone, B. Mennucci, 
 G. A. Petersson, H. Nakatsuji, M. Caricato, X. Li, H. P. Hratchian, 
 A. F. Izmaylov, J. Bloino, G. Zheng, J. L. Sonnenberg, M. Hada, 
 M. Ehara, K. Toyota, R. Fukuda, J. Hasegawa, M. Ishida, T. Nakajima, 
 Y. Honda, O. Kitao, H. Nakai, T. Vreven, J. A. Montgomery, Jr., 
 J. E. Peralta, F. Ogliaro, M. Bearpark, J. J. Heyd, E. Brothers, 
 K. N. Kudin, V. N. Staroverov, T. Keith, R. Kobayashi, J. Normand, 
 K. Raghavachari, A. Rendell, J. C. Burant, S. S. Iyengar, J. Tomasi, 
 M. Cossi, N. Rega, J. M. Millam, M. Klene, J. E. Knox, J. B. Cross, 
 V. Bakken, C. Adamo, J. Jaramillo, R. Gomperts, R. E. Stratmann, 
 O. Yazyev, A. J. Austin, R. Cammi, C. Pomelli, J. W. Ochterski, 
 R. L. Martin, K. Morokuma, V. G. Zakrzewski, G. A. Voth, 
 P. Salvador, J. J. Dannenberg, S. Dapprich, A. D. Daniels, 
 O. Farkas, J. B. Foresman, J. V. Ortiz, J. Cioslowski, 
 and D. J. Fox, Gaussian, Inc., Wallingford CT, 2010.
 
 ******************************************
 Gaussian 09:  AM64L-G09RevC.01 23-Sep-2011
                17-May-2024 
 ******************************************
 %nprocshared=4
 Will use up to    4 processors via shared memory.
 ------------------------------------------------
 # mpw1pw91/6-31+G** nmr scrf=(pcm,solvent=water)
 ------------------------------------------------
 1/38=1/1;
 2/12=2,17=6,18=5,40=1/2;
 3/5=1,6=6,7=111,11=2,16=1,25=1,30=1,70=2201,72=1,74=-7/1,2,8,3;
 4//1;
 5/5=2,38=5,53=1/2;
 8/6=1,10=90,11=11/1;
 10/13=100,45=16/2;
 6/7=2,8=2,9=2,10=2,28=1/1;
 99/9=1/99;
 -------
 comment
 -------
 Charge =  0 Multiplicity = 1
 Symbolic Z-Matrix:
 6                    -2.0117    1.57517  -0.06804 
 6                    -1.20687   0.40778  -0.67203 
 7                     0.24194   0.80164  -0.59339 
 6                     0.30464   2.12179   0.07732 
 6                    -1.0034    2.2612    0.86598 
 6                     0.97869  -0.2733    0.11056 
 6                     0.08992  -1.51021  -0.04746 
 6                    -1.31108  -0.92516   0.08662 
 1                    -2.32522   2.26756  -0.85806 
 1                    -2.91503   1.22441   0.4434 
 1                    -1.49861   0.22596  -1.71415 
 1                     0.37022   2.91608  -0.67873 
 1                     1.20272   2.18847   0.69614 
 1                    -1.26017   3.30156   1.09078 
 1                    -0.93138   1.71792   1.81675 
 1                     1.05708  -0.06432   1.19228 
 1                     0.19994  -1.93394  -1.05744 
 1                    -1.50362  -0.74018   1.15372 
 8                    -2.28126  -1.83285  -0.43361 
 1                    -3.15815  -1.47717  -0.21241 
 8                     0.42499  -2.48929   0.93292 
 1                    -0.11998  -3.27247   0.74697 
 6                     2.39154  -0.48926  -0.42258 
 1                     2.80267  -1.41177   0.01259 
 1                     2.36403  -0.60835  -1.51032 
 8                     3.26818   0.61515  -0.16781 
 1                     3.33623   0.70257   0.798 
 
                          Input orientation:                          
 ---------------------------------------------------------------------
 Center     Atomic      Atomic             Coordinates (Angstroms)
 Number     Number       Type             X           Y           Z
 ---------------------------------------------------------------------
      1          6           0       -2.011703    1.575174   -0.068038
      2          6           0       -1.206873    0.407780   -0.672034
      3          7           0        0.241938    0.801638   -0.593392
      4          6           0        0.304636    2.121794    0.077318
      5          6           0       -1.003403    2.261202    0.865984
      6          6           0        0.978686   -0.273295    0.110556
      7          6           0        0.089918   -1.510213   -0.047455
      8          6           0       -1.311076   -0.925160    0.086618
      9          1           0       -2.325224    2.267557   -0.858063
     10          1           0       -2.915029    1.224409    0.443395
     11          1           0       -1.498614    0.225958   -1.714150
     12          1           0        0.370223    2.916078   -0.678734
     13          1           0        1.202718    2.188474    0.696139
     14          1           0       -1.260169    3.301558    1.090780
     15          1           0       -0.931377    1.717917    1.816747
     16          1           0        1.057082   -0.064322    1.192281
     17          1           0        0.199941   -1.933938   -1.057442
     18          1           0       -1.503615   -0.740181    1.153722
     19          8           0       -2.281256   -1.832848   -0.433606
     20          1           0       -3.158151   -1.477166   -0.212414
     21          8           0        0.424987   -2.489289    0.932920
     22          1           0       -0.119978   -3.272468    0.746973
     23          6           0        2.391543   -0.489259   -0.422582
     24          1           0        2.802665   -1.411774    0.012592
     25          1           0        2.364028   -0.608351   -1.510323
     26          8           0        3.268185    0.615147   -0.167807
     27          1           0        3.336226    0.702572    0.797996
 ---------------------------------------------------------------------
                    Distance matrix (angstroms):
                    1          2          3          4          5
     1  C    0.000000
     2  C    1.541224   0.000000
     3  N    2.439929   1.503450   0.000000
     4  C    2.384397   2.405001   1.482091   0.000000
     5  C    1.536132   2.417038   2.410597   1.533752   0.000000
     6  C    3.520108   2.419293   1.481155   2.488353   3.305000
     7  C    3.733209   2.398012   2.380297   3.640487   4.031537
     8  C    2.601243   1.537251   2.419937   3.448846   3.294689
     9  H    1.096280   2.178092   2.968045   2.795058   2.172462
    10  H    1.095718   2.197467   3.349642   3.362373   2.215363
    11  H    2.189367   1.097350   2.148727   3.171003   3.323333
    12  H    2.800811   2.962910   2.120046   1.098546   2.168378
    13  H    3.360447   3.293766   2.123512   1.092674   2.213844
    14  H    2.210897   3.388850   3.367842   2.206255   1.094898
    15  H    2.177130   2.826020   2.832844   2.171741   1.097404
    16  H    3.700512   2.970529   2.145454   2.566792   3.124121
    17  H    4.264289   2.758860   2.774974   4.212790   4.769361
    18  H    2.666781   2.176983   2.911455   3.552368   3.056355
    19  O    3.438155   2.496309   3.651377   4.752586   4.481416
    20  H    3.263735   2.751683   4.110802   5.002734   4.447615
    21  O    4.843473   3.692134   3.632263   4.691335   4.961043
    22  H    5.267115   4.091350   4.304173   5.452229   5.605007
    23  C    4.876080   3.716921   2.513243   3.379745   4.555337
    24  H    5.666260   4.455994   3.438565   4.327868   5.357722
    25  H    5.098528   3.806125   2.707785   3.770330   5.022028
    26  O    5.367385   4.508147   3.061711   3.333571   4.693046
    27  H    5.487421   4.784103   3.394170   3.424048   4.611543
                    6          7          8          9         10
     6  C    0.000000
     7  C    1.531288   0.000000
     8  C    2.380864   1.524154   0.000000
     9  H    4.279015   4.556484   3.480569   0.000000
    10  H    4.185083   4.092529   2.705661   1.769130   0.000000
    11  H    3.117021   2.883677   2.145462   2.363111   2.767334
    12  H    3.341453   4.479859   4.262351   2.778160   3.861839
    13  H    2.540355   3.933388   4.047887   3.855927   4.236643
    14  H    4.330460   5.125569   4.344661   2.449794   2.733536
    15  H    3.244126   3.865115   3.181725   3.065864   2.462625
    16  H    1.104511   2.136107   2.751673   4.591466   4.242561
    17  H    2.174488   1.100782   2.147016   4.905993   4.683023
    18  H    2.732763   2.138954   1.100000   3.710634   2.521164
    19  O    3.654523   2.423979   1.426808   4.122550   3.243088
    20  H    4.320536   3.252423   1.950850   3.890190   2.790645
    21  O    2.427652   1.425481   2.485285   5.779175   5.018655
    22  H    3.256859   1.944406   2.713787   6.175041   5.303430
    23  C    1.525464   2.545691   3.762802   5.480654   5.643251
    24  H    2.152355   2.715197   4.143083   6.371088   6.310870
    25  H    2.158398   2.850424   4.019574   5.539438   5.919837
    26  O    2.471562   3.825313   4.838069   5.873086   6.243149
    27  H    2.642515   4.018671   4.975237   6.102764   6.283012
                   11         12         13         14         15
    11  H    0.000000
    12  H    3.435314   0.000000
    13  H    4.118028   1.764293   0.000000
    14  H    4.169389   2.436791   2.731393   0.000000
    15  H    3.874911   3.058950   2.455921   1.772865   0.000000
    16  H    3.881132   3.585423   2.311375   4.087677   2.742317
    17  H    2.825156   4.867758   4.590739   5.844416   4.782979
    18  H    3.026242   4.498599   4.013806   4.049553   2.609464
    19  O    2.547745   5.444513   5.439249   5.452384   4.415223
    20  H    2.812455   5.653978   5.768844   5.304418   4.391420
    21  O    4.252033   5.640782   4.747883   6.033124   4.507933
    22  H    4.494079   6.369540   5.619074   6.681022   5.167855
    23  C    4.160890   3.968333   3.136096   5.476820   4.574715
    24  H    4.915771   5.012485   3.998606   6.315426   5.195480
    25  H    3.956971   4.133812   3.746911   5.931941   5.228825
    26  O    5.026432   3.735440   2.736405   5.413579   4.773979
    27  H    5.469343   3.984660   2.601948   5.288412   4.503467
                   16         17         18         19         20
    16  H    0.000000
    17  H    3.048181   0.000000
    18  H    2.648668   3.035853   0.000000
    19  O    4.112869   2.560416   2.078042   0.000000
    20  H    4.662348   3.492778   2.268692   0.971792   0.000000
    21  O    2.519380   2.078606   2.612975   3.101944   3.895518
    22  H    3.446153   2.269344   2.914168   2.852612   3.657052
    23  C    2.137555   2.700604   4.209507   4.862140   5.640854
    24  H    2.500870   2.862132   4.505248   5.120805   5.965420
    25  H    3.050925   2.577897   4.698210   4.923147   5.738804
    26  O    2.683374   4.086980   5.133559   6.071213   6.758517
    27  H    2.436819   4.497790   5.062819   6.285006   6.924530
                   21         22         23         24         25
    21  O    0.000000
    22  H    0.972076   0.000000
    23  C    3.115261   3.927066   0.000000
    24  H    2.767922   3.541658   1.099742   0.000000
    25  H    3.642423   4.285229   1.094587   1.776840   0.000000
    26  O    4.351195   5.237368   1.432873   2.087501   2.028989
    27  H    4.322209   5.267722   1.950051   2.317759   2.827017
                   26         27
    26  O    0.000000
    27  H    0.972136   0.000000
 Stoichiometry    C8H15NO3
 Framework group  C1[X(C8H15NO3)]
 Deg. of freedom    75
 Full point group                 C1      NOp   1
 Largest Abelian subgroup         C1      NOp   1
 Largest concise Abelian subgroup C1      NOp   1
                         Standard orientation:                         
 ---------------------------------------------------------------------
 Center     Atomic      Atomic             Coordinates (Angstroms)
 Number     Number       Type             X           Y           Z
 ---------------------------------------------------------------------
      1          6           0        2.011703   -1.575174   -0.068038
      2          6           0        1.206873   -0.407780   -0.672034
      3          7           0       -0.241938   -0.801638   -0.593392
      4          6           0       -0.304636   -2.121794    0.077318
      5          6           0        1.003403   -2.261202    0.865984
      6          6           0       -0.978686    0.273295    0.110556
      7          6           0       -0.089918    1.510213   -0.047455
      8          6           0        1.311076    0.925160    0.086618
      9          1           0        2.325224   -2.267557   -0.858063
     10          1           0        2.915029   -1.224409    0.443395
     11          1           0        1.498614   -0.225958   -1.714150
     12          1           0       -0.370223   -2.916078   -0.678734
     13          1           0       -1.202718   -2.188474    0.696139
     14          1           0        1.260169   -3.301558    1.090780
     15          1           0        0.931377   -1.717917    1.816747
     16          1           0       -1.057082    0.064322    1.192281
     17          1           0       -0.199941    1.933938   -1.057442
     18          1           0        1.503615    0.740181    1.153722
     19          8           0        2.281256    1.832848   -0.433606
     20          1           0        3.158151    1.477166   -0.212414
     21          8           0       -0.424987    2.489289    0.932920
     22          1           0        0.119978    3.272468    0.746973
     23          6           0       -2.391543    0.489259   -0.422582
     24          1           0       -2.802665    1.411774    0.012592
     25          1           0       -2.364028    0.608351   -1.510323
     26          8           0       -3.268185   -0.615147   -0.167807
     27          1           0       -3.336226   -0.702572    0.797996
 ---------------------------------------------------------------------
 Rotational constants (GHZ):      1.0848769      0.9133660      0.5571053
 Standard basis: 6-31+G(d,p) (6D, 7F)
 There are   303 symmetry adapted basis functions of A   symmetry.
 Integral buffers will be    131072 words long.
 Raffenetti 2 integral format.
 Two-electron integral symmetry is turned on.
   303 basis functions,   489 primitive gaussians,   303 cartesian basis functions
    47 alpha electrons       47 beta electrons
       nuclear repulsion energy       798.7070237813 Hartrees.
 NAtoms=   27 NActive=   27 NUniq=   27 SFac= 1.00D+00 NAtFMM=   60 NAOKFM=F Big=F
 ------------------------------------------------------------------------------
 Polarizable Continuum Model (PCM)
 =================================
 Model                : PCM.
 Atomic radii         : UFF (Universal Force Field).
 Polarization charges : Total charges.
 Charge compensation  : None.
 Solution method      : Matrix inversion.
 Cavity type          : Scaled VdW (van der Waals Surface) (Alpha=1.100).
 Cavity algorithm     : GePol (No added spheres)
                        Default sphere list used, NSphG=   27.
                        Lebedev-Laikov grids with approx.  5.0 points / Ang**2.
                        Smoothing algorithm: Karplus/York (Gamma=1.0000).
                        Polarization charges: spherical gaussians, with
                                              point-specific exponents (IZeta= 3).
                        Self-potential: point-specific (ISelfS= 7).
                        Self-field    : sphere-specific E.n sum rule (ISelfD= 2).
 Solvent              : Water, Eps=  78.355300 Eps(inf)=   1.777849
 ------------------------------------------------------------------------------
 One-electron integrals computed using PRISM.
 NBasis=   303 RedAO= T  NBF=   303
 NBsUse=   303 1.00D-06 NBFU=   303
 Harris functional with IExCor=  908 diagonalized for initial guess.
 ExpMin= 4.38D-02 ExpMax= 5.48D+03 ExpMxC= 8.25D+02 IAcc=2 IRadAn=         4 AccDes= 0.00D+00
 HarFok:  IExCor=  908 AccDes= 0.00D+00 IRadAn=         4 IDoV= 1
 ScaDFX=  1.000000  1.000000  1.000000  1.000000
 FoFCou: FMM=F IPFlag=           0 FMFlag=      100000 FMFlg1=           0
         NFxFlg=           0 DoJE=T BraDBF=F KetDBF=T FulRan=T
         Omega=  0.000000  0.000000  1.000000  0.000000  0.000000 ICntrl=     500 IOpCl=  0
         NMat0=    1 NMatS0=    1 NMatT0=    0 NMatD0=    1 NMtDS0=    0 NMtDT0=    0
         I1Cent=           4 NGrid=           0.
 Petite list used in FoFCou.
 Initial guess orbital symmetries:
       Occupied  (A) (A) (A) (A) (A) (A) (A) (A) (A) (A) (A) (A)
                 (A) (A) (A) (A) (A) (A) (A) (A) (A) (A) (A) (A)
                 (A) (A) (A) (A) (A) (A) (A) (A) (A) (A) (A) (A)
                 (A) (A) (A) (A) (A) (A) (A) (A) (A) (A) (A)
       Virtual   (A) (A) (A) (A) (A) (A) (A) (A) (A) (A) (A) (A)
                 (A) (A) (A) (A) (A) (A) (A) (A) (A) (A) (A) (A)
                 (A) (A) (A) (A) (A) (A) (A) (A) (A) (A) (A) (A)
                 (A) (A) (A) (A) (A) (A) (A) (A) (A) (A) (A) (A)
                 (A) (A) (A) (A) (A) (A) (A) (A) (A) (A) (A) (A)
                 (A) (A) (A) (A) (A) (A) (A) (A) (A) (A) (A) (A)
                 (A) (A) (A) (A) (A) (A) (A) (A) (A) (A) (A) (A)
                 (A) (A) (A) (A) (A) (A) (A) (A) (A) (A) (A) (A)
                 (A) (A) (A) (A) (A) (A) (A) (A) (A) (A) (A) (A)
                 (A) (A) (A) (A) (A) (A) (A) (A) (A) (A) (A) (A)
                 (A) (A) (A) (A) (A) (A) (A) (A) (A) (A) (A) (A)
                 (A) (A) (A) (A) (A) (A) (A) (A) (A) (A) (A) (A)
                 (A) (A) (A) (A) (A) (A) (A) (A) (A) (A) (A) (A)
                 (A) (A) (A) (A) (A) (A) (A) (A) (A) (A) (A) (A)
                 (A) (A) (A) (A) (A) (A) (A) (A) (A) (A) (A) (A)
                 (A) (A) (A) (A) (A) (A) (A) (A) (A) (A) (A) (A)
                 (A) (A) (A) (A) (A) (A) (A) (A) (A) (A) (A) (A)
                 (A) (A) (A) (A) (A) (A) (A) (A) (A) (A) (A) (A)
                 (A) (A) (A) (A) (A) (A) (A) (A) (A) (A) (A) (A)
                 (A) (A) (A) (A) (A) (A) (A) (A) (A) (A) (A) (A)
                 (A) (A) (A) (A) (A) (A) (A) (A) (A) (A) (A) (A)
                 (A) (A) (A) (A)
 The electronic state of the initial guess is 1-A.
 Requested convergence on RMS density matrix=1.00D-08 within 128 cycles.
 Requested convergence on MAX density matrix=1.00D-06.
 Requested convergence on             energy=1.00D-06.
 No special actions if energy rises.
 Error on total polarization charges =  0.01459
 SCF Done:  E(RmPW1PW91) =  -594.197735337     A.U. after   13 cycles
             Convg  =    0.4527D-08             -V/T =  2.0094
 Range of M.O.s used for correlation:     1   303
 NBasis=   303 NAE=    47 NBE=    47 NFC=     0 NFV=     0
 NROrb=    303 NOA=    47 NOB=    47 NVA=   256 NVB=   256

 **** Warning!!: The largest alpha MO coefficient is  0.60437794D+02

 NEqPCM:  Using equilibrium solvation (IEInf=0, Eps=  78.3553, EpsInf=   1.7778)
          Differentiating once with respect to magnetic field using GIAOs.
          Electric field/nuclear overlap derivatives assumed to be zero.
 FoFCou: FMM=F IPFlag=           0 FMFlag=    10101102 FMFlg1=           0
         NFxFlg=    40000000 DoJE=F BraDBF=F KetDBF=T FulRan=T
         Omega=  0.000000  0.000000  1.000000  0.000000  0.000000 ICntrl=    6100 IOpCl=  0
         NMat0=    1 NMatS0=    1 NMatT0=    0 NMatD0=    1 NMtDS0=    0 NMtDT0=    0
         I1Cent=           7 NGrid=        1831.
 Symmetry not used in FoFCou.
          There are     3 degrees of freedom in the 1st order CPHF.  IDoFFX=0.
      3 vectors produced by pass  0 Test12= 4.01D-13 3.33D-08 XBig12= 3.21D+01 9.68D-01.
 AX will form     3 AO Fock derivatives at one time.
      3 vectors produced by pass  1 Test12= 4.01D-13 3.33D-08 XBig12= 7.59D-02 4.40D-02.
      3 vectors produced by pass  2 Test12= 4.01D-13 3.33D-08 XBig12= 1.62D-04 2.70D-03.
      3 vectors produced by pass  3 Test12= 4.01D-13 3.33D-08 XBig12= 8.82D-07 2.08D-04.
      3 vectors produced by pass  4 Test12= 4.01D-13 3.33D-08 XBig12= 2.59D-09 9.97D-06.
      3 vectors produced by pass  5 Test12= 4.01D-13 3.33D-08 XBig12= 8.16D-12 6.99D-07.
 Inverted reduced A of dimension    18 with in-core refinement.
 Calculating GIAO nuclear magnetic shielding tensors.
 SCF GIAO Magnetic shielding tensor (ppm):
      1  C    Isotropic =   164.4678   Anisotropy =    22.4364
   XX=   170.3091   YX=    -0.8071   ZX=     5.5546
   XY=    -6.5450   YY=   167.4874   ZY=   -12.2225
   XZ=    -5.5497   YZ=   -19.3376   ZZ=   155.6068
   Eigenvalues:   144.5149   169.4630   179.4254
      2  C    Isotropic =   126.4024   Anisotropy =    55.7146
   XX=   150.1204   YX=    16.4639   ZX=     0.7267
   XY=    26.0416   YY=   129.2131   ZY=   -10.2845
   XZ=    -4.6571   YZ=     3.3001   ZZ=    99.8737
   Eigenvalues:    99.4560   116.2058   163.5454
      3  N    Isotropic =   194.6395   Anisotropy =    75.4826
   XX=   235.7069   YX=   -12.3526   ZX=   -12.3602
   XY=   -23.5250   YY=   206.4346   ZY=    -9.7510
   XZ=   -13.3306   YZ=    -4.2508   ZZ=   141.7769
   Eigenvalues:   138.7107   200.2466   244.9612
      4  C    Isotropic =   138.6234   Anisotropy =    57.0611
   XX=   130.5274   YX=    -4.2245   ZX=    -4.2899
   XY=     5.8795   YY=   163.2688   ZY=   -25.0492
   XZ=    10.9436   YZ=   -29.0047   ZZ=   122.0741
   Eigenvalues:   108.1884   131.0178   176.6642
      5  C    Isotropic =   171.2630   Anisotropy =    19.6956
   XX=   181.5901   YX=     3.3149   ZX=     5.8972
   XY=     4.6069   YY=   171.4445   ZY=   -13.1807
   XZ=     5.7333   YZ=   -21.7035   ZZ=   160.7543
   Eigenvalues:   146.4499   182.9456   184.3934
      6  C    Isotropic =   124.5923   Anisotropy =    33.5351
   XX=   120.0467   YX=    -5.1751   ZX=    -3.5153
   XY=    -4.5546   YY=   140.3750   ZY=    15.8299
   XZ=   -23.1225   YZ=     4.1519   ZZ=   113.3553
   Eigenvalues:   102.2773   124.5506   146.9491
      7  C    Isotropic =   118.6166   Anisotropy =    42.7371
   XX=   122.9965   YX=    -8.4221   ZX=    -6.5075
   XY=    -8.4538   YY=   128.3958   ZY=    31.5519
   XZ=    -4.8353   YZ=    15.5127   ZZ=   104.4575
   Eigenvalues:    90.0195   118.7222   147.1080
      8  C    Isotropic =   112.6150   Anisotropy =    24.2911
   XX=   126.0611   YX=     8.1841   ZX=   -15.1965
   XY=     0.5825   YY=   117.0682   ZY=    -1.2655
   XZ=     0.1274   YZ=     9.3273   ZZ=    94.7156
   Eigenvalues:    92.0259   117.0100   128.8091
      9  H    Isotropic =    29.8462   Anisotropy =    11.8629
   XX=    28.7910   YX=    -3.8211   ZX=    -3.7922
   XY=    -4.9244   YY=    30.7649   ZY=     3.2567
   XZ=    -4.7605   YZ=     3.1236   ZZ=    29.9828
   Eigenvalues:    24.6020    27.1818    37.7548
     10  H    Isotropic =    29.8840   Anisotropy =     9.4337
   XX=    35.3954   YX=     0.7034   ZX=     2.9305
   XY=     1.2286   YY=    28.1476   ZY=    -0.5147
   XZ=     2.3042   YZ=    -0.1310   ZZ=    26.1090
   Eigenvalues:    25.3099    28.1690    36.1732
     11  H    Isotropic =    28.3211   Anisotropy =     6.9808
   XX=    28.1273   YX=     0.2587   ZX=    -3.0673
   XY=     0.0655   YY=    25.9103   ZY=    -1.1851
   XZ=    -2.7353   YZ=    -1.5929   ZZ=    30.9258
   Eigenvalues:    25.3262    26.6622    32.9750
     12  H    Isotropic =    28.6725   Anisotropy =    11.3738
   XX=    25.2194   YX=     1.2421   ZX=     2.4073
   XY=     2.1520   YY=    34.5570   ZY=     3.7755
   XZ=     3.4560   YZ=     2.6090   ZZ=    26.2412
   Eigenvalues:    22.6961    27.0664    36.2551
     13  H    Isotropic =    28.7086   Anisotropy =     7.4723
   XX=    32.6474   YX=     1.0673   ZX=    -1.3740
   XY=     1.2342   YY=    28.8982   ZY=    -3.8638
   XZ=    -1.6815   YZ=    -2.6034   ZZ=    24.5802
   Eigenvalues:    22.7828    29.6529    33.6902
     14  H    Isotropic =    30.1029   Anisotropy =    12.6178
   XX=    27.3317   YX=    -2.2611   ZX=     0.7163
   XY=    -2.5719   YY=    35.9681   ZY=    -4.6231
   XZ=     1.0058   YZ=    -4.6297   ZZ=    27.0088
   Eigenvalues:    25.0361    26.7577    38.5147
     15  H    Isotropic =    29.9199   Anisotropy =     8.8198
   XX=    27.2171   YX=    -0.0663   ZX=     0.1198
   XY=    -0.3642   YY=    26.8030   ZY=     1.2153
   XZ=     0.1234   YZ=     0.2420   ZZ=    35.7394
   Eigenvalues:    26.6543    27.3055    35.7997
     16  H    Isotropic =    29.0023   Anisotropy =     5.3273
   XX=    29.6044   YX=    -1.8227   ZX=    -1.4173
   XY=    -1.7274   YY=    28.1408   ZY=     2.4374
   XZ=    -2.0228   YZ=     1.0263   ZZ=    29.2617
   Eigenvalues:    26.7422    27.7109    32.5538
     17  H    Isotropic =    27.8753   Anisotropy =     1.8949
   XX=    26.1063   YX=    -1.0961   ZX=     0.0877
   XY=    -0.0555   YY=    28.4648   ZY=     0.7010
   XZ=     0.4246   YZ=    -0.9780   ZZ=    29.0549
   Eigenvalues:    25.9577    28.5296    29.1385
     18  H    Isotropic =    28.0155   Anisotropy =     4.1156
   XX=    26.9134   YX=     2.0879   ZX=    -0.5034
   XY=     2.2444   YY=    29.5160   ZY=    -0.9799
   XZ=     0.6514   YZ=     0.3563   ZZ=    27.6173
   Eigenvalues:    25.6632    27.6241    30.7593
     19  O    Isotropic =   297.8551   Anisotropy =    34.2448
   XX=   319.9002   YX=     7.7231   ZX=    -3.0875
   XY=    -4.9567   YY=   278.6704   ZY=    -8.4296
   XZ=    -2.9645   YZ=   -28.0224   ZZ=   294.9948
   Eigenvalues:   266.8580   306.0224   320.6850
     20  H    Isotropic =    29.7434   Anisotropy =    18.9018
   XX=    41.8168   YX=    -1.5046   ZX=     2.7708
   XY=    -0.9828   YY=    26.3606   ZY=    -3.0050
   XZ=     2.8122   YZ=    -2.2969   ZZ=    21.0526
   Eigenvalues:    19.7490    27.1366    42.3446
     21  O    Isotropic =   298.3636   Anisotropy =    41.3405
   XX=   276.0226   YX=    21.2992   ZX=    15.4683
   XY=    12.3943   YY=   308.5456   ZY=     2.7286
   XZ=    -7.8070   YZ=    21.2644   ZZ=   310.5225
   Eigenvalues:   268.8341   300.3327   325.9240
     22  H    Isotropic =    29.4263   Anisotropy =    19.2258
   XX=    26.4037   YX=     5.9489   ZX=    -3.6252
   XY=     6.9760   YY=    39.6065   ZY=     1.2402
   XZ=    -2.1265   YZ=     1.2650   ZZ=    22.2687
   Eigenvalues:    19.7935    26.2419    42.2435
     23  C    Isotropic =   125.1217   Anisotropy =    48.3771
   XX=   141.6708   YX=    15.7076   ZX=    -0.4667
   XY=    21.7824   YY=   129.5826   ZY=   -16.7514
   XZ=    -3.5354   YZ=   -12.3492   ZZ=   104.1117
   Eigenvalues:    96.5633   121.4288   157.3731
     24  H    Isotropic =    27.5090   Anisotropy =     5.3276
   XX=    30.2103   YX=     0.4501   ZX=    -0.0432
   XY=    -1.4147   YY=    30.7003   ZY=     1.0046
   XZ=    -0.5476   YZ=     0.4624   ZZ=    21.6164
   Eigenvalues:    21.5500    29.9163    31.0608
     25  H    Isotropic =    28.1969   Anisotropy =     5.1001
   XX=    28.5923   YX=     1.4900   ZX=     0.8982
   XY=     1.4480   YY=    27.2086   ZY=    -4.5797
   XZ=     2.0436   YZ=    -2.3941   ZZ=    28.7896
   Eigenvalues:    23.5725    29.4211    31.5969
     26  O    Isotropic =   305.4160   Anisotropy =    83.1490
   XX=   291.3223   YX=     4.3904   ZX=    11.8584
   XY=     9.4797   YY=   270.5124   ZY=   -15.5112
   XZ=    -9.1123   YZ=   -32.6989   ZZ=   354.4132
   Eigenvalues:   262.3615   293.0378   360.8486
     27  H    Isotropic =    31.0544   Anisotropy =    16.0708
   XX=    28.0759   YX=     3.6820   ZX=    -3.6967
   XY=     3.1061   YY=    25.4471   ZY=    -4.0428
   XZ=    -3.5752   YZ=    -2.6389   ZZ=    39.6403
   Eigenvalues:    23.0848    28.3101    41.7683
 End of Minotr Frequency-dependent properties file   721 does not exist.
 End of Minotr Frequency-dependent properties file   722 does not exist.

 **********************************************************************

            Population analysis using the SCF density.

 **********************************************************************

 Orbital symmetries:
       Occupied  (A) (A) (A) (A) (A) (A) (A) (A) (A) (A) (A) (A)
                 (A) (A) (A) (A) (A) (A) (A) (A) (A) (A) (A) (A)
                 (A) (A) (A) (A) (A) (A) (A) (A) (A) (A) (A) (A)
                 (A) (A) (A) (A) (A) (A) (A) (A) (A) (A) (A)
       Virtual   (A) (A) (A) (A) (A) (A) (A) (A) (A) (A) (A) (A)
                 (A) (A) (A) (A) (A) (A) (A) (A) (A) (A) (A) (A)
                 (A) (A) (A) (A) (A) (A) (A) (A) (A) (A) (A) (A)
                 (A) (A) (A) (A) (A) (A) (A) (A) (A) (A) (A) (A)
                 (A) (A) (A) (A) (A) (A) (A) (A) (A) (A) (A) (A)
                 (A) (A) (A) (A) (A) (A) (A) (A) (A) (A) (A) (A)
                 (A) (A) (A) (A) (A) (A) (A) (A) (A) (A) (A) (A)
                 (A) (A) (A) (A) (A) (A) (A) (A) (A) (A) (A) (A)
                 (A) (A) (A) (A) (A) (A) (A) (A) (A) (A) (A) (A)
                 (A) (A) (A) (A) (A) (A) (A) (A) (A) (A) (A) (A)
                 (A) (A) (A) (A) (A) (A) (A) (A) (A) (A) (A) (A)
                 (A) (A) (A) (A) (A) (A) (A) (A) (A) (A) (A) (A)
                 (A) (A) (A) (A) (A) (A) (A) (A) (A) (A) (A) (A)
                 (A) (A) (A) (A) (A) (A) (A) (A) (A) (A) (A) (A)
                 (A) (A) (A) (A) (A) (A) (A) (A) (A) (A) (A) (A)
                 (A) (A) (A) (A) (A) (A) (A) (A) (A) (A) (A) (A)
                 (A) (A) (A) (A) (A) (A) (A) (A) (A) (A) (A) (A)
                 (A) (A) (A) (A) (A) (A) (A) (A) (A) (A) (A) (A)
                 (A) (A) (A) (A) (A) (A) (A) (A) (A) (A) (A) (A)
                 (A) (A) (A) (A) (A) (A) (A) (A) (A) (A) (A) (A)
                 (A) (A) (A) (A) (A) (A) (A) (A) (A) (A) (A) (A)
                 (A) (A) (A) (A)
 The electronic state is 1-A.
 Alpha  occ. eigenvalues --  -19.26231 -19.26190 -19.25564 -14.41320 -10.30810
 Alpha  occ. eigenvalues --  -10.30305 -10.29352 -10.28316 -10.27675 -10.26726
 Alpha  occ. eigenvalues --  -10.24760 -10.24482  -1.07474  -1.05786  -1.05566
 Alpha  occ. eigenvalues --   -0.96585  -0.82987  -0.79363  -0.75455  -0.71797
 Alpha  occ. eigenvalues --   -0.66213  -0.61793  -0.60423  -0.58802  -0.56175
 Alpha  occ. eigenvalues --   -0.53548  -0.51695  -0.49864  -0.49394  -0.47109
 Alpha  occ. eigenvalues --   -0.46416  -0.44663  -0.42892  -0.41888  -0.41520
 Alpha  occ. eigenvalues --   -0.40223  -0.38491  -0.37671  -0.35858  -0.35593
 Alpha  occ. eigenvalues --   -0.35081  -0.34776  -0.33587  -0.31240  -0.29863
 Alpha  occ. eigenvalues --   -0.28961  -0.23149
 Alpha virt. eigenvalues --    0.00677   0.01267   0.01817   0.01985   0.03061
 Alpha virt. eigenvalues --    0.04221   0.04597   0.05034   0.05483   0.06846
 Alpha virt. eigenvalues --    0.07856   0.08122   0.08241   0.09017   0.09371
 Alpha virt. eigenvalues --    0.10358   0.11288   0.11773   0.12256   0.12491
 Alpha virt. eigenvalues --    0.13008   0.13721   0.14168   0.14767   0.14996
 Alpha virt. eigenvalues --    0.15435   0.15726   0.16810   0.17349   0.17962
 Alpha virt. eigenvalues --    0.18566   0.19379   0.19826   0.20510   0.21705
 Alpha virt. eigenvalues --    0.21787   0.22003   0.22181   0.22735   0.23515
 Alpha virt. eigenvalues --    0.24142   0.24424   0.24918   0.25347   0.26178
 Alpha virt. eigenvalues --    0.26933   0.27200   0.27716   0.28045   0.29453
 Alpha virt. eigenvalues --    0.29574   0.29820   0.31041   0.31465   0.31912
 Alpha virt. eigenvalues --    0.32551   0.32818   0.33001   0.33255   0.34541
 Alpha virt. eigenvalues --    0.35139   0.35370   0.36430   0.37198   0.38505
 Alpha virt. eigenvalues --    0.39209   0.39447   0.40564   0.41014   0.41491
 Alpha virt. eigenvalues --    0.41998   0.42797   0.43458   0.45689   0.46252
 Alpha virt. eigenvalues --    0.47586   0.63966   0.64572   0.66712   0.68355
 Alpha virt. eigenvalues --    0.69134   0.70679   0.71818   0.72018   0.75075
 Alpha virt. eigenvalues --    0.77017   0.78351   0.79294   0.80676   0.82253
 Alpha virt. eigenvalues --    0.82883   0.83980   0.85520   0.86463   0.87634
 Alpha virt. eigenvalues --    0.88172   0.91287   0.92349   0.94906   0.96368
 Alpha virt. eigenvalues --    0.98403   1.00510   1.02874   1.03312   1.04953
 Alpha virt. eigenvalues --    1.06070   1.07318   1.08768   1.09114   1.10325
 Alpha virt. eigenvalues --    1.10924   1.12465   1.13199   1.13976   1.15480
 Alpha virt. eigenvalues --    1.16903   1.19053   1.20744   1.21411   1.25256
 Alpha virt. eigenvalues --    1.26963   1.27625   1.28511   1.31058   1.33215
 Alpha virt. eigenvalues --    1.33601   1.34412   1.36992   1.38480   1.40904
 Alpha virt. eigenvalues --    1.44597   1.46428   1.48654   1.50780   1.53541
 Alpha virt. eigenvalues --    1.54711   1.55318   1.57426   1.59517   1.60886
 Alpha virt. eigenvalues --    1.61930   1.63189   1.65924   1.69811   1.70784
 Alpha virt. eigenvalues --    1.72047   1.75466   1.75547   1.77745   1.79971
 Alpha virt. eigenvalues --    1.81027   1.82858   1.83376   1.84282   1.85596
 Alpha virt. eigenvalues --    1.86683   1.88540   1.92092   1.92397   1.93858
 Alpha virt. eigenvalues --    1.95227   1.99998   2.01431   2.03513   2.03815
 Alpha virt. eigenvalues --    2.04641   2.05572   2.07310   2.08704   2.11799
 Alpha virt. eigenvalues --    2.13336   2.15604   2.16458   2.17983   2.19583
 Alpha virt. eigenvalues --    2.21456   2.21648   2.24739   2.29482   2.30314
 Alpha virt. eigenvalues --    2.31511   2.32875   2.34309   2.35516   2.38186
 Alpha virt. eigenvalues --    2.39996   2.41411   2.42960   2.45230   2.47005
 Alpha virt. eigenvalues --    2.48777   2.49160   2.49769   2.52230   2.54618
 Alpha virt. eigenvalues --    2.56453   2.58509   2.59630   2.60980   2.64249
 Alpha virt. eigenvalues --    2.65480   2.67065   2.67648   2.68147   2.69526
 Alpha virt. eigenvalues --    2.70968   2.72038   2.73759   2.74463   2.76956
 Alpha virt. eigenvalues --    2.79163   2.80848   2.81143   2.84452   2.85726
 Alpha virt. eigenvalues --    2.87392   2.88405   2.92267   2.93110   2.96476
 Alpha virt. eigenvalues --    2.98489   3.00516   3.00696   3.02676   3.03542
 Alpha virt. eigenvalues --    3.06239   3.07390   3.10743   3.17836   3.32260
 Alpha virt. eigenvalues --    3.34008   3.36467   3.37815   3.39297   3.42693
 Alpha virt. eigenvalues --    3.46042   3.50407   3.52889   3.54073   3.56012
 Alpha virt. eigenvalues --    3.56438   3.58359   3.59036   3.62088   4.30758
 Alpha virt. eigenvalues --    4.36208   4.39092   4.42844   4.47585   4.55025
 Alpha virt. eigenvalues --    4.58954   4.65411   4.76985   4.79759   4.88300
 Alpha virt. eigenvalues --    4.93430
          Condensed to atoms (all electrons):
              1          2          3          4          5          6
     1  C    5.851883  -0.530769   0.050938  -0.073896   0.268303   0.070027
     2  C   -0.530769   7.863860  -0.310249   0.016006  -0.151387  -0.158710
     3  N    0.050938  -0.310249   7.432550   0.149891  -0.122879  -0.209462
     4  C   -0.073896   0.016006   0.149891   6.061601  -0.035913  -0.395942
     5  C    0.268303  -0.151387  -0.122879  -0.035913   5.495412   0.097777
     6  C    0.070027  -0.158710  -0.209462  -0.395942   0.097777   8.417927
     7  C   -0.250668   0.120257  -0.129571  -0.352632   0.133218  -0.409091
     8  C    0.152976  -0.549047   0.006683  -0.059853   0.014947  -0.190395
     9  H    0.437970  -0.082490   0.011629  -0.003418  -0.048401   0.008720
    10  H    0.395896  -0.116567   0.017203   0.026688  -0.023491   0.001465
    11  H    0.058650   0.165969   0.004675  -0.011518   0.015100   0.014884
    12  H    0.007313  -0.034594  -0.024341   0.368862  -0.037236   0.011415
    13  H    0.015885   0.026086  -0.073818   0.380699  -0.027611   0.047711
    14  H   -0.041337   0.027127   0.011820  -0.027246   0.360748   0.000753
    15  H   -0.050543  -0.004745   0.012799  -0.084153   0.424827   0.012537
    16  H    0.003266   0.053840  -0.070445   0.069005  -0.017767   0.286172
    17  H    0.015136  -0.010712   0.045324   0.013330  -0.003232  -0.119295
    18  H    0.076984  -0.223031   0.051245   0.015509  -0.016583   0.023846
    19  O   -0.002895  -0.162702   0.025111   0.002499  -0.003670  -0.008959
    20  H   -0.025912   0.016267  -0.002907  -0.000921   0.003412  -0.005873
    21  O   -0.006949   0.032724   0.017946   0.002298   0.002223  -0.145304
    22  H    0.000131   0.000327  -0.004212  -0.001138   0.000068   0.045104
    23  C    0.064716  -0.145518   0.247214   0.202479  -0.080386  -0.988833
    24  H   -0.000009   0.010971   0.006021  -0.011300   0.001837  -0.105533
    25  H    0.002143  -0.002654   0.002407   0.014484  -0.002944  -0.137217
    26  O    0.003187  -0.006134   0.005429  -0.062782   0.013724  -0.044729
    27  H   -0.000047  -0.004673  -0.012266  -0.001331  -0.000134   0.000534
              7          8          9         10         11         12
     1  C   -0.250668   0.152976   0.437970   0.395896   0.058650   0.007313
     2  C    0.120257  -0.549047  -0.082490  -0.116567   0.165969  -0.034594
     3  N   -0.129571   0.006683   0.011629   0.017203   0.004675  -0.024341
     4  C   -0.352632  -0.059853  -0.003418   0.026688  -0.011518   0.368862
     5  C    0.133218   0.014947  -0.048401  -0.023491   0.015100  -0.037236
     6  C   -0.409091  -0.190395   0.008720   0.001465   0.014884   0.011415
     7  C    6.689702  -0.000050  -0.002378  -0.003572  -0.027747   0.007279
     8  C   -0.000050   6.155614   0.008494   0.031028   0.023041   0.006759
     9  H   -0.002378   0.008494   0.519862  -0.024217  -0.006169   0.001562
    10  H   -0.003572   0.031028  -0.024217   0.521036   0.002667  -0.000026
    11  H   -0.027747   0.023041  -0.006169   0.002667   0.563504   0.000788
    12  H    0.007279   0.006759   0.001562  -0.000026   0.000788   0.551939
    13  H    0.005150  -0.001926  -0.000105  -0.000142  -0.000180  -0.028981
    14  H    0.002736   0.005304  -0.004854   0.000677  -0.000053  -0.002562
    15  H    0.009605   0.008000   0.004155  -0.005245  -0.000098   0.004132
    16  H   -0.042375  -0.027482   0.000001  -0.000028  -0.000557  -0.000364
    17  H    0.336975  -0.034368   0.000007  -0.000006   0.000747   0.000009
    18  H   -0.156608   0.514903   0.000147   0.000662   0.004397   0.000016
    19  O   -0.143086   0.396845  -0.000078   0.000631   0.006069   0.000067
    20  H    0.053764  -0.031655  -0.000102   0.000849  -0.000320   0.000000
    21  O    0.266820  -0.124219   0.000022  -0.000033  -0.000474   0.000010
    22  H    0.016157  -0.032942   0.000000  -0.000001  -0.000001   0.000000
    23  C   -0.203287  -0.072215   0.000113   0.000073   0.016504   0.007054
    24  H    0.055127  -0.007374   0.000000   0.000000  -0.000008  -0.000003
    25  H   -0.000059  -0.001112   0.000000   0.000000  -0.000038   0.000013
    26  O    0.022272   0.010918  -0.000015  -0.000004  -0.000019  -0.000335
    27  H    0.013305   0.001716   0.000000   0.000000   0.000000  -0.000005
             13         14         15         16         17         18
     1  C    0.015885  -0.041337  -0.050543   0.003266   0.015136   0.076984
     2  C    0.026086   0.027127  -0.004745   0.053840  -0.010712  -0.223031
     3  N   -0.073818   0.011820   0.012799  -0.070445   0.045324   0.051245
     4  C    0.380699  -0.027246  -0.084153   0.069005   0.013330   0.015509
     5  C   -0.027611   0.360748   0.424827  -0.017767  -0.003232  -0.016583
     6  C    0.047711   0.000753   0.012537   0.286172  -0.119295   0.023846
     7  C    0.005150   0.002736   0.009605  -0.042375   0.336975  -0.156608
     8  C   -0.001926   0.005304   0.008000  -0.027482  -0.034368   0.514903
     9  H   -0.000105  -0.004854   0.004155   0.000001   0.000007   0.000147
    10  H   -0.000142   0.000677  -0.005245  -0.000028  -0.000006   0.000662
    11  H   -0.000180  -0.000053  -0.000098  -0.000557   0.000747   0.004397
    12  H   -0.028981  -0.002562   0.004132  -0.000364   0.000009   0.000016
    13  H    0.530100   0.000936  -0.005673   0.002112  -0.000015  -0.000014
    14  H    0.000936   0.517144  -0.023164  -0.000135   0.000000  -0.000044
    15  H   -0.005673  -0.023164   0.523361   0.000160   0.000002  -0.000132
    16  H    0.002112  -0.000135   0.000160   0.569386   0.004124   0.000223
    17  H   -0.000015   0.000000   0.000002   0.004124   0.555600   0.004539
    18  H   -0.000014  -0.000044  -0.000132   0.000223   0.004539   0.556304
    19  O   -0.000020  -0.000007  -0.000058  -0.000883   0.001398  -0.041926
    20  H    0.000000   0.000000  -0.000005   0.000005  -0.000005  -0.005752
    21  O   -0.000100  -0.000011  -0.000022   0.001248  -0.040238  -0.002411
    22  H    0.000000   0.000000   0.000000   0.000035  -0.006183  -0.000451
    23  C   -0.036553  -0.000910   0.000675   0.001521   0.058206   0.020066
    24  H   -0.000010   0.000000   0.000000  -0.002640  -0.000105  -0.000020
    25  H    0.000054   0.000000   0.000001   0.004510   0.002306  -0.000002
    26  O    0.002225   0.000019  -0.000189  -0.007319   0.000280   0.000015
    27  H    0.000362   0.000000   0.000004   0.005047   0.000007   0.000000
             19         20         21         22         23         24
     1  C   -0.002895  -0.025912  -0.006949   0.000131   0.064716  -0.000009
     2  C   -0.162702   0.016267   0.032724   0.000327  -0.145518   0.010971
     3  N    0.025111  -0.002907   0.017946  -0.004212   0.247214   0.006021
     4  C    0.002499  -0.000921   0.002298  -0.001138   0.202479  -0.011300
     5  C   -0.003670   0.003412   0.002223   0.000068  -0.080386   0.001837
     6  C   -0.008959  -0.005873  -0.145304   0.045104  -0.988833  -0.105533
     7  C   -0.143086   0.053764   0.266820   0.016157  -0.203287   0.055127
     8  C    0.396845  -0.031655  -0.124219  -0.032942  -0.072215  -0.007374
     9  H   -0.000078  -0.000102   0.000022   0.000000   0.000113   0.000000
    10  H    0.000631   0.000849  -0.000033  -0.000001   0.000073   0.000000
    11  H    0.006069  -0.000320  -0.000474  -0.000001   0.016504  -0.000008
    12  H    0.000067   0.000000   0.000010   0.000000   0.007054  -0.000003
    13  H   -0.000020   0.000000  -0.000100   0.000000  -0.036553  -0.000010
    14  H   -0.000007   0.000000  -0.000011   0.000000  -0.000910   0.000000
    15  H   -0.000058  -0.000005  -0.000022   0.000000   0.000675   0.000000
    16  H   -0.000883   0.000005   0.001248   0.000035   0.001521  -0.002640
    17  H    0.001398  -0.000005  -0.040238  -0.006183   0.058206  -0.000105
    18  H   -0.041926  -0.005752  -0.002411  -0.000451   0.020066  -0.000020
    19  O    8.237614   0.240401  -0.005168   0.006957   0.004382  -0.000042
    20  H    0.240401   0.369347   0.000257  -0.000307   0.000508   0.000000
    21  O   -0.005168   0.000257   8.274656   0.233827   0.040701   0.005203
    22  H    0.006957  -0.000307   0.233827   0.369876  -0.016214  -0.000071
    23  C    0.004382   0.000508   0.040701  -0.016214   6.079861   0.404839
    24  H   -0.000042   0.000000   0.005203  -0.000071   0.404839   0.571294
    25  H   -0.000056   0.000000   0.000473  -0.000006   0.501427  -0.034326
    26  O    0.000047  -0.000001  -0.000209   0.000002   0.191860  -0.050978
    27  H   -0.000002   0.000000  -0.000201   0.000000  -0.011496  -0.006577
             25         26         27
     1  C    0.002143   0.003187  -0.000047
     2  C   -0.002654  -0.006134  -0.004673
     3  N    0.002407   0.005429  -0.012266
     4  C    0.014484  -0.062782  -0.001331
     5  C   -0.002944   0.013724  -0.000134
     6  C   -0.137217  -0.044729   0.000534
     7  C   -0.000059   0.022272   0.013305
     8  C   -0.001112   0.010918   0.001716
     9  H    0.000000  -0.000015   0.000000
    10  H    0.000000  -0.000004   0.000000
    11  H   -0.000038  -0.000019   0.000000
    12  H    0.000013  -0.000335  -0.000005
    13  H    0.000054   0.002225   0.000362
    14  H    0.000000   0.000019   0.000000
    15  H    0.000001  -0.000189   0.000004
    16  H    0.004510  -0.007319   0.005047
    17  H    0.002306   0.000280   0.000007
    18  H   -0.000002   0.000015   0.000000
    19  O   -0.000056   0.000047  -0.000002
    20  H    0.000000  -0.000001   0.000000
    21  O    0.000473  -0.000209  -0.000201
    22  H   -0.000006   0.000002   0.000000
    23  C    0.501427   0.191860  -0.011496
    24  H   -0.034326  -0.050978  -0.006577
    25  H    0.529684  -0.053368   0.006274
    26  O   -0.053368   8.258719   0.262405
    27  H    0.006274   0.262405   0.371933
 Mulliken atomic charges:
              1
     1  C   -0.492379
     2  C    0.160548
     3  N   -0.138736
     4  C   -0.201305
     5  C   -0.259964
     6  C   -0.119530
     7  C   -0.011244
     8  C   -0.204587
     9  H    0.179545
    10  H    0.174458
    11  H    0.170187
    12  H    0.161227
    13  H    0.163829
    14  H    0.173060
    15  H    0.173767
    16  H    0.169341
    17  H    0.176170
    18  H    0.178118
    19  O   -0.552469
    20  H    0.388951
    21  O   -0.553071
    22  H    0.389041
    23  C   -0.286789
    24  H    0.163703
    25  H    0.168006
    26  O   -0.545022
    27  H    0.375144
 Sum of Mulliken atomic charges =   0.00000
 Mulliken charges with hydrogens summed into heavy atoms:
              1
     1  C   -0.138376
     2  C    0.330735
     3  N   -0.138736
     4  C    0.123751
     5  C    0.086863
     6  C    0.049811
     7  C    0.164925
     8  C   -0.026469
    19  O   -0.163517
    21  O   -0.164030
    23  C    0.044920
    26  O   -0.169878
 Sum of Mulliken charges with hydrogens summed into heavy atoms =   0.00000
 Electronic spatial extent (au):  <R**2>=           2112.2991
 Charge=              0.0000 electrons
 Dipole moment (field-independent basis, Debye):
    X=              3.8241    Y=             -0.5223    Z=              2.4794  Tot=              4.5874
 Quadrupole moment (field-independent basis, Debye-Ang):
   XX=            -73.0881   YY=            -72.1272   ZZ=            -75.2201
   XY=             -3.6299   XZ=             -3.3898   YZ=             -3.9962
 Traceless Quadrupole moment (field-independent basis, Debye-Ang):
   XX=              0.3904   YY=              1.3513   ZZ=             -1.7417
   XY=             -3.6299   XZ=             -3.3898   YZ=             -3.9962
 Octapole moment (field-independent basis, Debye-Ang**2):
  XXX=             56.3782  YYY=             15.7708  ZZZ=              2.1188  XYY=              2.5829
  XXY=             11.4972  XXZ=             25.5084  XZZ=             -5.3168  YZZ=             -0.8658
  YYZ=              2.4902  XYZ=             16.1328
 Hexadecapole moment (field-independent basis, Debye-Ang**3):
 XXXX=          -1318.7176 YYYY=          -1030.5347 ZZZZ=           -248.8478 XXXY=              9.9318
 XXXZ=            -73.6149 YYYX=             10.5633 YYYZ=             15.9805 ZZZX=             -5.3939
 ZZZY=             -3.9785 XXYY=           -433.6417 XXZZ=           -247.2388 YYZZ=           -241.2139
 XXYZ=            -11.3612 YYXZ=             10.4040 ZZXY=              5.6476
 N-N= 7.987070237813D+02 E-N=-2.983315775246D+03  KE= 5.886622979168D+02
 1\1\GINC-COMPUTE-3-0\SP\RmPW1PW91\6-31+G(d,p)\C8H15N1O3\MAMICHETTI.IQU
 IR\17-May-2024\0\\# mpw1pw91/6-31+G** nmr scrf=(pcm,solvent=water)\\co
 mment\\0,1\C,0,-2.011703,1.575174,-0.068038\C,0,-1.206873,0.40778,-0.6
 72034\N,0,0.241938,0.801638,-0.593392\C,0,0.304636,2.121794,0.077318\C
 ,0,-1.003403,2.261202,0.865984\C,0,0.978686,-0.273295,0.110556\C,0,0.0
 89918,-1.510213,-0.047455\C,0,-1.311076,-0.92516,0.086618\H,0,-2.32522
 4,2.267557,-0.858063\H,0,-2.915029,1.224409,0.443395\H,0,-1.498614,0.2
 25958,-1.71415\H,0,0.370223,2.916078,-0.678734\H,0,1.202718,2.188474,0
 .696139\H,0,-1.260169,3.301558,1.09078\H,0,-0.931377,1.717917,1.816747
 \H,0,1.057082,-0.064322,1.192281\H,0,0.199941,-1.933938,-1.057442\H,0,
 -1.503615,-0.740181,1.153722\O,0,-2.281256,-1.832848,-0.433606\H,0,-3.
 158151,-1.477166,-0.212414\O,0,0.424987,-2.489289,0.93292\H,0,-0.11997
 8,-3.272468,0.746973\C,0,2.391543,-0.489259,-0.422582\H,0,2.802665,-1.
 411774,0.012592\H,0,2.364028,-0.608351,-1.510323\O,0,3.268185,0.615147
 ,-0.167807\H,0,3.336226,0.702572,0.797996\\Version=AM64L-G09RevC.01\St
 ate=1-A\HF=-594.1977353\RMSD=4.527e-09\Dipole=-1.504513,0.2055047,0.97
 54811\Quadrupole=0.290248,1.0046504,-1.2948983,-2.6987483,2.5202037,2.
 9710717\PG=C01 [X(C8H15N1O3)]\\@


 YOU CAN LEAD A BOY TO COLLEGE....
 BUT YOU CANNOT MAKE HIM THINK....
           ELBERT HUBBARD
 Job cpu time:  0 days  0 hours  8 minutes 34.8 seconds.
 File lengths (MBytes):  RWF=    113 Int=      0 D2E=      0 Chk=      7 Scr=      1
 Normal termination of Gaussian 09 at Fri May 17 12:21:33 2024.
