 Entering Gaussian System, Link 0=g09
 Input=/home/mamichetti.iquir/Linux/02_Cardona_A1A3_R__R_R_R_023_OptB.gjc
 Output=/home/mamichetti.iquir/Linux/02_Cardona_A1A3_R__R_R_R_023_OptB.log
 Initial command:
 /opt/ohpc/pub/apps/software/Gaussian/09/AMD64.SSE4a-enabled/g09/l1.exe /local/mamichetti.iquir/Gau-712659.inp -scrdir=/local/mamichetti.iquir/
 Entering Link 1 = /opt/ohpc/pub/apps/software/Gaussian/09/AMD64.SSE4a-enabled/g09/l1.exe PID=    712660.
  
 Copyright (c) 1988,1990,1992,1993,1995,1998,2003,2009,2011,
            Gaussian, Inc.  All Rights Reserved.
  
 This is part of the Gaussian(R) 09 program.  It is based on
 the Gaussian(R) 03 system (copyright 2003, Gaussian, Inc.),
 the Gaussian(R) 98 system (copyright 1998, Gaussian, Inc.),
 the Gaussian(R) 94 system (copyright 1995, Gaussian, Inc.),
 the Gaussian 92(TM) system (copyright 1992, Gaussian, Inc.),
 the Gaussian 90(TM) system (copyright 1990, Gaussian, Inc.),
 the Gaussian 88(TM) system (copyright 1988, Gaussian, Inc.),
 the Gaussian 86(TM) system (copyright 1986, Carnegie Mellon
 University), and the Gaussian 82(TM) system (copyright 1983,
 Carnegie Mellon University). Gaussian is a federally registered
 trademark of Gaussian, Inc.
  
 This software contains proprietary and confidential information,
 including trade secrets, belonging to Gaussian, Inc.
  
 This software is provided under written license and may be
 used, copied, transmitted, or stored only in accord with that
 written license.
  
 The following legend is applicable only to US Government
 contracts under FAR:
  
                    RESTRICTED RIGHTS LEGEND
  
 Use, reproduction and disclosure by the US Government is
 subject to restrictions as set forth in subparagraphs (a)
 and (c) of the Commercial Computer Software - Restricted
 Rights clause in FAR 52.227-19.
  
 Gaussian, Inc.
 340 Quinnipiac St., Bldg. 40, Wallingford CT 06492
  
  
 ---------------------------------------------------------------
 Warning -- This program may not be used in any manner that
 competes with the business of Gaussian, Inc. or will provide
 assistance to any competitor of Gaussian, Inc.  The licensee
 of this program is prohibited from giving any competitor of
 Gaussian, Inc. access to this program.  By using this program,
 the user acknowledges that Gaussian, Inc. is engaged in the
 business of creating and licensing software in the field of
 computational chemistry and represents and warrants to the
 licensee that it is not a competitor of Gaussian, Inc. and that
 it will not use this program in any manner prohibited above.
 ---------------------------------------------------------------
  

 Cite this work as:
 Gaussian 09, Revision C.01,
 M. J. Frisch, G. W. Trucks, H. B. Schlegel, G. E. Scuseria, 
 M. A. Robb, J. R. Cheeseman, G. Scalmani, V. Barone, B. Mennucci, 
 G. A. Petersson, H. Nakatsuji, M. Caricato, X. Li, H. P. Hratchian, 
 A. F. Izmaylov, J. Bloino, G. Zheng, J. L. Sonnenberg, M. Hada, 
 M. Ehara, K. Toyota, R. Fukuda, J. Hasegawa, M. Ishida, T. Nakajima, 
 Y. Honda, O. Kitao, H. Nakai, T. Vreven, J. A. Montgomery, Jr., 
 J. E. Peralta, F. Ogliaro, M. Bearpark, J. J. Heyd, E. Brothers, 
 K. N. Kudin, V. N. Staroverov, T. Keith, R. Kobayashi, J. Normand, 
 K. Raghavachari, A. Rendell, J. C. Burant, S. S. Iyengar, J. Tomasi, 
 M. Cossi, N. Rega, J. M. Millam, M. Klene, J. E. Knox, J. B. Cross, 
 V. Bakken, C. Adamo, J. Jaramillo, R. Gomperts, R. E. Stratmann, 
 O. Yazyev, A. J. Austin, R. Cammi, C. Pomelli, J. W. Ochterski, 
 R. L. Martin, K. Morokuma, V. G. Zakrzewski, G. A. Voth, 
 P. Salvador, J. J. Dannenberg, S. Dapprich, A. D. Daniels, 
 O. Farkas, J. B. Foresman, J. V. Ortiz, J. Cioslowski, 
 and D. J. Fox, Gaussian, Inc., Wallingford CT, 2010.
 
 ******************************************
 Gaussian 09:  AM64L-G09RevC.01 23-Sep-2011
                17-May-2024 
 ******************************************
 %nprocshared=4
 Will use up to    4 processors via shared memory.
 ------------------------------------------------
 # mpw1pw91/6-31+G** nmr scrf=(pcm,solvent=water)
 ------------------------------------------------
 1/38=1/1;
 2/12=2,17=6,18=5,40=1/2;
 3/5=1,6=6,7=111,11=2,16=1,25=1,30=1,70=2201,72=1,74=-7/1,2,8,3;
 4//1;
 5/5=2,38=5,53=1/2;
 8/6=1,10=90,11=11/1;
 10/13=100,45=16/2;
 6/7=2,8=2,9=2,10=2,28=1/1;
 99/9=1/99;
 -------
 comment
 -------
 Charge =  0 Multiplicity = 1
 Symbolic Z-Matrix:
 6                    -2.56577   0.24735  -0.41362 
 6                    -1.29802   0.51924   0.40817 
 7                    -0.57651  -0.80101   0.49853 
 6                    -1.41517  -1.83489  -0.14416 
 6                    -2.82937  -1.24319  -0.14904 
 6                     0.75881  -0.6298   -0.09142 
 6                     1.06222   0.84744   0.16387 
 6                    -0.2704    1.51927  -0.15788 
 1                    -3.40098   0.89462  -0.12813 
 1                    -2.36376   0.40665  -1.48071 
 1                    -1.57055   0.85628   1.41731 
 1                    -1.36096  -2.786     0.39768 
 1                    -1.08136  -2.02544  -1.17733 
 1                    -3.30325  -1.37834   0.83096 
 1                    -3.47169  -1.7118   -0.9011 
 1                     0.742    -0.78564  -1.186 
 1                     1.29167   1.00475   1.22757 
 1                    -0.36783   1.59092  -1.25014 
 8                    -0.31947   2.82062   0.42457 
 1                    -1.12234   3.25604   0.09355 
 8                     2.16885   1.2681   -0.63896 
 1                     2.44537   2.14281  -0.31795 
 6                     1.81881  -1.57102   0.48176 
 1                     1.92487  -1.3966    1.56355 
 1                     1.52125  -2.61551   0.33853 
 8                     3.07343  -1.40504  -0.18826 
 1                     3.20404  -0.44147  -0.28248 
 
                          Input orientation:                          
 ---------------------------------------------------------------------
 Center     Atomic      Atomic             Coordinates (Angstroms)
 Number     Number       Type             X           Y           Z
 ---------------------------------------------------------------------
      1          6           0       -2.565768    0.247348   -0.413622
      2          6           0       -1.298025    0.519238    0.408172
      3          7           0       -0.576510   -0.801006    0.498530
      4          6           0       -1.415166   -1.834892   -0.144155
      5          6           0       -2.829366   -1.243194   -0.149043
      6          6           0        0.758809   -0.629799   -0.091415
      7          6           0        1.062217    0.847436    0.163868
      8          6           0       -0.270400    1.519273   -0.157877
      9          1           0       -3.400982    0.894620   -0.128128
     10          1           0       -2.363757    0.406648   -1.480711
     11          1           0       -1.570554    0.856277    1.417311
     12          1           0       -1.360960   -2.786004    0.397681
     13          1           0       -1.081361   -2.025440   -1.177326
     14          1           0       -3.303254   -1.378335    0.830962
     15          1           0       -3.471689   -1.711804   -0.901095
     16          1           0        0.741997   -0.785639   -1.186002
     17          1           0        1.291667    1.004746    1.227566
     18          1           0       -0.367832    1.590923   -1.250138
     19          8           0       -0.319472    2.820619    0.424572
     20          1           0       -1.122337    3.256040    0.093548
     21          8           0        2.168847    1.268103   -0.638955
     22          1           0        2.445370    2.142810   -0.317952
     23          6           0        1.818805   -1.571023    0.481759
     24          1           0        1.924867   -1.396595    1.563545
     25          1           0        1.521246   -2.615510    0.338529
     26          8           0        3.073433   -1.405041   -0.188260
     27          1           0        3.204043   -0.441471   -0.282475
 ---------------------------------------------------------------------
                    Distance matrix (angstroms):
                    1          2          3          4          5
     1  C    0.000000
     2  C    1.535071   0.000000
     3  N    2.426564   1.507247   0.000000
     4  C    2.394206   2.420891   1.478279   0.000000
     5  C    1.536620   2.400346   2.385423   1.533001   0.000000
     6  C    3.453406   2.408410   1.469838   2.486202   3.640683
     7  C    3.722348   2.395442   2.348358   3.664313   4.428664
     8  C    2.636648   1.541588   2.430693   3.544164   3.765582
     9  H    1.094555   2.202489   3.353430   3.375494   2.213014
    10  H    1.097663   2.171714   2.927469   2.776816   2.170740
    11  H    2.171074   1.098285   2.139829   3.115239   2.906175
    12  H    3.363183   3.305858   2.136761   1.095965   2.198951
    13  H    2.819978   3.006016   2.136026   1.102351   2.173660
    14  H    2.176171   2.792934   2.806947   2.173516   1.096924
    15  H    2.212826   3.378838   3.342239   2.194857   1.094421
    16  H    3.550344   2.899273   2.139239   2.615288   3.746902
    17  H    4.259924   2.759281   2.698577   4.155972   4.891953
    18  H    2.708482   2.182604   2.970305   3.749175   3.912004
    19  O    3.517121   2.500838   3.631488   4.816407   4.810736
    20  H    3.375343   2.760424   4.113582   5.104884   4.818289
    21  O    4.848638   3.698172   3.621059   4.766398   5.615048
    22  H    5.358492   4.144424   4.297029   5.545814   6.270279
    23  C    4.830389   3.753563   2.516096   3.304537   4.702220
    24  H    5.174702   3.923307   2.783140   3.776793   5.055613
    25  H    5.046322   4.216608   2.778238   3.076502   4.587897
    26  O    5.880626   4.813338   3.762795   4.509350   5.905148
    27  H    5.812262   4.654951   3.877088   4.826784   6.087905
                    6          7          8          9         10
     6  C    0.000000
     7  C    1.529526   0.000000
     8  C    2.383736   1.526680   0.000000
     9  H    4.430470   4.472989   3.192432   0.000000
    10  H    3.571384   3.825733   2.714768   1.772973   0.000000
    11  H    3.148112   2.915936   2.147366   2.395896   3.038070
    12  H    3.062981   4.373596   4.475866   4.240891   3.837575
    13  H    2.552105   3.827159   3.776496   3.874043   2.766159
    14  H    4.232191   4.945342   4.309540   2.468953   3.068004
    15  H    4.441107   5.314147   4.608740   2.719545   2.459940
    16  H    1.105753   2.142807   2.719303   4.594197   3.339777
    17  H    2.166884   1.099476   2.150405   4.885795   4.588530
    18  H    2.746555   2.144114   1.098936   3.308133   2.332250
    19  O    3.651618   2.422908   1.426589   3.675684   3.692758
    20  H    4.321188   3.252475   1.950736   3.289022   3.484028
    21  O    2.426940   1.430425   2.498889   5.605660   4.689899
    22  H    3.253178   1.955315   2.791027   5.981124   5.243469
    23  C    1.529059   2.553904   3.784685   5.804958   5.025564
    24  H    2.164846   2.781894   4.035440   6.039544   5.559809
    25  H    2.170071   3.497600   4.533525   6.063589   5.247506
    26  O    2.442921   3.040170   4.442269   6.870961   5.875005
    27  H    2.459907   2.539276   3.991465   6.740572   5.758079
                   11         12         13         14         15
    11  H    0.000000
    12  H    3.788111   0.000000
    13  H    3.908420   1.771237   0.000000
    14  H    2.887827   2.437575   3.064111   0.000000
    15  H    3.947703   2.701093   2.426590   1.771890   0.000000
    16  H    3.849808   3.306348   2.204953   4.558891   4.323668
    17  H    2.872343   4.700524   4.538369   5.191307   5.882211
    18  H    3.016874   4.781119   3.686802   4.665209   4.545741
    19  O    2.531675   5.702600   5.160508   5.167139   5.677739
    20  H    2.777068   6.054398   5.432387   5.174709   5.584644
    21  O    4.287301   5.474480   4.658446   6.253653   6.384686
    22  H    4.560038   6.268452   5.527265   6.838504   7.085880
    23  C    4.272563   3.405019   3.371946   5.137564   5.470049
    24  H    4.161104   3.753179   4.116458   5.279229   5.941096
    25  H    4.772452   2.887850   3.069131   5.004887   5.223289
    26  O    5.409069   4.681263   4.315722   6.457683   6.590968
    27  H    5.231654   5.176746   4.655578   6.668011   6.823623
                   16         17         18         19         20
    16  H    0.000000
    17  H    3.054984   0.000000
    18  H    2.623715   3.039171   0.000000
    19  O    4.089714   2.556944   2.078255   0.000000
    20  H    4.631216   3.490234   2.268785   0.971473   0.000000
    21  O    2.559886   2.079111   2.629163   3.119796   3.914121
    22  H    3.497257   2.239385   3.014574   2.941958   3.759940
    23  C    2.134893   2.732890   4.216486   4.884876   5.665824
    24  H    3.054907   2.506045   4.700909   4.911131   5.752682
    25  H    2.505963   3.734882   4.877146   5.739960   6.443884
    26  O    2.610506   3.314563   4.684623   5.453767   6.277705
    27  H    2.645087   2.833540   4.222000   4.853484   5.703555
                   21         22         23         24         25
    21  O    0.000000
    22  H    0.971916   0.000000
    23  C    3.072323   3.850283   0.000000
    24  H    3.465710   4.042072   1.100879   0.000000
    25  H    4.056761   4.891481   1.095449   1.774635   0.000000
    26  O    2.857814   3.605347   1.431980   2.094778   2.037652
    27  H    2.030111   2.693576   1.943920   2.440562   2.818492
                   26         27
    26  O    0.000000
    27  H    0.976935   0.000000
 Stoichiometry    C8H15NO3
 Framework group  C1[X(C8H15NO3)]
 Deg. of freedom    75
 Full point group                 C1      NOp   1
 Largest Abelian subgroup         C1      NOp   1
 Largest concise Abelian subgroup C1      NOp   1
                         Standard orientation:                         
 ---------------------------------------------------------------------
 Center     Atomic      Atomic             Coordinates (Angstroms)
 Number     Number       Type             X           Y           Z
 ---------------------------------------------------------------------
      1          6           0        2.565768    0.247348    0.413622
      2          6           0        1.298025    0.519238   -0.408172
      3          7           0        0.576510   -0.801006   -0.498530
      4          6           0        1.415166   -1.834892    0.144155
      5          6           0        2.829366   -1.243194    0.149043
      6          6           0       -0.758809   -0.629799    0.091415
      7          6           0       -1.062217    0.847436   -0.163868
      8          6           0        0.270400    1.519273    0.157877
      9          1           0        3.400982    0.894620    0.128128
     10          1           0        2.363757    0.406648    1.480711
     11          1           0        1.570554    0.856277   -1.417311
     12          1           0        1.360960   -2.786004   -0.397681
     13          1           0        1.081361   -2.025440    1.177326
     14          1           0        3.303254   -1.378335   -0.830962
     15          1           0        3.471689   -1.711804    0.901095
     16          1           0       -0.741997   -0.785639    1.186002
     17          1           0       -1.291667    1.004746   -1.227566
     18          1           0        0.367832    1.590923    1.250138
     19          8           0        0.319472    2.820619   -0.424572
     20          1           0        1.122337    3.256040   -0.093548
     21          8           0       -2.168847    1.268103    0.638955
     22          1           0       -2.445370    2.142810    0.317952
     23          6           0       -1.818805   -1.571023   -0.481759
     24          1           0       -1.924867   -1.396595   -1.563545
     25          1           0       -1.521246   -2.615510   -0.338529
     26          8           0       -3.073433   -1.405041    0.188260
     27          1           0       -3.204043   -0.441471    0.282475
 ---------------------------------------------------------------------
 Rotational constants (GHZ):      1.2321609      0.8138588      0.5269975
 Standard basis: 6-31+G(d,p) (6D, 7F)
 There are   303 symmetry adapted basis functions of A   symmetry.
 Integral buffers will be    131072 words long.
 Raffenetti 2 integral format.
 Two-electron integral symmetry is turned on.
   303 basis functions,   489 primitive gaussians,   303 cartesian basis functions
    47 alpha electrons       47 beta electrons
       nuclear repulsion energy       796.4952727876 Hartrees.
 NAtoms=   27 NActive=   27 NUniq=   27 SFac= 1.00D+00 NAtFMM=   60 NAOKFM=F Big=F
 ------------------------------------------------------------------------------
 Polarizable Continuum Model (PCM)
 =================================
 Model                : PCM.
 Atomic radii         : UFF (Universal Force Field).
 Polarization charges : Total charges.
 Charge compensation  : None.
 Solution method      : Matrix inversion.
 Cavity type          : Scaled VdW (van der Waals Surface) (Alpha=1.100).
 Cavity algorithm     : GePol (No added spheres)
                        Default sphere list used, NSphG=   27.
                        Lebedev-Laikov grids with approx.  5.0 points / Ang**2.
                        Smoothing algorithm: Karplus/York (Gamma=1.0000).
                        Polarization charges: spherical gaussians, with
                                              point-specific exponents (IZeta= 3).
                        Self-potential: point-specific (ISelfS= 7).
                        Self-field    : sphere-specific E.n sum rule (ISelfD= 2).
 Solvent              : Water, Eps=  78.355300 Eps(inf)=   1.777849
 ------------------------------------------------------------------------------
 One-electron integrals computed using PRISM.
 NBasis=   303 RedAO= T  NBF=   303
 NBsUse=   303 1.00D-06 NBFU=   303
 Harris functional with IExCor=  908 diagonalized for initial guess.
 ExpMin= 4.38D-02 ExpMax= 5.48D+03 ExpMxC= 8.25D+02 IAcc=2 IRadAn=         4 AccDes= 0.00D+00
 HarFok:  IExCor=  908 AccDes= 0.00D+00 IRadAn=         4 IDoV= 1
 ScaDFX=  1.000000  1.000000  1.000000  1.000000
 FoFCou: FMM=F IPFlag=           0 FMFlag=      100000 FMFlg1=           0
         NFxFlg=           0 DoJE=T BraDBF=F KetDBF=T FulRan=T
         Omega=  0.000000  0.000000  1.000000  0.000000  0.000000 ICntrl=     500 IOpCl=  0
         NMat0=    1 NMatS0=    1 NMatT0=    0 NMatD0=    1 NMtDS0=    0 NMtDT0=    0
         I1Cent=           4 NGrid=           0.
 Petite list used in FoFCou.
 Initial guess orbital symmetries:
       Occupied  (A) (A) (A) (A) (A) (A) (A) (A) (A) (A) (A) (A)
                 (A) (A) (A) (A) (A) (A) (A) (A) (A) (A) (A) (A)
                 (A) (A) (A) (A) (A) (A) (A) (A) (A) (A) (A) (A)
                 (A) (A) (A) (A) (A) (A) (A) (A) (A) (A) (A)
       Virtual   (A) (A) (A) (A) (A) (A) (A) (A) (A) (A) (A) (A)
                 (A) (A) (A) (A) (A) (A) (A) (A) (A) (A) (A) (A)
                 (A) (A) (A) (A) (A) (A) (A) (A) (A) (A) (A) (A)
                 (A) (A) (A) (A) (A) (A) (A) (A) (A) (A) (A) (A)
                 (A) (A) (A) (A) (A) (A) (A) (A) (A) (A) (A) (A)
                 (A) (A) (A) (A) (A) (A) (A) (A) (A) (A) (A) (A)
                 (A) (A) (A) (A) (A) (A) (A) (A) (A) (A) (A) (A)
                 (A) (A) (A) (A) (A) (A) (A) (A) (A) (A) (A) (A)
                 (A) (A) (A) (A) (A) (A) (A) (A) (A) (A) (A) (A)
                 (A) (A) (A) (A) (A) (A) (A) (A) (A) (A) (A) (A)
                 (A) (A) (A) (A) (A) (A) (A) (A) (A) (A) (A) (A)
                 (A) (A) (A) (A) (A) (A) (A) (A) (A) (A) (A) (A)
                 (A) (A) (A) (A) (A) (A) (A) (A) (A) (A) (A) (A)
                 (A) (A) (A) (A) (A) (A) (A) (A) (A) (A) (A) (A)
                 (A) (A) (A) (A) (A) (A) (A) (A) (A) (A) (A) (A)
                 (A) (A) (A) (A) (A) (A) (A) (A) (A) (A) (A) (A)
                 (A) (A) (A) (A) (A) (A) (A) (A) (A) (A) (A) (A)
                 (A) (A) (A) (A) (A) (A) (A) (A) (A) (A) (A) (A)
                 (A) (A) (A) (A) (A) (A) (A) (A) (A) (A) (A) (A)
                 (A) (A) (A) (A) (A) (A) (A) (A) (A) (A) (A) (A)
                 (A) (A) (A) (A) (A) (A) (A) (A) (A) (A) (A) (A)
                 (A) (A) (A) (A)
 The electronic state of the initial guess is 1-A.
 Requested convergence on RMS density matrix=1.00D-08 within 128 cycles.
 Requested convergence on MAX density matrix=1.00D-06.
 Requested convergence on             energy=1.00D-06.
 No special actions if energy rises.
 Error on total polarization charges =  0.01482
 SCF Done:  E(RmPW1PW91) =  -594.200292867     A.U. after   13 cycles
             Convg  =    0.5977D-08             -V/T =  2.0094
 Range of M.O.s used for correlation:     1   303
 NBasis=   303 NAE=    47 NBE=    47 NFC=     0 NFV=     0
 NROrb=    303 NOA=    47 NOB=    47 NVA=   256 NVB=   256

 **** Warning!!: The largest alpha MO coefficient is  0.60821598D+02

 NEqPCM:  Using equilibrium solvation (IEInf=0, Eps=  78.3553, EpsInf=   1.7778)
          Differentiating once with respect to magnetic field using GIAOs.
          Electric field/nuclear overlap derivatives assumed to be zero.
 FoFCou: FMM=F IPFlag=           0 FMFlag=    10101102 FMFlg1=           0
         NFxFlg=    40000000 DoJE=F BraDBF=F KetDBF=T FulRan=T
         Omega=  0.000000  0.000000  1.000000  0.000000  0.000000 ICntrl=    6100 IOpCl=  0
         NMat0=    1 NMatS0=    1 NMatT0=    0 NMatD0=    1 NMtDS0=    0 NMtDT0=    0
         I1Cent=           7 NGrid=        1861.
 Symmetry not used in FoFCou.
          There are     3 degrees of freedom in the 1st order CPHF.  IDoFFX=0.
      3 vectors produced by pass  0 Test12= 4.01D-13 3.33D-08 XBig12= 3.78D+01 8.71D-01.
 AX will form     3 AO Fock derivatives at one time.
      3 vectors produced by pass  1 Test12= 4.01D-13 3.33D-08 XBig12= 9.64D-02 5.50D-02.
      3 vectors produced by pass  2 Test12= 4.01D-13 3.33D-08 XBig12= 1.60D-04 2.62D-03.
      3 vectors produced by pass  3 Test12= 4.01D-13 3.33D-08 XBig12= 6.21D-07 1.59D-04.
      3 vectors produced by pass  4 Test12= 4.01D-13 3.33D-08 XBig12= 2.33D-09 9.04D-06.
      3 vectors produced by pass  5 Test12= 4.01D-13 3.33D-08 XBig12= 7.21D-12 5.37D-07.
 Inverted reduced A of dimension    18 with in-core refinement.
 Calculating GIAO nuclear magnetic shielding tensors.
 SCF GIAO Magnetic shielding tensor (ppm):
      1  C    Isotropic =   162.8321   Anisotropy =    24.6739
   XX=   166.7648   YX=   -15.5581   ZX=     9.9963
   XY=    -5.0408   YY=   166.6701   ZY=     0.9220
   XZ=    15.2979   YZ=     6.1334   ZZ=   155.0615
   Eigenvalues:   143.6153   165.5997   179.2814
      2  C    Isotropic =   124.9226   Anisotropy =    52.2631
   XX=   121.5487   YX=     0.8808   ZX=     2.8041
   XY=     9.2220   YY=   159.0470   ZY=     3.4566
   XZ=     1.3968   YZ=    -0.3955   ZZ=    94.1721
   Eigenvalues:    93.9915   121.0116   159.7646
      3  N    Isotropic =   201.3671   Anisotropy =    78.5128
   XX=   251.9800   YX=     9.3048   ZX=     6.2396
   XY=     3.5630   YY=   228.0151   ZY=    -7.3652
   XZ=     4.0266   YZ=    -2.5333   ZZ=   124.1061
   Eigenvalues:   123.6403   226.7520   253.7089
      4  C    Isotropic =   139.0757   Anisotropy =    58.2932
   XX=   149.5367   YX=   -17.7538   ZX=    15.3594
   XY=   -25.5364   YY=   141.3246   ZY=   -18.5478
   XZ=    10.1518   YZ=   -22.7460   ZZ=   126.3659
   Eigenvalues:   111.7183   127.5711   177.9379
      5  C    Isotropic =   164.2899   Anisotropy =    23.4286
   XX=   178.1056   YX=    -0.5860   ZX=    11.6216
   XY=    -0.4338   YY=   179.7313   ZY=    -2.3196
   XZ=     0.4664   YZ=     3.9198   ZZ=   135.0329
   Eigenvalues:   134.1845   178.7763   179.9090
      6  C    Isotropic =   126.7879   Anisotropy =    52.5301
   XX=   149.8673   YX=   -21.1590   ZX=   -13.8745
   XY=    -3.0881   YY=   109.1891   ZY=     5.2730
   XZ=   -24.0843   YZ=    -2.9947   ZZ=   121.3073
   Eigenvalues:   104.2881   114.2677   161.8080
      7  C    Isotropic =   110.0457   Anisotropy =    32.2375
   XX=   126.3102   YX=    -1.1834   ZX=   -19.4626
   XY=    -4.0512   YY=   118.1320   ZY=    16.9621
   XZ=    -2.6053   YZ=     5.0187   ZZ=    85.6950
   Eigenvalues:    80.2105   118.3894   131.5374
      8  C    Isotropic =   112.0797   Anisotropy =    17.9777
   XX=   115.5057   YX=     2.4891   ZX=    -6.5225
   XY=    -0.8555   YY=   121.2605   ZY=   -11.1726
   XZ=    -6.9605   YZ=    -2.0420   ZZ=    99.4729
   Eigenvalues:    95.6221   116.5521   124.0649
      9  H    Isotropic =    29.5572   Anisotropy =     9.6695
   XX=    33.1691   YX=     3.6079   ZX=    -0.3169
   XY=     4.2443   YY=    30.4429   ZY=    -0.6239
   XZ=    -0.4645   YZ=    -0.6036   ZZ=    25.0596
   Eigenvalues:    24.9900    27.6780    36.0035
     10  H    Isotropic =    30.1003   Anisotropy =     7.9023
   XX=    28.2412   YX=    -0.7837   ZX=     2.0661
   XY=    -1.3035   YY=    28.1091   ZY=     2.7616
   XZ=     1.6103   YZ=     2.9566   ZZ=    33.9506
   Eigenvalues:    25.7488    29.1837    35.3686
     11  H    Isotropic =    28.3235   Anisotropy =     6.9248
   XX=    27.2947   YX=     2.2559   ZX=    -1.6834
   XY=     1.3872   YY=    28.5309   ZY=    -3.2820
   XZ=    -0.8147   YZ=    -3.2458   ZZ=    29.1450
   Eigenvalues:    25.3555    26.6749    32.9400
     12  H    Isotropic =    28.4434   Anisotropy =     9.4865
   XX=    27.0531   YX=    -1.7301   ZX=     0.7715
   XY=    -0.8947   YY=    34.0101   ZY=     2.5922
   XZ=     0.9499   YZ=     2.4167   ZZ=    24.2671
   Eigenvalues:    23.3017    27.2608    34.7678
     13  H    Isotropic =    29.1111   Anisotropy =     7.9817
   XX=    28.4145   YX=    -0.2013   ZX=     1.1449
   XY=    -0.0704   YY=    29.0293   ZY=    -5.2263
   XZ=    -1.0376   YZ=    -4.6763   ZZ=    29.8896
   Eigenvalues:    24.4885    28.4127    34.4322
     14  H    Isotropic =    29.6294   Anisotropy =    10.7682
   XX=    31.4058   YX=    -1.8177   ZX=    -4.8013
   XY=    -1.7722   YY=    27.8719   ZY=     2.6710
   XZ=    -5.3173   YZ=     3.0256   ZZ=    29.6104
   Eigenvalues:    24.8559    27.2241    36.8082
     15  H    Isotropic =    29.4940   Anisotropy =    11.5220
   XX=    32.0251   YX=    -3.6611   ZX=     4.5116
   XY=    -4.0427   YY=    29.0798   ZY=    -2.8986
   XZ=     3.9376   YZ=    -2.2756   ZZ=    27.3771
   Eigenvalues:    24.8442    26.4624    37.1753
     16  H    Isotropic =    28.8128   Anisotropy =     3.7902
   XX=    30.1867   YX=     1.4412   ZX=    -1.4152
   XY=     0.4469   YY=    27.4010   ZY=    -0.5047
   XZ=    -1.0727   YZ=    -1.2690   ZZ=    28.8507
   Eigenvalues:    26.9350    28.1638    31.3396
     17  H    Isotropic =    27.3223   Anisotropy =     2.3385
   XX=    28.4931   YX=    -0.9186   ZX=    -1.2640
   XY=    -0.5589   YY=    25.5766   ZY=     0.8017
   XZ=     0.4337   YZ=    -0.3564   ZZ=    27.8972
   Eigenvalues:    25.3943    27.6913    28.8813
     18  H    Isotropic =    27.6952   Anisotropy =     2.9657
   XX=    25.6801   YX=    -0.8418   ZX=     0.1626
   XY=    -0.6541   YY=    29.4932   ZY=    -0.7903
   XZ=     0.2794   YZ=     0.3506   ZZ=    27.9124
   Eigenvalues:    25.5256    27.8877    29.6724
     19  O    Isotropic =   294.6083   Anisotropy =    26.0070
   XX=   289.5273   YX=    27.8705   ZX=     3.4542
   XY=     9.1121   YY=   296.5070   ZY=    -5.5731
   XZ=    16.8916   YZ=    -8.5341   ZZ=   297.7905
   Eigenvalues:   268.9249   302.9537   311.9462
     20  H    Isotropic =    29.7489   Anisotropy =    18.8422
   XX=    33.0451   YX=     7.9878   ZX=     5.5046
   XY=     8.0636   YY=    33.5873   ZY=     0.8556
   XZ=     4.9034   YZ=     1.0297   ZZ=    22.6144
   Eigenvalues:    19.9626    26.9738    42.3104
     21  O    Isotropic =   294.2420   Anisotropy =    37.8605
   XX=   281.0480   YX=    -9.6878   ZX=     4.3136
   XY=   -26.5824   YY=   307.1354   ZY=    10.0422
   XZ=   -17.0232   YZ=     2.9911   ZZ=   294.5426
   Eigenvalues:   271.4173   291.8264   319.4823
     22  H    Isotropic =    28.9840   Anisotropy =    19.3958
   XX=    28.0058   YX=    -8.0707   ZX=    -1.0542
   XY=    -7.2847   YY=    37.0240   ZY=    -4.6982
   XZ=    -0.4199   YZ=    -3.3311   ZZ=    21.9221
   Eigenvalues:    19.7003    25.3371    41.9145
     23  C    Isotropic =   126.5018   Anisotropy =    57.2392
   XX=   156.3824   YX=     2.4380   ZX=   -19.1577
   XY=     5.9679   YY=   103.7654   ZY=     5.7396
   XZ=   -19.4809   YZ=     6.6669   ZZ=   119.3577
   Eigenvalues:    99.1949   115.6492   164.6613
     24  H    Isotropic =    27.8465   Anisotropy =     4.2751
   XX=    28.5840   YX=     0.6273   ZX=    -1.3922
   XY=     0.7466   YY=    24.7444   ZY=     1.9619
   XZ=     0.7168   YZ=     1.4020   ZZ=    30.2112
   Eigenvalues:    24.1407    28.7023    30.6966
     25  H    Isotropic =    27.7743   Anisotropy =     4.7393
   XX=    29.6374   YX=    -0.9945   ZX=    -0.3019
   XY=     0.7215   YY=    30.7019   ZY=     0.8870
   XZ=    -1.3300   YZ=     1.4856   ZZ=    22.9838
   Eigenvalues:    22.7161    29.6731    30.9339
     26  O    Isotropic =   314.4455   Anisotropy =    40.3554
   XX=   305.1874   YX=    10.9031   ZX=     1.2458
   XY=    -0.7082   YY=   338.5101   ZY=    12.1877
   XZ=     3.1448   YZ=     5.9720   ZZ=   299.6389
   Eigenvalues:   297.4692   304.5181   341.3491
     27  H    Isotropic =    28.2388   Anisotropy =    19.7291
   XX=    27.1998   YX=    -0.6195   ZX=    -2.7222
   XY=    -0.1236   YY=    40.8581   ZY=     3.2310
   XZ=    -2.9823   YZ=     3.7341   ZZ=    16.6586
   Eigenvalues:    15.5087    27.8162    41.3915
 End of Minotr Frequency-dependent properties file   721 does not exist.
 End of Minotr Frequency-dependent properties file   722 does not exist.

 **********************************************************************

            Population analysis using the SCF density.

 **********************************************************************

 Orbital symmetries:
       Occupied  (A) (A) (A) (A) (A) (A) (A) (A) (A) (A) (A) (A)
                 (A) (A) (A) (A) (A) (A) (A) (A) (A) (A) (A) (A)
                 (A) (A) (A) (A) (A) (A) (A) (A) (A) (A) (A) (A)
                 (A) (A) (A) (A) (A) (A) (A) (A) (A) (A) (A)
       Virtual   (A) (A) (A) (A) (A) (A) (A) (A) (A) (A) (A) (A)
                 (A) (A) (A) (A) (A) (A) (A) (A) (A) (A) (A) (A)
                 (A) (A) (A) (A) (A) (A) (A) (A) (A) (A) (A) (A)
                 (A) (A) (A) (A) (A) (A) (A) (A) (A) (A) (A) (A)
                 (A) (A) (A) (A) (A) (A) (A) (A) (A) (A) (A) (A)
                 (A) (A) (A) (A) (A) (A) (A) (A) (A) (A) (A) (A)
                 (A) (A) (A) (A) (A) (A) (A) (A) (A) (A) (A) (A)
                 (A) (A) (A) (A) (A) (A) (A) (A) (A) (A) (A) (A)
                 (A) (A) (A) (A) (A) (A) (A) (A) (A) (A) (A) (A)
                 (A) (A) (A) (A) (A) (A) (A) (A) (A) (A) (A) (A)
                 (A) (A) (A) (A) (A) (A) (A) (A) (A) (A) (A) (A)
                 (A) (A) (A) (A) (A) (A) (A) (A) (A) (A) (A) (A)
                 (A) (A) (A) (A) (A) (A) (A) (A) (A) (A) (A) (A)
                 (A) (A) (A) (A) (A) (A) (A) (A) (A) (A) (A) (A)
                 (A) (A) (A) (A) (A) (A) (A) (A) (A) (A) (A) (A)
                 (A) (A) (A) (A) (A) (A) (A) (A) (A) (A) (A) (A)
                 (A) (A) (A) (A) (A) (A) (A) (A) (A) (A) (A) (A)
                 (A) (A) (A) (A) (A) (A) (A) (A) (A) (A) (A) (A)
                 (A) (A) (A) (A) (A) (A) (A) (A) (A) (A) (A) (A)
                 (A) (A) (A) (A) (A) (A) (A) (A) (A) (A) (A) (A)
                 (A) (A) (A) (A) (A) (A) (A) (A) (A) (A) (A) (A)
                 (A) (A) (A) (A)
 The electronic state is 1-A.
 Alpha  occ. eigenvalues --  -19.27203 -19.26243 -19.24802 -14.41638 -10.31052
 Alpha  occ. eigenvalues --  -10.30565 -10.29365 -10.28344 -10.27895 -10.26992
 Alpha  occ. eigenvalues --  -10.24779 -10.24750  -1.08063  -1.06191  -1.04830
 Alpha  occ. eigenvalues --   -0.96973  -0.83374  -0.79632  -0.75045  -0.71826
 Alpha  occ. eigenvalues --   -0.66824  -0.61503  -0.60662  -0.58950  -0.56134
 Alpha  occ. eigenvalues --   -0.54172  -0.52293  -0.50199  -0.49056  -0.46890
 Alpha  occ. eigenvalues --   -0.46307  -0.43882  -0.43239  -0.42559  -0.41648
 Alpha  occ. eigenvalues --   -0.40184  -0.39535  -0.38391  -0.36101  -0.35672
 Alpha  occ. eigenvalues --   -0.35148  -0.34733  -0.33384  -0.31160  -0.29521
 Alpha  occ. eigenvalues --   -0.29297  -0.23375
 Alpha virt. eigenvalues --    0.00611   0.01407   0.01943   0.02291   0.03448
 Alpha virt. eigenvalues --    0.04352   0.04483   0.05004   0.05362   0.06616
 Alpha virt. eigenvalues --    0.07748   0.08137   0.08982   0.09264   0.09601
 Alpha virt. eigenvalues --    0.10038   0.11152   0.11861   0.12014   0.12711
 Alpha virt. eigenvalues --    0.13008   0.13843   0.14130   0.14902   0.15168
 Alpha virt. eigenvalues --    0.16481   0.16582   0.16949   0.17421   0.18703
 Alpha virt. eigenvalues --    0.18886   0.19376   0.19621   0.20295   0.21055
 Alpha virt. eigenvalues --    0.21350   0.22134   0.22528   0.22999   0.23898
 Alpha virt. eigenvalues --    0.24008   0.24338   0.24974   0.25145   0.25716
 Alpha virt. eigenvalues --    0.26205   0.27210   0.28017   0.28675   0.29020
 Alpha virt. eigenvalues --    0.29404   0.30526   0.31010   0.31485   0.31894
 Alpha virt. eigenvalues --    0.32504   0.32928   0.33059   0.33903   0.33989
 Alpha virt. eigenvalues --    0.34379   0.36185   0.36345   0.36866   0.37496
 Alpha virt. eigenvalues --    0.38391   0.39023   0.39277   0.40419   0.40627
 Alpha virt. eigenvalues --    0.41677   0.42198   0.43199   0.44473   0.45496
 Alpha virt. eigenvalues --    0.45848   0.62044   0.65905   0.66269   0.67354
 Alpha virt. eigenvalues --    0.69291   0.70593   0.71517   0.72375   0.74153
 Alpha virt. eigenvalues --    0.75616   0.77387   0.78989   0.79693   0.80346
 Alpha virt. eigenvalues --    0.82423   0.83867   0.85935   0.86595   0.87270
 Alpha virt. eigenvalues --    0.89083   0.91309   0.92391   0.94826   0.95953
 Alpha virt. eigenvalues --    0.98333   0.99317   1.01688   1.03036   1.04955
 Alpha virt. eigenvalues --    1.05836   1.06570   1.08727   1.10218   1.10313
 Alpha virt. eigenvalues --    1.11742   1.12177   1.12966   1.14061   1.15156
 Alpha virt. eigenvalues --    1.18551   1.19126   1.20291   1.22039   1.24283
 Alpha virt. eigenvalues --    1.25762   1.26520   1.28363   1.30307   1.31609
 Alpha virt. eigenvalues --    1.32522   1.35359   1.38548   1.39222   1.42080
 Alpha virt. eigenvalues --    1.43039   1.45059   1.46982   1.49474   1.52000
 Alpha virt. eigenvalues --    1.53064   1.56121   1.59596   1.60143   1.62055
 Alpha virt. eigenvalues --    1.62411   1.64667   1.65046   1.68662   1.70132
 Alpha virt. eigenvalues --    1.70798   1.71974   1.75525   1.76875   1.80849
 Alpha virt. eigenvalues --    1.81728   1.83112   1.84175   1.86374   1.86570
 Alpha virt. eigenvalues --    1.87482   1.88825   1.91656   1.91909   1.94066
 Alpha virt. eigenvalues --    1.95409   1.99501   2.00885   2.01826   2.02523
 Alpha virt. eigenvalues --    2.05185   2.05932   2.06849   2.08962   2.10708
 Alpha virt. eigenvalues --    2.12622   2.13770   2.14663   2.16189   2.17897
 Alpha virt. eigenvalues --    2.20371   2.20629   2.24236   2.26464   2.27999
 Alpha virt. eigenvalues --    2.29985   2.31484   2.34819   2.37119   2.39884
 Alpha virt. eigenvalues --    2.40874   2.41635   2.43732   2.44314   2.44801
 Alpha virt. eigenvalues --    2.48693   2.49491   2.49758   2.52140   2.53294
 Alpha virt. eigenvalues --    2.56407   2.60150   2.60382   2.62146   2.63658
 Alpha virt. eigenvalues --    2.65022   2.65768   2.67936   2.68849   2.70517
 Alpha virt. eigenvalues --    2.70860   2.73818   2.75038   2.77213   2.77971
 Alpha virt. eigenvalues --    2.78655   2.80789   2.81374   2.83872   2.86163
 Alpha virt. eigenvalues --    2.87405   2.88596   2.91088   2.93295   2.95333
 Alpha virt. eigenvalues --    2.97039   2.98703   2.99784   3.03370   3.04187
 Alpha virt. eigenvalues --    3.06185   3.07019   3.15065   3.16459   3.31266
 Alpha virt. eigenvalues --    3.32886   3.35920   3.36313   3.39900   3.43593
 Alpha virt. eigenvalues --    3.48176   3.50410   3.52421   3.53420   3.55550
 Alpha virt. eigenvalues --    3.56177   3.57423   3.59354   3.65238   4.30561
 Alpha virt. eigenvalues --    4.38638   4.39288   4.43545   4.47357   4.49618
 Alpha virt. eigenvalues --    4.58635   4.68427   4.75470   4.77906   4.84582
 Alpha virt. eigenvalues --    4.93532
          Condensed to atoms (all electrons):
              1          2          3          4          5          6
     1  C    6.102338  -0.931916   0.122972  -0.259227   0.124303   0.231239
     2  C   -0.931916   8.785841  -0.435543  -0.255548   0.290607  -0.423424
     3  N    0.122972  -0.435543   7.393786   0.242830  -0.204661   0.072554
     4  C   -0.259227  -0.255548   0.242830   5.631041   0.166424  -0.119783
     5  C    0.124303   0.290607  -0.204661   0.166424   5.520278  -0.017402
     6  C    0.231239  -0.423424   0.072554  -0.119783  -0.017402   8.502281
     7  C   -0.245902   0.634984  -0.257600  -0.207949   0.061073  -1.355547
     8  C    0.247476  -1.042565   0.100996   0.173807  -0.126612  -0.117370
     9  H    0.379195  -0.058621   0.013218   0.029287  -0.020793   0.001760
    10  H    0.495013  -0.207000   0.028999   0.013062  -0.065168   0.024567
    11  H    0.086432   0.094214   0.014831   0.015147  -0.025582   0.043770
    12  H    0.042041  -0.014177  -0.040446   0.383744  -0.037300  -0.002520
    13  H   -0.003966   0.016757  -0.096315   0.408263  -0.028352   0.023622
    14  H   -0.023587  -0.040491   0.012553  -0.033595   0.391382   0.011600
    15  H   -0.062813   0.045242   0.005494  -0.025711   0.383218  -0.006155
    16  H   -0.020001   0.072812  -0.068592   0.012929   0.007031   0.241338
    17  H    0.008269  -0.023082   0.040031   0.010232  -0.000323  -0.094272
    18  H    0.047939  -0.235670   0.048454   0.007595   0.002785   0.027919
    19  O    0.010570  -0.160989   0.029579   0.001938  -0.000840   0.053116
    20  H   -0.019088   0.008823  -0.002377  -0.001077  -0.002816  -0.011048
    21  O   -0.004118   0.050132   0.007160  -0.001345   0.001725  -0.132554
    22  H    0.000599   0.002040  -0.002476   0.000140  -0.000173   0.055338
    23  C    0.026487  -0.156824   0.081076  -0.039143  -0.006210  -0.547022
    24  H    0.000768  -0.001259   0.017327   0.007285  -0.003469  -0.087818
    25  H    0.001199   0.001831  -0.009132   0.008154   0.004740  -0.048887
    26  O   -0.000295   0.008588  -0.003468   0.002354  -0.002073  -0.024201
    27  H    0.000443  -0.000101   0.001710   0.001138   0.000222  -0.021531
              7          8          9         10         11         12
     1  C   -0.245902   0.247476   0.379195   0.495013   0.086432   0.042041
     2  C    0.634984  -1.042565  -0.058621  -0.207000   0.094214  -0.014177
     3  N   -0.257600   0.100996   0.013218   0.028999   0.014831  -0.040446
     4  C   -0.207949   0.173807   0.029287   0.013062   0.015147   0.383744
     5  C    0.061073  -0.126612  -0.020793  -0.065168  -0.025582  -0.037300
     6  C   -1.355547  -0.117370   0.001760   0.024567   0.043770  -0.002520
     7  C    7.553823  -0.639097  -0.004113  -0.015723  -0.039158   0.001598
     8  C   -0.639097   6.664774   0.000913   0.040668   0.047589  -0.002075
     9  H   -0.004113   0.000913   0.511106  -0.024442  -0.003499  -0.000092
    10  H   -0.015723   0.040668  -0.024442   0.528675   0.004269  -0.000030
    11  H   -0.039158   0.047589  -0.003499   0.004269   0.564372   0.000303
    12  H    0.001598  -0.002075  -0.000092  -0.000030   0.000303   0.544610
    13  H    0.001335   0.004494  -0.000153   0.001066  -0.000485  -0.041623
    14  H   -0.004650   0.014451  -0.004826   0.004166   0.001010  -0.006025
    15  H    0.000960   0.002336   0.000270  -0.005198  -0.000104   0.001007
    16  H    0.026063  -0.041989  -0.000014  -0.000370  -0.000645  -0.000830
    17  H    0.360000  -0.016284   0.000004  -0.000010   0.000636   0.000015
    18  H   -0.148202   0.539930   0.000378   0.003832   0.004457   0.000015
    19  O   -0.256490   0.427501   0.000602   0.000777   0.007806   0.000067
    20  H    0.073135  -0.039673  -0.000015   0.000149  -0.000578   0.000000
    21  O    0.319867  -0.187233   0.000018  -0.000257  -0.000636   0.000023
    22  H   -0.023539  -0.018539   0.000000   0.000000   0.000001   0.000000
    23  C    0.271007  -0.037708   0.000394   0.001415   0.013136   0.004350
    24  H   -0.032839   0.000120   0.000000   0.000000  -0.000036   0.000105
    25  H   -0.013884   0.001222   0.000000   0.000001   0.000009  -0.000427
    26  O   -0.041692  -0.011378  -0.000001  -0.000014  -0.000069   0.000027
    27  H    0.000422   0.015583   0.000000   0.000000   0.000001  -0.000001
             13         14         15         16         17         18
     1  C   -0.003966  -0.023587  -0.062813  -0.020001   0.008269   0.047939
     2  C    0.016757  -0.040491   0.045242   0.072812  -0.023082  -0.235670
     3  N   -0.096315   0.012553   0.005494  -0.068592   0.040031   0.048454
     4  C    0.408263  -0.033595  -0.025711   0.012929   0.010232   0.007595
     5  C   -0.028352   0.391382   0.383218   0.007031  -0.000323   0.002785
     6  C    0.023622   0.011600  -0.006155   0.241338  -0.094272   0.027919
     7  C    0.001335  -0.004650   0.000960   0.026063   0.360000  -0.148202
     8  C    0.004494   0.014451   0.002336  -0.041989  -0.016284   0.539930
     9  H   -0.000153  -0.004826   0.000270  -0.000014   0.000004   0.000378
    10  H    0.001066   0.004166  -0.005198  -0.000370  -0.000010   0.003832
    11  H   -0.000485   0.001010  -0.000104  -0.000645   0.000636   0.004457
    12  H   -0.041623  -0.006025   0.001007  -0.000830   0.000015   0.000015
    13  H    0.570287   0.003947  -0.005034   0.011510  -0.000024  -0.000200
    14  H    0.003947   0.519313  -0.024097  -0.000018  -0.000003  -0.000006
    15  H   -0.005034  -0.024097   0.511539  -0.000020   0.000000  -0.000014
    16  H    0.011510  -0.000018  -0.000020   0.574786   0.004093   0.000046
    17  H   -0.000024  -0.000003   0.000000   0.004093   0.540166   0.004423
    18  H   -0.000200  -0.000006  -0.000014   0.000046   0.004423   0.558148
    19  O   -0.000183  -0.000012  -0.000004  -0.001194   0.001054  -0.041644
    20  H    0.000001   0.000002   0.000000   0.000004  -0.000007  -0.005984
    21  O   -0.000110  -0.000007  -0.000007   0.006377  -0.047253  -0.001943
    22  H    0.000001   0.000000   0.000000   0.000081  -0.005635  -0.000196
    23  C   -0.018486  -0.001264  -0.000078  -0.000346   0.027708   0.014612
    24  H    0.000029  -0.000001   0.000000   0.004792   0.003375  -0.000007
    25  H    0.000110   0.000002   0.000001  -0.005326   0.000113   0.000006
    26  O    0.000110  -0.000003  -0.000001   0.008884  -0.000857  -0.000244
    27  H    0.000002   0.000000   0.000000  -0.001884   0.000096   0.000012
             19         20         21         22         23         24
     1  C    0.010570  -0.019088  -0.004118   0.000599   0.026487   0.000768
     2  C   -0.160989   0.008823   0.050132   0.002040  -0.156824  -0.001259
     3  N    0.029579  -0.002377   0.007160  -0.002476   0.081076   0.017327
     4  C    0.001938  -0.001077  -0.001345   0.000140  -0.039143   0.007285
     5  C   -0.000840  -0.002816   0.001725  -0.000173  -0.006210  -0.003469
     6  C    0.053116  -0.011048  -0.132554   0.055338  -0.547022  -0.087818
     7  C   -0.256490   0.073135   0.319867  -0.023539   0.271007  -0.032839
     8  C    0.427501  -0.039673  -0.187233  -0.018539  -0.037708   0.000120
     9  H    0.000602  -0.000015   0.000018   0.000000   0.000394   0.000000
    10  H    0.000777   0.000149  -0.000257   0.000000   0.001415   0.000000
    11  H    0.007806  -0.000578  -0.000636   0.000001   0.013136  -0.000036
    12  H    0.000067   0.000000   0.000023   0.000000   0.004350   0.000105
    13  H   -0.000183   0.000001  -0.000110   0.000001  -0.018486   0.000029
    14  H   -0.000012   0.000002  -0.000007   0.000000  -0.001264  -0.000001
    15  H   -0.000004   0.000000  -0.000007   0.000000  -0.000078   0.000000
    16  H   -0.001194   0.000004   0.006377   0.000081  -0.000346   0.004792
    17  H    0.001054  -0.000007  -0.047253  -0.005635   0.027708   0.003375
    18  H   -0.041644  -0.005984  -0.001943  -0.000196   0.014612  -0.000007
    19  O    8.243312   0.242929   0.001791   0.005538  -0.003057  -0.000086
    20  H    0.242929   0.366618  -0.000241  -0.000209   0.001056   0.000000
    21  O    0.001791  -0.000241   8.310767   0.242755   0.015067   0.002592
    22  H    0.005538  -0.000209   0.242755   0.354562  -0.010631   0.000033
    23  C   -0.003057   0.001056   0.015067  -0.010631   5.431629   0.453543
    24  H   -0.000086   0.000000   0.002592   0.000033   0.453543   0.574083
    25  H    0.000038   0.000000  -0.001167   0.000008   0.443359  -0.040811
    26  O   -0.000109   0.000004  -0.010971   0.000804   0.214243  -0.051170
    27  H    0.000056   0.000000   0.012102  -0.000587  -0.013269  -0.003649
             25         26         27
     1  C    0.001199  -0.000295   0.000443
     2  C    0.001831   0.008588  -0.000101
     3  N   -0.009132  -0.003468   0.001710
     4  C    0.008154   0.002354   0.001138
     5  C    0.004740  -0.002073   0.000222
     6  C   -0.048887  -0.024201  -0.021531
     7  C   -0.013884  -0.041692   0.000422
     8  C    0.001222  -0.011378   0.015583
     9  H    0.000000  -0.000001   0.000000
    10  H    0.000001  -0.000014   0.000000
    11  H    0.000009  -0.000069   0.000001
    12  H   -0.000427   0.000027  -0.000001
    13  H    0.000110   0.000110   0.000002
    14  H    0.000002  -0.000003   0.000000
    15  H    0.000001  -0.000001   0.000000
    16  H   -0.005326   0.008884  -0.001884
    17  H    0.000113  -0.000857   0.000096
    18  H    0.000006  -0.000244   0.000012
    19  O    0.000038  -0.000109   0.000056
    20  H    0.000000   0.000004   0.000000
    21  O   -0.001167  -0.010971   0.012102
    22  H    0.000008   0.000804  -0.000587
    23  C    0.443359   0.214243  -0.013269
    24  H   -0.040811  -0.051170  -0.003649
    25  H    0.547951  -0.058836   0.006049
    26  O   -0.058836   8.271328   0.251798
    27  H    0.006049   0.251798   0.359167
 Mulliken atomic charges:
              1
     1  C   -0.356372
     2  C   -0.024660
     3  N   -0.112959
     4  C   -0.171995
     5  C   -0.412014
     6  C   -0.279570
     7  C   -0.017882
     8  C   -0.001339
     9  H    0.179423
    10  H    0.171552
    11  H    0.172808
    12  H    0.167642
    13  H    0.153399
    14  H    0.180159
    15  H    0.179167
    16  H    0.170482
    17  H    0.187536
    18  H    0.173558
    19  O   -0.562065
    20  H    0.390390
    21  O   -0.582536
    22  H    0.400086
    23  C   -0.165045
    24  H    0.157093
    25  H    0.163678
    26  O   -0.552757
    27  H    0.392221
 Sum of Mulliken atomic charges =   0.00000
 Mulliken charges with hydrogens summed into heavy atoms:
              1
     1  C   -0.005397
     2  C    0.148148
     3  N   -0.112959
     4  C    0.149046
     5  C   -0.052688
     6  C   -0.109089
     7  C    0.169653
     8  C    0.172220
    19  O   -0.171675
    21  O   -0.182450
    23  C    0.155726
    26  O   -0.160536
 Sum of Mulliken charges with hydrogens summed into heavy atoms =   0.00000
 Electronic spatial extent (au):  <R**2>=           2178.7756
 Charge=              0.0000 electrons
 Dipole moment (field-independent basis, Debye):
    X=              4.7678    Y=              2.5888    Z=              0.5620  Tot=              5.4543
 Quadrupole moment (field-independent basis, Debye-Ang):
   XX=            -76.2536   YY=            -70.9892   ZZ=            -76.2651
   XY=             -6.5854   XZ=              5.7955   YZ=              1.9897
 Traceless Quadrupole moment (field-independent basis, Debye-Ang):
   XX=             -1.7509   YY=              3.5134   ZZ=             -1.7625
   XY=             -6.5854   XZ=              5.7955   YZ=              1.9897
 Octapole moment (field-independent basis, Debye-Ang**2):
  XXX=             32.0141  YYY=             21.8930  ZZZ=              2.5593  XYY=             15.5103
  XXY=             48.6549  XXZ=             -9.3984  XZZ=             -0.9027  YZZ=              2.0511
  YYZ=              8.2548  XYZ=             -1.3631
 Hexadecapole moment (field-independent basis, Debye-Ang**3):
 XXXX=          -1669.8104 YYYY=           -954.3645 ZZZZ=           -197.7116 XXXY=           -125.6096
 XXXZ=              9.8875 YYYX=              8.3171 YYYZ=             34.2928 ZZZX=              4.5579
 ZZZY=             -2.2926 XXYY=           -417.0375 XXZZ=           -300.8599 YYZZ=           -214.4143
 XXYZ=              2.2677 YYXZ=              9.5774 ZZXY=              0.5871
 N-N= 7.964952727876D+02 E-N=-2.978615179745D+03  KE= 5.886640042370D+02
 1\1\GINC-COMPUTE-3-0\SP\RmPW1PW91\6-31+G(d,p)\C8H15N1O3\MAMICHETTI.IQU
 IR\17-May-2024\0\\# mpw1pw91/6-31+G** nmr scrf=(pcm,solvent=water)\\co
 mment\\0,1\C,0,-2.565768,0.247348,-0.413622\C,0,-1.298025,0.519238,0.4
 08172\N,0,-0.57651,-0.801006,0.49853\C,0,-1.415166,-1.834892,-0.144155
 \C,0,-2.829366,-1.243194,-0.149043\C,0,0.758809,-0.629799,-0.091415\C,
 0,1.062217,0.847436,0.163868\C,0,-0.2704,1.519273,-0.157877\H,0,-3.400
 982,0.89462,-0.128128\H,0,-2.363757,0.406648,-1.480711\H,0,-1.570554,0
 .856277,1.417311\H,0,-1.36096,-2.786004,0.397681\H,0,-1.081361,-2.0254
 4,-1.177326\H,0,-3.303254,-1.378335,0.830962\H,0,-3.471689,-1.711804,-
 0.901095\H,0,0.741997,-0.785639,-1.186002\H,0,1.291667,1.004746,1.2275
 66\H,0,-0.367832,1.590923,-1.250138\O,0,-0.319472,2.820619,0.424572\H,
 0,-1.122337,3.25604,0.093548\O,0,2.168847,1.268103,-0.638955\H,0,2.445
 37,2.14281,-0.317952\C,0,1.818805,-1.571023,0.481759\H,0,1.924867,-1.3
 96595,1.563545\H,0,1.521246,-2.61551,0.338529\O,0,3.073433,-1.405041,-
 0.18826\H,0,3.204043,-0.441471,-0.282475\\Version=AM64L-G09RevC.01\Sta
 te=1-A\HF=-594.2002929\RMSD=5.977e-09\Dipole=-1.8757969,1.0185221,-0.2
 21102\Quadrupole=-1.3017797,2.6121565,-1.3103768,4.8960918,4.3087858,-
 1.4792784\PG=C01 [X(C8H15N1O3)]\\@


 IN THE LONG RUN, DIGGING FOR TRUTH HAS ALWAYS PROVED NOT ONLY 
 MORE INTERESTING BUT MORE PROFITABLE THAN DIGGING FOR GOLD.

                             -- GEORGE R. HARRISON
 Job cpu time:  0 days  0 hours  8 minutes 36.6 seconds.
 File lengths (MBytes):  RWF=    115 Int=      0 D2E=      0 Chk=      7 Scr=      1
 Normal termination of Gaussian 09 at Fri May 17 12:33:00 2024.
