 Entering Gaussian System, Link 0=g09
 Input=/home/mamichetti.iquir/Linux/03_Cardona_A1A3_R__S_S_R_037_OptB.gjc
 Output=/home/mamichetti.iquir/Linux/03_Cardona_A1A3_R__S_S_R_037_OptB.log
 Initial command:
 /opt/ohpc/pub/apps/software/Gaussian/09/AMD64.SSE4a-enabled/g09/l1.exe /local/mamichetti.iquir/Gau-130432.inp -scrdir=/local/mamichetti.iquir/
 Entering Link 1 = /opt/ohpc/pub/apps/software/Gaussian/09/AMD64.SSE4a-enabled/g09/l1.exe PID=    130433.
  
 Copyright (c) 1988,1990,1992,1993,1995,1998,2003,2009,2011,
            Gaussian, Inc.  All Rights Reserved.
  
 This is part of the Gaussian(R) 09 program.  It is based on
 the Gaussian(R) 03 system (copyright 2003, Gaussian, Inc.),
 the Gaussian(R) 98 system (copyright 1998, Gaussian, Inc.),
 the Gaussian(R) 94 system (copyright 1995, Gaussian, Inc.),
 the Gaussian 92(TM) system (copyright 1992, Gaussian, Inc.),
 the Gaussian 90(TM) system (copyright 1990, Gaussian, Inc.),
 the Gaussian 88(TM) system (copyright 1988, Gaussian, Inc.),
 the Gaussian 86(TM) system (copyright 1986, Carnegie Mellon
 University), and the Gaussian 82(TM) system (copyright 1983,
 Carnegie Mellon University). Gaussian is a federally registered
 trademark of Gaussian, Inc.
  
 This software contains proprietary and confidential information,
 including trade secrets, belonging to Gaussian, Inc.
  
 This software is provided under written license and may be
 used, copied, transmitted, or stored only in accord with that
 written license.
  
 The following legend is applicable only to US Government
 contracts under FAR:
  
                    RESTRICTED RIGHTS LEGEND
  
 Use, reproduction and disclosure by the US Government is
 subject to restrictions as set forth in subparagraphs (a)
 and (c) of the Commercial Computer Software - Restricted
 Rights clause in FAR 52.227-19.
  
 Gaussian, Inc.
 340 Quinnipiac St., Bldg. 40, Wallingford CT 06492
  
  
 ---------------------------------------------------------------
 Warning -- This program may not be used in any manner that
 competes with the business of Gaussian, Inc. or will provide
 assistance to any competitor of Gaussian, Inc.  The licensee
 of this program is prohibited from giving any competitor of
 Gaussian, Inc. access to this program.  By using this program,
 the user acknowledges that Gaussian, Inc. is engaged in the
 business of creating and licensing software in the field of
 computational chemistry and represents and warrants to the
 licensee that it is not a competitor of Gaussian, Inc. and that
 it will not use this program in any manner prohibited above.
 ---------------------------------------------------------------
  

 Cite this work as:
 Gaussian 09, Revision C.01,
 M. J. Frisch, G. W. Trucks, H. B. Schlegel, G. E. Scuseria, 
 M. A. Robb, J. R. Cheeseman, G. Scalmani, V. Barone, B. Mennucci, 
 G. A. Petersson, H. Nakatsuji, M. Caricato, X. Li, H. P. Hratchian, 
 A. F. Izmaylov, J. Bloino, G. Zheng, J. L. Sonnenberg, M. Hada, 
 M. Ehara, K. Toyota, R. Fukuda, J. Hasegawa, M. Ishida, T. Nakajima, 
 Y. Honda, O. Kitao, H. Nakai, T. Vreven, J. A. Montgomery, Jr., 
 J. E. Peralta, F. Ogliaro, M. Bearpark, J. J. Heyd, E. Brothers, 
 K. N. Kudin, V. N. Staroverov, T. Keith, R. Kobayashi, J. Normand, 
 K. Raghavachari, A. Rendell, J. C. Burant, S. S. Iyengar, J. Tomasi, 
 M. Cossi, N. Rega, J. M. Millam, M. Klene, J. E. Knox, J. B. Cross, 
 V. Bakken, C. Adamo, J. Jaramillo, R. Gomperts, R. E. Stratmann, 
 O. Yazyev, A. J. Austin, R. Cammi, C. Pomelli, J. W. Ochterski, 
 R. L. Martin, K. Morokuma, V. G. Zakrzewski, G. A. Voth, 
 P. Salvador, J. J. Dannenberg, S. Dapprich, A. D. Daniels, 
 O. Farkas, J. B. Foresman, J. V. Ortiz, J. Cioslowski, 
 and D. J. Fox, Gaussian, Inc., Wallingford CT, 2010.
 
 ******************************************
 Gaussian 09:  AM64L-G09RevC.01 23-Sep-2011
                17-May-2024 
 ******************************************
 %nprocshared=4
 Will use up to    4 processors via shared memory.
 ------------------------------------------------
 # mpw1pw91/6-31+G** nmr scrf=(pcm,solvent=water)
 ------------------------------------------------
 1/38=1/1;
 2/12=2,17=6,18=5,40=1/2;
 3/5=1,6=6,7=111,11=2,16=1,25=1,30=1,70=2201,72=1,74=-7/1,2,8,3;
 4//1;
 5/5=2,38=5,53=1/2;
 8/6=1,10=90,11=11/1;
 10/13=100,45=16/2;
 6/7=2,8=2,9=2,10=2,28=1/1;
 99/9=1/99;
 -------
 comment
 -------
 Charge =  0 Multiplicity = 1
 Symbolic Z-Matrix:
 6                    -2.39251   0.5429   -0.63113 
 6                    -1.11154  -0.28986  -0.8388 
 7                     0.03974   0.6384   -0.58458 
 6                    -0.51147   1.94072  -0.14514 
 6                    -1.95032   1.6701    0.31511 
 6                     0.97001  -0.01558   0.36369 
 6                     0.62973  -1.51463   0.26844 
 6                    -0.89676  -1.49392   0.10367 
 1                    -2.7166    0.96142  -1.59063 
 1                    -3.22629  -0.05158  -0.24085 
 1                    -1.06633  -0.66825  -1.86868 
 1                    -0.5142    2.64705  -0.98696 
 1                     0.11778   2.37461   0.63597 
 1                    -2.58923   2.55729   0.25333 
 1                    -1.95566   1.31672   1.35155 
 1                     0.76107   0.29969   1.39877 
 1                     0.92734  -2.05628   1.16913 
 1                    -1.26569  -2.42912  -0.33507 
 8                    -1.44254  -1.31286   1.41572 
 1                    -2.40737  -1.24371   1.3262 
 8                     1.27284  -2.19232  -0.81588 
 1                     1.08771  -1.7034   -1.63566 
 6                     2.43806   0.27946   0.0877 
 1                     3.06003  -0.35186   0.74041 
 1                     2.6863    0.03501  -0.95249 
 8                     2.68961   1.66633   0.34831 
 1                     3.61262   1.83922   0.10063 
 
                          Input orientation:                          
 ---------------------------------------------------------------------
 Center     Atomic      Atomic             Coordinates (Angstroms)
 Number     Number       Type             X           Y           Z
 ---------------------------------------------------------------------
      1          6           0       -2.392510    0.542900   -0.631129
      2          6           0       -1.111541   -0.289863   -0.838804
      3          7           0        0.039735    0.638401   -0.584576
      4          6           0       -0.511471    1.940720   -0.145138
      5          6           0       -1.950319    1.670101    0.315110
      6          6           0        0.970008   -0.015575    0.363691
      7          6           0        0.629733   -1.514627    0.268441
      8          6           0       -0.896762   -1.493917    0.103668
      9          1           0       -2.716604    0.961422   -1.590630
     10          1           0       -3.226293   -0.051578   -0.240849
     11          1           0       -1.066326   -0.668249   -1.868684
     12          1           0       -0.514200    2.647048   -0.986959
     13          1           0        0.117776    2.374609    0.635965
     14          1           0       -2.589228    2.557292    0.253331
     15          1           0       -1.955658    1.316721    1.351548
     16          1           0        0.761065    0.299688    1.398772
     17          1           0        0.927343   -2.056277    1.169126
     18          1           0       -1.265694   -2.429125   -0.335065
     19          8           0       -1.442544   -1.312855    1.415715
     20          1           0       -2.407370   -1.243711    1.326204
     21          8           0        1.272840   -2.192322   -0.815879
     22          1           0        1.087710   -1.703400   -1.635658
     23          6           0        2.438057    0.279456    0.087700
     24          1           0        3.060034   -0.351864    0.740407
     25          1           0        2.686301    0.035012   -0.952491
     26          8           0        2.689606    1.666328    0.348308
     27          1           0        3.612618    1.839221    0.100626
 ---------------------------------------------------------------------
                    Distance matrix (angstroms):
                    1          2          3          4          5
     1  C    0.000000
     2  C    1.541916   0.000000
     3  N    2.434564   1.500581   0.000000
     4  C    2.393407   2.411795   1.480868   0.000000
     5  C    1.536712   2.424154   2.415399   1.534714   0.000000
     6  C    3.550787   2.419519   1.480643   2.506148   3.372265
     7  C    3.765182   2.399599   2.389825   3.662351   4.098944
     8  C    2.631694   1.544063   2.428474   3.465124   3.341512
     9  H    1.095828   2.169605   2.951930   2.812665   2.172847
    10  H    1.095863   2.210544   3.355765   3.368779   2.213906
    11  H    2.181098   1.098123   2.140009   3.175719   3.319380
    12  H    2.842904   3.000702   2.122126   1.098895   2.170771
    13  H    3.355923   3.284140   2.123730   1.092856   2.208234
    14  H    2.208788   3.388600   3.360904   2.203636   1.095048
    15  H    2.172705   2.844519   2.861868   2.171433   1.095039
    16  H    3.758282   2.976738   2.137455   2.587661   3.225517
    17  H    4.584546   3.362893   3.335357   4.446736   4.784995
    18  H    3.192225   2.203170   3.343070   4.438521   4.206554
    19  O    2.921615   2.497785   3.163181   3.726783   3.219813
    20  H    2.650161   2.697454   3.630668   3.987465   3.117933
    21  O    4.577157   3.050434   3.096295   4.551450   5.156181
    22  H    4.262262   2.733088   2.772554   4.249546   4.941217
    23  C    4.890858   3.712436   2.516495   3.393188   4.609062
    24  H    5.693149   4.460918   3.443604   4.335410   5.419673
    25  H    5.114249   3.813407   2.739298   3.809106   5.077260
    26  O    5.296158   4.436737   2.991442   3.250488   4.640045
    27  H    6.186879   5.266233   3.831053   4.132652   5.569639
                    6          7          8          9         10
     6  C    0.000000
     7  C    1.540135   0.000000
     8  C    2.395399   1.535502   0.000000
     9  H    4.285441   4.559050   3.494447   0.000000
    10  H    4.239777   4.155578   2.761476   1.762913   0.000000
    11  H    3.091300   2.856620   2.144913   2.335928   2.774092
    12  H    3.334170   4.494903   4.299234   2.838369   3.898039
    13  H    2.552139   3.939966   4.034615   3.871503   4.223504
    14  H    4.393175   5.190613   4.393078   2.441970   2.730617
    15  H    3.363093   3.984206   3.252407   3.059687   2.454075
    16  H    1.102017   2.141643   2.764544   4.633422   4.325595
    17  H    2.194313   1.092332   2.186049   5.477327   4.822814
    18  H    3.363309   2.189331   1.096910   3.895817   3.083108
    19  O    2.934297   2.377242   1.432525   3.979155   2.741675
    20  H    3.720407   3.227422   1.959371   3.669626   2.132480
    21  O    2.494257   1.431296   2.457745   5.144123   5.015540
    22  H    2.619161   1.967478   2.647124   4.645009   4.825415
    23  C    1.522623   2.553710   3.777052   5.463735   5.683519
    24  H    2.150166   2.735166   4.167248   6.366161   6.369532
    25  H    2.163459   2.849829   4.036265   5.518772   5.955896
    26  O    2.405421   3.790505   4.786338   5.786491   6.188390
    27  H    3.239268   4.491554   5.607524   6.609836   7.103691
                   11         12         13         14         15
    11  H    0.000000
    12  H    3.474691   0.000000
    13  H    4.115137   1.762810   0.000000
    14  H    4.150457   2.419115   2.740010   0.000000
    15  H    3.885989   3.052243   2.435224   1.773840   0.000000
    16  H    3.866850   3.581635   2.302388   4.199199   2.901236
    17  H    3.889682   5.371035   4.535682   5.872816   4.440956
    18  H    2.343591   5.172740   5.092421   5.192524   4.165582
    19  O    3.368135   4.723928   4.079216   4.200483   2.679939
    20  H    3.512387   4.906406   4.465986   3.953701   2.600096
    21  O    2.983772   5.161616   4.929390   6.214307   5.237778
    22  H    2.401189   4.681167   4.767725   5.936468   5.225574
    23  C    4.123868   3.933981   3.173951   5.521736   4.688066
    24  H    4.892270   4.975180   4.012661   6.372958   5.321169
    25  H    3.926346   4.131238   3.820239   5.970520   5.338460
    26  O    4.946951   3.606816   2.683043   5.354337   4.765207
    27  H    5.661988   4.343507   3.575912   6.245145   5.730926
                   16         17         18         19         20
    16  H    0.000000
    17  H    2.372964   0.000000
    18  H    3.815804   2.685334   0.000000
    19  O    2.730655   2.495966   2.083882   0.000000
    20  H    3.525100   3.435877   2.338471   0.971433   0.000000
    21  O    3.372937   2.019436   2.594497   3.623090   4.362606
    22  H    3.650592   2.831440   2.785091   3.983163   4.604294
    23  C    2.128761   2.984525   4.607918   4.399789   5.228010
    24  H    2.478553   2.763547   4.917680   4.653252   5.570553
    25  H    3.050414   3.459578   4.698026   4.946969   5.724777
    26  O    2.586590   4.199655   5.734469   5.204762   5.950107
    27  H    3.490945   4.850495   6.496655   6.100795   6.873628
                   21         22         23         24         25
    21  O    0.000000
    22  H    0.972294   0.000000
    23  C    2.878172   2.953831   0.000000
    24  H    3.000562   3.370815   1.100657   0.000000
    25  H    2.641506   2.458513   1.096985   1.776303   0.000000
    26  O    4.272205   4.225785   1.433390   2.089033   2.086452
    27  H    4.750566   4.684016   1.952595   2.348515   2.285233
                   26         27
    26  O    0.000000
    27  H    0.971179   0.000000
 Stoichiometry    C8H15NO3
 Framework group  C1[X(C8H15NO3)]
 Deg. of freedom    75
 Full point group                 C1      NOp   1
 Largest Abelian subgroup         C1      NOp   1
 Largest concise Abelian subgroup C1      NOp   1
                         Standard orientation:                         
 ---------------------------------------------------------------------
 Center     Atomic      Atomic             Coordinates (Angstroms)
 Number     Number       Type             X           Y           Z
 ---------------------------------------------------------------------
      1          6           0        2.392510   -0.542900   -0.631129
      2          6           0        1.111541    0.289863   -0.838804
      3          7           0       -0.039735   -0.638401   -0.584576
      4          6           0        0.511471   -1.940720   -0.145138
      5          6           0        1.950319   -1.670101    0.315110
      6          6           0       -0.970008    0.015575    0.363691
      7          6           0       -0.629733    1.514627    0.268441
      8          6           0        0.896762    1.493917    0.103668
      9          1           0        2.716604   -0.961422   -1.590630
     10          1           0        3.226293    0.051578   -0.240849
     11          1           0        1.066326    0.668249   -1.868684
     12          1           0        0.514200   -2.647048   -0.986959
     13          1           0       -0.117776   -2.374609    0.635965
     14          1           0        2.589228   -2.557292    0.253331
     15          1           0        1.955658   -1.316721    1.351548
     16          1           0       -0.761065   -0.299688    1.398772
     17          1           0       -0.927343    2.056277    1.169126
     18          1           0        1.265694    2.429125   -0.335065
     19          8           0        1.442544    1.312855    1.415715
     20          1           0        2.407370    1.243711    1.326204
     21          8           0       -1.272840    2.192322   -0.815879
     22          1           0       -1.087710    1.703400   -1.635658
     23          6           0       -2.438057   -0.279456    0.087700
     24          1           0       -3.060034    0.351864    0.740407
     25          1           0       -2.686301   -0.035012   -0.952491
     26          8           0       -2.689606   -1.666328    0.348308
     27          1           0       -3.612618   -1.839221    0.100626
 ---------------------------------------------------------------------
 Rotational constants (GHZ):      1.2055053      0.9027592      0.6255705
 Standard basis: 6-31+G(d,p) (6D, 7F)
 There are   303 symmetry adapted basis functions of A   symmetry.
 Integral buffers will be    131072 words long.
 Raffenetti 2 integral format.
 Two-electron integral symmetry is turned on.
   303 basis functions,   489 primitive gaussians,   303 cartesian basis functions
    47 alpha electrons       47 beta electrons
       nuclear repulsion energy       811.8996983658 Hartrees.
 NAtoms=   27 NActive=   27 NUniq=   27 SFac= 1.00D+00 NAtFMM=   60 NAOKFM=F Big=F
 ------------------------------------------------------------------------------
 Polarizable Continuum Model (PCM)
 =================================
 Model                : PCM.
 Atomic radii         : UFF (Universal Force Field).
 Polarization charges : Total charges.
 Charge compensation  : None.
 Solution method      : Matrix inversion.
 Cavity type          : Scaled VdW (van der Waals Surface) (Alpha=1.100).
 Cavity algorithm     : GePol (No added spheres)
                        Default sphere list used, NSphG=   27.
                        Lebedev-Laikov grids with approx.  5.0 points / Ang**2.
                        Smoothing algorithm: Karplus/York (Gamma=1.0000).
                        Polarization charges: spherical gaussians, with
                                              point-specific exponents (IZeta= 3).
                        Self-potential: point-specific (ISelfS= 7).
                        Self-field    : sphere-specific E.n sum rule (ISelfD= 2).
 Solvent              : Water, Eps=  78.355300 Eps(inf)=   1.777849
 ------------------------------------------------------------------------------
 One-electron integrals computed using PRISM.
 NBasis=   303 RedAO= T  NBF=   303
 NBsUse=   303 1.00D-06 NBFU=   303
 Harris functional with IExCor=  908 diagonalized for initial guess.
 ExpMin= 4.38D-02 ExpMax= 5.48D+03 ExpMxC= 8.25D+02 IAcc=2 IRadAn=         4 AccDes= 0.00D+00
 HarFok:  IExCor=  908 AccDes= 0.00D+00 IRadAn=         4 IDoV= 1
 ScaDFX=  1.000000  1.000000  1.000000  1.000000
 FoFCou: FMM=F IPFlag=           0 FMFlag=      100000 FMFlg1=           0
         NFxFlg=           0 DoJE=T BraDBF=F KetDBF=T FulRan=T
         Omega=  0.000000  0.000000  1.000000  0.000000  0.000000 ICntrl=     500 IOpCl=  0
         NMat0=    1 NMatS0=    1 NMatT0=    0 NMatD0=    1 NMtDS0=    0 NMtDT0=    0
         I1Cent=           4 NGrid=           0.
 Petite list used in FoFCou.
 Initial guess orbital symmetries:
       Occupied  (A) (A) (A) (A) (A) (A) (A) (A) (A) (A) (A) (A)
                 (A) (A) (A) (A) (A) (A) (A) (A) (A) (A) (A) (A)
                 (A) (A) (A) (A) (A) (A) (A) (A) (A) (A) (A) (A)
                 (A) (A) (A) (A) (A) (A) (A) (A) (A) (A) (A)
       Virtual   (A) (A) (A) (A) (A) (A) (A) (A) (A) (A) (A) (A)
                 (A) (A) (A) (A) (A) (A) (A) (A) (A) (A) (A) (A)
                 (A) (A) (A) (A) (A) (A) (A) (A) (A) (A) (A) (A)
                 (A) (A) (A) (A) (A) (A) (A) (A) (A) (A) (A) (A)
                 (A) (A) (A) (A) (A) (A) (A) (A) (A) (A) (A) (A)
                 (A) (A) (A) (A) (A) (A) (A) (A) (A) (A) (A) (A)
                 (A) (A) (A) (A) (A) (A) (A) (A) (A) (A) (A) (A)
                 (A) (A) (A) (A) (A) (A) (A) (A) (A) (A) (A) (A)
                 (A) (A) (A) (A) (A) (A) (A) (A) (A) (A) (A) (A)
                 (A) (A) (A) (A) (A) (A) (A) (A) (A) (A) (A) (A)
                 (A) (A) (A) (A) (A) (A) (A) (A) (A) (A) (A) (A)
                 (A) (A) (A) (A) (A) (A) (A) (A) (A) (A) (A) (A)
                 (A) (A) (A) (A) (A) (A) (A) (A) (A) (A) (A) (A)
                 (A) (A) (A) (A) (A) (A) (A) (A) (A) (A) (A) (A)
                 (A) (A) (A) (A) (A) (A) (A) (A) (A) (A) (A) (A)
                 (A) (A) (A) (A) (A) (A) (A) (A) (A) (A) (A) (A)
                 (A) (A) (A) (A) (A) (A) (A) (A) (A) (A) (A) (A)
                 (A) (A) (A) (A) (A) (A) (A) (A) (A) (A) (A) (A)
                 (A) (A) (A) (A) (A) (A) (A) (A) (A) (A) (A) (A)
                 (A) (A) (A) (A) (A) (A) (A) (A) (A) (A) (A) (A)
                 (A) (A) (A) (A) (A) (A) (A) (A) (A) (A) (A) (A)
                 (A) (A) (A) (A)
 The electronic state of the initial guess is 1-A.
 Requested convergence on RMS density matrix=1.00D-08 within 128 cycles.
 Requested convergence on MAX density matrix=1.00D-06.
 Requested convergence on             energy=1.00D-06.
 No special actions if energy rises.
 Error on total polarization charges =  0.01416
 SCF Done:  E(RmPW1PW91) =  -594.193445768     A.U. after   13 cycles
             Convg  =    0.3596D-08             -V/T =  2.0094
 Range of M.O.s used for correlation:     1   303
 NBasis=   303 NAE=    47 NBE=    47 NFC=     0 NFV=     0
 NROrb=    303 NOA=    47 NOB=    47 NVA=   256 NVB=   256

 **** Warning!!: The largest alpha MO coefficient is  0.94769051D+02

 NEqPCM:  Using equilibrium solvation (IEInf=0, Eps=  78.3553, EpsInf=   1.7778)
          Differentiating once with respect to magnetic field using GIAOs.
          Electric field/nuclear overlap derivatives assumed to be zero.
 FoFCou: FMM=F IPFlag=           0 FMFlag=    10101102 FMFlg1=           0
         NFxFlg=    40000000 DoJE=F BraDBF=F KetDBF=T FulRan=T
         Omega=  0.000000  0.000000  1.000000  0.000000  0.000000 ICntrl=    6100 IOpCl=  0
         NMat0=    1 NMatS0=    1 NMatT0=    0 NMatD0=    1 NMtDS0=    0 NMtDT0=    0
         I1Cent=           7 NGrid=        1818.
 Symmetry not used in FoFCou.
          There are     3 degrees of freedom in the 1st order CPHF.  IDoFFX=0.
      3 vectors produced by pass  0 Test12= 4.01D-13 3.33D-08 XBig12= 3.73D+01 9.91D-01.
 AX will form     3 AO Fock derivatives at one time.
      3 vectors produced by pass  1 Test12= 4.01D-13 3.33D-08 XBig12= 9.48D-02 4.16D-02.
      3 vectors produced by pass  2 Test12= 4.01D-13 3.33D-08 XBig12= 1.45D-04 2.27D-03.
      3 vectors produced by pass  3 Test12= 4.01D-13 3.33D-08 XBig12= 6.61D-07 1.23D-04.
      3 vectors produced by pass  4 Test12= 4.01D-13 3.33D-08 XBig12= 2.46D-09 9.05D-06.
      3 vectors produced by pass  5 Test12= 4.01D-13 3.33D-08 XBig12= 8.08D-12 5.13D-07.
 Inverted reduced A of dimension    18 with in-core refinement.
 Calculating GIAO nuclear magnetic shielding tensors.
 SCF GIAO Magnetic shielding tensor (ppm):
      1  C    Isotropic =   168.0272   Anisotropy =    24.9520
   XX=   176.6197   YX=    -1.0240   ZX=    -0.9026
   XY=    -1.4176   YY=   173.0082   ZY=   -17.9153
   XZ=    -7.4649   YZ=   -19.2146   ZZ=   154.4536
   Eigenvalues:   142.4600   176.9596   184.6619
      2  C    Isotropic =   126.5868   Anisotropy =    60.8245
   XX=   147.4486   YX=    20.7267   ZX=    -3.7693
   XY=    23.5982   YY=   141.8340   ZY=    -5.0474
   XZ=    -7.1122   YZ=     6.9752   ZZ=    90.4777
   Eigenvalues:    89.7506   122.8732   167.1364
      3  N    Isotropic =   192.7888   Anisotropy =    84.3316
   XX=   234.3363   YX=     4.3885   ZX=   -34.6693
   XY=    -4.9384   YY=   203.5595   ZY=    -5.3793
   XZ=   -44.9014   YZ=    -7.1177   ZZ=   140.4705
   Eigenvalues:   125.4215   203.9350   249.0098
      4  C    Isotropic =   139.7474   Anisotropy =    58.3449
   XX=   140.2561   YX=   -21.4412   ZX=     1.1242
   XY=   -12.3815   YY=   164.1737   ZY=   -18.6599
   XZ=    14.7319   YZ=   -16.1458   ZZ=   114.8125
   Eigenvalues:   109.0598   131.5385   178.6440
      5  C    Isotropic =   168.4444   Anisotropy =    23.6151
   XX=   176.5730   YX=    -1.7752   ZX=     4.3260
   XY=     1.4871   YY=   177.9319   ZY=    -9.3800
   XZ=     8.4815   YZ=   -16.8298   ZZ=   150.8282
   Eigenvalues:   144.4455   176.6998   184.1878
      6  C    Isotropic =   126.1057   Anisotropy =    38.2374
   XX=   129.8675   YX=   -13.0514   ZX=   -12.7238
   XY=    -6.7555   YY=   134.4207   ZY=    15.1160
   XZ=   -22.2457   YZ=     3.4474   ZZ=   114.0288
   Eigenvalues:   102.5364   124.1833   151.5973
      7  C    Isotropic =   113.1139   Anisotropy =    29.4740
   XX=   123.1115   YX=    -7.8631   ZX=    11.5740
   XY=     1.4860   YY=   110.2074   ZY=    -2.7719
   XZ=    13.6270   YZ=   -18.6527   ZZ=   106.0228
   Eigenvalues:    94.7183   111.8602   132.7632
      8  C    Isotropic =   115.1841   Anisotropy =    28.0379
   XX=   118.3017   YX=    -1.4897   ZX=    16.6116
   XY=   -11.1922   YY=   108.8157   ZY=   -10.0368
   XZ=    11.5616   YZ=     5.9257   ZZ=   118.4348
   Eigenvalues:   102.4846   109.1915   133.8760
      9  H    Isotropic =    29.6891   Anisotropy =    12.3586
   XX=    29.5075   YX=    -2.6557   ZX=    -5.4620
   XY=    -2.9862   YY=    26.4167   ZY=     1.3852
   XZ=    -5.7458   YZ=     1.5400   ZZ=    33.1431
   Eigenvalues:    24.1822    26.9569    37.9282
     10  H    Isotropic =    29.9316   Anisotropy =     9.7003
   XX=    35.1385   YX=     2.6548   ZX=     0.4020
   XY=     3.4060   YY=    28.8982   ZY=     1.1789
   XZ=    -0.0244   YZ=     0.9133   ZZ=    25.7581
   Eigenvalues:    25.3766    28.0196    36.3985
     11  H    Isotropic =    27.8183   Anisotropy =     8.2576
   XX=    26.1848   YX=     0.0309   ZX=    -1.3736
   XY=    -0.3288   YY=    25.6063   ZY=    -3.7482
   XZ=    -1.6223   YZ=    -2.7570   ZZ=    31.6639
   Eigenvalues:    23.9297    26.2019    33.3234
     12  H    Isotropic =    28.5256   Anisotropy =    11.4105
   XX=    26.0159   YX=    -1.4225   ZX=     0.8802
   XY=    -0.4712   YY=    33.7033   ZY=     5.4348
   XZ=     2.3464   YZ=     4.5519   ZZ=    25.8575
   Eigenvalues:    22.4536    26.9905    36.1326
     13  H    Isotropic =    28.5653   Anisotropy =     7.5517
   XX=    30.5414   YX=     1.0958   ZX=    -1.1043
   XY=     1.4555   YY=    30.6323   ZY=    -4.1654
   XZ=    -2.1500   YZ=    -3.4212   ZZ=    24.5222
   Eigenvalues:    22.5960    29.5002    33.5998
     14  H    Isotropic =    30.1087   Anisotropy =    12.7888
   XX=    30.7921   YX=    -5.3682   ZX=     0.5038
   XY=    -5.9068   YY=    34.2318   ZY=    -1.5153
   XZ=     0.9164   YZ=    -1.7756   ZZ=    25.3021
   Eigenvalues:    24.9739    26.7175    38.6346
     15  H    Isotropic =    29.8725   Anisotropy =     7.8833
   XX=    27.1424   YX=    -0.1726   ZX=     1.5656
   XY=    -0.1464   YY=    27.8833   ZY=     0.0883
   XZ=     2.4537   YZ=    -0.9462   ZZ=    34.5919
   Eigenvalues:    26.6328    27.8567    35.1281
     16  H    Isotropic =    28.4446   Anisotropy =     5.5998
   XX=    28.9770   YX=    -0.0243   ZX=    -1.4511
   XY=     1.0528   YY=    25.5530   ZY=     1.0383
   XZ=    -2.7228   YZ=    -0.9588   ZZ=    30.8037
   Eigenvalues:    25.4494    27.7066    32.1778
     17  H    Isotropic =    27.5143   Anisotropy =     5.3963
   XX=    25.8883   YX=    -2.1398   ZX=     0.4933
   XY=    -2.1838   YY=    28.0110   ZY=     1.9525
   XZ=    -0.0375   YZ=     2.8938   ZZ=    28.6436
   Eigenvalues:    23.9913    27.4398    31.1119
     18  H    Isotropic =    27.6825   Anisotropy =     6.9372
   XX=    25.0033   YX=     1.3790   ZX=     1.4284
   XY=     2.3220   YY=    31.1966   ZY=    -1.6738
   XZ=     1.6435   YZ=    -2.7360   ZZ=    26.8476
   Eigenvalues:    23.1985    27.5417    32.3073
     19  O    Isotropic =   298.8780   Anisotropy =    50.5208
   XX=   329.5413   YX=    -5.0414   ZX=    -0.6971
   XY=   -19.3420   YY=   274.2526   ZY=   -14.1791
   XZ=    -9.0491   YZ=     8.7440   ZZ=   292.8403
   Eigenvalues:   271.0589   293.0166   332.5586
     20  H    Isotropic =    29.9860   Anisotropy =    17.8312
   XX=    41.4665   YX=    -0.5303   ZX=     2.2394
   XY=    -0.9877   YY=    22.3984   ZY=     3.8429
   XZ=     2.8057   YZ=     2.3355   ZZ=    26.0931
   Eigenvalues:    20.4698    27.6147    41.8734
     21  O    Isotropic =   298.0218   Anisotropy =    26.2720
   XX=   286.7935   YX=    -3.1769   ZX=   -18.3586
   XY=     1.2914   YY=   293.6465   ZY=    17.1092
   XZ=     8.3403   YZ=    -7.9100   ZZ=   313.6252
   Eigenvalues:   285.8872   292.6417   315.5364
     22  H    Isotropic =    30.4017   Anisotropy =    13.0784
   XX=    24.4155   YX=    -4.1519   ZX=     0.9974
   XY=    -3.2096   YY=    28.3399   ZY=     2.2952
   XZ=     1.3029   YZ=     3.0672   ZZ=    38.4497
   Eigenvalues:    21.8621    30.2224    39.1206
     23  C    Isotropic =   127.7987   Anisotropy =    46.3671
   XX=   121.9231   YX=     5.4917   ZX=    -2.4465
   XY=    16.3061   YY=   152.9956   ZY=   -11.9815
   XZ=    -4.7503   YZ=    -8.1556   ZZ=   108.4776
   Eigenvalues:   106.1924   118.4937   158.7101
     24  H    Isotropic =    27.5552   Anisotropy =     6.1791
   XX=    29.6723   YX=    -0.0211   ZX=    -2.8218
   XY=    -1.4677   YY=    29.8488   ZY=     1.7583
   XZ=    -3.5530   YZ=     0.4999   ZZ=    23.1446
   Eigenvalues:    21.7727    29.2183    31.6746
     25  H    Isotropic =    27.8566   Anisotropy =     5.8353
   XX=    27.7491   YX=     2.0767   ZX=     2.3780
   XY=     1.2655   YY=    29.7477   ZY=    -4.7103
   XZ=     2.8487   YZ=    -2.0163   ZZ=    26.0729
   Eigenvalues:    22.3103    29.5127    31.7468
     26  O    Isotropic =   313.4160   Anisotropy =    82.6296
   XX=   355.4458   YX=    38.1224   ZX=    11.4238
   XY=    19.1956   YY=   292.7924   ZY=     1.1626
   XZ=    13.7870   YZ=     0.8957   ZZ=   292.0096
   Eigenvalues:   280.3551   291.3904   368.5024
     27  H    Isotropic =    30.1778   Anisotropy =    21.6123
   XX=    41.2828   YX=     5.6236   ZX=     4.7364
   XY=     7.2210   YY=    27.8572   ZY=     0.0804
   XZ=     4.2166   YZ=    -0.4412   ZZ=    21.3933
   Eigenvalues:    20.0483    25.8991    44.5859
 End of Minotr Frequency-dependent properties file   721 does not exist.
 End of Minotr Frequency-dependent properties file   722 does not exist.

 **********************************************************************

            Population analysis using the SCF density.

 **********************************************************************

 Orbital symmetries:
       Occupied  (A) (A) (A) (A) (A) (A) (A) (A) (A) (A) (A) (A)
                 (A) (A) (A) (A) (A) (A) (A) (A) (A) (A) (A) (A)
                 (A) (A) (A) (A) (A) (A) (A) (A) (A) (A) (A) (A)
                 (A) (A) (A) (A) (A) (A) (A) (A) (A) (A) (A)
       Virtual   (A) (A) (A) (A) (A) (A) (A) (A) (A) (A) (A) (A)
                 (A) (A) (A) (A) (A) (A) (A) (A) (A) (A) (A) (A)
                 (A) (A) (A) (A) (A) (A) (A) (A) (A) (A) (A) (A)
                 (A) (A) (A) (A) (A) (A) (A) (A) (A) (A) (A) (A)
                 (A) (A) (A) (A) (A) (A) (A) (A) (A) (A) (A) (A)
                 (A) (A) (A) (A) (A) (A) (A) (A) (A) (A) (A) (A)
                 (A) (A) (A) (A) (A) (A) (A) (A) (A) (A) (A) (A)
                 (A) (A) (A) (A) (A) (A) (A) (A) (A) (A) (A) (A)
                 (A) (A) (A) (A) (A) (A) (A) (A) (A) (A) (A) (A)
                 (A) (A) (A) (A) (A) (A) (A) (A) (A) (A) (A) (A)
                 (A) (A) (A) (A) (A) (A) (A) (A) (A) (A) (A) (A)
                 (A) (A) (A) (A) (A) (A) (A) (A) (A) (A) (A) (A)
                 (A) (A) (A) (A) (A) (A) (A) (A) (A) (A) (A) (A)
                 (A) (A) (A) (A) (A) (A) (A) (A) (A) (A) (A) (A)
                 (A) (A) (A) (A) (A) (A) (A) (A) (A) (A) (A) (A)
                 (A) (A) (A) (A) (A) (A) (A) (A) (A) (A) (A) (A)
                 (A) (A) (A) (A) (A) (A) (A) (A) (A) (A) (A) (A)
                 (A) (A) (A) (A) (A) (A) (A) (A) (A) (A) (A) (A)
                 (A) (A) (A) (A) (A) (A) (A) (A) (A) (A) (A) (A)
                 (A) (A) (A) (A) (A) (A) (A) (A) (A) (A) (A) (A)
                 (A) (A) (A) (A) (A) (A) (A) (A) (A) (A) (A) (A)
                 (A) (A) (A) (A)
 The electronic state is 1-A.
 Alpha  occ. eigenvalues --  -19.26197 -19.25947 -19.25355 -14.40979 -10.30801
 Alpha  occ. eigenvalues --  -10.30377 -10.29358 -10.27966 -10.27919 -10.26493
 Alpha  occ. eigenvalues --  -10.25067 -10.24209  -1.07310  -1.05843  -1.05404
 Alpha  occ. eigenvalues --   -0.95896  -0.82666  -0.79001  -0.75551  -0.72247
 Alpha  occ. eigenvalues --   -0.66231  -0.62292  -0.59814  -0.57795  -0.55263
 Alpha  occ. eigenvalues --   -0.53845  -0.51691  -0.50188  -0.49231  -0.47214
 Alpha  occ. eigenvalues --   -0.45976  -0.44630  -0.44128  -0.41883  -0.40485
 Alpha  occ. eigenvalues --   -0.39311  -0.37989  -0.37772  -0.36525  -0.35665
 Alpha  occ. eigenvalues --   -0.35086  -0.34472  -0.33464  -0.30341  -0.30010
 Alpha  occ. eigenvalues --   -0.29085  -0.22891
 Alpha virt. eigenvalues --    0.00513   0.01226   0.01827   0.02391   0.02923
 Alpha virt. eigenvalues --    0.04271   0.04651   0.05325   0.05384   0.07093
 Alpha virt. eigenvalues --    0.07350   0.08218   0.08360   0.08696   0.09520
 Alpha virt. eigenvalues --    0.10670   0.11307   0.12080   0.12503   0.12802
 Alpha virt. eigenvalues --    0.13132   0.13514   0.14134   0.14857   0.15328
 Alpha virt. eigenvalues --    0.15837   0.16419   0.17722   0.18069   0.18667
 Alpha virt. eigenvalues --    0.19289   0.19708   0.20412   0.20741   0.20944
 Alpha virt. eigenvalues --    0.20999   0.21691   0.22580   0.22873   0.23142
 Alpha virt. eigenvalues --    0.23248   0.24224   0.24712   0.25004   0.25620
 Alpha virt. eigenvalues --    0.26232   0.27014   0.27494   0.27966   0.28228
 Alpha virt. eigenvalues --    0.29559   0.29734   0.31153   0.31614   0.32017
 Alpha virt. eigenvalues --    0.32930   0.33271   0.34001   0.34278   0.34905
 Alpha virt. eigenvalues --    0.35308   0.35478   0.36750   0.37636   0.38294
 Alpha virt. eigenvalues --    0.38865   0.39816   0.41000   0.41248   0.42113
 Alpha virt. eigenvalues --    0.43492   0.44242   0.44929   0.45280   0.45808
 Alpha virt. eigenvalues --    0.48038   0.65281   0.66883   0.67530   0.68760
 Alpha virt. eigenvalues --    0.68995   0.70700   0.72030   0.73972   0.74456
 Alpha virt. eigenvalues --    0.76935   0.78468   0.78527   0.80680   0.81016
 Alpha virt. eigenvalues --    0.83612   0.84521   0.85931   0.87383   0.88066
 Alpha virt. eigenvalues --    0.89950   0.90606   0.93063   0.94246   0.97047
 Alpha virt. eigenvalues --    0.98651   1.00125   1.03124   1.03825   1.04882
 Alpha virt. eigenvalues --    1.05721   1.06807   1.06994   1.08210   1.10556
 Alpha virt. eigenvalues --    1.11146   1.12569   1.13568   1.14883   1.15355
 Alpha virt. eigenvalues --    1.17309   1.17964   1.19472   1.24123   1.25804
 Alpha virt. eigenvalues --    1.26826   1.28715   1.29292   1.30563   1.32038
 Alpha virt. eigenvalues --    1.34422   1.35809   1.39344   1.39875   1.42313
 Alpha virt. eigenvalues --    1.43134   1.45383   1.47342   1.50411   1.51761
 Alpha virt. eigenvalues --    1.53843   1.56659   1.57208   1.60366   1.60766
 Alpha virt. eigenvalues --    1.61222   1.64619   1.66433   1.68834   1.71494
 Alpha virt. eigenvalues --    1.73171   1.75631   1.77401   1.78078   1.78996
 Alpha virt. eigenvalues --    1.81584   1.83150   1.84544   1.86640   1.87573
 Alpha virt. eigenvalues --    1.89609   1.90420   1.92614   1.93826   1.96707
 Alpha virt. eigenvalues --    1.97860   1.99325   2.00997   2.01684   2.02867
 Alpha virt. eigenvalues --    2.04708   2.06233   2.07680   2.08933   2.12572
 Alpha virt. eigenvalues --    2.13635   2.15221   2.16889   2.18505   2.20040
 Alpha virt. eigenvalues --    2.21163   2.22239   2.25255   2.27821   2.28587
 Alpha virt. eigenvalues --    2.30359   2.32272   2.35127   2.37250   2.38526
 Alpha virt. eigenvalues --    2.40765   2.43139   2.44863   2.47674   2.47703
 Alpha virt. eigenvalues --    2.48951   2.51139   2.53290   2.53889   2.55188
 Alpha virt. eigenvalues --    2.56559   2.57671   2.59847   2.62786   2.63503
 Alpha virt. eigenvalues --    2.63933   2.65764   2.67115   2.68883   2.69253
 Alpha virt. eigenvalues --    2.70977   2.73288   2.76060   2.76403   2.77262
 Alpha virt. eigenvalues --    2.78891   2.80021   2.81340   2.83608   2.85059
 Alpha virt. eigenvalues --    2.86401   2.89908   2.90056   2.91269   2.94974
 Alpha virt. eigenvalues --    2.97100   2.98768   3.02416   3.03172   3.03674
 Alpha virt. eigenvalues --    3.05228   3.09892   3.11084   3.16849   3.32851
 Alpha virt. eigenvalues --    3.36029   3.37203   3.39068   3.43631   3.44712
 Alpha virt. eigenvalues --    3.45563   3.49522   3.53576   3.54613   3.55515
 Alpha virt. eigenvalues --    3.56808   3.58461   3.59309   3.60832   4.32782
 Alpha virt. eigenvalues --    4.34940   4.38268   4.44081   4.52073   4.58910
 Alpha virt. eigenvalues --    4.61575   4.68860   4.79773   4.81827   4.89820
 Alpha virt. eigenvalues --    5.00081
          Condensed to atoms (all electrons):
              1          2          3          4          5          6
     1  C    6.259067  -0.724029   0.050098   0.029581   0.164987   0.077077
     2  C   -0.724029   8.100498  -0.112033  -0.083235  -0.111850  -0.737129
     3  N    0.050098  -0.112033   7.484873   0.083701  -0.094382  -0.146473
     4  C    0.029581  -0.083235   0.083701   5.978142   0.048027  -0.219037
     5  C    0.164987  -0.111850  -0.094382   0.048027   5.444720   0.019460
     6  C    0.077077  -0.737129  -0.146473  -0.219037   0.019460   8.860394
     7  C   -0.427779   0.868424  -0.153998  -0.296851   0.096468  -1.434420
     8  C    0.157494  -1.297208  -0.077168  -0.016994   0.090644   0.899963
     9  H    0.447760  -0.107724   0.011631  -0.000305  -0.048687   0.013730
    10  H    0.363495  -0.102568   0.017301   0.022929  -0.009273  -0.005243
    11  H    0.019835   0.202864  -0.012506  -0.019291   0.022386  -0.014595
    12  H    0.018997  -0.038109  -0.024816   0.360169  -0.037368   0.023758
    13  H    0.021796   0.026344  -0.076634   0.414522  -0.038056   0.014771
    14  H   -0.048063   0.032379   0.013671  -0.036598   0.366006   0.003074
    15  H   -0.038805  -0.011277   0.012174  -0.086228   0.439291   0.014874
    16  H    0.000697   0.035509  -0.070935   0.071628  -0.012336   0.279315
    17  H    0.013564   0.010726   0.024560   0.002007  -0.000434  -0.002721
    18  H   -0.009073  -0.001385   0.015829  -0.004480  -0.000640  -0.029085
    19  O    0.041020  -0.129732   0.046069  -0.030052   0.015203  -0.046435
    20  H   -0.000332  -0.069242  -0.001124  -0.005985   0.006896  -0.003584
    21  O    0.023257   0.001712   0.046193   0.014135  -0.004271  -0.206675
    22  H    0.017950   0.028761   0.023164   0.007458  -0.002311  -0.038467
    23  C    0.033280   0.144360   0.088473   0.046322  -0.061896  -1.087041
    24  H    0.000466   0.007248  -0.000686  -0.008472   0.001183  -0.104332
    25  H    0.001229   0.003486   0.023373   0.016328  -0.001688  -0.157257
    26  O    0.001659   0.000294  -0.018776  -0.024330   0.007021   0.022052
    27  H   -0.000189  -0.002291  -0.001151  -0.000246  -0.000081   0.051269
              7          8          9         10         11         12
     1  C   -0.427779   0.157494   0.447760   0.363495   0.019835   0.018997
     2  C    0.868424  -1.297208  -0.107724  -0.102568   0.202864  -0.038109
     3  N   -0.153998  -0.077168   0.011631   0.017301  -0.012506  -0.024816
     4  C   -0.296851  -0.016994  -0.000305   0.022929  -0.019291   0.360169
     5  C    0.096468   0.090644  -0.048687  -0.009273   0.022386  -0.037368
     6  C   -1.434420   0.899963   0.013730  -0.005243  -0.014595   0.023758
     7  C    7.972498  -1.321726  -0.010188  -0.012126  -0.002657   0.001806
     8  C   -1.321726   7.460899   0.028225   0.057120   0.060003   0.004287
     9  H   -0.010188   0.028225   0.511163  -0.023107  -0.006620   0.001372
    10  H   -0.012126   0.057120  -0.023107   0.535305   0.002604  -0.000045
    11  H   -0.002657   0.060003  -0.006620   0.002604   0.573996   0.000780
    12  H    0.001806   0.004287   0.001372  -0.000045   0.000780   0.559187
    13  H    0.011261  -0.021007  -0.000108  -0.000144  -0.000197  -0.030936
    14  H    0.003968   0.001388  -0.004940   0.000753  -0.000047  -0.003308
    15  H    0.004268  -0.002044   0.004047  -0.005432  -0.000095   0.004085
    16  H   -0.026820  -0.033843  -0.000006  -0.000013  -0.000574  -0.000398
    17  H    0.266909   0.034623   0.000003  -0.000007  -0.000119   0.000003
    18  H    0.089058   0.247677  -0.000023   0.000258  -0.001623   0.000006
    19  O    0.005102   0.118876   0.000294  -0.007834   0.009055   0.000327
    20  H   -0.003444   0.091632  -0.000050   0.005888   0.000241   0.000000
    21  O    0.385563  -0.138125  -0.000016   0.000042  -0.000186   0.000072
    22  H   -0.018108  -0.028052   0.000009  -0.000002  -0.000289   0.000007
    23  C    0.189848  -0.339531  -0.000408  -0.001364   0.002041   0.003587
    24  H    0.036384   0.008321   0.000000   0.000000  -0.000008  -0.000003
    25  H   -0.005173  -0.024453   0.000000   0.000000  -0.000032   0.000023
    26  O    0.059914  -0.015949  -0.000022  -0.000003  -0.000093  -0.000748
    27  H   -0.008626   0.003349   0.000000   0.000000   0.000000   0.000012
             13         14         15         16         17         18
     1  C    0.021796  -0.048063  -0.038805   0.000697   0.013564  -0.009073
     2  C    0.026344   0.032379  -0.011277   0.035509   0.010726  -0.001385
     3  N   -0.076634   0.013671   0.012174  -0.070935   0.024560   0.015829
     4  C    0.414522  -0.036598  -0.086228   0.071628   0.002007  -0.004480
     5  C   -0.038056   0.366006   0.439291  -0.012336  -0.000434  -0.000640
     6  C    0.014771   0.003074   0.014874   0.279315  -0.002721  -0.029085
     7  C    0.011261   0.003968   0.004268  -0.026820   0.266909   0.089058
     8  C   -0.021007   0.001388  -0.002044  -0.033843   0.034623   0.247677
     9  H   -0.000108  -0.004940   0.004047  -0.000006   0.000003  -0.000023
    10  H   -0.000144   0.000753  -0.005432  -0.000013  -0.000007   0.000258
    11  H   -0.000197  -0.000047  -0.000095  -0.000574  -0.000119  -0.001623
    12  H   -0.030936  -0.003308   0.004085  -0.000398   0.000003   0.000006
    13  H    0.523662   0.001028  -0.005929   0.003339  -0.000017   0.000005
    14  H    0.001028   0.524761  -0.024293  -0.000119  -0.000001   0.000005
    15  H   -0.005929  -0.024293   0.515467   0.000101   0.000018   0.000032
    16  H    0.003339  -0.000119   0.000101   0.559740  -0.003647  -0.000133
    17  H   -0.000017  -0.000001   0.000018  -0.003647   0.526724  -0.002614
    18  H    0.000005   0.000005   0.000032  -0.000133  -0.002614   0.560747
    19  O    0.000755   0.000233   0.002126   0.000013  -0.002291  -0.035904
    20  H   -0.000012   0.000031  -0.000411  -0.000077   0.000059  -0.004705
    21  O   -0.000035   0.000002  -0.000003   0.009240  -0.046399  -0.004986
    22  H   -0.000003   0.000000   0.000001  -0.000078   0.006161  -0.000884
    23  C   -0.015435   0.000241  -0.000478   0.007304  -0.011663   0.008730
    24  H   -0.000026   0.000000   0.000000  -0.003523   0.001071  -0.000006
    25  H    0.000042   0.000000   0.000001   0.004717   0.000122  -0.000001
    26  O    0.001266   0.000013  -0.000197   0.004382  -0.000715   0.000022
    27  H    0.000009   0.000000   0.000000  -0.000088   0.000000   0.000000
             19         20         21         22         23         24
     1  C    0.041020  -0.000332   0.023257   0.017950   0.033280   0.000466
     2  C   -0.129732  -0.069242   0.001712   0.028761   0.144360   0.007248
     3  N    0.046069  -0.001124   0.046193   0.023164   0.088473  -0.000686
     4  C   -0.030052  -0.005985   0.014135   0.007458   0.046322  -0.008472
     5  C    0.015203   0.006896  -0.004271  -0.002311  -0.061896   0.001183
     6  C   -0.046435  -0.003584  -0.206675  -0.038467  -1.087041  -0.104332
     7  C    0.005102  -0.003444   0.385563  -0.018108   0.189848   0.036384
     8  C    0.118876   0.091632  -0.138125  -0.028052  -0.339531   0.008321
     9  H    0.000294  -0.000050  -0.000016   0.000009  -0.000408   0.000000
    10  H   -0.007834   0.005888   0.000042  -0.000002  -0.001364   0.000000
    11  H    0.009055   0.000241  -0.000186  -0.000289   0.002041  -0.000008
    12  H    0.000327   0.000000   0.000072   0.000007   0.003587  -0.000003
    13  H    0.000755  -0.000012  -0.000035  -0.000003  -0.015435  -0.000026
    14  H    0.000233   0.000031   0.000002   0.000000   0.000241   0.000000
    15  H    0.002126  -0.000411  -0.000003   0.000001  -0.000478   0.000000
    16  H    0.000013  -0.000077   0.009240  -0.000078   0.007304  -0.003523
    17  H   -0.002291   0.000059  -0.046399   0.006161  -0.011663   0.001071
    18  H   -0.035904  -0.004705  -0.004986  -0.000884   0.008730  -0.000006
    19  O    8.287559   0.234417   0.006227  -0.000285   0.037527  -0.000221
    20  H    0.234417   0.378783  -0.000248   0.000000  -0.006735   0.000000
    21  O    0.006227  -0.000248   8.148110   0.268112   0.003401  -0.005897
    22  H   -0.000285   0.000000   0.268112   0.355398  -0.000037   0.000449
    23  C    0.037527  -0.006735   0.003401  -0.000037   6.146702   0.434336
    24  H   -0.000221   0.000000  -0.005897   0.000449   0.434336   0.579629
    25  H    0.000130   0.000000   0.010332  -0.000414   0.503516  -0.045180
    26  O    0.000179  -0.000019  -0.003697  -0.000126   0.040454  -0.054877
    27  H   -0.000010   0.000000   0.000240  -0.000007  -0.033993  -0.004121
             25         26         27
     1  C    0.001229   0.001659  -0.000189
     2  C    0.003486   0.000294  -0.002291
     3  N    0.023373  -0.018776  -0.001151
     4  C    0.016328  -0.024330  -0.000246
     5  C   -0.001688   0.007021  -0.000081
     6  C   -0.157257   0.022052   0.051269
     7  C   -0.005173   0.059914  -0.008626
     8  C   -0.024453  -0.015949   0.003349
     9  H    0.000000  -0.000022   0.000000
    10  H    0.000000  -0.000003   0.000000
    11  H   -0.000032  -0.000093   0.000000
    12  H    0.000023  -0.000748   0.000012
    13  H    0.000042   0.001266   0.000009
    14  H    0.000000   0.000013   0.000000
    15  H    0.000001  -0.000197   0.000000
    16  H    0.004717   0.004382  -0.000088
    17  H    0.000122  -0.000715   0.000000
    18  H   -0.000001   0.000022   0.000000
    19  O    0.000130   0.000179  -0.000010
    20  H    0.000000  -0.000019   0.000000
    21  O    0.010332  -0.003697   0.000240
    22  H   -0.000414  -0.000126  -0.000007
    23  C    0.503516   0.040454  -0.033993
    24  H   -0.045180  -0.054877  -0.004121
    25  H    0.567445  -0.050790  -0.005152
    26  O   -0.050790   8.399437   0.227572
    27  H   -0.005152   0.227572   0.379472
 Mulliken atomic charges:
              1
     1  C   -0.495036
     2  C    0.065205
     3  N   -0.150428
     4  C   -0.262845
     5  C   -0.299018
     6  C   -0.047243
     7  C   -0.269555
     8  C    0.051598
     9  H    0.183971
    10  H    0.161465
    11  H    0.165129
    12  H    0.157253
    13  H    0.169741
    14  H    0.169815
    15  H    0.178706
    16  H    0.176606
    17  H    0.184078
    18  H    0.173170
    19  O   -0.552350
    20  H    0.378021
    21  O   -0.506102
    22  H    0.381595
    23  C   -0.131543
    24  H    0.158265
    25  H    0.159396
    26  O   -0.593923
    27  H    0.394030
 Sum of Mulliken atomic charges =   0.00000
 Mulliken charges with hydrogens summed into heavy atoms:
              1
     1  C   -0.149600
     2  C    0.230334
     3  N   -0.150428
     4  C    0.064149
     5  C    0.049503
     6  C    0.129363
     7  C   -0.085478
     8  C    0.224768
    19  O   -0.174329
    21  O   -0.124506
    23  C    0.186118
    26  O   -0.199893
 Sum of Mulliken charges with hydrogens summed into heavy atoms =   0.00000
 Electronic spatial extent (au):  <R**2>=           1981.7437
 Charge=              0.0000 electrons
 Dipole moment (field-independent basis, Debye):
    X=              1.9746    Y=             -0.3486    Z=             -1.3932  Tot=              2.4416
 Quadrupole moment (field-independent basis, Debye-Ang):
   XX=            -57.7426   YY=            -80.7224   ZZ=            -74.4315
   XY=              3.6207   XZ=             -0.2292   YZ=             -0.3679
 Traceless Quadrupole moment (field-independent basis, Debye-Ang):
   XX=             13.2229   YY=             -9.7569   ZZ=             -3.4660
   XY=              3.6207   XZ=             -0.2292   YZ=             -0.3679
 Octapole moment (field-independent basis, Debye-Ang**2):
  XXX=            -30.3685  YYY=            -13.4201  ZZZ=            -10.9072  XYY=             13.9099
  XXY=             -9.8074  XXZ=              1.3973  XZZ=             -4.0259  YZZ=              4.3952
  YYZ=              0.3022  XYZ=             -6.3692
 Hexadecapole moment (field-independent basis, Debye-Ang**3):
 XXXX=          -1033.9725 YYYY=           -988.4860 ZZZZ=           -303.2541 XXXY=            127.0806
 XXXZ=             40.8807 YYYX=             42.9986 YYYZ=             18.1067 ZZZX=             10.1582
 ZZZY=            -21.1850 XXYY=           -357.1263 XXZZ=           -262.4750 YYZZ=           -212.4536
 XXYZ=             25.4063 YYXZ=             -6.8688 ZZXY=             -9.7845
 N-N= 8.118996983658D+02 E-N=-3.010062680927D+03  KE= 5.886538494930D+02
 1\1\GINC-COMPUTE-3-2\SP\RmPW1PW91\6-31+G(d,p)\C8H15N1O3\MAMICHETTI.IQU
 IR\17-May-2024\0\\# mpw1pw91/6-31+G** nmr scrf=(pcm,solvent=water)\\co
 mment\\0,1\C,0,-2.39251,0.5429,-0.631129\C,0,-1.111541,-0.289863,-0.83
 8804\N,0,0.039735,0.638401,-0.584576\C,0,-0.511471,1.94072,-0.145138\C
 ,0,-1.950319,1.670101,0.31511\C,0,0.970008,-0.015575,0.363691\C,0,0.62
 9733,-1.514627,0.268441\C,0,-0.896762,-1.493917,0.103668\H,0,-2.716604
 ,0.961422,-1.59063\H,0,-3.226293,-0.051578,-0.240849\H,0,-1.066326,-0.
 668249,-1.868684\H,0,-0.5142,2.647048,-0.986959\H,0,0.117776,2.374609,
 0.635965\H,0,-2.589228,2.557292,0.253331\H,0,-1.955658,1.316721,1.3515
 48\H,0,0.761065,0.299688,1.398772\H,0,0.927343,-2.056277,1.169126\H,0,
 -1.265694,-2.429125,-0.335065\O,0,-1.442544,-1.312855,1.415715\H,0,-2.
 40737,-1.243711,1.326204\O,0,1.27284,-2.192322,-0.815879\H,0,1.08771,-
 1.7034,-1.635658\C,0,2.438057,0.279456,0.0877\H,0,3.060034,-0.351864,0
 .740407\H,0,2.686301,0.035012,-0.952491\O,0,2.689606,1.666328,0.348308
 \H,0,3.612618,1.839221,0.100626\\Version=AM64L-G09RevC.01\State=1-A\HF
 =-594.1934458\RMSD=3.596e-09\Dipole=-0.7768625,0.1371501,-0.5481259\Qu
 adrupole=9.8308884,-7.2540226,-2.5768658,2.6919017,0.1704162,0.2735534
 \PG=C01 [X(C8H15N1O3)]\\@


 THERE IS NO SUBJECT, HOWEVER COMPLEX,
 WHICH, IF STUDIED WITH PATIENCE AND INTELLIGIENCE
 WILL NOT BECOME
 MORE COMPLEX
                        QUOTED BY D. GORDON ROHMAN
 Job cpu time:  0 days  0 hours  8 minutes 43.9 seconds.
 File lengths (MBytes):  RWF=    112 Int=      0 D2E=      0 Chk=      7 Scr=      1
 Normal termination of Gaussian 09 at Fri May 17 12:50:42 2024.
