 Entering Gaussian System, Link 0=g09
 Input=/home/mamichetti.iquir/Linux/03_Cardona_A1A3_R__S_S_R_006_OptB.gjc
 Output=/home/mamichetti.iquir/Linux/03_Cardona_A1A3_R__S_S_R_006_OptB.log
 Initial command:
 /opt/ohpc/pub/apps/software/Gaussian/09/AMD64.SSE4a-enabled/g09/l1.exe /local/mamichetti.iquir/Gau-132470.inp -scrdir=/local/mamichetti.iquir/
 Entering Link 1 = /opt/ohpc/pub/apps/software/Gaussian/09/AMD64.SSE4a-enabled/g09/l1.exe PID=    132471.
  
 Copyright (c) 1988,1990,1992,1993,1995,1998,2003,2009,2011,
            Gaussian, Inc.  All Rights Reserved.
  
 This is part of the Gaussian(R) 09 program.  It is based on
 the Gaussian(R) 03 system (copyright 2003, Gaussian, Inc.),
 the Gaussian(R) 98 system (copyright 1998, Gaussian, Inc.),
 the Gaussian(R) 94 system (copyright 1995, Gaussian, Inc.),
 the Gaussian 92(TM) system (copyright 1992, Gaussian, Inc.),
 the Gaussian 90(TM) system (copyright 1990, Gaussian, Inc.),
 the Gaussian 88(TM) system (copyright 1988, Gaussian, Inc.),
 the Gaussian 86(TM) system (copyright 1986, Carnegie Mellon
 University), and the Gaussian 82(TM) system (copyright 1983,
 Carnegie Mellon University). Gaussian is a federally registered
 trademark of Gaussian, Inc.
  
 This software contains proprietary and confidential information,
 including trade secrets, belonging to Gaussian, Inc.
  
 This software is provided under written license and may be
 used, copied, transmitted, or stored only in accord with that
 written license.
  
 The following legend is applicable only to US Government
 contracts under FAR:
  
                    RESTRICTED RIGHTS LEGEND
  
 Use, reproduction and disclosure by the US Government is
 subject to restrictions as set forth in subparagraphs (a)
 and (c) of the Commercial Computer Software - Restricted
 Rights clause in FAR 52.227-19.
  
 Gaussian, Inc.
 340 Quinnipiac St., Bldg. 40, Wallingford CT 06492
  
  
 ---------------------------------------------------------------
 Warning -- This program may not be used in any manner that
 competes with the business of Gaussian, Inc. or will provide
 assistance to any competitor of Gaussian, Inc.  The licensee
 of this program is prohibited from giving any competitor of
 Gaussian, Inc. access to this program.  By using this program,
 the user acknowledges that Gaussian, Inc. is engaged in the
 business of creating and licensing software in the field of
 computational chemistry and represents and warrants to the
 licensee that it is not a competitor of Gaussian, Inc. and that
 it will not use this program in any manner prohibited above.
 ---------------------------------------------------------------
  

 Cite this work as:
 Gaussian 09, Revision C.01,
 M. J. Frisch, G. W. Trucks, H. B. Schlegel, G. E. Scuseria, 
 M. A. Robb, J. R. Cheeseman, G. Scalmani, V. Barone, B. Mennucci, 
 G. A. Petersson, H. Nakatsuji, M. Caricato, X. Li, H. P. Hratchian, 
 A. F. Izmaylov, J. Bloino, G. Zheng, J. L. Sonnenberg, M. Hada, 
 M. Ehara, K. Toyota, R. Fukuda, J. Hasegawa, M. Ishida, T. Nakajima, 
 Y. Honda, O. Kitao, H. Nakai, T. Vreven, J. A. Montgomery, Jr., 
 J. E. Peralta, F. Ogliaro, M. Bearpark, J. J. Heyd, E. Brothers, 
 K. N. Kudin, V. N. Staroverov, T. Keith, R. Kobayashi, J. Normand, 
 K. Raghavachari, A. Rendell, J. C. Burant, S. S. Iyengar, J. Tomasi, 
 M. Cossi, N. Rega, J. M. Millam, M. Klene, J. E. Knox, J. B. Cross, 
 V. Bakken, C. Adamo, J. Jaramillo, R. Gomperts, R. E. Stratmann, 
 O. Yazyev, A. J. Austin, R. Cammi, C. Pomelli, J. W. Ochterski, 
 R. L. Martin, K. Morokuma, V. G. Zakrzewski, G. A. Voth, 
 P. Salvador, J. J. Dannenberg, S. Dapprich, A. D. Daniels, 
 O. Farkas, J. B. Foresman, J. V. Ortiz, J. Cioslowski, 
 and D. J. Fox, Gaussian, Inc., Wallingford CT, 2010.
 
 ******************************************
 Gaussian 09:  AM64L-G09RevC.01 23-Sep-2011
                17-May-2024 
 ******************************************
 %nprocshared=4
 Will use up to    4 processors via shared memory.
 ------------------------------------------------
 # mpw1pw91/6-31+G** nmr scrf=(pcm,solvent=water)
 ------------------------------------------------
 1/38=1/1;
 2/12=2,17=6,18=5,40=1/2;
 3/5=1,6=6,7=111,11=2,16=1,25=1,30=1,70=2201,72=1,74=-7/1,2,8,3;
 4//1;
 5/5=2,38=5,53=1/2;
 8/6=1,10=90,11=11/1;
 10/13=100,45=16/2;
 6/7=2,8=2,9=2,10=2,28=1/1;
 99/9=1/99;
 -------
 comment
 -------
 Charge =  0 Multiplicity = 1
 Symbolic Z-Matrix:
 6                     2.38999  -0.57759  -0.57531 
 6                     1.12948   0.27453  -0.83055 
 7                    -0.05155  -0.62672  -0.59415 
 6                     0.46807  -1.94852  -0.17523 
 6                     1.89547  -1.7118    0.33667 
 6                    -0.96036   0.0376    0.36866 
 6                    -0.61587   1.53137   0.23839 
 6                     0.91562   1.49679   0.08036 
 1                     2.75266  -0.98879  -1.52417 
 1                     3.20051   0.00792  -0.13329 
 1                     1.11866   0.6339   -1.86686 
 1                     0.48888  -2.62809  -1.03833 
 1                    -0.19363  -2.39487   0.57215 
 1                     2.51911  -2.61017   0.27951 
 1                     1.87405  -1.37909   1.3799 
 1                    -0.72787  -0.2615    1.40363 
 1                    -0.91871   2.09851   1.12286 
 1                     1.28966   2.42155  -0.37618 
 8                     1.54566   1.27686   1.34676 
 1                     1.34914   2.05063   1.90163 
 8                    -1.25194   2.18288  -0.86796 
 1                    -1.06033   1.67105  -1.67217 
 6                    -2.43611  -0.26959   0.12269 
 1                    -3.048     0.34029   0.79632 
 1                    -2.71045  -0.0175   -0.90893 
 8                    -2.78345  -1.63129   0.40948 
 1                    -2.37275  -2.18119  -0.27744 
 
                          Input orientation:                          
 ---------------------------------------------------------------------
 Center     Atomic      Atomic             Coordinates (Angstroms)
 Number     Number       Type             X           Y           Z
 ---------------------------------------------------------------------
      1          6           0        2.389990   -0.577589   -0.575306
      2          6           0        1.129483    0.274525   -0.830547
      3          7           0       -0.051545   -0.626724   -0.594147
      4          6           0        0.468065   -1.948516   -0.175225
      5          6           0        1.895471   -1.711804    0.336673
      6          6           0       -0.960355    0.037604    0.368659
      7          6           0       -0.615873    1.531372    0.238390
      8          6           0        0.915620    1.496791    0.080357
      9          1           0        2.752663   -0.988794   -1.524170
     10          1           0        3.200507    0.007922   -0.133286
     11          1           0        1.118657    0.633896   -1.866860
     12          1           0        0.488882   -2.628092   -1.038332
     13          1           0       -0.193630   -2.394868    0.572149
     14          1           0        2.519114   -2.610174    0.279510
     15          1           0        1.874046   -1.379088    1.379901
     16          1           0       -0.727865   -0.261498    1.403626
     17          1           0       -0.918708    2.098506    1.122859
     18          1           0        1.289655    2.421548   -0.376175
     19          8           0        1.545656    1.276862    1.346763
     20          1           0        1.349135    2.050633    1.901634
     21          8           0       -1.251941    2.182880   -0.867964
     22          1           0       -1.060333    1.671045   -1.672168
     23          6           0       -2.436110   -0.269586    0.122694
     24          1           0       -3.047999    0.340293    0.796319
     25          1           0       -2.710449   -0.017496   -0.908929
     26          8           0       -2.783447   -1.631287    0.409479
     27          1           0       -2.372749   -2.181194   -0.277444
 ---------------------------------------------------------------------
                    Distance matrix (angstroms):
                    1          2          3          4          5
     1  C    0.000000
     2  C    1.542765   0.000000
     3  N    2.442102   1.504314   0.000000
     4  C    2.394431   2.410152   1.480751   0.000000
     5  C    1.537107   2.427889   2.415511   1.534783   0.000000
     6  C    3.534734   2.421084   1.481304   2.506166   3.349208
     7  C    3.760988   2.401782   2.380958   3.668190   4.103011
     8  C    2.628063   1.539291   2.428926   3.483643   3.364653
     9  H    1.095885   2.170668   2.976511   2.821366   2.172616
    10  H    1.093226   2.201452   3.345297   3.360900   2.209398
    11  H    2.179930   1.096909   2.139704   3.154957   3.310786
    12  H    2.834284   2.979720   2.120103   1.098731   2.169957
    13  H    3.360692   3.292999   2.122915   1.093452   2.210513
    14  H    2.208797   3.388922   3.362386   2.202584   1.095110
    15  H    2.175186   2.859177   2.858464   2.172429   1.095209
    16  H    3.706360   2.954419   2.140536   2.601740   3.181771
    17  H    4.581783   3.367163   3.335710   4.470632   4.801682
    18  H    3.200814   2.200413   3.337408   4.451163   4.237896
    19  O    2.801114   2.432809   3.153066   3.725683   3.174079
    20  H    3.758479   3.266132   3.919065   4.591603   4.111389
    21  O    4.579247   3.051950   3.067540   4.528437   5.150332
    22  H    4.261947   2.730181   2.731213   4.204529   4.920964
    23  C    4.886032   3.730708   2.515464   3.367758   4.570380
    24  H    5.682921   4.483567   3.441984   4.306420   5.372176
    25  H    5.141934   3.851817   2.745909   3.790793   5.063270
    26  O    5.370711   4.525572   3.078912   3.318862   4.680177
    27  H    5.034278   4.313016   2.811524   2.852159   4.337646
                    6          7          8          9         10
     6  C    0.000000
     7  C    1.538499   0.000000
     8  C    2.394082   1.540013   0.000000
     9  H    4.292179   4.561238   3.482437   0.000000
    10  H    4.191134   4.125991   2.735522   1.768775   0.000000
    11  H    3.110531   2.871608   2.139501   2.328204   2.780507
    12  H    3.344525   4.489058   4.295140   2.836907   3.888520
    13  H    2.558553   3.962959   4.076433   3.879722   4.217962
    14  H    4.373257   5.194443   4.413391   2.436530   2.736626
    15  H    3.326177   3.996689   3.298193   3.059073   2.443978
    16  H    1.102121   2.141191   2.746573   4.605977   4.226913
    17  H    2.194965   1.093451   2.193999   5.478791   4.787105
    18  H    3.361623   2.191150   1.097041   3.884420   3.088032
    19  O    2.961847   2.442432   1.431467   3.851275   2.557203
    20  H    3.425791   2.626265   1.952364   4.790004   3.426536
    21  O    2.493285   1.432852   2.463402   5.150434   5.009440
    22  H    2.615932   1.966541   2.646904   4.651407   4.825857
    23  C    1.527324   2.563220   3.788928   5.491155   5.649247
    24  H    2.152387   2.764994   4.190509   6.387395   6.326015
    25  H    2.167509   2.846503   4.052176   5.582789   5.961683
    26  O    2.471948   3.837976   4.855542   5.899179   6.228106
    27  H    2.708389   4.139546   4.946612   5.407956   5.989507
                   11         12         13         14         15
    11  H    0.000000
    12  H    3.423980   0.000000
    13  H    4.104178   1.764615   0.000000
    14  H    4.134268   2.420510   2.736964   0.000000
    15  H    3.894120   3.053939   2.441220   1.772723   0.000000
    16  H    3.861017   3.611703   2.351176   4.162065   2.831874
    17  H    3.903122   5.384495   4.584695   5.890800   4.467573
    18  H    2.333898   5.155439   5.128091   5.221084   4.227310
    19  O    3.305012   4.696181   4.136030   4.146770   2.676380
    20  H    4.032594   5.592307   4.889799   5.071810   3.508664
    21  O    3.002812   5.119076   4.914237   6.205717   5.245218
    22  H    2.421070   4.613501   4.724382   5.911880   5.218143
    23  C    4.172646   3.932698   3.122107   5.482444   4.624825
    24  H    4.953761   4.968579   3.959644   6.321795   5.246272
    25  H    4.000499   4.131304   3.765616   5.956735   5.301912
    26  O    5.053631   3.714554   2.704934   5.393725   4.764196
    27  H    4.758245   2.994595   2.348622   4.942120   4.628762
                   16         17         18         19         20
    16  H    0.000000
    17  H    2.384297   0.000000
    18  H    3.799581   2.688555   0.000000
    19  O    2.745666   2.607359   2.084312   0.000000
    20  H    3.147680   2.398311   2.308577   0.972226   0.000000
    21  O    3.377834   2.020282   2.599717   3.681363   3.801810
    22  H    3.647707   2.831070   2.786628   4.007556   4.326856
    23  C    2.135171   2.985079   4.623029   4.443457   4.782899
    24  H    2.472650   2.780615   4.951930   4.720362   4.845799
    25  H    3.055828   3.437435   4.715251   4.987779   5.353190
    26  O    2.662718   4.230546   5.799386   5.298770   5.732477
    27  H    3.035930   4.731904   5.882872   5.472668   6.042281
                   21         22         23         24         25
    21  O    0.000000
    22  H    0.972334   0.000000
    23  C    2.897973   2.979990   0.000000
    24  H    3.064439   3.437317   1.095505   0.000000
    25  H    2.640185   2.481247   1.096840   1.774774   0.000000
    26  O    4.304096   4.267057   1.434266   2.026514   2.085150
    27  H    4.544234   4.302027   1.954065   2.822557   2.279123
                   26         27
    26  O    0.000000
    27  H    0.971048   0.000000
 Stoichiometry    C8H15NO3
 Framework group  C1[X(C8H15NO3)]
 Deg. of freedom    75
 Full point group                 C1      NOp   1
 Largest Abelian subgroup         C1      NOp   1
 Largest concise Abelian subgroup C1      NOp   1
                         Standard orientation:                         
 ---------------------------------------------------------------------
 Center     Atomic      Atomic             Coordinates (Angstroms)
 Number     Number       Type             X           Y           Z
 ---------------------------------------------------------------------
      1          6           0        2.389990   -0.577588   -0.575306
      2          6           0        1.129483    0.274526   -0.830547
      3          7           0       -0.051545   -0.626724   -0.594147
      4          6           0        0.468066   -1.948516   -0.175225
      5          6           0        1.895472   -1.711803    0.336673
      6          6           0       -0.960355    0.037604    0.368659
      7          6           0       -0.615874    1.531372    0.238390
      8          6           0        0.915619    1.496792    0.080357
      9          1           0        2.752663   -0.988793   -1.524170
     10          1           0        3.200507    0.007924   -0.133286
     11          1           0        1.118657    0.633897   -1.866860
     12          1           0        0.488883   -2.628092   -1.038332
     13          1           0       -0.193629   -2.394868    0.572149
     14          1           0        2.519115   -2.610173    0.279510
     15          1           0        1.874047   -1.379087    1.379901
     16          1           0       -0.727865   -0.261498    1.403626
     17          1           0       -0.918709    2.098506    1.122859
     18          1           0        1.289654    2.421549   -0.376175
     19          8           0        1.545655    1.276863    1.346763
     20          1           0        1.349134    2.050634    1.901634
     21          8           0       -1.251942    2.182879   -0.867964
     22          1           0       -1.060334    1.671045   -1.672168
     23          6           0       -2.436110   -0.269587    0.122694
     24          1           0       -3.047999    0.340292    0.796319
     25          1           0       -2.710449   -0.017497   -0.908929
     26          8           0       -2.783446   -1.631288    0.409479
     27          1           0       -2.372748   -2.181195   -0.277444
 ---------------------------------------------------------------------
 Rotational constants (GHZ):      1.1951768      0.9061932      0.6249051
 Standard basis: 6-31+G(d,p) (6D, 7F)
 There are   303 symmetry adapted basis functions of A   symmetry.
 Integral buffers will be    131072 words long.
 Raffenetti 2 integral format.
 Two-electron integral symmetry is turned on.
   303 basis functions,   489 primitive gaussians,   303 cartesian basis functions
    47 alpha electrons       47 beta electrons
       nuclear repulsion energy       811.9747510818 Hartrees.
 NAtoms=   27 NActive=   27 NUniq=   27 SFac= 1.00D+00 NAtFMM=   60 NAOKFM=F Big=F
 ------------------------------------------------------------------------------
 Polarizable Continuum Model (PCM)
 =================================
 Model                : PCM.
 Atomic radii         : UFF (Universal Force Field).
 Polarization charges : Total charges.
 Charge compensation  : None.
 Solution method      : Matrix inversion.
 Cavity type          : Scaled VdW (van der Waals Surface) (Alpha=1.100).
 Cavity algorithm     : GePol (No added spheres)
                        Default sphere list used, NSphG=   27.
                        Lebedev-Laikov grids with approx.  5.0 points / Ang**2.
                        Smoothing algorithm: Karplus/York (Gamma=1.0000).
                        Polarization charges: spherical gaussians, with
                                              point-specific exponents (IZeta= 3).
                        Self-potential: point-specific (ISelfS= 7).
                        Self-field    : sphere-specific E.n sum rule (ISelfD= 2).
 Solvent              : Water, Eps=  78.355300 Eps(inf)=   1.777849
 ------------------------------------------------------------------------------
 One-electron integrals computed using PRISM.
 NBasis=   303 RedAO= T  NBF=   303
 NBsUse=   303 1.00D-06 NBFU=   303
 Harris functional with IExCor=  908 diagonalized for initial guess.
 ExpMin= 4.38D-02 ExpMax= 5.48D+03 ExpMxC= 8.25D+02 IAcc=2 IRadAn=         4 AccDes= 0.00D+00
 HarFok:  IExCor=  908 AccDes= 0.00D+00 IRadAn=         4 IDoV= 1
 ScaDFX=  1.000000  1.000000  1.000000  1.000000
 FoFCou: FMM=F IPFlag=           0 FMFlag=      100000 FMFlg1=           0
         NFxFlg=           0 DoJE=T BraDBF=F KetDBF=T FulRan=T
         Omega=  0.000000  0.000000  1.000000  0.000000  0.000000 ICntrl=     500 IOpCl=  0
         NMat0=    1 NMatS0=    1 NMatT0=    0 NMatD0=    1 NMtDS0=    0 NMtDT0=    0
         I1Cent=           4 NGrid=           0.
 Petite list used in FoFCou.
 Initial guess orbital symmetries:
       Occupied  (A) (A) (A) (A) (A) (A) (A) (A) (A) (A) (A) (A)
                 (A) (A) (A) (A) (A) (A) (A) (A) (A) (A) (A) (A)
                 (A) (A) (A) (A) (A) (A) (A) (A) (A) (A) (A) (A)
                 (A) (A) (A) (A) (A) (A) (A) (A) (A) (A) (A)
       Virtual   (A) (A) (A) (A) (A) (A) (A) (A) (A) (A) (A) (A)
                 (A) (A) (A) (A) (A) (A) (A) (A) (A) (A) (A) (A)
                 (A) (A) (A) (A) (A) (A) (A) (A) (A) (A) (A) (A)
                 (A) (A) (A) (A) (A) (A) (A) (A) (A) (A) (A) (A)
                 (A) (A) (A) (A) (A) (A) (A) (A) (A) (A) (A) (A)
                 (A) (A) (A) (A) (A) (A) (A) (A) (A) (A) (A) (A)
                 (A) (A) (A) (A) (A) (A) (A) (A) (A) (A) (A) (A)
                 (A) (A) (A) (A) (A) (A) (A) (A) (A) (A) (A) (A)
                 (A) (A) (A) (A) (A) (A) (A) (A) (A) (A) (A) (A)
                 (A) (A) (A) (A) (A) (A) (A) (A) (A) (A) (A) (A)
                 (A) (A) (A) (A) (A) (A) (A) (A) (A) (A) (A) (A)
                 (A) (A) (A) (A) (A) (A) (A) (A) (A) (A) (A) (A)
                 (A) (A) (A) (A) (A) (A) (A) (A) (A) (A) (A) (A)
                 (A) (A) (A) (A) (A) (A) (A) (A) (A) (A) (A) (A)
                 (A) (A) (A) (A) (A) (A) (A) (A) (A) (A) (A) (A)
                 (A) (A) (A) (A) (A) (A) (A) (A) (A) (A) (A) (A)
                 (A) (A) (A) (A) (A) (A) (A) (A) (A) (A) (A) (A)
                 (A) (A) (A) (A) (A) (A) (A) (A) (A) (A) (A) (A)
                 (A) (A) (A) (A) (A) (A) (A) (A) (A) (A) (A) (A)
                 (A) (A) (A) (A) (A) (A) (A) (A) (A) (A) (A) (A)
                 (A) (A) (A) (A) (A) (A) (A) (A) (A) (A) (A) (A)
                 (A) (A) (A) (A)
 The electronic state of the initial guess is 1-A.
 Requested convergence on RMS density matrix=1.00D-08 within 128 cycles.
 Requested convergence on MAX density matrix=1.00D-06.
 Requested convergence on             energy=1.00D-06.
 No special actions if energy rises.
 Error on total polarization charges =  0.01425
 SCF Done:  E(RmPW1PW91) =  -594.194595781     A.U. after   13 cycles
             Convg  =    0.4087D-08             -V/T =  2.0094
 Range of M.O.s used for correlation:     1   303
 NBasis=   303 NAE=    47 NBE=    47 NFC=     0 NFV=     0
 NROrb=    303 NOA=    47 NOB=    47 NVA=   256 NVB=   256

 **** Warning!!: The largest alpha MO coefficient is  0.89148059D+02

 NEqPCM:  Using equilibrium solvation (IEInf=0, Eps=  78.3553, EpsInf=   1.7778)
          Differentiating once with respect to magnetic field using GIAOs.
          Electric field/nuclear overlap derivatives assumed to be zero.
 FoFCou: FMM=F IPFlag=           0 FMFlag=    10101102 FMFlg1=           0
         NFxFlg=    40000000 DoJE=F BraDBF=F KetDBF=T FulRan=T
         Omega=  0.000000  0.000000  1.000000  0.000000  0.000000 ICntrl=    6100 IOpCl=  0
         NMat0=    1 NMatS0=    1 NMatT0=    0 NMatD0=    1 NMtDS0=    0 NMtDT0=    0
         I1Cent=           7 NGrid=        1826.
 Symmetry not used in FoFCou.
          There are     3 degrees of freedom in the 1st order CPHF.  IDoFFX=0.
      3 vectors produced by pass  0 Test12= 4.01D-13 3.33D-08 XBig12= 3.65D+01 1.12D+00.
 AX will form     3 AO Fock derivatives at one time.
      3 vectors produced by pass  1 Test12= 4.01D-13 3.33D-08 XBig12= 8.46D-02 3.35D-02.
      3 vectors produced by pass  2 Test12= 4.01D-13 3.33D-08 XBig12= 1.65D-04 2.61D-03.
      3 vectors produced by pass  3 Test12= 4.01D-13 3.33D-08 XBig12= 7.67D-07 1.66D-04.
      3 vectors produced by pass  4 Test12= 4.01D-13 3.33D-08 XBig12= 2.63D-09 7.89D-06.
      3 vectors produced by pass  5 Test12= 4.01D-13 3.33D-08 XBig12= 8.00D-12 5.15D-07.
 Inverted reduced A of dimension    18 with in-core refinement.
 Calculating GIAO nuclear magnetic shielding tensors.
 SCF GIAO Magnetic shielding tensor (ppm):
      1  C    Isotropic =   168.4766   Anisotropy =    23.2208
   XX=   177.1702   YX=    -1.5452   ZX=    -0.2117
   XY=    -1.5394   YY=   173.4201   ZY=   -16.6013
   XZ=    -7.1721   YZ=   -18.3121   ZZ=   154.8393
   Eigenvalues:   143.8838   177.5888   183.9571
      2  C    Isotropic =   127.0990   Anisotropy =    63.1476
   XX=   151.9083   YX=    20.6061   ZX=    -2.9108
   XY=    22.7597   YY=   141.7263   ZY=    -5.0038
   XZ=    -5.4968   YZ=     6.0886   ZZ=    87.6625
   Eigenvalues:    87.3080   124.7916   169.1974
      3  N    Isotropic =   192.3774   Anisotropy =    81.4640
   XX=   232.0342   YX=     5.0891   ZX=   -32.2331
   XY=    -3.7976   YY=   203.9674   ZY=    -5.5014
   XZ=   -45.8396   YZ=    -7.3695   ZZ=   141.1307
   Eigenvalues:   126.2336   204.2118   246.6867
      4  C    Isotropic =   140.6437   Anisotropy =    57.3887
   XX=   140.0909   YX=   -19.6534   ZX=     1.8496
   XY=   -11.2683   YY=   166.4028   ZY=   -17.5696
   XZ=    16.5554   YZ=   -14.5250   ZZ=   115.4373
   Eigenvalues:   109.9808   133.0474   178.9028
      5  C    Isotropic =   168.0620   Anisotropy =    25.1229
   XX=   175.4143   YX=    -0.0290   ZX=     4.7423
   XY=     2.1065   YY=   178.8816   ZY=    -9.6710
   XZ=     9.5922   YZ=   -18.0862   ZZ=   149.8903
   Eigenvalues:   142.7957   176.5798   184.8107
      6  C    Isotropic =   126.2240   Anisotropy =    32.6094
   XX=   130.7882   YX=    -9.8183   ZX=   -10.9228
   XY=    -5.9140   YY=   132.4511   ZY=    14.3097
   XZ=   -21.7459   YZ=    -0.8166   ZZ=   115.4327
   Eigenvalues:   104.9726   125.7358   147.9636
      7  C    Isotropic =   111.4540   Anisotropy =    30.4559
   XX=   122.8418   YX=    -8.1638   ZX=    13.4660
   XY=     2.1740   YY=   106.0600   ZY=    -0.0699
   XZ=    12.7027   YZ=   -17.6146   ZZ=   105.4601
   Eigenvalues:    94.4814   108.1226   131.7579
      8  C    Isotropic =   116.1611   Anisotropy =    29.8201
   XX=   124.5107   YX=     0.5736   ZX=    14.8165
   XY=    -8.8263   YY=   103.5849   ZY=   -11.0363
   XZ=    10.0851   YZ=     3.4035   ZZ=   120.3878
   Eigenvalues:   102.6055   109.8368   136.0412
      9  H    Isotropic =    29.8792   Anisotropy =    12.4612
   XX=    30.0139   YX=    -2.7718   ZX=    -5.6361
   XY=    -3.1610   YY=    26.7563   ZY=     1.2939
   XZ=    -6.0432   YZ=     1.3579   ZZ=    32.8675
   Eigenvalues:    24.2257    27.2253    38.1867
     10  H    Isotropic =    29.4773   Anisotropy =     9.5183
   XX=    34.5750   YX=     2.4275   ZX=     0.9304
   XY=     3.0893   YY=    28.6100   ZY=     1.7331
   XZ=     0.6976   YZ=     1.3630   ZZ=    25.2470
   Eigenvalues:    24.6355    27.9736    35.8229
     11  H    Isotropic =    27.7271   Anisotropy =     8.3067
   XX=    26.0197   YX=     0.1680   ZX=    -1.5428
   XY=    -0.2201   YY=    25.6300   ZY=    -3.7232
   XZ=    -1.9466   YZ=    -2.6221   ZZ=    31.5315
   Eigenvalues:    23.9565    25.9599    33.2649
     12  H    Isotropic =    28.5747   Anisotropy =    11.5677
   XX=    25.8848   YX=    -1.3768   ZX=     0.9496
   XY=    -0.5820   YY=    33.5200   ZY=     5.6616
   XZ=     2.3640   YZ=     4.8385   ZZ=    26.3193
   Eigenvalues:    22.4710    26.9666    36.2865
     13  H    Isotropic =    28.6216   Anisotropy =     7.5210
   XX=    30.8568   YX=     1.1828   ZX=    -0.9940
   XY=     1.5210   YY=    30.8042   ZY=    -3.9620
   XZ=    -2.0502   YZ=    -3.2033   ZZ=    24.2038
   Eigenvalues:    22.5421    29.6871    33.6356
     14  H    Isotropic =    30.0992   Anisotropy =    12.8191
   XX=    30.5519   YX=    -5.2217   ZX=     0.5410
   XY=    -5.8175   YY=    34.4963   ZY=    -1.6163
   XZ=     0.9823   YZ=    -1.8729   ZZ=    25.2496
   Eigenvalues:    24.9082    26.7442    38.6453
     15  H    Isotropic =    29.7734   Anisotropy =     8.0429
   XX=    27.1495   YX=    -0.2370   ZX=     1.5521
   XY=    -0.1350   YY=    27.5264   ZY=    -0.0077
   XZ=     2.2013   YZ=    -1.1379   ZZ=    34.6443
   Eigenvalues:    26.7027    27.4821    35.1353
     16  H    Isotropic =    28.5224   Anisotropy =     5.6624
   XX=    28.7497   YX=    -0.4431   ZX=    -1.3425
   XY=     1.0024   YY=    25.7162   ZY=     1.3046
   XZ=    -2.7713   YZ=    -0.6805   ZZ=    31.1014
   Eigenvalues:    25.6312    27.6387    32.2974
     17  H    Isotropic =    27.7485   Anisotropy =     5.2612
   XX=    26.0471   YX=    -1.8665   ZX=     0.5864
   XY=    -2.4025   YY=    28.4560   ZY=     1.9306
   XZ=     0.2058   YZ=     2.7672   ZZ=    28.7425
   Eigenvalues:    24.2072    27.7824    31.2560
     18  H    Isotropic =    27.6524   Anisotropy =     6.5879
   XX=    25.2971   YX=     1.8136   ZX=     1.6111
   XY=     2.2788   YY=    30.7036   ZY=    -1.8220
   XZ=     1.0906   YZ=    -2.7226   ZZ=    26.9566
   Eigenvalues:    23.3638    27.5491    32.0443
     19  O    Isotropic =   291.7201   Anisotropy =    77.5715
   XX=   274.1580   YX=   -12.9205   ZX=   -22.6440
   XY=   -12.5025   YY=   289.4531   ZY=    38.9029
   XZ=     4.0353   YZ=    37.2388   ZZ=   311.5491
   Eigenvalues:   259.1442   272.5816   343.4344
     20  H    Isotropic =    30.3638   Anisotropy =    20.4389
   XX=    23.7242   YX=    -2.2237   ZX=     2.2567
   XY=    -2.0740   YY=    33.6027   ZY=     9.3603
   XZ=     1.6453   YZ=    11.2497   ZZ=    33.7645
   Eigenvalues:    20.6462    26.4555    43.9897
     21  O    Isotropic =   298.6799   Anisotropy =    31.9439
   XX=   288.3508   YX=    -6.1531   ZX=   -18.5555
   XY=    -0.5697   YY=   291.0225   ZY=    18.8012
   XZ=     7.1669   YZ=    -3.8479   ZZ=   316.6664
   Eigenvalues:   286.0553   290.0086   319.9758
     22  H    Isotropic =    30.4346   Anisotropy =    13.0869
   XX=    24.2692   YX=    -4.2342   ZX=     0.9639
   XY=    -3.3015   YY=    28.7270   ZY=     2.5098
   XZ=     1.2034   YZ=     3.4514   ZZ=    38.3076
   Eigenvalues:    21.7570    30.3876    39.1592
     23  C    Isotropic =   127.0290   Anisotropy =    46.9051
   XX=   126.2997   YX=     5.0123   ZX=     1.3730
   XY=    15.9244   YY=   152.3611   ZY=   -14.2067
   XZ=     0.2474   YZ=   -10.0195   ZZ=   102.4264
   Eigenvalues:    99.2541   123.5339   158.2991
     24  H    Isotropic =    27.7617   Anisotropy =     6.4103
   XX=    30.3675   YX=     0.0015   ZX=    -2.9417
   XY=    -1.4689   YY=    29.6146   ZY=     1.7502
   XZ=    -3.2064   YZ=     0.6177   ZZ=    23.3031
   Eigenvalues:    22.0552    29.1948    32.0353
     25  H    Isotropic =    27.8259   Anisotropy =     6.2063
   XX=    28.0257   YX=     2.4591   ZX=     2.8829
   XY=     0.8169   YY=    29.9322   ZY=    -4.8871
   XZ=     2.8554   YZ=    -2.3480   ZZ=    25.5197
   Eigenvalues:    21.7496    29.7646    31.9634
     26  O    Isotropic =   312.4710   Anisotropy =    47.1512
   XX=   304.1923   YX=   -23.2189   ZX=    -9.1686
   XY=    -2.7214   YY=   311.4468   ZY=    13.2612
   XZ=   -21.5464   YZ=    19.4616   ZZ=   321.7740
   Eigenvalues:   293.7941   299.7138   343.9052
     27  H    Isotropic =    30.3265   Anisotropy =    15.0389
   XX=    28.0606   YX=    -0.3123   ZX=    -5.7054
   XY=    -1.4246   YY=    33.8823   ZY=     7.3556
   XZ=    -4.9399   YZ=     7.0910   ZZ=    29.0365
   Eigenvalues:    21.3649    29.2622    40.3524
 End of Minotr Frequency-dependent properties file   721 does not exist.
 End of Minotr Frequency-dependent properties file   722 does not exist.

 **********************************************************************

            Population analysis using the SCF density.

 **********************************************************************

 Orbital symmetries:
       Occupied  (A) (A) (A) (A) (A) (A) (A) (A) (A) (A) (A) (A)
                 (A) (A) (A) (A) (A) (A) (A) (A) (A) (A) (A) (A)
                 (A) (A) (A) (A) (A) (A) (A) (A) (A) (A) (A) (A)
                 (A) (A) (A) (A) (A) (A) (A) (A) (A) (A) (A)
       Virtual   (A) (A) (A) (A) (A) (A) (A) (A) (A) (A) (A) (A)
                 (A) (A) (A) (A) (A) (A) (A) (A) (A) (A) (A) (A)
                 (A) (A) (A) (A) (A) (A) (A) (A) (A) (A) (A) (A)
                 (A) (A) (A) (A) (A) (A) (A) (A) (A) (A) (A) (A)
                 (A) (A) (A) (A) (A) (A) (A) (A) (A) (A) (A) (A)
                 (A) (A) (A) (A) (A) (A) (A) (A) (A) (A) (A) (A)
                 (A) (A) (A) (A) (A) (A) (A) (A) (A) (A) (A) (A)
                 (A) (A) (A) (A) (A) (A) (A) (A) (A) (A) (A) (A)
                 (A) (A) (A) (A) (A) (A) (A) (A) (A) (A) (A) (A)
                 (A) (A) (A) (A) (A) (A) (A) (A) (A) (A) (A) (A)
                 (A) (A) (A) (A) (A) (A) (A) (A) (A) (A) (A) (A)
                 (A) (A) (A) (A) (A) (A) (A) (A) (A) (A) (A) (A)
                 (A) (A) (A) (A) (A) (A) (A) (A) (A) (A) (A) (A)
                 (A) (A) (A) (A) (A) (A) (A) (A) (A) (A) (A) (A)
                 (A) (A) (A) (A) (A) (A) (A) (A) (A) (A) (A) (A)
                 (A) (A) (A) (A) (A) (A) (A) (A) (A) (A) (A) (A)
                 (A) (A) (A) (A) (A) (A) (A) (A) (A) (A) (A) (A)
                 (A) (A) (A) (A) (A) (A) (A) (A) (A) (A) (A) (A)
                 (A) (A) (A) (A) (A) (A) (A) (A) (A) (A) (A) (A)
                 (A) (A) (A) (A) (A) (A) (A) (A) (A) (A) (A) (A)
                 (A) (A) (A) (A) (A) (A) (A) (A) (A) (A) (A) (A)
                 (A) (A) (A) (A)
 The electronic state is 1-A.
 Alpha  occ. eigenvalues --  -19.26207 -19.25899 -19.25542 -14.41249 -10.30818
 Alpha  occ. eigenvalues --  -10.30414 -10.29395 -10.27994 -10.27900 -10.26783
 Alpha  occ. eigenvalues --  -10.24527 -10.24101  -1.07300  -1.05822  -1.05519
 Alpha  occ. eigenvalues --   -0.96027  -0.82443  -0.79118  -0.75435  -0.71883
 Alpha  occ. eigenvalues --   -0.66658  -0.62723  -0.60023  -0.57367  -0.55006
 Alpha  occ. eigenvalues --   -0.53800  -0.52832  -0.50625  -0.48490  -0.46668
 Alpha  occ. eigenvalues --   -0.45563  -0.43874  -0.43287  -0.42574  -0.41282
 Alpha  occ. eigenvalues --   -0.38948  -0.38434  -0.37879  -0.36995  -0.35491
 Alpha  occ. eigenvalues --   -0.34697  -0.34679  -0.32764  -0.31838  -0.30362
 Alpha  occ. eigenvalues --   -0.27957  -0.23243
 Alpha virt. eigenvalues --    0.00458   0.01447   0.01881   0.02140   0.03146
 Alpha virt. eigenvalues --    0.04243   0.04753   0.04962   0.05457   0.06756
 Alpha virt. eigenvalues --    0.07608   0.08106   0.08315   0.08721   0.09395
 Alpha virt. eigenvalues --    0.10655   0.11733   0.12082   0.12334   0.12634
 Alpha virt. eigenvalues --    0.13145   0.13197   0.14175   0.14676   0.15492
 Alpha virt. eigenvalues --    0.15731   0.16758   0.17244   0.17807   0.18465
 Alpha virt. eigenvalues --    0.19123   0.19850   0.20159   0.20705   0.20948
 Alpha virt. eigenvalues --    0.21224   0.21378   0.22250   0.22962   0.23163
 Alpha virt. eigenvalues --    0.23465   0.24281   0.24716   0.25147   0.25861
 Alpha virt. eigenvalues --    0.26307   0.27168   0.27858   0.28550   0.29001
 Alpha virt. eigenvalues --    0.29304   0.29926   0.30693   0.30998   0.31689
 Alpha virt. eigenvalues --    0.32546   0.32848   0.33656   0.34042   0.34563
 Alpha virt. eigenvalues --    0.34871   0.35689   0.36534   0.37419   0.38277
 Alpha virt. eigenvalues --    0.39161   0.39424   0.41290   0.41507   0.41735
 Alpha virt. eigenvalues --    0.42410   0.44434   0.44772   0.45428   0.46010
 Alpha virt. eigenvalues --    0.47479   0.64608   0.67587   0.67915   0.68506
 Alpha virt. eigenvalues --    0.70075   0.70728   0.71115   0.73607   0.74936
 Alpha virt. eigenvalues --    0.77397   0.78200   0.79960   0.80321   0.81204
 Alpha virt. eigenvalues --    0.83811   0.84317   0.85390   0.87674   0.88378
 Alpha virt. eigenvalues --    0.90169   0.90939   0.93011   0.93980   0.96427
 Alpha virt. eigenvalues --    0.98967   1.00052   1.03170   1.03764   1.03873
 Alpha virt. eigenvalues --    1.04501   1.06020   1.07171   1.10094   1.10450
 Alpha virt. eigenvalues --    1.12255   1.12802   1.14060   1.15557   1.16017
 Alpha virt. eigenvalues --    1.16610   1.17635   1.20139   1.23551   1.24311
 Alpha virt. eigenvalues --    1.27055   1.28040   1.29000   1.30349   1.33685
 Alpha virt. eigenvalues --    1.34986   1.36003   1.38344   1.40911   1.41401
 Alpha virt. eigenvalues --    1.41861   1.45743   1.47659   1.48614   1.49124
 Alpha virt. eigenvalues --    1.55031   1.57112   1.57771   1.59600   1.60120
 Alpha virt. eigenvalues --    1.63557   1.64638   1.66071   1.69427   1.71577
 Alpha virt. eigenvalues --    1.72864   1.75790   1.77040   1.78249   1.78533
 Alpha virt. eigenvalues --    1.81198   1.82056   1.83964   1.85130   1.87805
 Alpha virt. eigenvalues --    1.88568   1.89873   1.89905   1.92654   1.94761
 Alpha virt. eigenvalues --    1.97425   2.00353   2.01981   2.03754   2.04776
 Alpha virt. eigenvalues --    2.05907   2.06771   2.09118   2.09857   2.12296
 Alpha virt. eigenvalues --    2.13747   2.15725   2.16665   2.18278   2.19777
 Alpha virt. eigenvalues --    2.20518   2.22046   2.25703   2.27442   2.30109
 Alpha virt. eigenvalues --    2.30469   2.34216   2.36286   2.38005   2.41378
 Alpha virt. eigenvalues --    2.42506   2.43317   2.44721   2.45707   2.46934
 Alpha virt. eigenvalues --    2.48865   2.49626   2.52528   2.53157   2.53641
 Alpha virt. eigenvalues --    2.56312   2.56623   2.58119   2.61013   2.63616
 Alpha virt. eigenvalues --    2.64175   2.66337   2.67167   2.68606   2.69358
 Alpha virt. eigenvalues --    2.70641   2.72696   2.73902   2.76490   2.77961
 Alpha virt. eigenvalues --    2.79560   2.80170   2.83560   2.83870   2.85227
 Alpha virt. eigenvalues --    2.87897   2.88429   2.92002   2.93879   2.95979
 Alpha virt. eigenvalues --    2.97740   2.97885   3.01390   3.03769   3.04156
 Alpha virt. eigenvalues --    3.04963   3.08067   3.09669   3.13888   3.32979
 Alpha virt. eigenvalues --    3.34929   3.37186   3.39154   3.42850   3.45188
 Alpha virt. eigenvalues --    3.45254   3.49556   3.53791   3.54442   3.55930
 Alpha virt. eigenvalues --    3.56682   3.59379   3.60069   3.61427   4.31002
 Alpha virt. eigenvalues --    4.32474   4.35188   4.44493   4.52405   4.58827
 Alpha virt. eigenvalues --    4.62378   4.71098   4.78594   4.82345   4.87654
 Alpha virt. eigenvalues --    4.98567
          Condensed to atoms (all electrons):
              1          2          3          4          5          6
     1  C    6.289122  -0.794376   0.101393   0.113508   0.072561  -0.007907
     2  C   -0.794376   8.364373  -0.198651  -0.169727  -0.025677  -0.967607
     3  N    0.101393  -0.198651   7.518458   0.125409  -0.114050  -0.257139
     4  C    0.113508  -0.169727   0.125409   5.951297  -0.023415  -0.334774
     5  C    0.072561  -0.025677  -0.114050  -0.023415   5.572780   0.103901
     6  C   -0.007907  -0.967607  -0.257139  -0.334774   0.103901   9.845909
     7  C   -0.398299   1.071565  -0.095784  -0.173724   0.022536  -2.164148
     8  C    0.186539  -1.209399  -0.075692   0.010243   0.085607   1.327878
     9  H    0.440728  -0.109439   0.012179  -0.000021  -0.047493   0.017913
    10  H    0.415298  -0.126948   0.017414   0.024031  -0.028584   0.000373
    11  H    0.004595   0.230914  -0.017187  -0.021656   0.028979  -0.009249
    12  H    0.013605  -0.047669  -0.029702   0.367019  -0.030593   0.031036
    13  H    0.017761   0.038240  -0.064565   0.399786  -0.032627   0.010184
    14  H   -0.042955   0.033668   0.012705  -0.032797   0.357968   0.003561
    15  H   -0.050540  -0.020954   0.012351  -0.083052   0.447786   0.021809
    16  H    0.003143   0.027775  -0.066094   0.069992  -0.014412   0.306491
    17  H    0.015837  -0.013409   0.025394   0.002529  -0.000978   0.008652
    18  H    0.003048  -0.018727   0.014286   0.001638  -0.009544  -0.011596
    19  O    0.002656  -0.247610   0.051711  -0.003081  -0.001181  -0.094659
    20  H    0.005850   0.034739  -0.003040   0.002050  -0.002826  -0.009670
    21  O    0.023985   0.002687   0.044406   0.014643  -0.004867  -0.194505
    22  H    0.018684   0.021570   0.027259   0.008822  -0.002967  -0.046399
    23  C    0.038135   0.043288   0.127083   0.032308  -0.066274  -1.208851
    24  H    0.000752   0.011544   0.010327  -0.003123   0.000872  -0.160577
    25  H    0.002266  -0.000489   0.017738   0.013575  -0.001856  -0.102179
    26  O   -0.000757   0.033154   0.021727  -0.021532  -0.000028  -0.148690
    27  H   -0.000959   0.009176   0.018022  -0.003071   0.006564  -0.075121
              7          8          9         10         11         12
     1  C   -0.398299   0.186539   0.440728   0.415298   0.004595   0.013605
     2  C    1.071565  -1.209399  -0.109439  -0.126948   0.230914  -0.047669
     3  N   -0.095784  -0.075692   0.012179   0.017414  -0.017187  -0.029702
     4  C   -0.173724   0.010243  -0.000021   0.024031  -0.021656   0.367019
     5  C    0.022536   0.085607  -0.047493  -0.028584   0.028979  -0.030593
     6  C   -2.164148   1.327878   0.017913   0.000373  -0.009249   0.031036
     7  C    8.437887  -1.771094  -0.016699  -0.002442   0.003298  -0.001857
     8  C   -1.771094   7.348416   0.033052   0.037679   0.042001   0.010539
     9  H   -0.016699   0.033052   0.527732  -0.025135  -0.007406   0.001394
    10  H   -0.002442   0.037679  -0.025135   0.507863   0.002668  -0.000023
    11  H    0.003298   0.042001  -0.007406   0.002668   0.563864   0.000871
    12  H   -0.001857   0.010539   0.001394  -0.000023   0.000871   0.554448
    13  H    0.010609  -0.022883  -0.000117  -0.000140  -0.000196  -0.032750
    14  H    0.005214  -0.002272  -0.005233   0.000901  -0.000052  -0.003491
    15  H   -0.005478   0.014261   0.004129  -0.005351  -0.000094   0.004006
    16  H   -0.036449  -0.016370  -0.000010  -0.000014  -0.000552  -0.000364
    17  H    0.248873   0.075403   0.000003  -0.000008  -0.000119   0.000003
    18  H    0.094654   0.226546  -0.000020   0.000265  -0.002999   0.000005
    19  O    0.103860   0.171277  -0.000386   0.000875   0.009717   0.000240
    20  H   -0.066675   0.059223  -0.000001  -0.000220  -0.000265   0.000000
    21  O    0.374680  -0.125374  -0.000012  -0.000013  -0.000987   0.000076
    22  H   -0.012721  -0.024633   0.000009  -0.000002  -0.000553   0.000007
    23  C    0.502774  -0.353653  -0.000401   0.000323   0.004899  -0.000529
    24  H    0.034963  -0.002557   0.000000   0.000000  -0.000007  -0.000005
    25  H   -0.004951  -0.016318   0.000000   0.000000  -0.000019   0.000022
    26  O    0.082070  -0.045076  -0.000020   0.000002   0.000063  -0.000684
    27  H    0.010065  -0.001770   0.000000   0.000000  -0.000011  -0.000451
             13         14         15         16         17         18
     1  C    0.017761  -0.042955  -0.050540   0.003143   0.015837   0.003048
     2  C    0.038240   0.033668  -0.020954   0.027775  -0.013409  -0.018727
     3  N   -0.064565   0.012705   0.012351  -0.066094   0.025394   0.014286
     4  C    0.399786  -0.032797  -0.083052   0.069992   0.002529   0.001638
     5  C   -0.032627   0.357968   0.447786  -0.014412  -0.000978  -0.009544
     6  C    0.010184   0.003561   0.021809   0.306491   0.008652  -0.011596
     7  C    0.010609   0.005214  -0.005478  -0.036449   0.248873   0.094654
     8  C   -0.022883  -0.002272   0.014261  -0.016370   0.075403   0.226546
     9  H   -0.000117  -0.005233   0.004129  -0.000010   0.000003  -0.000020
    10  H   -0.000140   0.000901  -0.005351  -0.000014  -0.000008   0.000265
    11  H   -0.000196  -0.000052  -0.000094  -0.000552  -0.000119  -0.002999
    12  H   -0.032750  -0.003491   0.004006  -0.000364   0.000003   0.000005
    13  H    0.531682   0.000992  -0.005963   0.002666  -0.000013   0.000005
    14  H    0.000992   0.527403  -0.024906  -0.000124  -0.000001   0.000005
    15  H   -0.005963  -0.024906   0.511153   0.000005   0.000017   0.000022
    16  H    0.002666  -0.000124   0.000005   0.557910  -0.003386  -0.000109
    17  H   -0.000013  -0.000001   0.000017  -0.003386   0.535537  -0.002892
    18  H    0.000005   0.000005   0.000022  -0.000109  -0.002892   0.559860
    19  O    0.000535   0.000485  -0.001450   0.001519  -0.013394  -0.033907
    20  H    0.000000  -0.000002   0.000068   0.000484   0.004368  -0.006550
    21  O    0.000005   0.000002  -0.000002   0.008994  -0.047370  -0.002422
    22  H   -0.000002   0.000000   0.000001  -0.000055   0.006227  -0.000971
    23  C   -0.022319   0.000454   0.000034  -0.021852  -0.019739   0.015386
    24  H   -0.000022   0.000000  -0.000001  -0.002455   0.001153  -0.000003
    25  H    0.000101   0.000000   0.000001   0.004395   0.000103   0.000002
    26  O    0.004940   0.000046  -0.000199  -0.000842  -0.000875   0.000046
    27  H    0.000233  -0.000005   0.000001   0.000074   0.000004   0.000000
             19         20         21         22         23         24
     1  C    0.002656   0.005850   0.023985   0.018684   0.038135   0.000752
     2  C   -0.247610   0.034739   0.002687   0.021570   0.043288   0.011544
     3  N    0.051711  -0.003040   0.044406   0.027259   0.127083   0.010327
     4  C   -0.003081   0.002050   0.014643   0.008822   0.032308  -0.003123
     5  C   -0.001181  -0.002826  -0.004867  -0.002967  -0.066274   0.000872
     6  C   -0.094659  -0.009670  -0.194505  -0.046399  -1.208851  -0.160577
     7  C    0.103860  -0.066675   0.374680  -0.012721   0.502774   0.034963
     8  C    0.171277   0.059223  -0.125374  -0.024633  -0.353653  -0.002557
     9  H   -0.000386  -0.000001  -0.000012   0.000009  -0.000401   0.000000
    10  H    0.000875  -0.000220  -0.000013  -0.000002   0.000323   0.000000
    11  H    0.009717  -0.000265  -0.000987  -0.000553   0.004899  -0.000007
    12  H    0.000240   0.000000   0.000076   0.000007  -0.000529  -0.000005
    13  H    0.000535   0.000000   0.000005  -0.000002  -0.022319  -0.000022
    14  H    0.000485  -0.000002   0.000002   0.000000   0.000454   0.000000
    15  H   -0.001450   0.000068  -0.000002   0.000001   0.000034  -0.000001
    16  H    0.001519   0.000484   0.008994  -0.000055  -0.021852  -0.002455
    17  H   -0.013394   0.004368  -0.047370   0.006227  -0.019739   0.001153
    18  H   -0.033907  -0.006550  -0.002422  -0.000971   0.015386  -0.000003
    19  O    8.329370   0.228143   0.005119  -0.000312   0.054268  -0.000243
    20  H    0.228143   0.371017   0.000301   0.000019  -0.005559   0.000004
    21  O    0.005119   0.000301   8.153527   0.267555  -0.014815  -0.003635
    22  H   -0.000312   0.000019   0.267555   0.354286   0.001897   0.000355
    23  C    0.054268  -0.005559  -0.014815   0.001897   5.992340   0.487311
    24  H   -0.000243   0.000004  -0.003635   0.000355   0.487311   0.544713
    25  H    0.000172   0.000001   0.009089  -0.000443   0.441606  -0.031946
    26  O    0.000975  -0.000009  -0.002286  -0.000387   0.195619  -0.060950
    27  H   -0.000052   0.000000  -0.000093   0.000026   0.029901   0.006705
             25         26         27
     1  C    0.002266  -0.000757  -0.000959
     2  C   -0.000489   0.033154   0.009176
     3  N    0.017738   0.021727   0.018022
     4  C    0.013575  -0.021532  -0.003071
     5  C   -0.001856  -0.000028   0.006564
     6  C   -0.102179  -0.148690  -0.075121
     7  C   -0.004951   0.082070   0.010065
     8  C   -0.016318  -0.045076  -0.001770
     9  H    0.000000  -0.000020   0.000000
    10  H    0.000000   0.000002   0.000000
    11  H   -0.000019   0.000063  -0.000011
    12  H    0.000022  -0.000684  -0.000451
    13  H    0.000101   0.004940   0.000233
    14  H    0.000000   0.000046  -0.000005
    15  H    0.000001  -0.000199   0.000001
    16  H    0.004395  -0.000842   0.000074
    17  H    0.000103  -0.000875   0.000004
    18  H    0.000002   0.000046   0.000000
    19  O    0.000172   0.000975  -0.000052
    20  H    0.000001  -0.000009   0.000000
    21  O    0.009089  -0.002286  -0.000093
    22  H   -0.000443  -0.000387   0.000026
    23  C    0.441606   0.195619   0.029901
    24  H   -0.031946  -0.060950   0.006705
    25  H    0.558265  -0.044616  -0.007123
    26  O   -0.044616   8.275098   0.259723
    27  H   -0.007123   0.259723   0.372856
 Mulliken atomic charges:
              1
     1  C   -0.473673
     2  C    0.027990
     3  N   -0.235957
     4  C   -0.266877
     5  C   -0.292183
     6  C    0.115365
     7  C   -0.252728
     8  C    0.038427
     9  H    0.175254
    10  H    0.181189
    11  H    0.169481
    12  H    0.164847
    13  H    0.163858
    14  H    0.168435
    15  H    0.182347
    16  H    0.179640
    17  H    0.178079
    18  H    0.173972
    19  O   -0.564647
    20  H    0.388551
    21  O   -0.508690
    22  H    0.382729
    23  C   -0.253635
    24  H    0.166826
    25  H    0.162607
    26  O   -0.546514
    27  H    0.375308
 Sum of Mulliken atomic charges =   0.00000
 Mulliken charges with hydrogens summed into heavy atoms:
              1
     1  C   -0.117231
     2  C    0.197472
     3  N   -0.235957
     4  C    0.061828
     5  C    0.058598
     6  C    0.295005
     7  C   -0.074649
     8  C    0.212399
    19  O   -0.176096
    21  O   -0.125960
    23  C    0.075797
    26  O   -0.171206
 Sum of Mulliken charges with hydrogens summed into heavy atoms =   0.00000
 Electronic spatial extent (au):  <R**2>=           1982.6805
 Charge=              0.0000 electrons
 Dipole moment (field-independent basis, Debye):
    X=              2.6444    Y=              0.7471    Z=             -0.7873  Tot=              2.8584
 Quadrupole moment (field-independent basis, Debye-Ang):
   XX=            -83.2770   YY=            -71.7122   ZZ=            -69.6974
   XY=             -0.6382   XZ=              0.4609   YZ=              7.2075
 Traceless Quadrupole moment (field-independent basis, Debye-Ang):
   XX=             -8.3815   YY=              3.1833   ZZ=              5.1981
   XY=             -0.6382   XZ=              0.4609   YZ=              7.2075
 Octapole moment (field-independent basis, Debye-Ang**2):
  XXX=             20.7502  YYY=             -7.3940  ZZZ=              1.0213  XYY=             20.7549
  XXY=             11.5181  XXZ=            -13.2761  XZZ=             -2.6534  YZZ=             16.7298
  YYZ=             10.5726  XYZ=             -9.3354
 Hexadecapole moment (field-independent basis, Debye-Ang**3):
 XXXX=          -1425.5415 YYYY=           -932.6484 ZZZZ=           -275.4219 XXXY=            -48.7633
 XXXZ=             22.6666 YYYX=             62.5719 YYYZ=             67.4822 ZZZX=             19.5942
 ZZZY=             11.1378 XXYY=           -404.4571 XXZZ=           -267.5926 YYZZ=           -183.7281
 XXYZ=             34.5775 YYXZ=             18.0366 ZZXY=              3.8191
 N-N= 8.119747510818D+02 E-N=-3.009762939939D+03  KE= 5.886519395279D+02
 1\1\GINC-COMPUTE-3-2\SP\RmPW1PW91\6-31+G(d,p)\C8H15N1O3\MAMICHETTI.IQU
 IR\17-May-2024\0\\# mpw1pw91/6-31+G** nmr scrf=(pcm,solvent=water)\\co
 mment\\0,1\C,0,2.38999,-0.577589,-0.575306\C,0,1.129483,0.274525,-0.83
 0547\N,0,-0.051545,-0.626724,-0.594147\C,0,0.468065,-1.948516,-0.17522
 5\C,0,1.895471,-1.711804,0.336673\C,0,-0.960355,0.037604,0.368659\C,0,
 -0.615873,1.531372,0.23839\C,0,0.91562,1.496791,0.080357\H,0,2.752663,
 -0.988794,-1.52417\H,0,3.200507,0.007922,-0.133286\H,0,1.118657,0.6338
 96,-1.86686\H,0,0.488882,-2.628092,-1.038332\H,0,-0.19363,-2.394868,0.
 572149\H,0,2.519114,-2.610174,0.27951\H,0,1.874046,-1.379088,1.379901\
 H,0,-0.727865,-0.261498,1.403626\H,0,-0.918708,2.098506,1.122859\H,0,1
 .289655,2.421548,-0.376175\O,0,1.545656,1.276862,1.346763\H,0,1.349135
 ,2.050633,1.901634\O,0,-1.251941,2.18288,-0.867964\H,0,-1.060333,1.671
 045,-1.672168\C,0,-2.43611,-0.269586,0.122694\H,0,-3.047999,0.340293,0
 .796319\H,0,-2.710449,-0.017496,-0.908929\O,0,-2.783447,-1.631287,0.40
 9479\H,0,-2.372749,-2.181194,-0.277444\\Version=AM64L-G09RevC.01\State
 =1-A\HF=-594.1945958\RMSD=4.087e-09\Dipole=1.0403694,0.2939243,-0.3097
 542\Quadrupole=-6.2314264,2.3667302,3.8646962,-0.4745038,0.3426777,5.3
 585853\PG=C01 [X(C8H15N1O3)]\\@


 A MATHEMATICIAN IS A MACHINE FOR TURNING COFFEE INTO THEOREMS.
     -- QUOTED BY PAUL ERDOS
 Job cpu time:  0 days  0 hours  8 minutes 57.1 seconds.
 File lengths (MBytes):  RWF=    113 Int=      0 D2E=      0 Chk=      7 Scr=      1
 Normal termination of Gaussian 09 at Fri May 17 12:58:47 2024.
