 Entering Gaussian System, Link 0=g09
 Input=/home/mamichetti.iquir/Linux/03_Cardona_A1A3_R__S_S_R_020_OptB.gjc
 Output=/home/mamichetti.iquir/Linux/03_Cardona_A1A3_R__S_S_R_020_OptB.log
 Initial command:
 /opt/ohpc/pub/apps/software/Gaussian/09/AMD64.SSE4a-enabled/g09/l1.exe /local/mamichetti.iquir/Gau-130075.inp -scrdir=/local/mamichetti.iquir/
 Entering Link 1 = /opt/ohpc/pub/apps/software/Gaussian/09/AMD64.SSE4a-enabled/g09/l1.exe PID=    130076.
  
 Copyright (c) 1988,1990,1992,1993,1995,1998,2003,2009,2011,
            Gaussian, Inc.  All Rights Reserved.
  
 This is part of the Gaussian(R) 09 program.  It is based on
 the Gaussian(R) 03 system (copyright 2003, Gaussian, Inc.),
 the Gaussian(R) 98 system (copyright 1998, Gaussian, Inc.),
 the Gaussian(R) 94 system (copyright 1995, Gaussian, Inc.),
 the Gaussian 92(TM) system (copyright 1992, Gaussian, Inc.),
 the Gaussian 90(TM) system (copyright 1990, Gaussian, Inc.),
 the Gaussian 88(TM) system (copyright 1988, Gaussian, Inc.),
 the Gaussian 86(TM) system (copyright 1986, Carnegie Mellon
 University), and the Gaussian 82(TM) system (copyright 1983,
 Carnegie Mellon University). Gaussian is a federally registered
 trademark of Gaussian, Inc.
  
 This software contains proprietary and confidential information,
 including trade secrets, belonging to Gaussian, Inc.
  
 This software is provided under written license and may be
 used, copied, transmitted, or stored only in accord with that
 written license.
  
 The following legend is applicable only to US Government
 contracts under FAR:
  
                    RESTRICTED RIGHTS LEGEND
  
 Use, reproduction and disclosure by the US Government is
 subject to restrictions as set forth in subparagraphs (a)
 and (c) of the Commercial Computer Software - Restricted
 Rights clause in FAR 52.227-19.
  
 Gaussian, Inc.
 340 Quinnipiac St., Bldg. 40, Wallingford CT 06492
  
  
 ---------------------------------------------------------------
 Warning -- This program may not be used in any manner that
 competes with the business of Gaussian, Inc. or will provide
 assistance to any competitor of Gaussian, Inc.  The licensee
 of this program is prohibited from giving any competitor of
 Gaussian, Inc. access to this program.  By using this program,
 the user acknowledges that Gaussian, Inc. is engaged in the
 business of creating and licensing software in the field of
 computational chemistry and represents and warrants to the
 licensee that it is not a competitor of Gaussian, Inc. and that
 it will not use this program in any manner prohibited above.
 ---------------------------------------------------------------
  

 Cite this work as:
 Gaussian 09, Revision C.01,
 M. J. Frisch, G. W. Trucks, H. B. Schlegel, G. E. Scuseria, 
 M. A. Robb, J. R. Cheeseman, G. Scalmani, V. Barone, B. Mennucci, 
 G. A. Petersson, H. Nakatsuji, M. Caricato, X. Li, H. P. Hratchian, 
 A. F. Izmaylov, J. Bloino, G. Zheng, J. L. Sonnenberg, M. Hada, 
 M. Ehara, K. Toyota, R. Fukuda, J. Hasegawa, M. Ishida, T. Nakajima, 
 Y. Honda, O. Kitao, H. Nakai, T. Vreven, J. A. Montgomery, Jr., 
 J. E. Peralta, F. Ogliaro, M. Bearpark, J. J. Heyd, E. Brothers, 
 K. N. Kudin, V. N. Staroverov, T. Keith, R. Kobayashi, J. Normand, 
 K. Raghavachari, A. Rendell, J. C. Burant, S. S. Iyengar, J. Tomasi, 
 M. Cossi, N. Rega, J. M. Millam, M. Klene, J. E. Knox, J. B. Cross, 
 V. Bakken, C. Adamo, J. Jaramillo, R. Gomperts, R. E. Stratmann, 
 O. Yazyev, A. J. Austin, R. Cammi, C. Pomelli, J. W. Ochterski, 
 R. L. Martin, K. Morokuma, V. G. Zakrzewski, G. A. Voth, 
 P. Salvador, J. J. Dannenberg, S. Dapprich, A. D. Daniels, 
 O. Farkas, J. B. Foresman, J. V. Ortiz, J. Cioslowski, 
 and D. J. Fox, Gaussian, Inc., Wallingford CT, 2010.
 
 ******************************************
 Gaussian 09:  AM64L-G09RevC.01 23-Sep-2011
                17-May-2024 
 ******************************************
 %nprocshared=4
 Will use up to    4 processors via shared memory.
 ------------------------------------------------
 # mpw1pw91/6-31+G** nmr scrf=(pcm,solvent=water)
 ------------------------------------------------
 1/38=1/1;
 2/12=2,17=6,18=5,40=1/2;
 3/5=1,6=6,7=111,11=2,16=1,25=1,30=1,70=2201,72=1,74=-7/1,2,8,3;
 4//1;
 5/5=2,38=5,53=1/2;
 8/6=1,10=90,11=11/1;
 10/13=100,45=16/2;
 6/7=2,8=2,9=2,10=2,28=1/1;
 99/9=1/99;
 -------
 comment
 -------
 Charge =  0 Multiplicity = 1
 Symbolic Z-Matrix:
 6                    -2.4697    0.28852  -0.43502 
 6                    -1.10205  -0.35874  -0.71374 
 7                    -0.06702   0.67692  -0.36513 
 6                    -0.75904   1.78016   0.32587 
 6                    -2.14875   1.78945  -0.31038 
 6                     1.02294   0.022     0.39225 
 6                     0.82051  -1.49424   0.17032 
 6                    -0.71614  -1.62051   0.08853 
 1                    -3.19821   0.06916  -1.2208 
 1                    -2.87324  -0.08614   0.51139 
 1                    -1.0087   -0.61025  -1.77897 
 1                    -0.22425   2.72794   0.19812 
 1                    -0.83671   1.59117   1.41211 
 1                    -2.10444   2.25748  -1.30102 
 1                    -2.88139   2.33684   0.29098 
 1                     0.89838   0.21558   1.4721 
 1                     1.22054  -2.07862   1.00197 
 1                    -1.00846  -2.54281  -0.41982 
 8                    -1.29879  -1.70274   1.39294 
 1                    -1.11361  -0.87676   1.87174 
 8                     1.46958  -2.01143  -0.99727 
 1                     1.16315  -1.51117  -1.77219 
 6                     2.41187   0.52023   0.00332 
 1                     3.17119  -0.04161   0.55781 
 1                     2.58568   0.3623   -1.06815 
 8                     2.61452   1.89776   0.34356 
 1                     2.03889   2.41852  -0.24013 
 
                          Input orientation:                          
 ---------------------------------------------------------------------
 Center     Atomic      Atomic             Coordinates (Angstroms)
 Number     Number       Type             X           Y           Z
 ---------------------------------------------------------------------
      1          6           0       -2.469699    0.288519   -0.435022
      2          6           0       -1.102053   -0.358741   -0.713737
      3          7           0       -0.067022    0.676921   -0.365129
      4          6           0       -0.759040    1.780155    0.325871
      5          6           0       -2.148753    1.789454   -0.310383
      6          6           0        1.022944    0.022001    0.392245
      7          6           0        0.820507   -1.494240    0.170324
      8          6           0       -0.716142   -1.620507    0.088529
      9          1           0       -3.198212    0.069155   -1.220804
     10          1           0       -2.873240   -0.086142    0.511391
     11          1           0       -1.008696   -0.610254   -1.778971
     12          1           0       -0.224249    2.727944    0.198121
     13          1           0       -0.836708    1.591165    1.412106
     14          1           0       -2.104443    2.257476   -1.301016
     15          1           0       -2.881389    2.336839    0.290983
     16          1           0        0.898381    0.215578    1.472099
     17          1           0        1.220541   -2.078624    1.001968
     18          1           0       -1.008457   -2.542807   -0.419824
     19          8           0       -1.298788   -1.702737    1.392944
     20          1           0       -1.113612   -0.876759    1.871738
     21          8           0        1.469582   -2.011425   -0.997267
     22          1           0        1.163154   -1.511173   -1.772188
     23          6           0        2.411865    0.520228    0.003322
     24          1           0        3.171193   -0.041611    0.557814
     25          1           0        2.585675    0.362296   -1.068146
     26          8           0        2.614524    1.897756    0.343556
     27          1           0        2.038894    2.418520   -0.240125
 ---------------------------------------------------------------------
                    Distance matrix (angstroms):
                    1          2          3          4          5
     1  C    0.000000
     2  C    1.538533   0.000000
     3  N    2.434871   1.505129   0.000000
     4  C    2.393802   2.402773   1.474278   0.000000
     5  C    1.539918   2.423431   2.361002   1.528466   0.000000
     6  C    3.599161   2.425649   1.480055   2.504192   3.698275
     7  C    3.790795   2.401491   2.405901   3.638795   4.453115
     8  C    2.644513   1.544219   2.430090   3.409204   3.720126
     9  H    1.093757   2.198657   3.302410   3.356976   2.211257
    10  H    1.094949   2.170795   3.037336   2.826185   2.172108
    11  H    2.179110   1.098498   2.131319   3.194799   3.035635
    12  H    3.375457   3.336113   2.132760   1.095731   2.200694
    13  H    2.788445   2.896852   2.141687   1.105285   2.174339
    14  H    2.181777   2.862564   2.743196   2.164418   1.096523
    15  H    2.211829   3.382551   3.332637   2.194420   1.094544
    16  H    3.871226   3.018188   2.126087   2.551232   3.865146
    17  H    4.613695   3.360965   3.334637   4.389308   5.294944
    18  H    3.186199   2.205740   3.354987   4.393890   4.481154
    19  O    2.945775   2.506618   3.204815   3.682460   3.977331
    20  H    2.918559   2.636884   2.917678   3.094288   3.597480
    21  O    4.596063   3.070026   3.160373   4.592769   5.292527
    22  H    4.269019   2.753104   2.877656   4.350807   4.898953
    23  C    4.906679   3.692476   2.511014   3.427257   4.744321
    24  H    5.737105   4.469681   3.442985   4.338129   5.692837
    25  H    5.095399   3.774233   2.762250   3.891109   5.002579
    26  O    5.389355   4.474661   3.030406   3.375659   4.809176
    27  H    4.990220   4.219364   2.735631   2.925115   4.235215
                    6          7          8          9         10
     6  C    0.000000
     7  C    1.545709   0.000000
     8  C    2.411327   1.543996   0.000000
     9  H    4.519105   4.530954   3.275665   0.000000
    10  H    3.899505   3.967724   2.680701   1.769244   0.000000
    11  H    3.039981   2.815522   2.143305   2.359476   2.999496
    12  H    2.985850   4.349612   4.377556   4.234024   3.877418
    13  H    2.638313   3.715926   3.475806   3.850381   2.787850
    14  H    4.200599   4.979513   4.347064   2.447757   3.060786
    15  H    4.540104   5.328767   4.515514   2.743769   2.432999
    16  H    1.104116   2.150386   2.809299   4.904614   3.903732
    17  H    2.196231   1.092320   2.189745   5.392499   4.579268
    18  H    3.371096   2.189264   1.092936   3.501277   3.221767
    19  O    3.060483   2.455541   1.430991   3.684982   2.422687
    20  H    2.749826   2.648945   1.972556   3.847613   2.360489
    21  O    2.503008   1.432497   2.471671   5.115377   4.984262
    22  H    2.656135   1.972574   2.646880   4.671507   4.851590
    23  C    1.525973   2.572623   3.791363   5.759767   5.343983
    24  H    2.155559   2.790341   4.221909   6.614006   6.044775
    25  H    2.165796   2.845409   4.021368   5.793322   5.700508
    26  O    2.460478   3.841112   4.851448   6.291177   5.837771
    27  H    2.678684   4.118571   4.900202   5.823103   5.564815
                   11         12         13         14         15
    11  H    0.000000
    12  H    3.958259   0.000000
    13  H    3.880567   1.772324   0.000000
    14  H    3.106924   2.450282   3.067923   0.000000
    15  H    4.059193   2.687374   2.448197   1.773247   0.000000
    16  H    3.858549   3.032375   2.215033   4.569077   4.492376
    17  H    3.854767   5.082980   4.227037   5.929673   6.068578
    18  H    2.362634   5.364481   4.524952   5.002040   5.274852
    19  O    3.367301   4.713085   3.326210   4.856932   4.476284
    20  H    3.661927   4.072572   2.525586   4.568538   3.993875
    21  O    2.952322   5.172972   4.909451   5.575790   6.284738
    22  H    2.351305   4.876179   4.874800   5.010180   5.951655
    23  C    4.019303   3.443988   3.699298   5.011623   5.603692
    24  H    4.822384   4.396458   4.411240   6.047593   6.508608
    25  H    3.790861   3.885279   4.401645   5.063906   5.969492
    26  O    4.891110   2.961249   3.625852   5.010256   5.513675
    27  H    4.563915   2.325859   3.418109   4.280031   4.949539
                   16         17         18         19         20
    16  H    0.000000
    17  H    2.363932   0.000000
    18  H    3.850207   2.684286   0.000000
    19  O    2.917833   2.577047   2.018945   0.000000
    20  H    2.324011   2.765728   2.835142   0.972509   0.000000
    21  O    3.373956   2.015807   2.599324   3.670459   4.023872
    22  H    3.684721   2.832179   2.758451   4.014463   4.343310
    23  C    2.130904   3.028296   4.610839   4.543299   4.227474
    24  H    2.463278   2.855125   4.968021   4.841230   4.558884
    25  H    3.053086   3.479519   4.666662   5.040871   4.884967
    26  O    2.654897   4.264773   5.781638   5.420219   4.892062
    27  H    3.014205   4.736750   5.825239   5.549035   5.025647
                   21         22         23         24         25
    21  O    0.000000
    22  H    0.971932   0.000000
    23  C    2.880684   2.972929   0.000000
    24  H    3.032148   3.408921   1.095310   0.000000
    25  H    2.623974   2.455428   1.096903   1.774745   0.000000
    26  O    4.288402   4.266573   1.433322   2.029022   2.085994
    27  H    4.530099   4.307740   1.949843   2.823305   2.283122
                   26         27
    26  O    0.000000
    27  H    0.971200   0.000000
 Stoichiometry    C8H15NO3
 Framework group  C1[X(C8H15NO3)]
 Deg. of freedom    75
 Full point group                 C1      NOp   1
 Largest Abelian subgroup         C1      NOp   1
 Largest concise Abelian subgroup C1      NOp   1
                         Standard orientation:                         
 ---------------------------------------------------------------------
 Center     Atomic      Atomic             Coordinates (Angstroms)
 Number     Number       Type             X           Y           Z
 ---------------------------------------------------------------------
      1          6           0       -2.469699    0.288519   -0.435022
      2          6           0       -1.102053   -0.358741   -0.713737
      3          7           0       -0.067022    0.676921   -0.365129
      4          6           0       -0.759040    1.780155    0.325871
      5          6           0       -2.148753    1.789454   -0.310383
      6          6           0        1.022944    0.022001    0.392245
      7          6           0        0.820507   -1.494240    0.170324
      8          6           0       -0.716142   -1.620507    0.088529
      9          1           0       -3.198212    0.069155   -1.220804
     10          1           0       -2.873240   -0.086142    0.511391
     11          1           0       -1.008696   -0.610254   -1.778971
     12          1           0       -0.224249    2.727944    0.198121
     13          1           0       -0.836708    1.591165    1.412106
     14          1           0       -2.104443    2.257476   -1.301016
     15          1           0       -2.881389    2.336839    0.290983
     16          1           0        0.898381    0.215578    1.472099
     17          1           0        1.220541   -2.078624    1.001968
     18          1           0       -1.008457   -2.542807   -0.419824
     19          8           0       -1.298788   -1.702737    1.392944
     20          1           0       -1.113612   -0.876759    1.871738
     21          8           0        1.469582   -2.011425   -0.997267
     22          1           0        1.163154   -1.511173   -1.772188
     23          6           0        2.411865    0.520228    0.003322
     24          1           0        3.171193   -0.041612    0.557814
     25          1           0        2.585675    0.362296   -1.068146
     26          8           0        2.614524    1.897756    0.343556
     27          1           0        2.038894    2.418520   -0.240125
 ---------------------------------------------------------------------
 Rotational constants (GHZ):      1.1476537      0.8985674      0.6056470
 Standard basis: 6-31+G(d,p) (6D, 7F)
 There are   303 symmetry adapted basis functions of A   symmetry.
 Integral buffers will be    131072 words long.
 Raffenetti 2 integral format.
 Two-electron integral symmetry is turned on.
   303 basis functions,   489 primitive gaussians,   303 cartesian basis functions
    47 alpha electrons       47 beta electrons
       nuclear repulsion energy       807.4589282584 Hartrees.
 NAtoms=   27 NActive=   27 NUniq=   27 SFac= 1.00D+00 NAtFMM=   60 NAOKFM=F Big=F
 ------------------------------------------------------------------------------
 Polarizable Continuum Model (PCM)
 =================================
 Model                : PCM.
 Atomic radii         : UFF (Universal Force Field).
 Polarization charges : Total charges.
 Charge compensation  : None.
 Solution method      : Matrix inversion.
 Cavity type          : Scaled VdW (van der Waals Surface) (Alpha=1.100).
 Cavity algorithm     : GePol (No added spheres)
                        Default sphere list used, NSphG=   27.
                        Lebedev-Laikov grids with approx.  5.0 points / Ang**2.
                        Smoothing algorithm: Karplus/York (Gamma=1.0000).
                        Polarization charges: spherical gaussians, with
                                              point-specific exponents (IZeta= 3).
                        Self-potential: point-specific (ISelfS= 7).
                        Self-field    : sphere-specific E.n sum rule (ISelfD= 2).
 Solvent              : Water, Eps=  78.355300 Eps(inf)=   1.777849
 ------------------------------------------------------------------------------
 One-electron integrals computed using PRISM.
 NBasis=   303 RedAO= T  NBF=   303
 NBsUse=   303 1.00D-06 NBFU=   303
 Harris functional with IExCor=  908 diagonalized for initial guess.
 ExpMin= 4.38D-02 ExpMax= 5.48D+03 ExpMxC= 8.25D+02 IAcc=2 IRadAn=         4 AccDes= 0.00D+00
 HarFok:  IExCor=  908 AccDes= 0.00D+00 IRadAn=         4 IDoV= 1
 ScaDFX=  1.000000  1.000000  1.000000  1.000000
 FoFCou: FMM=F IPFlag=           0 FMFlag=      100000 FMFlg1=           0
         NFxFlg=           0 DoJE=T BraDBF=F KetDBF=T FulRan=T
         Omega=  0.000000  0.000000  1.000000  0.000000  0.000000 ICntrl=     500 IOpCl=  0
         NMat0=    1 NMatS0=    1 NMatT0=    0 NMatD0=    1 NMtDS0=    0 NMtDT0=    0
         I1Cent=           4 NGrid=           0.
 Petite list used in FoFCou.
 Initial guess orbital symmetries:
       Occupied  (A) (A) (A) (A) (A) (A) (A) (A) (A) (A) (A) (A)
                 (A) (A) (A) (A) (A) (A) (A) (A) (A) (A) (A) (A)
                 (A) (A) (A) (A) (A) (A) (A) (A) (A) (A) (A) (A)
                 (A) (A) (A) (A) (A) (A) (A) (A) (A) (A) (A)
       Virtual   (A) (A) (A) (A) (A) (A) (A) (A) (A) (A) (A) (A)
                 (A) (A) (A) (A) (A) (A) (A) (A) (A) (A) (A) (A)
                 (A) (A) (A) (A) (A) (A) (A) (A) (A) (A) (A) (A)
                 (A) (A) (A) (A) (A) (A) (A) (A) (A) (A) (A) (A)
                 (A) (A) (A) (A) (A) (A) (A) (A) (A) (A) (A) (A)
                 (A) (A) (A) (A) (A) (A) (A) (A) (A) (A) (A) (A)
                 (A) (A) (A) (A) (A) (A) (A) (A) (A) (A) (A) (A)
                 (A) (A) (A) (A) (A) (A) (A) (A) (A) (A) (A) (A)
                 (A) (A) (A) (A) (A) (A) (A) (A) (A) (A) (A) (A)
                 (A) (A) (A) (A) (A) (A) (A) (A) (A) (A) (A) (A)
                 (A) (A) (A) (A) (A) (A) (A) (A) (A) (A) (A) (A)
                 (A) (A) (A) (A) (A) (A) (A) (A) (A) (A) (A) (A)
                 (A) (A) (A) (A) (A) (A) (A) (A) (A) (A) (A) (A)
                 (A) (A) (A) (A) (A) (A) (A) (A) (A) (A) (A) (A)
                 (A) (A) (A) (A) (A) (A) (A) (A) (A) (A) (A) (A)
                 (A) (A) (A) (A) (A) (A) (A) (A) (A) (A) (A) (A)
                 (A) (A) (A) (A) (A) (A) (A) (A) (A) (A) (A) (A)
                 (A) (A) (A) (A) (A) (A) (A) (A) (A) (A) (A) (A)
                 (A) (A) (A) (A) (A) (A) (A) (A) (A) (A) (A) (A)
                 (A) (A) (A) (A) (A) (A) (A) (A) (A) (A) (A) (A)
                 (A) (A) (A) (A) (A) (A) (A) (A) (A) (A) (A) (A)
                 (A) (A) (A) (A)
 The electronic state of the initial guess is 1-A.
 Requested convergence on RMS density matrix=1.00D-08 within 128 cycles.
 Requested convergence on MAX density matrix=1.00D-06.
 Requested convergence on             energy=1.00D-06.
 No special actions if energy rises.
 Error on total polarization charges =  0.01431
 SCF Done:  E(RmPW1PW91) =  -594.193537241     A.U. after   13 cycles
             Convg  =    0.5726D-08             -V/T =  2.0094
 Range of M.O.s used for correlation:     1   303
 NBasis=   303 NAE=    47 NBE=    47 NFC=     0 NFV=     0
 NROrb=    303 NOA=    47 NOB=    47 NVA=   256 NVB=   256

 **** Warning!!: The largest alpha MO coefficient is  0.73102878D+02

 NEqPCM:  Using equilibrium solvation (IEInf=0, Eps=  78.3553, EpsInf=   1.7778)
          Differentiating once with respect to magnetic field using GIAOs.
          Electric field/nuclear overlap derivatives assumed to be zero.
 FoFCou: FMM=F IPFlag=           0 FMFlag=    10101102 FMFlg1=           0
         NFxFlg=    40000000 DoJE=F BraDBF=F KetDBF=T FulRan=T
         Omega=  0.000000  0.000000  1.000000  0.000000  0.000000 ICntrl=    6100 IOpCl=  0
         NMat0=    1 NMatS0=    1 NMatT0=    0 NMatD0=    1 NMtDS0=    0 NMtDT0=    0
         I1Cent=           7 NGrid=        1814.
 Symmetry not used in FoFCou.
          There are     3 degrees of freedom in the 1st order CPHF.  IDoFFX=0.
      3 vectors produced by pass  0 Test12= 4.01D-13 3.33D-08 XBig12= 4.47D+01 1.21D+00.
 AX will form     3 AO Fock derivatives at one time.
      3 vectors produced by pass  1 Test12= 4.01D-13 3.33D-08 XBig12= 1.07D-01 4.82D-02.
      3 vectors produced by pass  2 Test12= 4.01D-13 3.33D-08 XBig12= 2.16D-04 3.41D-03.
      3 vectors produced by pass  3 Test12= 4.01D-13 3.33D-08 XBig12= 1.11D-06 2.48D-04.
      3 vectors produced by pass  4 Test12= 4.01D-13 3.33D-08 XBig12= 3.32D-09 9.03D-06.
      3 vectors produced by pass  5 Test12= 4.01D-13 3.33D-08 XBig12= 9.23D-12 6.10D-07.
      1 vectors produced by pass  6 Test12= 4.01D-13 3.33D-08 XBig12= 3.81D-14 3.53D-08.
 Inverted reduced A of dimension    19 with in-core refinement.
 Calculating GIAO nuclear magnetic shielding tensors.
 SCF GIAO Magnetic shielding tensor (ppm):
      1  C    Isotropic =   171.9283   Anisotropy =    21.1936
   XX=   180.0172   YX=    -3.9065   ZX=     2.6102
   XY=     5.5403   YY=   184.4534   ZY=    10.7056
   XZ=     0.4598   YZ=     3.2047   ZZ=   151.3144
   Eigenvalues:   149.8539   179.8737   186.0574
      2  C    Isotropic =   127.1301   Anisotropy =    60.3412
   XX=   146.9412   YX=    17.1287   ZX=     9.5625
   XY=    20.6663   YY=   148.7575   ZY=     2.4026
   XZ=    11.4673   YZ=    -3.4802   ZZ=    85.6917
   Eigenvalues:    83.7148   130.3180   167.3576
      3  N    Isotropic =   188.3222   Anisotropy =    92.6350
   XX=   233.6133   YX=    -7.9304   ZX=    37.3145
   XY=   -14.9774   YY=   199.9606   ZY=     7.9109
   XZ=    48.3176   YZ=    16.4540   ZZ=   131.3927
   Eigenvalues:   113.1013   201.7864   250.0789
      4  C    Isotropic =   134.8419   Anisotropy =    54.6765
   XX=   137.1541   YX=   -21.0911   ZX=    -6.1672
   XY=   -30.6562   YY=   142.4813   ZY=    13.6743
   XZ=    -0.8979   YZ=    22.1359   ZZ=   124.8902
   Eigenvalues:   107.2685   125.9642   171.2929
      5  C    Isotropic =   163.3980   Anisotropy =    26.7797
   XX=   177.7385   YX=    -2.1930   ZX=     8.2421
   XY=    -2.4582   YY=   175.2283   ZY=    12.3402
   XZ=    16.6289   YZ=     4.0973   ZZ=   137.2273
   Eigenvalues:   132.0259   176.9170   181.2512
      6  C    Isotropic =   125.4455   Anisotropy =    37.4831
   XX=   136.8385   YX=   -10.0189   ZX=     9.3945
   XY=   -17.7799   YY=   125.2868   ZY=   -11.6195
   XZ=    11.0862   YZ=    -2.7598   ZZ=   114.2112
   Eigenvalues:   109.8788   116.0235   150.4343
      7  C    Isotropic =   109.6610   Anisotropy =    30.2079
   XX=   123.0532   YX=    -4.7861   ZX=   -12.0308
   XY=     6.4657   YY=   104.3819   ZY=     0.2251
   XZ=   -14.6886   YZ=    16.5858   ZZ=   101.5479
   Eigenvalues:    90.5260   108.6574   129.7996
      8  C    Isotropic =   115.7293   Anisotropy =    34.2487
   XX=   120.6447   YX=     0.6791   ZX=   -16.7146
   XY=    -7.5056   YY=   101.9384   ZY=     7.2631
   XZ=   -14.7261   YZ=    -8.3930   ZZ=   124.6048
   Eigenvalues:   100.4833   108.1429   138.5618
      9  H    Isotropic =    29.8190   Anisotropy =    11.7916
   XX=    33.0964   YX=     1.0641   ZX=     5.8265
   XY=     2.2091   YY=    27.3084   ZY=     2.2913
   XZ=     5.5719   YZ=     1.4077   ZZ=    29.0521
   Eigenvalues:    24.8642    26.9127    37.6800
     10  H    Isotropic =    29.6220   Anisotropy =     7.5179
   XX=    31.0684   YX=     0.2434   ZX=    -3.2430
   XY=     0.0285   YY=    29.0969   ZY=    -4.0958
   XZ=    -3.5275   YZ=    -3.4030   ZZ=    28.7006
   Eigenvalues:    24.2342    29.9978    34.6339
     11  H    Isotropic =    27.6208   Anisotropy =     7.7629
   XX=    26.2171   YX=     0.2494   ZX=     1.2745
   XY=    -0.3115   YY=    25.5222   ZY=     3.6366
   XZ=     1.5918   YZ=     2.6690   ZZ=    31.1232
   Eigenvalues:    23.9250    26.1413    32.7961
     12  H    Isotropic =    28.3630   Anisotropy =     8.5169
   XX=    28.4999   YX=     0.8369   ZX=     0.1828
   XY=     1.8234   YY=    33.5510   ZY=     0.9940
   XZ=    -0.0493   YZ=     1.7139   ZZ=    23.0381
   Eigenvalues:    22.8646    28.1835    34.0409
     13  H    Isotropic =    29.2034   Anisotropy =     7.9337
   XX=    27.2486   YX=    -1.2722   ZX=    -1.4682
   XY=    -1.1727   YY=    28.1226   ZY=     3.9401
   XZ=    -0.1720   YZ=     3.0819   ZZ=    32.2389
   Eigenvalues:    25.7748    27.3428    34.4925
     14  H    Isotropic =    29.3513   Anisotropy =    10.5238
   XX=    26.8082   YX=    -0.7325   ZX=     2.2972
   XY=    -1.1261   YY=    31.0319   ZY=    -5.1988
   XZ=     2.4673   YZ=    -5.1380   ZZ=    30.2139
   Eigenvalues:    24.6806    27.0062    36.3672
     15  H    Isotropic =    29.4663   Anisotropy =    11.6696
   XX=    31.5096   YX=    -4.5089   ZX=    -2.4210
   XY=    -5.2032   YY=    31.0370   ZY=     2.7728
   XZ=    -2.3640   YZ=     2.5177   ZZ=    25.8525
   Eigenvalues:    24.7045    26.4485    37.2461
     16  H    Isotropic =    28.7820   Anisotropy =     5.2982
   XX=    28.9392   YX=     0.3126   ZX=     2.0867
   XY=     1.8125   YY=    26.7224   ZY=    -1.3904
   XZ=     2.5527   YZ=     0.7925   ZZ=    30.6843
   Eigenvalues:    25.9273    28.1045    32.3141
     17  H    Isotropic =    27.2557   Anisotropy =     4.9931
   XX=    25.9308   YX=    -2.2794   ZX=    -0.3400
   XY=    -2.5561   YY=    27.9572   ZY=    -1.6917
   XZ=    -0.1041   YZ=    -2.3834   ZZ=    27.8791
   Eigenvalues:    23.8437    27.3389    30.5844
     18  H    Isotropic =    27.8703   Anisotropy =     6.6704
   XX=    25.1510   YX=     1.4237   ZX=    -1.1759
   XY=     1.6381   YY=    31.1896   ZY=     1.6480
   XZ=    -1.3331   YZ=     2.8198   ZZ=    27.2704
   Eigenvalues:    23.7861    27.5077    32.3173
     19  O    Isotropic =   284.8295   Anisotropy =    36.8404
   XX=   263.8336   YX=    12.3258   ZX=    36.6419
   XY=    12.2693   YY=   299.1941   ZY=     6.5918
   XZ=     0.6004   YZ=     0.2004   ZZ=   291.4609
   Eigenvalues:   252.4825   292.6163   309.3898
     20  H    Isotropic =    31.1245   Anisotropy =    12.9240
   XX=    25.3127   YX=     3.3392   ZX=    -2.1814
   XY=     1.3714   YY=    33.8707   ZY=     6.3162
   XZ=    -1.9375   YZ=     5.0954   ZZ=    34.1902
   Eigenvalues:    23.3485    30.2846    39.7405
     21  O    Isotropic =   295.3831   Anisotropy =    30.8699
   XX=   287.7316   YX=    -5.9978   ZX=    29.7419
   XY=    -2.9596   YY=   288.5991   ZY=   -11.2518
   XZ=    -4.3132   YZ=     8.6063   ZZ=   309.8185
   Eigenvalues:   280.3723   289.8139   315.9630
     22  H    Isotropic =    30.4411   Anisotropy =    13.1851
   XX=    25.6522   YX=    -4.8313   ZX=     0.2201
   XY=    -3.4252   YY=    27.4174   ZY=    -3.0196
   XZ=    -0.0404   YZ=    -3.3489   ZZ=    38.2537
   Eigenvalues:    22.0714    30.0208    39.2312
     23  C    Isotropic =   127.8617   Anisotropy =    48.0290
   XX=   123.1037   YX=     1.5513   ZX=    -4.6663
   XY=    13.5321   YY=   155.2150   ZY=    15.4777
   XZ=    -2.5040   YZ=    12.0140   ZZ=   105.2663
   Eigenvalues:   100.4306   123.2734   159.8810
     24  H    Isotropic =    27.7734   Anisotropy =     6.4118
   XX=    31.1123   YX=    -0.1948   ZX=     2.2612
   XY=    -1.7618   YY=    29.4130   ZY=    -0.6953
   XZ=     2.1363   YZ=     0.1603   ZZ=    22.7949
   Eigenvalues:    22.2493    29.0229    32.0479
     25  H    Isotropic =    27.7957   Anisotropy =     6.0921
   XX=    26.7978   YX=     2.5389   ZX=    -3.3586
   XY=     1.5170   YY=    29.7325   ZY=     4.6000
   XZ=    -3.2872   YZ=     1.9090   ZZ=    26.8569
   Eigenvalues:    21.7414    29.7886    31.8571
     26  O    Isotropic =   311.5328   Anisotropy =    46.4139
   XX=   314.0552   YX=   -26.4989   ZX=    11.0028
   XY=    -6.6276   YY=   313.8163   ZY=   -10.6835
   XZ=    23.9054   YZ=   -12.5935   ZZ=   306.7269
   Eigenvalues:   292.3610   299.7620   342.4754
     27  H    Isotropic =    30.3259   Anisotropy =    15.2469
   XX=    30.1231   YX=    -2.4364   ZX=     6.7386
   XY=    -3.1642   YY=    34.3527   ZY=    -5.8713
   XZ=     5.6357   YZ=    -5.6735   ZZ=    26.5018
   Eigenvalues:    21.0729    29.4143    40.4905
 End of Minotr Frequency-dependent properties file   721 does not exist.
 End of Minotr Frequency-dependent properties file   722 does not exist.

 **********************************************************************

            Population analysis using the SCF density.

 **********************************************************************

 Orbital symmetries:
       Occupied  (A) (A) (A) (A) (A) (A) (A) (A) (A) (A) (A) (A)
                 (A) (A) (A) (A) (A) (A) (A) (A) (A) (A) (A) (A)
                 (A) (A) (A) (A) (A) (A) (A) (A) (A) (A) (A) (A)
                 (A) (A) (A) (A) (A) (A) (A) (A) (A) (A) (A)
       Virtual   (A) (A) (A) (A) (A) (A) (A) (A) (A) (A) (A) (A)
                 (A) (A) (A) (A) (A) (A) (A) (A) (A) (A) (A) (A)
                 (A) (A) (A) (A) (A) (A) (A) (A) (A) (A) (A) (A)
                 (A) (A) (A) (A) (A) (A) (A) (A) (A) (A) (A) (A)
                 (A) (A) (A) (A) (A) (A) (A) (A) (A) (A) (A) (A)
                 (A) (A) (A) (A) (A) (A) (A) (A) (A) (A) (A) (A)
                 (A) (A) (A) (A) (A) (A) (A) (A) (A) (A) (A) (A)
                 (A) (A) (A) (A) (A) (A) (A) (A) (A) (A) (A) (A)
                 (A) (A) (A) (A) (A) (A) (A) (A) (A) (A) (A) (A)
                 (A) (A) (A) (A) (A) (A) (A) (A) (A) (A) (A) (A)
                 (A) (A) (A) (A) (A) (A) (A) (A) (A) (A) (A) (A)
                 (A) (A) (A) (A) (A) (A) (A) (A) (A) (A) (A) (A)
                 (A) (A) (A) (A) (A) (A) (A) (A) (A) (A) (A) (A)
                 (A) (A) (A) (A) (A) (A) (A) (A) (A) (A) (A) (A)
                 (A) (A) (A) (A) (A) (A) (A) (A) (A) (A) (A) (A)
                 (A) (A) (A) (A) (A) (A) (A) (A) (A) (A) (A) (A)
                 (A) (A) (A) (A) (A) (A) (A) (A) (A) (A) (A) (A)
                 (A) (A) (A) (A) (A) (A) (A) (A) (A) (A) (A) (A)
                 (A) (A) (A) (A) (A) (A) (A) (A) (A) (A) (A) (A)
                 (A) (A) (A) (A) (A) (A) (A) (A) (A) (A) (A) (A)
                 (A) (A) (A) (A) (A) (A) (A) (A) (A) (A) (A) (A)
                 (A) (A) (A) (A)
 The electronic state is 1-A.
 Alpha  occ. eigenvalues --  -19.26402 -19.26396 -19.25641 -14.41716 -10.31020
 Alpha  occ. eigenvalues --  -10.30673 -10.29641 -10.28430 -10.28265 -10.27423
 Alpha  occ. eigenvalues --  -10.24853 -10.24830  -1.07531  -1.06109  -1.05677
 Alpha  occ. eigenvalues --   -0.96630  -0.83141  -0.79304  -0.75670  -0.72393
 Alpha  occ. eigenvalues --   -0.67198  -0.62234  -0.61138  -0.58979  -0.54936
 Alpha  occ. eigenvalues --   -0.53695  -0.52454  -0.50961  -0.48520  -0.46945
 Alpha  occ. eigenvalues --   -0.46481  -0.45275  -0.43543  -0.42747  -0.40436
 Alpha  occ. eigenvalues --   -0.39980  -0.38605  -0.38134  -0.36283  -0.35990
 Alpha  occ. eigenvalues --   -0.35538  -0.34873  -0.33992  -0.32521  -0.30409
 Alpha  occ. eigenvalues --   -0.28209  -0.23577
 Alpha virt. eigenvalues --    0.00477   0.01201   0.01986   0.02077   0.03465
 Alpha virt. eigenvalues --    0.04205   0.04783   0.04850   0.05388   0.06698
 Alpha virt. eigenvalues --    0.07616   0.08088   0.08536   0.08798   0.09410
 Alpha virt. eigenvalues --    0.10342   0.10906   0.11528   0.12251   0.12404
 Alpha virt. eigenvalues --    0.12789   0.13708   0.13850   0.14791   0.15234
 Alpha virt. eigenvalues --    0.15484   0.16999   0.17209   0.18199   0.18503
 Alpha virt. eigenvalues --    0.19071   0.19562   0.20106   0.20334   0.21114
 Alpha virt. eigenvalues --    0.21312   0.21648   0.21980   0.22544   0.23073
 Alpha virt. eigenvalues --    0.23533   0.24065   0.24943   0.25136   0.25915
 Alpha virt. eigenvalues --    0.26327   0.26726   0.27073   0.28019   0.28316
 Alpha virt. eigenvalues --    0.29433   0.30148   0.30288   0.31105   0.32183
 Alpha virt. eigenvalues --    0.32617   0.33083   0.33554   0.33781   0.34560
 Alpha virt. eigenvalues --    0.34874   0.35680   0.35992   0.36600   0.37365
 Alpha virt. eigenvalues --    0.38373   0.39346   0.39715   0.40652   0.41523
 Alpha virt. eigenvalues --    0.41603   0.42886   0.43948   0.45277   0.46263
 Alpha virt. eigenvalues --    0.47464   0.62653   0.65671   0.66980   0.68419
 Alpha virt. eigenvalues --    0.69225   0.70127   0.72402   0.72806   0.73215
 Alpha virt. eigenvalues --    0.75529   0.76421   0.78024   0.79749   0.80154
 Alpha virt. eigenvalues --    0.83681   0.84551   0.86459   0.87803   0.89060
 Alpha virt. eigenvalues --    0.89477   0.92087   0.93152   0.94345   0.95117
 Alpha virt. eigenvalues --    0.97578   0.99455   1.01434   1.02135   1.04468
 Alpha virt. eigenvalues --    1.05080   1.07241   1.07468   1.07956   1.09565
 Alpha virt. eigenvalues --    1.10947   1.11901   1.13933   1.14394   1.15567
 Alpha virt. eigenvalues --    1.16776   1.19106   1.20472   1.23039   1.24442
 Alpha virt. eigenvalues --    1.25732   1.26770   1.29836   1.30241   1.33368
 Alpha virt. eigenvalues --    1.35362   1.36463   1.37823   1.40711   1.41508
 Alpha virt. eigenvalues --    1.43958   1.44292   1.47129   1.48979   1.51135
 Alpha virt. eigenvalues --    1.51281   1.53584   1.56389   1.57283   1.60269
 Alpha virt. eigenvalues --    1.62541   1.63866   1.66033   1.69644   1.70647
 Alpha virt. eigenvalues --    1.72257   1.74782   1.75894   1.77505   1.78610
 Alpha virt. eigenvalues --    1.79564   1.82234   1.83374   1.85211   1.87633
 Alpha virt. eigenvalues --    1.88436   1.88619   1.90144   1.92969   1.95782
 Alpha virt. eigenvalues --    1.98623   1.99360   2.01522   2.02718   2.03844
 Alpha virt. eigenvalues --    2.06104   2.07400   2.07855   2.09536   2.10506
 Alpha virt. eigenvalues --    2.11582   2.13700   2.15393   2.15909   2.17951
 Alpha virt. eigenvalues --    2.21638   2.24570   2.25013   2.27256   2.29975
 Alpha virt. eigenvalues --    2.30461   2.32528   2.34797   2.37148   2.40921
 Alpha virt. eigenvalues --    2.41375   2.42156   2.43953   2.45932   2.46553
 Alpha virt. eigenvalues --    2.48558   2.49980   2.50523   2.51606   2.52575
 Alpha virt. eigenvalues --    2.54917   2.56856   2.58777   2.59420   2.61348
 Alpha virt. eigenvalues --    2.63762   2.65147   2.66637   2.67783   2.70430
 Alpha virt. eigenvalues --    2.71100   2.73178   2.73531   2.76683   2.77507
 Alpha virt. eigenvalues --    2.78707   2.79892   2.81492   2.84387   2.85654
 Alpha virt. eigenvalues --    2.86857   2.89325   2.90143   2.92766   2.95185
 Alpha virt. eigenvalues --    2.97838   3.00085   3.01189   3.02541   3.03503
 Alpha virt. eigenvalues --    3.05835   3.07319   3.09848   3.16879   3.32132
 Alpha virt. eigenvalues --    3.34558   3.35541   3.37018   3.42698   3.44745
 Alpha virt. eigenvalues --    3.46393   3.49635   3.51262   3.53865   3.56012
 Alpha virt. eigenvalues --    3.57936   3.59355   3.60549   3.61169   4.31140
 Alpha virt. eigenvalues --    4.33896   4.34128   4.39578   4.49187   4.56600
 Alpha virt. eigenvalues --    4.59186   4.69087   4.77487   4.79929   4.88862
 Alpha virt. eigenvalues --    4.96265
          Condensed to atoms (all electrons):
              1          2          3          4          5          6
     1  C    6.527500  -1.482435   0.224844  -0.003240  -0.046333   0.263536
     2  C   -1.482435  10.088028  -0.568756  -0.631138   0.509650  -1.182242
     3  N    0.224844  -0.568756   7.689330   0.306491  -0.198640  -0.185951
     4  C   -0.003240  -0.631138   0.306491   5.997862  -0.398711  -0.002305
     5  C   -0.046333   0.509650  -0.198640  -0.398711   6.259584  -0.267534
     6  C    0.263536  -1.182242  -0.185951  -0.002305  -0.267534   9.262963
     7  C   -0.473521   1.633402  -0.455602  -0.053847  -0.001273  -1.344932
     8  C    0.557467  -2.196240   0.207012   0.262803  -0.167552   0.974333
     9  H    0.396368  -0.090903   0.013561   0.026201  -0.029202   0.005352
    10  H    0.508108  -0.204890   0.033462   0.035443  -0.085405   0.004654
    11  H    0.089954   0.103271  -0.000604   0.033474  -0.038101   0.016206
    12  H    0.035374   0.011203  -0.048773   0.376817  -0.019346  -0.005211
    13  H   -0.018362   0.017648  -0.093681   0.402358  -0.014574  -0.000681
    14  H   -0.018167  -0.055683   0.017332  -0.029649   0.398850   0.007052
    15  H   -0.076647   0.060268   0.004428  -0.011356   0.369764  -0.004491
    16  H   -0.025069   0.039403  -0.068594   0.013847   0.020377   0.246866
    17  H    0.012721  -0.002333   0.023564   0.001697   0.001518   0.016914
    18  H    0.001927  -0.045640   0.014827   0.000465  -0.002689   0.027849
    19  O    0.080638  -0.215324   0.040809   0.056064  -0.078085  -0.013383
    20  H   -0.005706  -0.020891   0.015141   0.002389   0.000703   0.040989
    21  O    0.010670  -0.029780   0.046466   0.010720   0.003521  -0.207639
    22  H    0.013237   0.019883   0.020958   0.003622   0.002116  -0.030370
    23  C   -0.043489   0.083617   0.201752  -0.128657   0.090994  -1.309636
    24  H    0.000047   0.014693   0.009804  -0.003210   0.001061  -0.159296
    25  H   -0.000201   0.007308   0.018707   0.011745   0.002952  -0.119778
    26  O   -0.006870   0.046997   0.026360  -0.025129   0.019485  -0.162360
    27  H   -0.001759   0.014028   0.025843   0.000343   0.006868  -0.102045
              7          8          9         10         11         12
     1  C   -0.473521   0.557467   0.396368   0.508108   0.089954   0.035374
     2  C    1.633402  -2.196240  -0.090903  -0.204890   0.103271   0.011203
     3  N   -0.455602   0.207012   0.013561   0.033462  -0.000604  -0.048773
     4  C   -0.053847   0.262803   0.026201   0.035443   0.033474   0.376817
     5  C   -0.001273  -0.167552  -0.029202  -0.085405  -0.038101  -0.019346
     6  C   -1.344932   0.974333   0.005352   0.004654   0.016206  -0.005211
     7  C    8.018289  -1.631015  -0.009290  -0.013928  -0.046491  -0.005323
     8  C   -1.631015   7.613139   0.032593   0.038506   0.100447  -0.007721
     9  H   -0.009290   0.032593   0.509357  -0.023181  -0.005012  -0.000111
    10  H   -0.013928   0.038506  -0.023181   0.511795   0.003800  -0.000058
    11  H   -0.046491   0.100447  -0.005012   0.003800   0.558906   0.000101
    12  H   -0.005323  -0.007721  -0.000111  -0.000058   0.000101   0.548041
    13  H    0.002473   0.004330  -0.000122   0.000748  -0.000601  -0.042517
    14  H   -0.005756   0.015002  -0.005311   0.003856   0.000490  -0.005720
    15  H    0.003090  -0.005906   0.000685  -0.005580  -0.000119   0.000372
    16  H    0.057518  -0.029241  -0.000002  -0.000026  -0.000616  -0.001295
    17  H    0.269971   0.036590   0.000002  -0.000011  -0.000046   0.000004
    18  H   -0.016148   0.340750   0.000165   0.000078  -0.002229   0.000005
    19  O   -0.107573   0.360295  -0.000513   0.009996   0.006232   0.000012
    20  H   -0.048579  -0.007829   0.000059  -0.001660  -0.000116   0.000013
    21  O    0.376133  -0.092667  -0.000008   0.000066  -0.001432   0.000034
    22  H   -0.017407  -0.020279   0.000006  -0.000001   0.000641   0.000002
    23  C   -0.007234  -0.269815   0.000088  -0.000604   0.010842   0.001019
    24  H    0.044325  -0.006333   0.000000   0.000000  -0.000012  -0.000050
    25  H   -0.005882  -0.020814   0.000000   0.000000  -0.000067   0.000038
    26  O    0.071201  -0.040701  -0.000001  -0.000005  -0.000119   0.001097
    27  H    0.006524  -0.002801   0.000000   0.000000  -0.000011   0.000013
             13         14         15         16         17         18
     1  C   -0.018362  -0.018167  -0.076647  -0.025069   0.012721   0.001927
     2  C    0.017648  -0.055683   0.060268   0.039403  -0.002333  -0.045640
     3  N   -0.093681   0.017332   0.004428  -0.068594   0.023564   0.014827
     4  C    0.402358  -0.029649  -0.011356   0.013847   0.001697   0.000465
     5  C   -0.014574   0.398850   0.369764   0.020377   0.001518  -0.002689
     6  C   -0.000681   0.007052  -0.004491   0.246866   0.016914   0.027849
     7  C    0.002473  -0.005756   0.003090   0.057518   0.269971  -0.016148
     8  C    0.004330   0.015002  -0.005906  -0.029241   0.036590   0.340750
     9  H   -0.000122  -0.005311   0.000685  -0.000002   0.000002   0.000165
    10  H    0.000748   0.003856  -0.005580  -0.000026  -0.000011   0.000078
    11  H   -0.000601   0.000490  -0.000119  -0.000616  -0.000046  -0.002229
    12  H   -0.042517  -0.005720   0.000372  -0.001295   0.000004   0.000005
    13  H    0.586123   0.003876  -0.003810   0.012643  -0.000051  -0.000046
    14  H    0.003876   0.516411  -0.024249  -0.000011   0.000000  -0.000001
    15  H   -0.003810  -0.024249   0.514334  -0.000002   0.000000   0.000002
    16  H    0.012643  -0.000011  -0.000002   0.576502  -0.004620  -0.000234
    17  H   -0.000051   0.000000   0.000000  -0.004620   0.525745  -0.002095
    18  H   -0.000046  -0.000001   0.000002  -0.000234  -0.002095   0.529648
    19  O   -0.001331   0.000157   0.000364  -0.001237  -0.002610  -0.049220
    20  H   -0.000909  -0.000009   0.000001  -0.000296  -0.001165   0.006105
    21  O   -0.000059   0.000015   0.000005   0.008191  -0.046396  -0.002621
    22  H   -0.000005  -0.000001   0.000000  -0.000121   0.006222  -0.000874
    23  C   -0.006688   0.000567   0.000240  -0.015803  -0.025644   0.016649
    24  H    0.000038   0.000000   0.000000  -0.002358   0.000970  -0.000003
    25  H   -0.000008  -0.000001   0.000000   0.004577   0.000038  -0.000001
    26  O   -0.001012  -0.000071   0.000012   0.001823  -0.000753   0.000028
    27  H    0.000198   0.000000   0.000000   0.000160   0.000005   0.000000
             19         20         21         22         23         24
     1  C    0.080638  -0.005706   0.010670   0.013237  -0.043489   0.000047
     2  C   -0.215324  -0.020891  -0.029780   0.019883   0.083617   0.014693
     3  N    0.040809   0.015141   0.046466   0.020958   0.201752   0.009804
     4  C    0.056064   0.002389   0.010720   0.003622  -0.128657  -0.003210
     5  C   -0.078085   0.000703   0.003521   0.002116   0.090994   0.001061
     6  C   -0.013383   0.040989  -0.207639  -0.030370  -1.309636  -0.159296
     7  C   -0.107573  -0.048579   0.376133  -0.017407  -0.007234   0.044325
     8  C    0.360295  -0.007829  -0.092667  -0.020279  -0.269815  -0.006333
     9  H   -0.000513   0.000059  -0.000008   0.000006   0.000088   0.000000
    10  H    0.009996  -0.001660   0.000066  -0.000001  -0.000604   0.000000
    11  H    0.006232  -0.000116  -0.001432   0.000641   0.010842  -0.000012
    12  H    0.000012   0.000013   0.000034   0.000002   0.001019  -0.000050
    13  H   -0.001331  -0.000909  -0.000059  -0.000005  -0.006688   0.000038
    14  H    0.000157  -0.000009   0.000015  -0.000001   0.000567   0.000000
    15  H    0.000364   0.000001   0.000005   0.000000   0.000240   0.000000
    16  H   -0.001237  -0.000296   0.008191  -0.000121  -0.015803  -0.002358
    17  H   -0.002610  -0.001165  -0.046396   0.006222  -0.025644   0.000970
    18  H   -0.049220   0.006105  -0.002621  -0.000874   0.016649  -0.000003
    19  O    8.140971   0.258976   0.004531   0.000055   0.023470  -0.000079
    20  H    0.258976   0.354862   0.000067  -0.000025   0.023870  -0.000003
    21  O    0.004531   0.000067   8.142204   0.267680   0.012778  -0.003781
    22  H    0.000055  -0.000025   0.267680   0.359485  -0.003986   0.000336
    23  C    0.023470   0.023870   0.012778  -0.003986   6.418267   0.478122
    24  H   -0.000079  -0.000003  -0.003781   0.000336   0.478122   0.541198
    25  H    0.000048   0.000001   0.009202  -0.000367   0.455008  -0.032111
    26  O   -0.000138   0.000116  -0.002876  -0.000322   0.195175  -0.058634
    27  H   -0.000010   0.000000   0.000009   0.000020   0.046380   0.006557
             25         26         27
     1  C   -0.000201  -0.006870  -0.001759
     2  C    0.007308   0.046997   0.014028
     3  N    0.018707   0.026360   0.025843
     4  C    0.011745  -0.025129   0.000343
     5  C    0.002952   0.019485   0.006868
     6  C   -0.119778  -0.162360  -0.102045
     7  C   -0.005882   0.071201   0.006524
     8  C   -0.020814  -0.040701  -0.002801
     9  H    0.000000  -0.000001   0.000000
    10  H    0.000000  -0.000005   0.000000
    11  H   -0.000067  -0.000119  -0.000011
    12  H    0.000038   0.001097   0.000013
    13  H   -0.000008  -0.001012   0.000198
    14  H   -0.000001  -0.000071   0.000000
    15  H    0.000000   0.000012   0.000000
    16  H    0.004577   0.001823   0.000160
    17  H    0.000038  -0.000753   0.000005
    18  H   -0.000001   0.000028   0.000000
    19  O    0.000048  -0.000138  -0.000010
    20  H    0.000001   0.000116   0.000000
    21  O    0.009202  -0.002876   0.000009
    22  H   -0.000367  -0.000322   0.000020
    23  C    0.455008   0.195175   0.046380
    24  H   -0.032111  -0.058634   0.006557
    25  H    0.559391  -0.044724  -0.006820
    26  O   -0.044724   8.267704   0.257412
    27  H   -0.006820   0.257412   0.374141
 Mulliken atomic charges:
              1
     1  C   -0.520593
     2  C    0.076855
     3  N   -0.320089
     4  C   -0.255099
     5  C   -0.339997
     6  C    0.231138
     7  C   -0.239123
     8  C   -0.044352
     9  H    0.179218
    10  H    0.184837
    11  H    0.171211
    12  H    0.161980
    13  H    0.154022
    14  H    0.181023
    15  H    0.178595
    16  H    0.167620
    17  H    0.189763
    18  H    0.183302
    19  O   -0.513113
    20  H    0.383897
    21  O   -0.505037
    22  H    0.379495
    23  C   -0.247282
    24  H    0.168719
    25  H    0.161760
    26  O   -0.543693
    27  H    0.374946
 Sum of Mulliken atomic charges =   0.00000
 Mulliken charges with hydrogens summed into heavy atoms:
              1
     1  C   -0.156538
     2  C    0.248065
     3  N   -0.320089
     4  C    0.060903
     5  C    0.019620
     6  C    0.398758
     7  C   -0.049360
     8  C    0.138949
    19  O   -0.129216
    21  O   -0.125542
    23  C    0.083197
    26  O   -0.168747
 Sum of Mulliken charges with hydrogens summed into heavy atoms =   0.00000
 Electronic spatial extent (au):  <R**2>=           2028.1477
 Charge=              0.0000 electrons
 Dipole moment (field-independent basis, Debye):
    X=             -2.8930    Y=              1.9681    Z=             -1.2858  Tot=              3.7278
 Quadrupole moment (field-independent basis, Debye-Ang):
   XX=            -81.8630   YY=            -81.2699   ZZ=            -70.0283
   XY=             -5.9976   XZ=              0.6746   YZ=              0.2559
 Traceless Quadrupole moment (field-independent basis, Debye-Ang):
   XX=             -4.1426   YY=             -3.5495   ZZ=              7.6921
   XY=             -5.9976   XZ=              0.6746   YZ=              0.2559
 Octapole moment (field-independent basis, Debye-Ang**2):
  XXX=            -22.7673  YYY=             24.6867  ZZZ=             -4.7048  XYY=            -12.7548
  XXY=             -6.4337  XXZ=             -8.5932  XZZ=              3.2017  YZZ=             -1.3080
  YYZ=            -10.0157  XYZ=            -20.3549
 Hexadecapole moment (field-independent basis, Debye-Ang**3):
 XXXX=          -1412.9148 YYYY=           -995.3862 ZZZZ=           -269.9262 XXXY=            -62.6974
 XXXZ=             -7.1095 YYYX=             16.1324 YYYZ=            -15.1263 ZZZX=            -18.1115
 ZZZY=             16.7017 XXYY=           -451.8304 XXZZ=           -267.4175 YYZZ=           -233.7495
 XXYZ=            -18.4169 YYXZ=              8.5198 ZZXY=            -11.3272
 N-N= 8.074589282584D+02 E-N=-3.000087132951D+03  KE= 5.886531149654D+02
 1\1\GINC-COMPUTE-3-2\SP\RmPW1PW91\6-31+G(d,p)\C8H15N1O3\MAMICHETTI.IQU
 IR\17-May-2024\0\\# mpw1pw91/6-31+G** nmr scrf=(pcm,solvent=water)\\co
 mment\\0,1\C,0,-2.469699,0.288519,-0.435022\C,0,-1.102053,-0.358741,-0
 .713737\N,0,-0.067022,0.676921,-0.365129\C,0,-0.75904,1.780155,0.32587
 1\C,0,-2.148753,1.789454,-0.310383\C,0,1.022944,0.022001,0.392245\C,0,
 0.820507,-1.49424,0.170324\C,0,-0.716142,-1.620507,0.088529\H,0,-3.198
 212,0.069155,-1.220804\H,0,-2.87324,-0.086142,0.511391\H,0,-1.008696,-
 0.610254,-1.778971\H,0,-0.224249,2.727944,0.198121\H,0,-0.836708,1.591
 165,1.412106\H,0,-2.104443,2.257476,-1.301016\H,0,-2.881389,2.336839,0
 .290983\H,0,0.898381,0.215578,1.472099\H,0,1.220541,-2.078624,1.001968
 \H,0,-1.008457,-2.542807,-0.419824\O,0,-1.298788,-1.702737,1.392944\H,
 0,-1.113612,-0.876759,1.871738\O,0,1.469582,-2.011425,-0.997267\H,0,1.
 163154,-1.511173,-1.772188\C,0,2.411865,0.520228,0.003322\H,0,3.171193
 ,-0.041611,0.557814\H,0,2.585675,0.362296,-1.068146\O,0,2.614524,1.897
 756,0.343556\H,0,2.038894,2.41852,-0.240125\\Version=AM64L-G09RevC.01\
 State=1-A\HF=-594.1935372\RMSD=5.726e-09\Dipole=-1.1382099,0.7743238,-
 0.5058617\Quadrupole=-3.0799147,-2.6389761,5.7188908,-4.4590966,0.5015
 607,0.1902298\PG=C01 [X(C8H15N1O3)]\\@


 THE MOST INCOMPREHENSIBLE THING ABOUT THE WORLD
 IS THAT IT IS COMPREHENSIBLE. -- A. EINSTEIN
 Job cpu time:  0 days  0 hours  8 minutes 48.9 seconds.
 File lengths (MBytes):  RWF=    112 Int=      0 D2E=      0 Chk=      7 Scr=      1
 Normal termination of Gaussian 09 at Fri May 17 12:48:20 2024.
