 Entering Gaussian System, Link 0=g09
 Input=/home/mamichetti.iquir/Linux/03_Cardona_A1A3_R__S_S_R_018_OptB.gjc
 Output=/home/mamichetti.iquir/Linux/03_Cardona_A1A3_R__S_S_R_018_OptB.log
 Initial command:
 /opt/ohpc/pub/apps/software/Gaussian/09/AMD64.SSE4a-enabled/g09/l1.exe /local/mamichetti.iquir/Gau-128647.inp -scrdir=/local/mamichetti.iquir/
 Entering Link 1 = /opt/ohpc/pub/apps/software/Gaussian/09/AMD64.SSE4a-enabled/g09/l1.exe PID=    128648.
  
 Copyright (c) 1988,1990,1992,1993,1995,1998,2003,2009,2011,
            Gaussian, Inc.  All Rights Reserved.
  
 This is part of the Gaussian(R) 09 program.  It is based on
 the Gaussian(R) 03 system (copyright 2003, Gaussian, Inc.),
 the Gaussian(R) 98 system (copyright 1998, Gaussian, Inc.),
 the Gaussian(R) 94 system (copyright 1995, Gaussian, Inc.),
 the Gaussian 92(TM) system (copyright 1992, Gaussian, Inc.),
 the Gaussian 90(TM) system (copyright 1990, Gaussian, Inc.),
 the Gaussian 88(TM) system (copyright 1988, Gaussian, Inc.),
 the Gaussian 86(TM) system (copyright 1986, Carnegie Mellon
 University), and the Gaussian 82(TM) system (copyright 1983,
 Carnegie Mellon University). Gaussian is a federally registered
 trademark of Gaussian, Inc.
  
 This software contains proprietary and confidential information,
 including trade secrets, belonging to Gaussian, Inc.
  
 This software is provided under written license and may be
 used, copied, transmitted, or stored only in accord with that
 written license.
  
 The following legend is applicable only to US Government
 contracts under FAR:
  
                    RESTRICTED RIGHTS LEGEND
  
 Use, reproduction and disclosure by the US Government is
 subject to restrictions as set forth in subparagraphs (a)
 and (c) of the Commercial Computer Software - Restricted
 Rights clause in FAR 52.227-19.
  
 Gaussian, Inc.
 340 Quinnipiac St., Bldg. 40, Wallingford CT 06492
  
  
 ---------------------------------------------------------------
 Warning -- This program may not be used in any manner that
 competes with the business of Gaussian, Inc. or will provide
 assistance to any competitor of Gaussian, Inc.  The licensee
 of this program is prohibited from giving any competitor of
 Gaussian, Inc. access to this program.  By using this program,
 the user acknowledges that Gaussian, Inc. is engaged in the
 business of creating and licensing software in the field of
 computational chemistry and represents and warrants to the
 licensee that it is not a competitor of Gaussian, Inc. and that
 it will not use this program in any manner prohibited above.
 ---------------------------------------------------------------
  

 Cite this work as:
 Gaussian 09, Revision C.01,
 M. J. Frisch, G. W. Trucks, H. B. Schlegel, G. E. Scuseria, 
 M. A. Robb, J. R. Cheeseman, G. Scalmani, V. Barone, B. Mennucci, 
 G. A. Petersson, H. Nakatsuji, M. Caricato, X. Li, H. P. Hratchian, 
 A. F. Izmaylov, J. Bloino, G. Zheng, J. L. Sonnenberg, M. Hada, 
 M. Ehara, K. Toyota, R. Fukuda, J. Hasegawa, M. Ishida, T. Nakajima, 
 Y. Honda, O. Kitao, H. Nakai, T. Vreven, J. A. Montgomery, Jr., 
 J. E. Peralta, F. Ogliaro, M. Bearpark, J. J. Heyd, E. Brothers, 
 K. N. Kudin, V. N. Staroverov, T. Keith, R. Kobayashi, J. Normand, 
 K. Raghavachari, A. Rendell, J. C. Burant, S. S. Iyengar, J. Tomasi, 
 M. Cossi, N. Rega, J. M. Millam, M. Klene, J. E. Knox, J. B. Cross, 
 V. Bakken, C. Adamo, J. Jaramillo, R. Gomperts, R. E. Stratmann, 
 O. Yazyev, A. J. Austin, R. Cammi, C. Pomelli, J. W. Ochterski, 
 R. L. Martin, K. Morokuma, V. G. Zakrzewski, G. A. Voth, 
 P. Salvador, J. J. Dannenberg, S. Dapprich, A. D. Daniels, 
 O. Farkas, J. B. Foresman, J. V. Ortiz, J. Cioslowski, 
 and D. J. Fox, Gaussian, Inc., Wallingford CT, 2010.
 
 ******************************************
 Gaussian 09:  AM64L-G09RevC.01 23-Sep-2011
                17-May-2024 
 ******************************************
 %nprocshared=4
 Will use up to    4 processors via shared memory.
 ------------------------------------------------
 # mpw1pw91/6-31+G** nmr scrf=(pcm,solvent=water)
 ------------------------------------------------
 1/38=1/1;
 2/12=2,17=6,18=5,40=1/2;
 3/5=1,6=6,7=111,11=2,16=1,25=1,30=1,70=2201,72=1,74=-7/1,2,8,3;
 4//1;
 5/5=2,38=5,53=1/2;
 8/6=1,10=90,11=11/1;
 10/13=100,45=16/2;
 6/7=2,8=2,9=2,10=2,28=1/1;
 99/9=1/99;
 -------
 comment
 -------
 Charge =  0 Multiplicity = 1
 Symbolic Z-Matrix:
 6                     2.37474  -0.17699  -0.81747 
 6                     0.90865   0.29029  -0.91468 
 7                     0.07602  -0.82415  -0.33847 
 6                     1.00033  -1.87446   0.1537 
 6                     2.36531  -1.19691   0.33212 
 6                    -0.80392  -0.24171   0.7048 
 6                    -0.90046   1.24966   0.34007 
 6                     0.52718   1.56153  -0.12042 
 1                     2.66402  -0.66897  -1.75312 
 1                     3.07396   0.65135  -0.6602 
 1                     0.62532   0.45802  -1.95959 
 1                     1.07461  -2.67738  -0.59152 
 1                     0.61032  -2.32157   1.07367 
 1                     3.19726  -1.90718   0.28505 
 1                     2.41102  -0.68033   1.29657 
 1                    -0.3447   -0.30271   1.70378 
 1                    -1.18038   1.85221   1.21384 
 1                     0.55709   2.45603  -0.75486 
 8                     1.30548   1.77139   1.06324 
 1                     2.21879   1.95306   0.78714 
 8                    -1.79255   1.52474  -0.74569 
 1                    -2.38969   0.75107  -0.82939 
 6                    -2.14095  -0.97992   0.7707 
 1                    -1.9878   -2.0017    1.14303 
 1                    -2.83112  -0.47049   1.44966 
 8                    -2.78031  -1.01972  -0.51783 
 1                    -2.07696  -1.32267  -1.12539 
 
                          Input orientation:                          
 ---------------------------------------------------------------------
 Center     Atomic      Atomic             Coordinates (Angstroms)
 Number     Number       Type             X           Y           Z
 ---------------------------------------------------------------------
      1          6           0        2.374742   -0.176988   -0.817470
      2          6           0        0.908648    0.290286   -0.914681
      3          7           0        0.076015   -0.824146   -0.338473
      4          6           0        1.000330   -1.874456    0.153695
      5          6           0        2.365307   -1.196906    0.332119
      6          6           0       -0.803921   -0.241706    0.704799
      7          6           0       -0.900464    1.249660    0.340068
      8          6           0        0.527175    1.561527   -0.120415
      9          1           0        2.664018   -0.668974   -1.753116
     10          1           0        3.073963    0.651352   -0.660197
     11          1           0        0.625321    0.458018   -1.959589
     12          1           0        1.074612   -2.677378   -0.591518
     13          1           0        0.610319   -2.321569    1.073670
     14          1           0        3.197264   -1.907177    0.285052
     15          1           0        2.411021   -0.680334    1.296569
     16          1           0       -0.344697   -0.302710    1.703781
     17          1           0       -1.180377    1.852208    1.213841
     18          1           0        0.557086    2.456030   -0.754861
     19          8           0        1.305479    1.771394    1.063244
     20          1           0        2.218789    1.953058    0.787140
     21          8           0       -1.792550    1.524744   -0.745694
     22          1           0       -2.389688    0.751072   -0.829392
     23          6           0       -2.140953   -0.979923    0.770696
     24          1           0       -1.987802   -2.001697    1.143033
     25          1           0       -2.831121   -0.470486    1.449657
     26          8           0       -2.780309   -1.019725   -0.517829
     27          1           0       -2.076959   -1.322667   -1.125391
 ---------------------------------------------------------------------
                    Distance matrix (angstroms):
                    1          2          3          4          5
     1  C    0.000000
     2  C    1.541826   0.000000
     3  N    2.435651   1.505740   0.000000
     4  C    2.390307   2.415769   1.483152   0.000000
     5  C    1.536840   2.426542   2.414436   1.534298   0.000000
     6  C    3.524967   2.416324   1.483894   2.494977   3.330961
     7  C    3.755289   2.401599   2.390523   3.661674   4.080565
     8  C    2.630936   1.546749   2.437731   3.479223   3.345515
     9  H    1.095976   2.168981   2.953481   2.803029   2.171669
    10  H    1.095350   2.209914   3.356828   3.367800   2.214259
    11  H    2.183608   1.095555   2.138621   3.169706   3.319375
    12  H    2.827250   2.989817   2.120306   1.097973   2.170437
    13  H    3.359885   3.296108   2.126477   1.094702   2.212408
    14  H    2.210351   3.392045   3.362132   2.201101   1.094921
    15  H    2.173438   2.844091   2.854172   2.173048   1.095034
    16  H    3.710507   2.962914   2.149348   2.585005   3.166254
    17  H    4.569763   3.366635   3.339322   4.446056   4.758824
    18  H    3.200090   2.199906   3.341312   4.446914   4.218427
    19  O    2.911460   2.502667   3.195813   3.769963   3.235519
    20  H    2.671365   2.716151   3.683931   4.066418   3.186030
    21  O    4.501929   2.974712   3.028968   4.490394   5.084962
    22  H    4.853991   3.331459   2.966817   4.399100   5.268178
    23  C    4.853708   3.708638   2.483842   3.323934   4.532749
    24  H    5.119075   4.228096   2.800148   3.150224   4.500536
    25  H    5.685685   4.489403   3.431315   4.281433   5.364647
    26  O    5.232069   3.934720   2.868624   3.933795   5.218349
    27  H    4.607064   3.399980   2.345860   3.377905   4.676952
                    6          7          8          9         10
     6  C    0.000000
     7  C    1.538350   0.000000
     8  C    2.388398   1.532142   0.000000
     9  H    4.272061   4.557204   3.493844   0.000000
    10  H    4.206988   4.141808   2.757882   1.762324   0.000000
    11  H    3.103435   2.871087   2.147074   2.338595   2.778785
    12  H    3.337937   4.493373   4.299993   2.812331   3.883628
    13  H    2.542041   3.946431   4.063396   3.865161   4.232505
    14  H    4.354247   5.173009   4.396099   2.443691   2.730342
    15  H    3.298248   3.950406   3.253100   3.060182   2.458010
    16  H    1.101169   2.139730   2.750133   4.597461   4.264489
    17  H    2.187537   1.097677   2.186428   5.471615   4.801404
    18  H    3.355701   2.186012   1.097065   3.898888   3.098466
    19  O    2.937792   2.379364   1.432079   3.966473   2.711509
    20  H    3.736381   3.228681   1.959212   3.677796   2.126157
    21  O    2.490314   1.431911   2.402801   5.068362   4.945005
    22  H    2.419506   1.958064   3.109272   5.330079   5.467180
    23  C    1.528712   2.587527   3.791036   5.436365   5.648350
    24  H    2.165916   3.521133   4.540702   5.639438   5.992643
    25  H    2.171795   2.813810   4.227571   6.363466   6.370245
    26  O    2.450764   3.069188   4.214291   5.593716   6.089767
    27  H    2.477640   3.185683   4.013735   4.826823   5.535807
                   11         12         13         14         15
    11  H    0.000000
    12  H    3.450245   0.000000
    13  H    4.114242   1.764942   0.000000
    14  H    4.153005   2.422238   2.736042   0.000000
    15  H    3.884216   3.055985   2.446603   1.773834   0.000000
    16  H    3.865219   3.594702   2.320536   4.139154   2.811121
    17  H    3.908320   5.372285   4.543859   5.844601   4.395310
    18  H    2.334112   5.162014   5.115839   5.204761   4.181174
    19  O    3.365277   4.752169   4.151590   4.209076   2.699562
    20  H    3.509816   4.964955   4.576211   4.013841   2.689094
    21  O    2.908186   5.089422   4.886511   6.143188   5.167515
    22  H    3.233188   4.879777   4.697107   6.286677   5.442007
    23  C    4.144201   3.882891   3.075923   5.439872   4.592033
    24  H    4.743930   3.583796   2.618657   5.256422   4.595565
    25  H    4.942881   4.928643   3.925734   6.305697   5.248574
    26  O    3.982551   4.196863   3.965353   6.096193   5.509731
    27  H    3.342012   3.471694   3.613189   5.490759   5.140082
                   16         17         18         19         20
    16  H    0.000000
    17  H    2.362641   0.000000
    18  H    3.803785   2.694284   0.000000
    19  O    2.726770   2.491724   2.081904   0.000000
    20  H    3.535559   3.427328   2.322069   0.971273   0.000000
    21  O    3.381685   2.078886   2.527482   3.595953   4.315539
    22  H    3.421902   2.617200   3.405277   4.275206   5.029514
    23  C    2.134432   3.023252   4.627366   4.419641   5.254522
    24  H    2.429154   3.938214   5.472640   5.008820   5.784648
    25  H    2.505001   2.859278   4.990425   4.720890   5.640398
    26  O    3.373702   3.715705   4.824444   5.194593   5.960819
    27  H    3.470628   4.044218   4.621043   5.079786   5.730759
                   21         22         23         24         25
    21  O    0.000000
    22  H    0.980891   0.000000
    23  C    2.948590   2.370336   0.000000
    24  H    4.005147   3.410236   1.098231   0.000000
    25  H    3.143110   2.623191   1.094005   1.774771   0.000000
    26  O    2.738962   1.839940   1.438978   2.085857   2.043342
    27  H    2.886660   2.117973   1.927878   2.369552   2.815288
                   26         27
    26  O    0.000000
    27  H    0.977551   0.000000
 Stoichiometry    C8H15NO3
 Framework group  C1[X(C8H15NO3)]
 Deg. of freedom    75
 Full point group                 C1      NOp   1
 Largest Abelian subgroup         C1      NOp   1
 Largest concise Abelian subgroup C1      NOp   1
                         Standard orientation:                         
 ---------------------------------------------------------------------
 Center     Atomic      Atomic             Coordinates (Angstroms)
 Number     Number       Type             X           Y           Z
 ---------------------------------------------------------------------
      1          6           0        2.374742   -0.176988   -0.817470
      2          6           0        0.908648    0.290286   -0.914681
      3          7           0        0.076015   -0.824146   -0.338473
      4          6           0        1.000330   -1.874456    0.153695
      5          6           0        2.365307   -1.196906    0.332119
      6          6           0       -0.803921   -0.241706    0.704799
      7          6           0       -0.900464    1.249660    0.340068
      8          6           0        0.527175    1.561527   -0.120415
      9          1           0        2.664018   -0.668974   -1.753116
     10          1           0        3.073963    0.651352   -0.660197
     11          1           0        0.625321    0.458018   -1.959589
     12          1           0        1.074612   -2.677378   -0.591518
     13          1           0        0.610319   -2.321569    1.073670
     14          1           0        3.197264   -1.907177    0.285052
     15          1           0        2.411021   -0.680334    1.296569
     16          1           0       -0.344697   -0.302710    1.703781
     17          1           0       -1.180377    1.852208    1.213841
     18          1           0        0.557086    2.456030   -0.754861
     19          8           0        1.305479    1.771394    1.063244
     20          1           0        2.218789    1.953058    0.787140
     21          8           0       -1.792550    1.524744   -0.745694
     22          1           0       -2.389688    0.751072   -0.829392
     23          6           0       -2.140953   -0.979923    0.770696
     24          1           0       -1.987802   -2.001697    1.143033
     25          1           0       -2.831121   -0.470486    1.449657
     26          8           0       -2.780309   -1.019725   -0.517829
     27          1           0       -2.076959   -1.322667   -1.125391
 ---------------------------------------------------------------------
 Rotational constants (GHZ):      1.3995651      0.8604714      0.6555145
 Standard basis: 6-31+G(d,p) (6D, 7F)
 There are   303 symmetry adapted basis functions of A   symmetry.
 Integral buffers will be    131072 words long.
 Raffenetti 2 integral format.
 Two-electron integral symmetry is turned on.
   303 basis functions,   489 primitive gaussians,   303 cartesian basis functions
    47 alpha electrons       47 beta electrons
       nuclear repulsion energy       821.1079124444 Hartrees.
 NAtoms=   27 NActive=   27 NUniq=   27 SFac= 1.00D+00 NAtFMM=   60 NAOKFM=F Big=F
 ------------------------------------------------------------------------------
 Polarizable Continuum Model (PCM)
 =================================
 Model                : PCM.
 Atomic radii         : UFF (Universal Force Field).
 Polarization charges : Total charges.
 Charge compensation  : None.
 Solution method      : Matrix inversion.
 Cavity type          : Scaled VdW (van der Waals Surface) (Alpha=1.100).
 Cavity algorithm     : GePol (No added spheres)
                        Default sphere list used, NSphG=   27.
                        Lebedev-Laikov grids with approx.  5.0 points / Ang**2.
                        Smoothing algorithm: Karplus/York (Gamma=1.0000).
                        Polarization charges: spherical gaussians, with
                                              point-specific exponents (IZeta= 3).
                        Self-potential: point-specific (ISelfS= 7).
                        Self-field    : sphere-specific E.n sum rule (ISelfD= 2).
 Solvent              : Water, Eps=  78.355300 Eps(inf)=   1.777849
 ------------------------------------------------------------------------------
 One-electron integrals computed using PRISM.
 NBasis=   303 RedAO= T  NBF=   303
 NBsUse=   303 1.00D-06 NBFU=   303
 Harris functional with IExCor=  908 diagonalized for initial guess.
 ExpMin= 4.38D-02 ExpMax= 5.48D+03 ExpMxC= 8.25D+02 IAcc=2 IRadAn=         4 AccDes= 0.00D+00
 HarFok:  IExCor=  908 AccDes= 0.00D+00 IRadAn=         4 IDoV= 1
 ScaDFX=  1.000000  1.000000  1.000000  1.000000
 FoFCou: FMM=F IPFlag=           0 FMFlag=      100000 FMFlg1=           0
         NFxFlg=           0 DoJE=T BraDBF=F KetDBF=T FulRan=T
         Omega=  0.000000  0.000000  1.000000  0.000000  0.000000 ICntrl=     500 IOpCl=  0
         NMat0=    1 NMatS0=    1 NMatT0=    0 NMatD0=    1 NMtDS0=    0 NMtDT0=    0
         I1Cent=           4 NGrid=           0.
 Petite list used in FoFCou.
 Initial guess orbital symmetries:
       Occupied  (A) (A) (A) (A) (A) (A) (A) (A) (A) (A) (A) (A)
                 (A) (A) (A) (A) (A) (A) (A) (A) (A) (A) (A) (A)
                 (A) (A) (A) (A) (A) (A) (A) (A) (A) (A) (A) (A)
                 (A) (A) (A) (A) (A) (A) (A) (A) (A) (A) (A)
       Virtual   (A) (A) (A) (A) (A) (A) (A) (A) (A) (A) (A) (A)
                 (A) (A) (A) (A) (A) (A) (A) (A) (A) (A) (A) (A)
                 (A) (A) (A) (A) (A) (A) (A) (A) (A) (A) (A) (A)
                 (A) (A) (A) (A) (A) (A) (A) (A) (A) (A) (A) (A)
                 (A) (A) (A) (A) (A) (A) (A) (A) (A) (A) (A) (A)
                 (A) (A) (A) (A) (A) (A) (A) (A) (A) (A) (A) (A)
                 (A) (A) (A) (A) (A) (A) (A) (A) (A) (A) (A) (A)
                 (A) (A) (A) (A) (A) (A) (A) (A) (A) (A) (A) (A)
                 (A) (A) (A) (A) (A) (A) (A) (A) (A) (A) (A) (A)
                 (A) (A) (A) (A) (A) (A) (A) (A) (A) (A) (A) (A)
                 (A) (A) (A) (A) (A) (A) (A) (A) (A) (A) (A) (A)
                 (A) (A) (A) (A) (A) (A) (A) (A) (A) (A) (A) (A)
                 (A) (A) (A) (A) (A) (A) (A) (A) (A) (A) (A) (A)
                 (A) (A) (A) (A) (A) (A) (A) (A) (A) (A) (A) (A)
                 (A) (A) (A) (A) (A) (A) (A) (A) (A) (A) (A) (A)
                 (A) (A) (A) (A) (A) (A) (A) (A) (A) (A) (A) (A)
                 (A) (A) (A) (A) (A) (A) (A) (A) (A) (A) (A) (A)
                 (A) (A) (A) (A) (A) (A) (A) (A) (A) (A) (A) (A)
                 (A) (A) (A) (A) (A) (A) (A) (A) (A) (A) (A) (A)
                 (A) (A) (A) (A) (A) (A) (A) (A) (A) (A) (A) (A)
                 (A) (A) (A) (A) (A) (A) (A) (A) (A) (A) (A) (A)
                 (A) (A) (A) (A)
 The electronic state of the initial guess is 1-A.
 Requested convergence on RMS density matrix=1.00D-08 within 128 cycles.
 Requested convergence on MAX density matrix=1.00D-06.
 Requested convergence on             energy=1.00D-06.
 No special actions if energy rises.
 Error on total polarization charges =  0.01418
 SCF Done:  E(RmPW1PW91) =  -594.201318268     A.U. after   12 cycles
             Convg  =    0.8180D-08             -V/T =  2.0094
 Range of M.O.s used for correlation:     1   303
 NBasis=   303 NAE=    47 NBE=    47 NFC=     0 NFV=     0
 NROrb=    303 NOA=    47 NOB=    47 NVA=   256 NVB=   256

 **** Warning!!: The largest alpha MO coefficient is  0.70587965D+02

 NEqPCM:  Using equilibrium solvation (IEInf=0, Eps=  78.3553, EpsInf=   1.7778)
          Differentiating once with respect to magnetic field using GIAOs.
          Electric field/nuclear overlap derivatives assumed to be zero.
 FoFCou: FMM=F IPFlag=           0 FMFlag=    10101102 FMFlg1=           0
         NFxFlg=    40000000 DoJE=F BraDBF=F KetDBF=T FulRan=T
         Omega=  0.000000  0.000000  1.000000  0.000000  0.000000 ICntrl=    6100 IOpCl=  0
         NMat0=    1 NMatS0=    1 NMatT0=    0 NMatD0=    1 NMtDS0=    0 NMtDT0=    0
         I1Cent=           7 NGrid=        1790.
 Symmetry not used in FoFCou.
          There are     3 degrees of freedom in the 1st order CPHF.  IDoFFX=0.
      3 vectors produced by pass  0 Test12= 4.01D-13 3.33D-08 XBig12= 2.92D+01 1.30D+00.
 AX will form     3 AO Fock derivatives at one time.
      3 vectors produced by pass  1 Test12= 4.01D-13 3.33D-08 XBig12= 7.31D-02 6.72D-02.
      3 vectors produced by pass  2 Test12= 4.01D-13 3.33D-08 XBig12= 1.22D-04 2.61D-03.
      3 vectors produced by pass  3 Test12= 4.01D-13 3.33D-08 XBig12= 4.03D-07 1.29D-04.
      3 vectors produced by pass  4 Test12= 4.01D-13 3.33D-08 XBig12= 1.69D-09 7.22D-06.
      3 vectors produced by pass  5 Test12= 4.01D-13 3.33D-08 XBig12= 5.78D-12 3.70D-07.
 Inverted reduced A of dimension    18 with in-core refinement.
 Calculating GIAO nuclear magnetic shielding tensors.
 SCF GIAO Magnetic shielding tensor (ppm):
      1  C    Isotropic =   167.7510   Anisotropy =    24.6739
   XX=   176.6286   YX=    -2.6264   ZX=     1.1222
   XY=    -3.5712   YY=   165.4819   ZY=   -18.8340
   XZ=    -4.3446   YZ=   -22.3033   ZZ=   161.1424
   Eigenvalues:   142.3173   176.7354   184.2002
      2  C    Isotropic =   125.9215   Anisotropy =    59.1109
   XX=   133.9984   YX=    17.4810   ZX=   -11.2205
   XY=    16.8244   YY=   149.0906   ZY=   -18.5428
   XZ=   -17.3354   YZ=    -7.7394   ZZ=    94.6754
   Eigenvalues:    89.0351   123.4005   165.3288
      3  N    Isotropic =   198.6615   Anisotropy =    79.9472
   XX=   211.6962   YX=     3.6049   ZX=   -44.6015
   XY=   -10.7812   YY=   230.3712   ZY=   -36.8007
   XZ=   -50.5948   YZ=   -31.2973   ZZ=   153.9172
   Eigenvalues:   118.1979   225.8270   251.9597
      4  C    Isotropic =   142.2888   Anisotropy =    55.5565
   XX=   152.3386   YX=   -24.9662   ZX=     6.1233
   XY=   -15.4157   YY=   151.7658   ZY=   -20.4039
   XZ=    19.5119   YZ=   -10.5641   ZZ=   122.7620
   Eigenvalues:   115.4674   132.0725   179.3264
      5  C    Isotropic =   168.4057   Anisotropy =    23.0353
   XX=   178.3188   YX=    -2.5906   ZX=     3.7657
   XY=     2.2824   YY=   173.3869   ZY=   -13.0038
   XZ=     8.6291   YZ=   -17.6660   ZZ=   153.5115
   Eigenvalues:   144.3207   177.1338   183.7626
      6  C    Isotropic =   126.8055   Anisotropy =    47.7158
   XX=   125.8040   YX=   -19.3713   ZX=   -19.9541
   XY=    -8.4518   YY=   129.5957   ZY=    14.1983
   XZ=   -26.4965   YZ=     5.9460   ZZ=   125.0167
   Eigenvalues:   101.8750   119.9254   158.6160
      7  C    Isotropic =   112.0865   Anisotropy =    29.9633
   XX=   127.3631   YX=    -8.2979   ZX=    10.3816
   XY=     4.9494   YY=   104.0710   ZY=     2.9712
   XZ=    11.3396   YZ=   -10.5270   ZZ=   104.8253
   Eigenvalues:    98.7920   105.4054   132.0620
      8  C    Isotropic =   115.0321   Anisotropy =    29.0468
   XX=   125.1128   YX=     5.7050   ZX=    16.3304
   XY=    -5.3506   YY=   107.4661   ZY=     1.3103
   XZ=    10.9194   YZ=    12.4125   ZZ=   112.5175
   Eigenvalues:    99.5101   111.1896   134.3966
      9  H    Isotropic =    29.6498   Anisotropy =    12.2362
   XX=    29.2893   YX=    -2.3893   ZX=    -4.7463
   XY=    -2.7422   YY=    25.5411   ZY=     1.7954
   XZ=    -4.9728   YZ=     1.7654   ZZ=    34.1192
   Eigenvalues:    24.1733    26.9689    37.8073
     10  H    Isotropic =    29.9109   Anisotropy =     9.6949
   XX=    33.0541   YX=     3.6476   ZX=    -1.6051
   XY=     4.3262   YY=    30.9096   ZY=    -0.1867
   XZ=    -2.0958   YZ=    -0.4609   ZZ=    25.7691
   Eigenvalues:    25.2268    28.1318    36.3742
     11  H    Isotropic =    27.6856   Anisotropy =     7.7655
   XX=    26.1975   YX=    -0.0753   ZX=     0.4177
   XY=    -0.6273   YY=    24.6510   ZY=    -2.7842
   XZ=    -0.0839   YZ=    -1.8139   ZZ=    32.2084
   Eigenvalues:    23.9679    26.2264    32.8626
     12  H    Isotropic =    28.7003   Anisotropy =    11.8631
   XX=    26.8686   YX=    -2.5383   ZX=     0.0595
   XY=    -1.5746   YY=    34.6925   ZY=     4.4524
   XZ=     1.3405   YZ=     4.2849   ZZ=    24.5397
   Eigenvalues:    22.4700    27.0218    36.6090
     13  H    Isotropic =    28.8233   Anisotropy =     8.7994
   XX=    28.4288   YX=     0.1593   ZX=    -0.5891
   XY=     0.1367   YY=    30.9412   ZY=    -5.4873
   XZ=    -1.3474   YZ=    -5.0238   ZZ=    27.0998
   Eigenvalues:    23.3258    28.4545    34.6895
     14  H    Isotropic =    30.0526   Anisotropy =    12.8445
   XX=    33.9154   YX=    -5.5577   ZX=     0.8020
   XY=    -6.0220   YY=    30.7574   ZY=    -1.5414
   XZ=     1.4511   YZ=    -1.7950   ZZ=    25.4851
   Eigenvalues:    24.9222    26.6201    38.6156
     15  H    Isotropic =    29.8027   Anisotropy =     8.0063
   XX=    27.8345   YX=     0.0192   ZX=     2.4100
   XY=     0.2816   YY=    27.9062   ZY=     1.4844
   XZ=     3.6550   YZ=     0.8785   ZZ=    33.6676
   Eigenvalues:    26.4620    27.8060    35.1403
     16  H    Isotropic =    28.7338   Anisotropy =     5.1879
   XX=    28.3226   YX=    -0.0565   ZX=    -0.8888
   XY=     0.5131   YY=    25.8346   ZY=     0.7532
   XZ=    -0.6013   YZ=    -0.3172   ZZ=    32.0441
   Eigenvalues:    25.8004    28.2085    32.1924
     17  H    Isotropic =    27.1879   Anisotropy =     5.7031
   XX=    27.0500   YX=    -1.5149   ZX=     0.9069
   XY=    -2.7284   YY=    26.8421   ZY=     2.7262
   XZ=     0.1837   YZ=     4.1049   ZZ=    27.6717
   Eigenvalues:    22.8767    27.6971    30.9900
     18  H    Isotropic =    27.6716   Anisotropy =     6.7578
   XX=    25.2684   YX=    -0.5127   ZX=     2.0369
   XY=     0.8204   YY=    30.9716   ZY=    -1.9999
   XZ=     2.4669   YZ=    -2.8373   ZZ=    26.7748
   Eigenvalues:    23.3079    27.5301    32.1768
     19  O    Isotropic =   299.4961   Anisotropy =    48.3825
   XX=   328.2518   YX=    12.2465   ZX=    -4.3527
   XY=    -5.0583   YY=   274.1380   ZY=   -10.1754
   XZ=   -17.2595   YZ=    10.1849   ZZ=   296.0985
   Eigenvalues:   273.8747   292.8625   331.7511
     20  H    Isotropic =    29.9553   Anisotropy =    18.0931
   XX=    40.3304   YX=     5.2971   ZX=    -2.2310
   XY=     5.3315   YY=    24.9293   ZY=     3.7763
   XZ=    -1.1586   YZ=     2.2316   ZZ=    24.6062
   Eigenvalues:    20.4927    27.3558    42.0174
     21  O    Isotropic =   301.3910   Anisotropy =    55.1894
   XX=   314.9048   YX=    19.7438   ZX=    13.4341
   XY=    29.0670   YY=   312.3075   ZY=    -5.3758
   XZ=     3.6775   YZ=   -20.7740   ZZ=   276.9607
   Eigenvalues:   266.4474   299.5417   338.1839
     22  H    Isotropic =    26.4658   Anisotropy =    24.7612
   XX=    27.0731   YX=    10.8143   ZX=     5.3323
   XY=    10.2604   YY=    35.9202   ZY=    -2.3033
   XZ=     5.5994   YZ=    -2.3169   ZZ=    16.4041
   Eigenvalues:    12.0988    24.3253    42.9733
     23  C    Isotropic =   131.8192   Anisotropy =    54.5812
   XX=   127.0127   YX=     8.8500   ZX=    19.6716
   XY=     8.8301   YY=   112.8586   ZY=     1.9657
   XZ=    25.5499   YZ=    -4.9737   ZZ=   155.5862
   Eigenvalues:   105.1192   122.1317   168.2066
     24  H    Isotropic =    27.5965   Anisotropy =     7.9991
   XX=    26.7665   YX=     1.7270   ZX=     1.0974
   XY=     1.7561   YY=    28.1372   ZY=    -3.7847
   XZ=     0.9397   YZ=    -5.9479   ZZ=    27.8856
   Eigenvalues:    22.2928    27.5674    32.9292
     25  H    Isotropic =    27.5585   Anisotropy =     6.9688
   XX=    28.4865   YX=     1.0237   ZX=    -2.0142
   XY=    -0.1949   YY=    24.4517   ZY=     0.6387
   XZ=    -4.0132   YZ=     0.8960   ZZ=    29.7373
   Eigenvalues:    24.1019    26.3692    32.2044
     26  O    Isotropic =   316.3517   Anisotropy =    30.2728
   XX=   322.8612   YX=    -5.5183   ZX=   -20.9476
   XY=    -8.0595   YY=   319.2747   ZY=   -16.8095
   XZ=   -19.2790   YZ=    -1.9629   ZZ=   306.9192
   Eigenvalues:   288.8482   323.6733   336.5336
     27  H    Isotropic =    28.3203   Anisotropy =    14.9050
   XX=    33.8774   YX=    -2.0928   ZX=    -3.5346
   XY=    -1.3617   YY=    21.3799   ZY=     6.4819
   XZ=    -5.3881   YZ=     6.1143   ZZ=    29.7036
   Eigenvalues:    17.9685    28.7354    38.2570
 End of Minotr Frequency-dependent properties file   721 does not exist.
 End of Minotr Frequency-dependent properties file   722 does not exist.

 **********************************************************************

            Population analysis using the SCF density.

 **********************************************************************

 Orbital symmetries:
       Occupied  (A) (A) (A) (A) (A) (A) (A) (A) (A) (A) (A) (A)
                 (A) (A) (A) (A) (A) (A) (A) (A) (A) (A) (A) (A)
                 (A) (A) (A) (A) (A) (A) (A) (A) (A) (A) (A) (A)
                 (A) (A) (A) (A) (A) (A) (A) (A) (A) (A) (A)
       Virtual   (A) (A) (A) (A) (A) (A) (A) (A) (A) (A) (A) (A)
                 (A) (A) (A) (A) (A) (A) (A) (A) (A) (A) (A) (A)
                 (A) (A) (A) (A) (A) (A) (A) (A) (A) (A) (A) (A)
                 (A) (A) (A) (A) (A) (A) (A) (A) (A) (A) (A) (A)
                 (A) (A) (A) (A) (A) (A) (A) (A) (A) (A) (A) (A)
                 (A) (A) (A) (A) (A) (A) (A) (A) (A) (A) (A) (A)
                 (A) (A) (A) (A) (A) (A) (A) (A) (A) (A) (A) (A)
                 (A) (A) (A) (A) (A) (A) (A) (A) (A) (A) (A) (A)
                 (A) (A) (A) (A) (A) (A) (A) (A) (A) (A) (A) (A)
                 (A) (A) (A) (A) (A) (A) (A) (A) (A) (A) (A) (A)
                 (A) (A) (A) (A) (A) (A) (A) (A) (A) (A) (A) (A)
                 (A) (A) (A) (A) (A) (A) (A) (A) (A) (A) (A) (A)
                 (A) (A) (A) (A) (A) (A) (A) (A) (A) (A) (A) (A)
                 (A) (A) (A) (A) (A) (A) (A) (A) (A) (A) (A) (A)
                 (A) (A) (A) (A) (A) (A) (A) (A) (A) (A) (A) (A)
                 (A) (A) (A) (A) (A) (A) (A) (A) (A) (A) (A) (A)
                 (A) (A) (A) (A) (A) (A) (A) (A) (A) (A) (A) (A)
                 (A) (A) (A) (A) (A) (A) (A) (A) (A) (A) (A) (A)
                 (A) (A) (A) (A) (A) (A) (A) (A) (A) (A) (A) (A)
                 (A) (A) (A) (A) (A) (A) (A) (A) (A) (A) (A) (A)
                 (A) (A) (A) (A) (A) (A) (A) (A) (A) (A) (A) (A)
                 (A) (A) (A) (A)
 The electronic state is 1-A.
 Alpha  occ. eigenvalues --  -19.26639 -19.25834 -19.24471 -14.41687 -10.30353
 Alpha  occ. eigenvalues --  -10.30224 -10.30151 -10.28460 -10.27779 -10.26998
 Alpha  occ. eigenvalues --  -10.25027 -10.24387  -1.07514  -1.06375  -1.04430
 Alpha  occ. eigenvalues --   -0.96170  -0.82662  -0.79085  -0.75682  -0.72214
 Alpha  occ. eigenvalues --   -0.66976  -0.61488  -0.59890  -0.58154  -0.56314
 Alpha  occ. eigenvalues --   -0.53069  -0.51737  -0.50068  -0.48304  -0.47778
 Alpha  occ. eigenvalues --   -0.46596  -0.45043  -0.43996  -0.42403  -0.40638
 Alpha  occ. eigenvalues --   -0.39647  -0.38913  -0.37081  -0.36757  -0.35720
 Alpha  occ. eigenvalues --   -0.35577  -0.34414  -0.33753  -0.30590  -0.29805
 Alpha  occ. eigenvalues --   -0.28846  -0.23743
 Alpha virt. eigenvalues --    0.00459   0.01463   0.01850   0.02612   0.04034
 Alpha virt. eigenvalues --    0.04117   0.04501   0.05260   0.05554   0.07059
 Alpha virt. eigenvalues --    0.07422   0.08220   0.08265   0.08642   0.09760
 Alpha virt. eigenvalues --    0.10499   0.11221   0.11554   0.12235   0.12919
 Alpha virt. eigenvalues --    0.13112   0.13484   0.14743   0.15129   0.15624
 Alpha virt. eigenvalues --    0.16008   0.16384   0.16804   0.17966   0.18927
 Alpha virt. eigenvalues --    0.19227   0.19854   0.20014   0.20142   0.20772
 Alpha virt. eigenvalues --    0.21171   0.21580   0.22019   0.22483   0.22860
 Alpha virt. eigenvalues --    0.23668   0.24084   0.24286   0.25084   0.25479
 Alpha virt. eigenvalues --    0.26328   0.26731   0.27618   0.28262   0.29008
 Alpha virt. eigenvalues --    0.29310   0.30491   0.30929   0.31510   0.31582
 Alpha virt. eigenvalues --    0.32371   0.33376   0.33525   0.34209   0.34716
 Alpha virt. eigenvalues --    0.35126   0.35489   0.36304   0.37080   0.38497
 Alpha virt. eigenvalues --    0.39155   0.40523   0.41690   0.41957   0.42558
 Alpha virt. eigenvalues --    0.43271   0.44482   0.45078   0.46147   0.47841
 Alpha virt. eigenvalues --    0.51405   0.65182   0.65962   0.67642   0.67792
 Alpha virt. eigenvalues --    0.69392   0.71254   0.72940   0.74154   0.75188
 Alpha virt. eigenvalues --    0.75409   0.76478   0.78930   0.80807   0.81439
 Alpha virt. eigenvalues --    0.82741   0.84032   0.85365   0.86311   0.87646
 Alpha virt. eigenvalues --    0.88060   0.91326   0.92122   0.94760   0.96689
 Alpha virt. eigenvalues --    0.98669   1.00736   1.03101   1.03967   1.04696
 Alpha virt. eigenvalues --    1.06308   1.07642   1.08436   1.09724   1.10545
 Alpha virt. eigenvalues --    1.11821   1.13768   1.14363   1.15215   1.15850
 Alpha virt. eigenvalues --    1.17278   1.18809   1.19265   1.21931   1.25867
 Alpha virt. eigenvalues --    1.26589   1.28897   1.30461   1.31253   1.33132
 Alpha virt. eigenvalues --    1.35780   1.36017   1.38920   1.39762   1.42646
 Alpha virt. eigenvalues --    1.43814   1.45550   1.46964   1.49109   1.50548
 Alpha virt. eigenvalues --    1.53637   1.54721   1.55515   1.61499   1.61845
 Alpha virt. eigenvalues --    1.63234   1.65211   1.67356   1.68379   1.71984
 Alpha virt. eigenvalues --    1.73062   1.75487   1.77364   1.78805   1.80515
 Alpha virt. eigenvalues --    1.81596   1.83274   1.84099   1.84624   1.86972
 Alpha virt. eigenvalues --    1.87683   1.89431   1.91705   1.94888   1.97265
 Alpha virt. eigenvalues --    1.97577   2.00806   2.02597   2.03289   2.03932
 Alpha virt. eigenvalues --    2.06138   2.06758   2.08176   2.09364   2.11416
 Alpha virt. eigenvalues --    2.13961   2.15144   2.16259   2.17719   2.19628
 Alpha virt. eigenvalues --    2.21194   2.21757   2.23737   2.26483   2.30306
 Alpha virt. eigenvalues --    2.31082   2.33043   2.34824   2.36484   2.40386
 Alpha virt. eigenvalues --    2.41681   2.43430   2.44633   2.46903   2.48354
 Alpha virt. eigenvalues --    2.48776   2.51542   2.53392   2.54543   2.55367
 Alpha virt. eigenvalues --    2.56218   2.59013   2.59607   2.60865   2.62660
 Alpha virt. eigenvalues --    2.64204   2.66853   2.67618   2.69285   2.70354
 Alpha virt. eigenvalues --    2.70604   2.73442   2.75152   2.77357   2.79854
 Alpha virt. eigenvalues --    2.80246   2.80812   2.82600   2.83927   2.85777
 Alpha virt. eigenvalues --    2.86122   2.89100   2.89841   2.93234   2.95652
 Alpha virt. eigenvalues --    2.97390   2.98837   3.00676   3.02056   3.04831
 Alpha virt. eigenvalues --    3.05265   3.06955   3.14116   3.17577   3.32861
 Alpha virt. eigenvalues --    3.34396   3.37035   3.38877   3.44935   3.45911
 Alpha virt. eigenvalues --    3.48232   3.49036   3.51168   3.54353   3.55726
 Alpha virt. eigenvalues --    3.57741   3.59664   3.62527   3.65521   4.34990
 Alpha virt. eigenvalues --    4.35146   4.40085   4.43433   4.52343   4.58612
 Alpha virt. eigenvalues --    4.63843   4.70012   4.79934   4.81944   4.90593
 Alpha virt. eigenvalues --    5.01819
          Condensed to atoms (all electrons):
              1          2          3          4          5          6
     1  C    5.957453  -0.407474   0.038911  -0.060434   0.192094   0.146366
     2  C   -0.407474   7.509057  -0.146770  -0.164574  -0.118262  -0.554012
     3  N    0.038911  -0.146770   7.591287   0.143910  -0.088411  -0.076654
     4  C   -0.060434  -0.164574   0.143910   5.768789   0.152232  -0.170765
     5  C    0.192094  -0.118262  -0.088411   0.152232   5.387381   0.028813
     6  C    0.146366  -0.554012  -0.076654  -0.170765   0.028813   8.367702
     7  C   -0.078354   0.425523  -0.170325  -0.083648  -0.060030  -1.303404
     8  C   -0.140015  -0.577917  -0.127597  -0.029361   0.157650   0.476932
     9  H    0.447544  -0.106983   0.012230   0.002720  -0.047357   0.013369
    10  H    0.365161  -0.105835   0.016158   0.026415  -0.009262  -0.001639
    11  H   -0.005944   0.243572  -0.021429  -0.015643   0.023856   0.018635
    12  H    0.017919  -0.038586  -0.033091   0.380794  -0.035734   0.020045
    13  H    0.023563   0.029625  -0.065269   0.368673  -0.024044   0.021136
    14  H   -0.035829   0.028345   0.011436  -0.040513   0.365264   0.002779
    15  H   -0.044267  -0.007704   0.013009  -0.073636   0.438341   0.012394
    16  H   -0.002120   0.032430  -0.043330   0.057751  -0.008329   0.260908
    17  H    0.011844  -0.011536   0.035948   0.004039   0.000508   0.034129
    18  H    0.003445  -0.005190   0.017588  -0.000731  -0.004284  -0.031980
    19  O    0.047735  -0.179850   0.055723  -0.024187   0.007904  -0.011669
    20  H    0.002224  -0.059295  -0.003060  -0.002321   0.004934  -0.004288
    21  O    0.031731  -0.016295   0.073712   0.020122  -0.001350  -0.069562
    22  H   -0.002670  -0.005038  -0.000098  -0.003860   0.001266  -0.050964
    23  C   -0.052133   0.223244  -0.049135  -0.057708  -0.046542  -0.883428
    24  H    0.003162  -0.005391  -0.009012   0.014174  -0.004479  -0.111266
    25  H    0.000358   0.008691   0.013574   0.001852   0.000015  -0.124209
    26  O    0.010921  -0.041834   0.050665   0.020315  -0.004278  -0.295447
    27  H   -0.001968   0.016425   0.037745   0.005059  -0.001179  -0.034136
              7          8          9         10         11         12
     1  C   -0.078354  -0.140015   0.447544   0.365161  -0.005944   0.017919
     2  C    0.425523  -0.577917  -0.106983  -0.105835   0.243572  -0.038586
     3  N   -0.170325  -0.127597   0.012230   0.016158  -0.021429  -0.033091
     4  C   -0.083648  -0.029361   0.002720   0.026415  -0.015643   0.380794
     5  C   -0.060030   0.157650  -0.047357  -0.009262   0.023856  -0.035734
     6  C   -1.303404   0.476932   0.013369  -0.001639   0.018635   0.020045
     7  C    7.868915  -1.169820  -0.012367  -0.015423  -0.003769  -0.000131
     8  C   -1.169820   7.076664   0.024335   0.056394   0.034550   0.001652
     9  H   -0.012367   0.024335   0.512066  -0.023355  -0.006720   0.001387
    10  H   -0.015423   0.056394  -0.023355   0.535790   0.002529  -0.000045
    11  H   -0.003769   0.034550  -0.006720   0.002529   0.556201   0.000673
    12  H   -0.000131   0.001652   0.001387  -0.000045   0.000673   0.548653
    13  H    0.021816  -0.022130  -0.000112  -0.000143  -0.000177  -0.030918
    14  H    0.005081   0.000724  -0.004971   0.000609  -0.000062  -0.003431
    15  H   -0.000202  -0.004988   0.004007  -0.005331  -0.000107   0.003950
    16  H   -0.031756  -0.006836  -0.000005  -0.000016  -0.000498  -0.000314
    17  H    0.254157   0.034057   0.000003  -0.000007  -0.000135   0.000004
    18  H    0.087233   0.253244  -0.000023   0.000256  -0.002015   0.000006
    19  O    0.008940   0.108954   0.000312  -0.006793   0.009087   0.000291
    20  H   -0.007508   0.084709  -0.000056   0.005737   0.000202  -0.000001
    21  O    0.166555  -0.090184   0.000100   0.000032  -0.001299   0.000054
    22  H    0.075905   0.002374  -0.000001   0.000000  -0.000013   0.000005
    23  C    0.221250  -0.211316   0.000146  -0.001170  -0.001992  -0.000097
    24  H    0.049739  -0.021358   0.000000   0.000000   0.000007  -0.000116
    25  H   -0.020522  -0.001419   0.000000   0.000000  -0.000005   0.000002
    26  O    0.147975  -0.039788   0.000020   0.000008   0.001134   0.001288
    27  H   -0.038973   0.001450  -0.000001  -0.000001  -0.000540  -0.000266
             13         14         15         16         17         18
     1  C    0.023563  -0.035829  -0.044267  -0.002120   0.011844   0.003445
     2  C    0.029625   0.028345  -0.007704   0.032430  -0.011536  -0.005190
     3  N   -0.065269   0.011436   0.013009  -0.043330   0.035948   0.017588
     4  C    0.368673  -0.040513  -0.073636   0.057751   0.004039  -0.000731
     5  C   -0.024044   0.365264   0.438341  -0.008329   0.000508  -0.004284
     6  C    0.021136   0.002779   0.012394   0.260908   0.034129  -0.031980
     7  C    0.021816   0.005081  -0.000202  -0.031756   0.254157   0.087233
     8  C   -0.022130   0.000724  -0.004988  -0.006836   0.034057   0.253244
     9  H   -0.000112  -0.004971   0.004007  -0.000005   0.000003  -0.000023
    10  H   -0.000143   0.000609  -0.005331  -0.000016  -0.000007   0.000256
    11  H   -0.000177  -0.000062  -0.000107  -0.000498  -0.000135  -0.002015
    12  H   -0.030918  -0.003431   0.003950  -0.000314   0.000004   0.000006
    13  H    0.533068   0.001076  -0.005823   0.002045  -0.000022   0.000005
    14  H    0.001076   0.521459  -0.023998  -0.000134  -0.000001   0.000005
    15  H   -0.005823  -0.023998   0.511120   0.000247   0.000024   0.000030
    16  H    0.002045  -0.000134   0.000247   0.558865  -0.003508  -0.000132
    17  H   -0.000022  -0.000001   0.000024  -0.003508   0.563081  -0.002797
    18  H    0.000005   0.000005   0.000030  -0.000132  -0.002797   0.558082
    19  O    0.000715   0.000171   0.001421   0.002311   0.000844  -0.036872
    20  H   -0.000010   0.000020  -0.000412  -0.000101   0.000013  -0.005487
    21  O   -0.000114  -0.000012   0.000024   0.009720  -0.043853  -0.008203
    22  H    0.000003   0.000000   0.000000  -0.000062   0.000583   0.000357
    23  C   -0.017936   0.000098   0.000527  -0.018652  -0.046957   0.009312
    24  H    0.001370   0.000001  -0.000001  -0.002996  -0.000134   0.000003
    25  H   -0.000025   0.000000   0.000000   0.000870   0.001527  -0.000003
    26  O   -0.000550   0.000004   0.000042   0.010707   0.001052   0.000109
    27  H    0.000121  -0.000001   0.000000   0.000426  -0.000069  -0.000010
             19         20         21         22         23         24
     1  C    0.047735   0.002224   0.031731  -0.002670  -0.052133   0.003162
     2  C   -0.179850  -0.059295  -0.016295  -0.005038   0.223244  -0.005391
     3  N    0.055723  -0.003060   0.073712  -0.000098  -0.049135  -0.009012
     4  C   -0.024187  -0.002321   0.020122  -0.003860  -0.057708   0.014174
     5  C    0.007904   0.004934  -0.001350   0.001266  -0.046542  -0.004479
     6  C   -0.011669  -0.004288  -0.069562  -0.050964  -0.883428  -0.111266
     7  C    0.008940  -0.007508   0.166555   0.075905   0.221250   0.049739
     8  C    0.108954   0.084709  -0.090184   0.002374  -0.211316  -0.021358
     9  H    0.000312  -0.000056   0.000100  -0.000001   0.000146   0.000000
    10  H   -0.006793   0.005737   0.000032   0.000000  -0.001170   0.000000
    11  H    0.009087   0.000202  -0.001299  -0.000013  -0.001992   0.000007
    12  H    0.000291  -0.000001   0.000054   0.000005  -0.000097  -0.000116
    13  H    0.000715  -0.000010  -0.000114   0.000003  -0.017936   0.001370
    14  H    0.000171   0.000020  -0.000012   0.000000   0.000098   0.000001
    15  H    0.001421  -0.000412   0.000024   0.000000   0.000527  -0.000001
    16  H    0.002311  -0.000101   0.009720  -0.000062  -0.018652  -0.002996
    17  H    0.000844   0.000013  -0.043853   0.000583  -0.046957  -0.000134
    18  H   -0.036872  -0.005487  -0.008203   0.000357   0.009312   0.000003
    19  O    8.316298   0.232962   0.008218  -0.000256   0.015704   0.000119
    20  H    0.232962   0.378289  -0.000294   0.000010  -0.004404  -0.000001
    21  O    0.008218  -0.000294   8.307507   0.223785  -0.026439  -0.002374
    22  H   -0.000256   0.000010   0.223785   0.330781  -0.030817   0.000770
    23  C    0.015704  -0.004404  -0.026439  -0.030817   6.185543   0.447157
    24  H    0.000119  -0.000001  -0.002374   0.000770   0.447157   0.559864
    25  H   -0.000095   0.000000   0.003763  -0.002131   0.496936  -0.033137
    26  O    0.000729  -0.000013  -0.024978   0.059400   0.222765  -0.046890
    27  H   -0.000054   0.000000  -0.000284  -0.007226   0.025390  -0.004618
             25         26         27
     1  C    0.000358   0.010921  -0.001968
     2  C    0.008691  -0.041834   0.016425
     3  N    0.013574   0.050665   0.037745
     4  C    0.001852   0.020315   0.005059
     5  C    0.000015  -0.004278  -0.001179
     6  C   -0.124209  -0.295447  -0.034136
     7  C   -0.020522   0.147975  -0.038973
     8  C   -0.001419  -0.039788   0.001450
     9  H    0.000000   0.000020  -0.000001
    10  H    0.000000   0.000008  -0.000001
    11  H   -0.000005   0.001134  -0.000540
    12  H    0.000002   0.001288  -0.000266
    13  H   -0.000025  -0.000550   0.000121
    14  H    0.000000   0.000004  -0.000001
    15  H    0.000000   0.000042   0.000000
    16  H    0.000870   0.010707   0.000426
    17  H    0.001527   0.001052  -0.000069
    18  H   -0.000003   0.000109  -0.000010
    19  O   -0.000095   0.000729  -0.000054
    20  H    0.000000  -0.000013   0.000000
    21  O    0.003763  -0.024978  -0.000284
    22  H   -0.002131   0.059400  -0.007226
    23  C    0.496936   0.222765   0.025390
    24  H   -0.033137  -0.046890  -0.004618
    25  H    0.521837  -0.051918   0.005863
    26  O   -0.051918   8.314401   0.252857
    27  H    0.005863   0.252857   0.336351
 Mulliken atomic charges:
              1
     1  C   -0.469225
     2  C    0.035634
     3  N   -0.277713
     4  C   -0.239462
     5  C   -0.306715
     6  C    0.320216
     7  C   -0.336858
     8  C    0.129041
     9  H    0.183712
    10  H    0.159933
    11  H    0.169906
    12  H    0.166009
    13  H    0.164056
    14  H    0.171879
    15  H    0.181334
    16  H    0.182507
    17  H    0.167205
    18  H    0.168050
    19  O   -0.558662
    20  H    0.378153
    21  O   -0.560080
    22  H    0.407898
    23  C   -0.399346
    24  H    0.165406
    25  H    0.178176
    26  O   -0.588693
    27  H    0.407640
 Sum of Mulliken atomic charges =   0.00000
 Mulliken charges with hydrogens summed into heavy atoms:
              1
     1  C   -0.125580
     2  C    0.205539
     3  N   -0.277713
     4  C    0.090603
     5  C    0.046498
     6  C    0.502723
     7  C   -0.169652
     8  C    0.297091
    19  O   -0.180509
    21  O   -0.152182
    23  C   -0.055765
    26  O   -0.181053
 Sum of Mulliken charges with hydrogens summed into heavy atoms =   0.00000
 Electronic spatial extent (au):  <R**2>=           1918.3274
 Charge=              0.0000 electrons
 Dipole moment (field-independent basis, Debye):
    X=              4.3551    Y=             -2.2773    Z=              0.9144  Tot=              4.9989
 Quadrupole moment (field-independent basis, Debye-Ang):
   XX=            -74.5536   YY=            -74.9271   ZZ=            -73.4175
   XY=              3.8611   XZ=             -6.9550   YZ=             -1.3709
 Traceless Quadrupole moment (field-independent basis, Debye-Ang):
   XX=             -0.2542   YY=             -0.6277   ZZ=              0.8819
   XY=              3.8611   XZ=             -6.9550   YZ=             -1.3709
 Octapole moment (field-independent basis, Debye-Ang**2):
  XXX=             40.4726  YYY=             -7.6790  ZZZ=             -4.8973  XYY=             16.2973
  XXY=             11.6214  XXZ=             11.5366  XZZ=             -8.6590  YZZ=             -8.1810
  YYZ=              0.4297  XYZ=             -4.4616
 Hexadecapole moment (field-independent basis, Debye-Ang**3):
 XXXX=          -1417.0594 YYYY=           -789.0032 ZZZZ=           -324.7527 XXXY=             11.1988
 XXXZ=            -15.7154 YYYX=             38.6529 YYYZ=              0.8596 ZZZX=              5.8438
 ZZZY=              3.0833 XXYY=           -359.4878 XXZZ=           -270.1962 YYZZ=           -193.7986
 XXYZ=              9.2239 YYXZ=            -13.5129 ZZXY=              6.5085
 N-N= 8.211079124444D+02 E-N=-3.027985051157D+03  KE= 5.886600905744D+02
 1\1\GINC-COMPUTE-3-2\SP\RmPW1PW91\6-31+G(d,p)\C8H15N1O3\MAMICHETTI.IQU
 IR\17-May-2024\0\\# mpw1pw91/6-31+G** nmr scrf=(pcm,solvent=water)\\co
 mment\\0,1\C,0,2.374742,-0.176988,-0.81747\C,0,0.908648,0.290286,-0.91
 4681\N,0,0.076015,-0.824146,-0.338473\C,0,1.00033,-1.874456,0.153695\C
 ,0,2.365307,-1.196906,0.332119\C,0,-0.803921,-0.241706,0.704799\C,0,-0
 .900464,1.24966,0.340068\C,0,0.527175,1.561527,-0.120415\H,0,2.664018,
 -0.668974,-1.753116\H,0,3.073963,0.651352,-0.660197\H,0,0.625321,0.458
 018,-1.959589\H,0,1.074612,-2.677378,-0.591518\H,0,0.610319,-2.321569,
 1.07367\H,0,3.197264,-1.907177,0.285052\H,0,2.411021,-0.680334,1.29656
 9\H,0,-0.344697,-0.30271,1.703781\H,0,-1.180377,1.852208,1.213841\H,0,
 0.557086,2.45603,-0.754861\O,0,1.305479,1.771394,1.063244\H,0,2.218789
 ,1.953058,0.78714\O,0,-1.79255,1.524744,-0.745694\H,0,-2.389688,0.7510
 72,-0.829392\C,0,-2.140953,-0.979923,0.770696\H,0,-1.987802,-2.001697,
 1.143033\H,0,-2.831121,-0.470486,1.449657\O,0,-2.780309,-1.019725,-0.5
 17829\H,0,-2.076959,-1.322667,-1.125391\\Version=AM64L-G09RevC.01\Stat
 e=1-A\HF=-594.2013183\RMSD=8.180e-09\Dipole=1.7134312,-0.8959421,0.359
 7654\Quadrupole=-0.1890073,-0.4666698,0.655677,2.8706645,-5.1708519,-1
 .0192359\PG=C01 [X(C8H15N1O3)]\\@


 DEPRESSION IS WAITING FOR YOUR SHIP TO COME IN,
 AND FINDING OUT IT'S THE TITANIC.
 Job cpu time:  0 days  0 hours  8 minutes 42.2 seconds.
 File lengths (MBytes):  RWF=    111 Int=      0 D2E=      0 Chk=      7 Scr=      1
 Normal termination of Gaussian 09 at Fri May 17 12:41:06 2024.
