 Entering Gaussian System, Link 0=g09
 Input=/home/mamichetti.iquir/Linux/03_Cardona_A1A3_R__S_S_R_007_OptB.gjc
 Output=/home/mamichetti.iquir/Linux/03_Cardona_A1A3_R__S_S_R_007_OptB.log
 Initial command:
 /opt/ohpc/pub/apps/software/Gaussian/09/AMD64.SSE4a-enabled/g09/l1.exe /local/mamichetti.iquir/Gau-121823.inp -scrdir=/local/mamichetti.iquir/
 Entering Link 1 = /opt/ohpc/pub/apps/software/Gaussian/09/AMD64.SSE4a-enabled/g09/l1.exe PID=    121834.
  
 Copyright (c) 1988,1990,1992,1993,1995,1998,2003,2009,2011,
            Gaussian, Inc.  All Rights Reserved.
  
 This is part of the Gaussian(R) 09 program.  It is based on
 the Gaussian(R) 03 system (copyright 2003, Gaussian, Inc.),
 the Gaussian(R) 98 system (copyright 1998, Gaussian, Inc.),
 the Gaussian(R) 94 system (copyright 1995, Gaussian, Inc.),
 the Gaussian 92(TM) system (copyright 1992, Gaussian, Inc.),
 the Gaussian 90(TM) system (copyright 1990, Gaussian, Inc.),
 the Gaussian 88(TM) system (copyright 1988, Gaussian, Inc.),
 the Gaussian 86(TM) system (copyright 1986, Carnegie Mellon
 University), and the Gaussian 82(TM) system (copyright 1983,
 Carnegie Mellon University). Gaussian is a federally registered
 trademark of Gaussian, Inc.
  
 This software contains proprietary and confidential information,
 including trade secrets, belonging to Gaussian, Inc.
  
 This software is provided under written license and may be
 used, copied, transmitted, or stored only in accord with that
 written license.
  
 The following legend is applicable only to US Government
 contracts under FAR:
  
                    RESTRICTED RIGHTS LEGEND
  
 Use, reproduction and disclosure by the US Government is
 subject to restrictions as set forth in subparagraphs (a)
 and (c) of the Commercial Computer Software - Restricted
 Rights clause in FAR 52.227-19.
  
 Gaussian, Inc.
 340 Quinnipiac St., Bldg. 40, Wallingford CT 06492
  
  
 ---------------------------------------------------------------
 Warning -- This program may not be used in any manner that
 competes with the business of Gaussian, Inc. or will provide
 assistance to any competitor of Gaussian, Inc.  The licensee
 of this program is prohibited from giving any competitor of
 Gaussian, Inc. access to this program.  By using this program,
 the user acknowledges that Gaussian, Inc. is engaged in the
 business of creating and licensing software in the field of
 computational chemistry and represents and warrants to the
 licensee that it is not a competitor of Gaussian, Inc. and that
 it will not use this program in any manner prohibited above.
 ---------------------------------------------------------------
  

 Cite this work as:
 Gaussian 09, Revision C.01,
 M. J. Frisch, G. W. Trucks, H. B. Schlegel, G. E. Scuseria, 
 M. A. Robb, J. R. Cheeseman, G. Scalmani, V. Barone, B. Mennucci, 
 G. A. Petersson, H. Nakatsuji, M. Caricato, X. Li, H. P. Hratchian, 
 A. F. Izmaylov, J. Bloino, G. Zheng, J. L. Sonnenberg, M. Hada, 
 M. Ehara, K. Toyota, R. Fukuda, J. Hasegawa, M. Ishida, T. Nakajima, 
 Y. Honda, O. Kitao, H. Nakai, T. Vreven, J. A. Montgomery, Jr., 
 J. E. Peralta, F. Ogliaro, M. Bearpark, J. J. Heyd, E. Brothers, 
 K. N. Kudin, V. N. Staroverov, T. Keith, R. Kobayashi, J. Normand, 
 K. Raghavachari, A. Rendell, J. C. Burant, S. S. Iyengar, J. Tomasi, 
 M. Cossi, N. Rega, J. M. Millam, M. Klene, J. E. Knox, J. B. Cross, 
 V. Bakken, C. Adamo, J. Jaramillo, R. Gomperts, R. E. Stratmann, 
 O. Yazyev, A. J. Austin, R. Cammi, C. Pomelli, J. W. Ochterski, 
 R. L. Martin, K. Morokuma, V. G. Zakrzewski, G. A. Voth, 
 P. Salvador, J. J. Dannenberg, S. Dapprich, A. D. Daniels, 
 O. Farkas, J. B. Foresman, J. V. Ortiz, J. Cioslowski, 
 and D. J. Fox, Gaussian, Inc., Wallingford CT, 2010.
 
 ******************************************
 Gaussian 09:  AM64L-G09RevC.01 23-Sep-2011
                17-May-2024 
 ******************************************
 %nprocshared=4
 Will use up to    4 processors via shared memory.
 ------------------------------------------------
 # mpw1pw91/6-31+G** nmr scrf=(pcm,solvent=water)
 ------------------------------------------------
 1/38=1/1;
 2/12=2,17=6,18=5,40=1/2;
 3/5=1,6=6,7=111,11=2,16=1,25=1,30=1,70=2201,72=1,74=-7/1,2,8,3;
 4//1;
 5/5=2,38=5,53=1/2;
 8/6=1,10=90,11=11/1;
 10/13=100,45=16/2;
 6/7=2,8=2,9=2,10=2,28=1/1;
 99/9=1/99;
 -------
 comment
 -------
 Charge =  0 Multiplicity = 1
 Symbolic Z-Matrix:
 6                    -2.4774    0.25522  -0.46393 
 6                    -1.09177  -0.36913  -0.71647 
 7                    -0.08167   0.6832   -0.35183 
 6                    -0.79951   1.75395   0.36178 
 6                    -2.17975   1.75767  -0.29481 
 6                     1.02457   0.03819   0.39 
 6                     0.83852  -1.47998   0.16375 
 6                    -0.69623  -1.61814   0.08591 
 1                    -3.17444   0.04897  -1.2813 
 1                    -2.91183  -0.1453    0.45618 
 1                    -0.97796  -0.62219  -1.77919 
 1                    -0.27865   2.71325   0.26491 
 1                    -0.88871   1.53519   1.44063 
 1                    -2.12776   2.25168  -1.27238 
 1                    -2.93056   2.27791   0.30822 
 1                     0.90907   0.22394   1.4696 
 1                     1.24875  -2.05981   0.99527 
 1                    -0.98987  -2.55038  -0.41316 
 8                    -1.26202  -1.54433   1.39798 
 1                    -0.92921  -2.31062   1.89555 
 8                     1.49169  -1.99447  -1.002 
 1                     1.18188  -1.49916  -1.77869 
 6                     2.401     0.55541  -0.01696 
 1                     3.17752  -0.00531   0.51446 
 1                     2.55602   0.41646  -1.09417 
 8                     2.59525   1.93028   0.34078 
 1                     1.99146   2.45205  -0.2128 
 
                          Input orientation:                          
 ---------------------------------------------------------------------
 Center     Atomic      Atomic             Coordinates (Angstroms)
 Number     Number       Type             X           Y           Z
 ---------------------------------------------------------------------
      1          6           0       -2.477402    0.255219   -0.463934
      2          6           0       -1.091765   -0.369131   -0.716467
      3          7           0       -0.081669    0.683200   -0.351829
      4          6           0       -0.799511    1.753952    0.361784
      5          6           0       -2.179749    1.757667   -0.294809
      6          6           0        1.024570    0.038188    0.389998
      7          6           0        0.838524   -1.479981    0.163752
      8          6           0       -0.696227   -1.618143    0.085912
      9          1           0       -3.174444    0.048974   -1.281303
     10          1           0       -2.911825   -0.145303    0.456175
     11          1           0       -0.977958   -0.622191   -1.779192
     12          1           0       -0.278652    2.713250    0.264906
     13          1           0       -0.888713    1.535194    1.440630
     14          1           0       -2.127759    2.251675   -1.272375
     15          1           0       -2.930564    2.277914    0.308216
     16          1           0        0.909068    0.223936    1.469601
     17          1           0        1.248753   -2.059815    0.995265
     18          1           0       -0.989871   -2.550379   -0.413157
     19          8           0       -1.262015   -1.544325    1.397977
     20          1           0       -0.929214   -2.310620    1.895548
     21          8           0        1.491686   -1.994473   -1.002002
     22          1           0        1.181876   -1.499159   -1.778692
     23          6           0        2.400998    0.555409   -0.016956
     24          1           0        3.177520   -0.005314    0.514460
     25          1           0        2.556025    0.416461   -1.094166
     26          8           0        2.595247    1.930279    0.340776
     27          1           0        1.991463    2.452053   -0.212803
 ---------------------------------------------------------------------
                    Distance matrix (angstroms):
                    1          2          3          4          5
     1  C    0.000000
     2  C    1.540641   0.000000
     3  N    2.436241   1.503548   0.000000
     4  C    2.396524   2.399066   1.473449   0.000000
     5  C    1.540958   2.425855   2.357895   1.528458   0.000000
     6  C    3.611109   2.422612   1.479903   2.504379   3.700436
     7  C    3.794769   2.394742   2.406643   3.630523   4.450013
     8  C    2.642802   1.536325   2.421875   3.384937   3.707004
     9  H    1.093845   2.198045   3.291113   3.353653   2.209575
    10  H    1.093500   2.176650   3.057625   2.842173   2.172834
    11  H    2.179010   1.098351   2.131841   3.203385   3.051462
    12  H    3.377518   3.335464   2.130790   1.095870   2.200134
    13  H    2.790991   2.884571   2.142457   1.104410   2.174400
    14  H    2.182124   2.872445   2.737518   2.163896   1.096532
    15  H    2.211982   3.382012   3.330912   2.195175   1.094541
    16  H    3.899707   3.022243   2.123697   2.547047   3.873792
    17  H    4.623081   3.356555   3.332989   4.375100   5.290755
    18  H    3.175958   2.204591   3.359260   4.377675   4.470914
    19  O    2.860461   2.425065   3.068698   3.488013   3.822422
    20  H    3.814128   3.258592   3.838228   4.346263   4.786696
    21  O    4.593941   3.065532   3.173028   4.600020   5.296991
    22  H    4.265764   2.752222   2.897443   4.369241   4.910127
    23  C    4.908023   3.680147   2.508407   3.438489   4.744035
    24  H    5.744848   4.458064   3.441921   4.351448   5.697662
    25  H    5.075291   3.750491   2.753115   3.894649   4.986518
    26  O    5.402328   4.472036   3.033280   3.399399   4.820202
    27  H    4.985970   4.209400   2.728744   2.933774   4.229410
                    6          7          8          9         10
     6  C    0.000000
     7  C    1.546169   0.000000
     8  C    2.407705   1.542922   0.000000
     9  H    4.519412   4.530982   3.284831   0.000000
    10  H    3.941225   3.991490   2.686117   1.767920   0.000000
    11  H    3.025162   2.794717   2.133051   2.350087   2.994016
    12  H    2.978253   4.340680   4.355155   4.227853   3.891209
    13  H    2.646792   3.702033   3.437419   3.852575   2.808239
    14  H    4.195258   4.978609   4.343929   2.438754   3.057474
    15  H    4.546003   5.324347   4.496770   2.748494   2.427802
    16  H    1.101538   2.147918   2.807993   4.926779   3.970213
    17  H    2.195045   1.093576   2.192018   5.403187   4.611549
    18  H    3.376938   2.195815   1.097434   3.504664   3.199068
    19  O    2.957844   2.437153   1.430762   3.657120   2.359264
    20  H    3.406002   2.610359   1.951561   4.549849   3.269731
    21  O    2.507503   1.431889   2.472275   5.101613   4.993658
    22  H    2.662968   1.972650   2.649184   4.649907   4.856536
    23  C    1.525675   2.572313   3.785197   5.739390   5.379678
    24  H    2.156983   2.787210   4.217913   6.601148   6.091233
    25  H    2.165915   2.851080   4.013644   5.745289   5.711087
    26  O    2.459564   3.840220   4.846654   6.281702   5.886357
    27  H    2.669269   4.114845   4.886656   5.796816   5.588920
                   11         12         13         14         15
    11  H    0.000000
    12  H    3.973982   0.000000
    13  H    3.876794   1.772658   0.000000
    14  H    3.136560   2.448567   3.067405   0.000000
    15  H    4.071922   2.687756   2.450133   1.772978   0.000000
    16  H    3.851163   3.009760   2.225366   4.566451   4.506708
    17  H    3.837006   5.064439   4.206091   5.927223   6.062559
    18  H    2.363071   5.354567   4.487612   5.009268   5.253483
    19  O    3.320455   4.514177   3.102356   4.721219   4.310585
    20  H    4.044364   5.321794   3.872838   5.682146   5.251635
    21  O    2.930243   5.186695   4.908289   5.585988   6.286991
    22  H    2.331085   4.904470   4.884534   5.027802   5.961009
    23  C    3.988679   3.451992   3.729173   4.996302   5.612336
    24  H    4.786374   4.404315   4.445808   6.035956   6.524136
    25  H    3.746611   3.893290   4.420744   5.033647   5.961069
    26  O    4.876183   2.979613   3.674745   5.001234   5.536831
    27  H    4.552144   2.334492   3.445270   4.258032   4.952589
                   16         17         18         19         20
    16  H    0.000000
    17  H    2.357095   0.000000
    18  H    3.853255   2.689934   0.000000
    19  O    2.800978   2.594583   2.089596   0.000000
    20  H    3.159855   2.370011   2.321914   0.972390   0.000000
    21  O    3.371884   2.013048   2.610344   3.680408   3.788997
    22  H    3.687125   2.830838   2.772406   4.008225   4.314535
    23  C    2.132037   3.031774   4.615288   4.452930   4.791879
    24  H    2.471988   2.858722   4.970410   4.781070   4.907861
    25  H    3.053266   3.493798   4.673253   4.963153   5.340623
    26  O    2.651236   4.261719   5.787727   5.298020   5.729255
    27  H    2.994423   4.729482   5.826905   5.399145   5.971478
                   21         22         23         24         25
    21  O    0.000000
    22  H    0.971888   0.000000
    23  C    2.880809   2.968370   0.000000
    24  H    3.016363   3.387139   1.095354   0.000000
    25  H    2.637028   2.454885   1.097142   1.775339   0.000000
    26  O    4.292386   4.272096   1.433866   2.028726   2.086203
    27  H    4.543590   4.326606   1.950214   2.823879   2.288922
                   26         27
    26  O    0.000000
    27  H    0.971212   0.000000
 Stoichiometry    C8H15NO3
 Framework group  C1[X(C8H15NO3)]
 Deg. of freedom    75
 Full point group                 C1      NOp   1
 Largest Abelian subgroup         C1      NOp   1
 Largest concise Abelian subgroup C1      NOp   1
                         Standard orientation:                         
 ---------------------------------------------------------------------
 Center     Atomic      Atomic             Coordinates (Angstroms)
 Number     Number       Type             X           Y           Z
 ---------------------------------------------------------------------
      1          6           0       -2.477402    0.255218   -0.463934
      2          6           0       -1.091765   -0.369131   -0.716467
      3          7           0       -0.081669    0.683200   -0.351829
      4          6           0       -0.799511    1.753952    0.361784
      5          6           0       -2.179749    1.757666   -0.294809
      6          6           0        1.024570    0.038188    0.389998
      7          6           0        0.838525   -1.479981    0.163752
      8          6           0       -0.696226   -1.618143    0.085912
      9          1           0       -3.174444    0.048973   -1.281303
     10          1           0       -2.911825   -0.145304    0.456175
     11          1           0       -0.977958   -0.622191   -1.779192
     12          1           0       -0.278653    2.713250    0.264906
     13          1           0       -0.888713    1.535194    1.440630
     14          1           0       -2.127760    2.251674   -1.272375
     15          1           0       -2.930565    2.277913    0.308216
     16          1           0        0.909068    0.223936    1.469601
     17          1           0        1.248754   -2.059815    0.995265
     18          1           0       -0.989870   -2.550379   -0.413157
     19          8           0       -1.262014   -1.544325    1.397977
     20          1           0       -0.929213   -2.310620    1.895548
     21          8           0        1.491687   -1.994473   -1.002002
     22          1           0        1.181877   -1.499159   -1.778692
     23          6           0        2.400998    0.555410   -0.016956
     24          1           0        3.177520   -0.005313    0.514460
     25          1           0        2.556025    0.416462   -1.094166
     26          8           0        2.595246    1.930280    0.340776
     27          1           0        1.991462    2.452054   -0.212803
 ---------------------------------------------------------------------
 Rotational constants (GHZ):      1.1596430      0.8975507      0.6098642
 Standard basis: 6-31+G(d,p) (6D, 7F)
 There are   303 symmetry adapted basis functions of A   symmetry.
 Integral buffers will be    131072 words long.
 Raffenetti 2 integral format.
 Two-electron integral symmetry is turned on.
   303 basis functions,   489 primitive gaussians,   303 cartesian basis functions
    47 alpha electrons       47 beta electrons
       nuclear repulsion energy       808.1436359048 Hartrees.
 NAtoms=   27 NActive=   27 NUniq=   27 SFac= 1.00D+00 NAtFMM=   60 NAOKFM=F Big=F
 ------------------------------------------------------------------------------
 Polarizable Continuum Model (PCM)
 =================================
 Model                : PCM.
 Atomic radii         : UFF (Universal Force Field).
 Polarization charges : Total charges.
 Charge compensation  : None.
 Solution method      : Matrix inversion.
 Cavity type          : Scaled VdW (van der Waals Surface) (Alpha=1.100).
 Cavity algorithm     : GePol (No added spheres)
                        Default sphere list used, NSphG=   27.
                        Lebedev-Laikov grids with approx.  5.0 points / Ang**2.
                        Smoothing algorithm: Karplus/York (Gamma=1.0000).
                        Polarization charges: spherical gaussians, with
                                              point-specific exponents (IZeta= 3).
                        Self-potential: point-specific (ISelfS= 7).
                        Self-field    : sphere-specific E.n sum rule (ISelfD= 2).
 Solvent              : Water, Eps=  78.355300 Eps(inf)=   1.777849
 ------------------------------------------------------------------------------
 One-electron integrals computed using PRISM.
 NBasis=   303 RedAO= T  NBF=   303
 NBsUse=   303 1.00D-06 NBFU=   303
 Harris functional with IExCor=  908 diagonalized for initial guess.
 ExpMin= 4.38D-02 ExpMax= 5.48D+03 ExpMxC= 8.25D+02 IAcc=2 IRadAn=         4 AccDes= 0.00D+00
 HarFok:  IExCor=  908 AccDes= 0.00D+00 IRadAn=         4 IDoV= 1
 ScaDFX=  1.000000  1.000000  1.000000  1.000000
 FoFCou: FMM=F IPFlag=           0 FMFlag=      100000 FMFlg1=           0
         NFxFlg=           0 DoJE=T BraDBF=F KetDBF=T FulRan=T
         Omega=  0.000000  0.000000  1.000000  0.000000  0.000000 ICntrl=     500 IOpCl=  0
         NMat0=    1 NMatS0=    1 NMatT0=    0 NMatD0=    1 NMtDS0=    0 NMtDT0=    0
         I1Cent=           4 NGrid=           0.
 Petite list used in FoFCou.
 Initial guess orbital symmetries:
       Occupied  (A) (A) (A) (A) (A) (A) (A) (A) (A) (A) (A) (A)
                 (A) (A) (A) (A) (A) (A) (A) (A) (A) (A) (A) (A)
                 (A) (A) (A) (A) (A) (A) (A) (A) (A) (A) (A) (A)
                 (A) (A) (A) (A) (A) (A) (A) (A) (A) (A) (A)
       Virtual   (A) (A) (A) (A) (A) (A) (A) (A) (A) (A) (A) (A)
                 (A) (A) (A) (A) (A) (A) (A) (A) (A) (A) (A) (A)
                 (A) (A) (A) (A) (A) (A) (A) (A) (A) (A) (A) (A)
                 (A) (A) (A) (A) (A) (A) (A) (A) (A) (A) (A) (A)
                 (A) (A) (A) (A) (A) (A) (A) (A) (A) (A) (A) (A)
                 (A) (A) (A) (A) (A) (A) (A) (A) (A) (A) (A) (A)
                 (A) (A) (A) (A) (A) (A) (A) (A) (A) (A) (A) (A)
                 (A) (A) (A) (A) (A) (A) (A) (A) (A) (A) (A) (A)
                 (A) (A) (A) (A) (A) (A) (A) (A) (A) (A) (A) (A)
                 (A) (A) (A) (A) (A) (A) (A) (A) (A) (A) (A) (A)
                 (A) (A) (A) (A) (A) (A) (A) (A) (A) (A) (A) (A)
                 (A) (A) (A) (A) (A) (A) (A) (A) (A) (A) (A) (A)
                 (A) (A) (A) (A) (A) (A) (A) (A) (A) (A) (A) (A)
                 (A) (A) (A) (A) (A) (A) (A) (A) (A) (A) (A) (A)
                 (A) (A) (A) (A) (A) (A) (A) (A) (A) (A) (A) (A)
                 (A) (A) (A) (A) (A) (A) (A) (A) (A) (A) (A) (A)
                 (A) (A) (A) (A) (A) (A) (A) (A) (A) (A) (A) (A)
                 (A) (A) (A) (A) (A) (A) (A) (A) (A) (A) (A) (A)
                 (A) (A) (A) (A) (A) (A) (A) (A) (A) (A) (A) (A)
                 (A) (A) (A) (A) (A) (A) (A) (A) (A) (A) (A) (A)
                 (A) (A) (A) (A) (A) (A) (A) (A) (A) (A) (A) (A)
                 (A) (A) (A) (A)
 The electronic state of the initial guess is 1-A.
 Requested convergence on RMS density matrix=1.00D-08 within 128 cycles.
 Requested convergence on MAX density matrix=1.00D-06.
 Requested convergence on             energy=1.00D-06.
 No special actions if energy rises.
 Error on total polarization charges =  0.01427
 SCF Done:  E(RmPW1PW91) =  -594.195129811     A.U. after   13 cycles
             Convg  =    0.5701D-08             -V/T =  2.0094
 Range of M.O.s used for correlation:     1   303
 NBasis=   303 NAE=    47 NBE=    47 NFC=     0 NFV=     0
 NROrb=    303 NOA=    47 NOB=    47 NVA=   256 NVB=   256

 **** Warning!!: The largest alpha MO coefficient is  0.71937214D+02

 NEqPCM:  Using equilibrium solvation (IEInf=0, Eps=  78.3553, EpsInf=   1.7778)
          Differentiating once with respect to magnetic field using GIAOs.
          Electric field/nuclear overlap derivatives assumed to be zero.
 FoFCou: FMM=F IPFlag=           0 FMFlag=    10101102 FMFlg1=           0
         NFxFlg=    40000000 DoJE=F BraDBF=F KetDBF=T FulRan=T
         Omega=  0.000000  0.000000  1.000000  0.000000  0.000000 ICntrl=    6100 IOpCl=  0
         NMat0=    1 NMatS0=    1 NMatT0=    0 NMatD0=    1 NMtDS0=    0 NMtDT0=    0
         I1Cent=           7 NGrid=        1823.
 Symmetry not used in FoFCou.
          There are     3 degrees of freedom in the 1st order CPHF.  IDoFFX=0.
      3 vectors produced by pass  0 Test12= 4.01D-13 3.33D-08 XBig12= 4.28D+01 1.20D+00.
 AX will form     3 AO Fock derivatives at one time.
      3 vectors produced by pass  1 Test12= 4.01D-13 3.33D-08 XBig12= 1.01D-01 4.74D-02.
      3 vectors produced by pass  2 Test12= 4.01D-13 3.33D-08 XBig12= 2.36D-04 3.19D-03.
      3 vectors produced by pass  3 Test12= 4.01D-13 3.33D-08 XBig12= 1.05D-06 1.88D-04.
      3 vectors produced by pass  4 Test12= 4.01D-13 3.33D-08 XBig12= 3.60D-09 9.24D-06.
      3 vectors produced by pass  5 Test12= 4.01D-13 3.33D-08 XBig12= 1.10D-11 7.27D-07.
 Inverted reduced A of dimension    18 with in-core refinement.
 Calculating GIAO nuclear magnetic shielding tensors.
 SCF GIAO Magnetic shielding tensor (ppm):
      1  C    Isotropic =   172.5388   Anisotropy =    20.8540
   XX=   181.5439   YX=    -4.2327   ZX=     3.7847
   XY=     4.3272   YY=   184.3338   ZY=    11.6459
   XZ=     1.9677   YZ=     4.9797   ZZ=   151.7386
   Eigenvalues:   149.4987   181.6761   186.4414
      2  C    Isotropic =   126.9638   Anisotropy =    61.5066
   XX=   145.4758   YX=    18.6682   ZX=    11.4820
   XY=    20.8351   YY=   148.8522   ZY=     3.8893
   XZ=    13.3131   YZ=    -2.6788   ZZ=    86.5633
   Eigenvalues:    83.8746   129.0486   167.9681
      3  N    Isotropic =   187.6482   Anisotropy =    95.3290
   XX=   234.7624   YX=    -8.7201   ZX=    36.8287
   XY=   -16.9769   YY=   196.5706   ZY=     8.1127
   XZ=    48.3304   YZ=    17.7250   ZZ=   131.6116
   Eigenvalues:   113.0289   198.7148   251.2009
      4  C    Isotropic =   136.0623   Anisotropy =    56.1317
   XX=   139.6659   YX=   -22.0406   ZX=    -6.6813
   XY=   -30.4197   YY=   143.1846   ZY=    13.9597
   XZ=    -1.8359   YZ=    22.9726   ZZ=   125.3363
   Eigenvalues:   108.0630   126.6405   173.4834
      5  C    Isotropic =   163.3378   Anisotropy =    27.1683
   XX=   177.5526   YX=    -2.6558   ZX=     8.9232
   XY=    -2.7437   YY=   174.6101   ZY=    12.9889
   XZ=    17.1478   YZ=     5.1295   ZZ=   137.8508
   Eigenvalues:   131.8630   176.7004   181.4500
      6  C    Isotropic =   125.1004   Anisotropy =    35.0570
   XX=   137.2166   YX=    -8.0050   ZX=     8.6514
   XY=   -16.4877   YY=   125.5034   ZY=   -11.0950
   XZ=     9.6703   YZ=    -2.0879   ZZ=   112.5812
   Eigenvalues:   108.9960   117.8335   148.4717
      7  C    Isotropic =   109.0126   Anisotropy =    30.6649
   XX=   122.0897   YX=    -3.9174   ZX=   -13.3340
   XY=     6.0358   YY=   104.5053   ZY=     1.5959
   XZ=   -14.9471   YZ=    16.0835   ZZ=   100.4429
   Eigenvalues:    88.8837   108.6983   129.4559
      8  C    Isotropic =   117.3387   Anisotropy =    32.6055
   XX=   122.5865   YX=     4.8848   ZX=   -16.4828
   XY=    -2.8791   YY=   104.5783   ZY=    10.9231
   XZ=   -14.0091   YZ=    -4.8687   ZZ=   124.8511
   Eigenvalues:   103.0588   109.8815   139.0757
      9  H    Isotropic =    29.9119   Anisotropy =    11.7224
   XX=    32.8085   YX=     0.9603   ZX=     5.9287
   XY=     1.9455   YY=    27.3730   ZY=     2.3420
   XZ=     5.6771   YZ=     1.4851   ZZ=    29.5542
   Eigenvalues:    24.9444    27.0644    37.7268
     10  H    Isotropic =    29.3941   Anisotropy =     7.7005
   XX=    31.2378   YX=     0.1654   ZX=    -3.2473
   XY=     0.1064   YY=    28.8161   ZY=    -4.2270
   XZ=    -3.5356   YZ=    -3.6332   ZZ=    28.1284
   Eigenvalues:    23.6860    29.9686    34.5277
     11  H    Isotropic =    27.6658   Anisotropy =     7.7010
   XX=    26.3339   YX=     0.2033   ZX=     1.1968
   XY=    -0.3378   YY=    25.4888   ZY=     3.7756
   XZ=     1.5488   YZ=     2.4977   ZZ=    31.1747
   Eigenvalues:    23.9275    26.2702    32.7998
     12  H    Isotropic =    28.4763   Anisotropy =     8.6047
   XX=    28.5411   YX=     0.6831   ZX=     0.1757
   XY=     1.7684   YY=    33.6922   ZY=     1.2892
   XZ=    -0.0099   YZ=     2.0316   ZZ=    23.1957
   Eigenvalues:    22.9373    28.2789    34.2128
     13  H    Isotropic =    29.0092   Anisotropy =     7.5815
   XX=    27.1484   YX=    -1.2800   ZX=    -1.5068
   XY=    -1.3399   YY=    27.7466   ZY=     3.4302
   XZ=    -0.2921   YZ=     2.8650   ZZ=    32.1324
   Eigenvalues:    25.6584    27.3056    34.0635
     14  H    Isotropic =    29.3696   Anisotropy =    10.5620
   XX=    26.7879   YX=    -0.7939   ZX=     2.4008
   XY=    -1.1271   YY=    31.3243   ZY=    -5.1857
   XZ=     2.4748   YZ=    -5.0851   ZZ=    29.9965
   Eigenvalues:    24.6275    27.0703    36.4109
     15  H    Isotropic =    29.4983   Anisotropy =    11.6370
   XX=    31.7971   YX=    -4.4936   ZX=    -2.4869
   XY=    -5.1266   YY=    30.7888   ZY=     2.7362
   XZ=    -2.4372   YZ=     2.4792   ZZ=    25.9088
   Eigenvalues:    24.7381    26.5004    37.2562
     16  H    Isotropic =    28.5249   Anisotropy =     5.1857
   XX=    28.5181   YX=     0.1333   ZX=     2.0314
   XY=     1.7477   YY=    26.6720   ZY=    -1.3765
   XZ=     2.6455   YZ=     0.7234   ZZ=    30.3846
   Eigenvalues:    25.8260    27.7666    31.9820
     17  H    Isotropic =    27.4305   Anisotropy =     4.8278
   XX=    26.1970   YX=    -2.1300   ZX=    -0.4426
   XY=    -2.6585   YY=    28.0071   ZY=    -1.6391
   XZ=    -0.1640   YZ=    -2.3973   ZZ=    28.0873
   Eigenvalues:    24.0126    27.6298    30.6490
     18  H    Isotropic =    27.7025   Anisotropy =     6.7677
   XX=    24.8301   YX=     1.5880   ZX=    -1.4418
   XY=     1.7194   YY=    30.9367   ZY=     1.7655
   XZ=    -1.1775   YZ=     2.9253   ZZ=    27.3407
   Eigenvalues:    23.4208    27.4725    32.2143
     19  O    Isotropic =   288.6741   Anisotropy =    79.6357
   XX=   274.7689   YX=   -19.7134   ZX=    34.0601
   XY=   -14.7218   YY=   290.2471   ZY=   -38.9807
   XZ=     3.2997   YZ=   -33.2504   ZZ=   301.0064
   Eigenvalues:   259.0102   265.2476   341.7646
     20  H    Isotropic =    30.2741   Anisotropy =    19.9348
   XX=    24.4988   YX=    -4.0637   ZX=    -0.5895
   XY=    -3.8205   YY=    33.7320   ZY=    -9.1468
   XZ=     0.3380   YZ=   -10.7979   ZZ=    32.5916
   Eigenvalues:    20.8223    26.4361    43.5640
     21  O    Isotropic =   297.0666   Anisotropy =    32.3532
   XX=   286.9213   YX=    -7.4642   ZX=    29.7565
   XY=    -5.5565   YY=   292.6575   ZY=   -12.5757
   XZ=    -2.8612   YZ=     6.7235   ZZ=   311.6208
   Eigenvalues:   279.2131   293.3512   318.6354
     22  H    Isotropic =    30.4871   Anisotropy =    13.3837
   XX=    25.7855   YX=    -4.7509   ZX=     0.2572
   XY=    -3.5174   YY=    27.3030   ZY=    -3.0979
   XZ=     0.0591   YZ=    -3.5091   ZZ=    38.3726
   Eigenvalues:    22.0846    29.9671    39.4096
     23  C    Isotropic =   127.7746   Anisotropy =    48.0149
   XX=   122.5296   YX=     1.3108   ZX=    -5.1507
   XY=    13.3916   YY=   154.9861   ZY=    15.9707
   XZ=    -2.7916   YZ=    12.3762   ZZ=   105.8080
   Eigenvalues:   100.4792   123.0600   159.7845
     24  H    Isotropic =    27.8027   Anisotropy =     6.3310
   XX=    31.1789   YX=    -0.1471   ZX=     2.1266
   XY=    -1.7890   YY=    29.4610   ZY=    -0.5266
   XZ=     1.9916   YZ=     0.2872   ZZ=    22.7683
   Eigenvalues:    22.2898    29.0950    32.0233
     25  H    Isotropic =    27.8326   Anisotropy =     5.9808
   XX=    26.7016   YX=     2.6165   ZX=    -3.3668
   XY=     1.5627   YY=    29.7074   ZY=     4.5187
   XZ=    -3.2226   YZ=     1.7974   ZZ=    27.0886
   Eigenvalues:    21.8458    29.8321    31.8197
     26  O    Isotropic =   311.0964   Anisotropy =    46.0962
   XX=   315.1422   YX=   -27.0861   ZX=    10.4481
   XY=    -6.5193   YY=   313.6475   ZY=    -9.7238
   XZ=    23.4206   YZ=   -12.2084   ZZ=   304.4996
   Eigenvalues:   291.9537   299.5083   341.8273
     27  H    Isotropic =    30.3291   Anisotropy =    15.2076
   XX=    30.6771   YX=    -2.7759   ZX=     6.7497
   XY=    -3.4876   YY=    34.4448   ZY=    -5.4104
   XZ=     5.6482   YZ=    -5.2673   ZZ=    25.8653
   Eigenvalues:    21.0006    29.5191    40.4674
 End of Minotr Frequency-dependent properties file   721 does not exist.
 End of Minotr Frequency-dependent properties file   722 does not exist.

 **********************************************************************

            Population analysis using the SCF density.

 **********************************************************************

 Orbital symmetries:
       Occupied  (A) (A) (A) (A) (A) (A) (A) (A) (A) (A) (A) (A)
                 (A) (A) (A) (A) (A) (A) (A) (A) (A) (A) (A) (A)
                 (A) (A) (A) (A) (A) (A) (A) (A) (A) (A) (A) (A)
                 (A) (A) (A) (A) (A) (A) (A) (A) (A) (A) (A)
       Virtual   (A) (A) (A) (A) (A) (A) (A) (A) (A) (A) (A) (A)
                 (A) (A) (A) (A) (A) (A) (A) (A) (A) (A) (A) (A)
                 (A) (A) (A) (A) (A) (A) (A) (A) (A) (A) (A) (A)
                 (A) (A) (A) (A) (A) (A) (A) (A) (A) (A) (A) (A)
                 (A) (A) (A) (A) (A) (A) (A) (A) (A) (A) (A) (A)
                 (A) (A) (A) (A) (A) (A) (A) (A) (A) (A) (A) (A)
                 (A) (A) (A) (A) (A) (A) (A) (A) (A) (A) (A) (A)
                 (A) (A) (A) (A) (A) (A) (A) (A) (A) (A) (A) (A)
                 (A) (A) (A) (A) (A) (A) (A) (A) (A) (A) (A) (A)
                 (A) (A) (A) (A) (A) (A) (A) (A) (A) (A) (A) (A)
                 (A) (A) (A) (A) (A) (A) (A) (A) (A) (A) (A) (A)
                 (A) (A) (A) (A) (A) (A) (A) (A) (A) (A) (A) (A)
                 (A) (A) (A) (A) (A) (A) (A) (A) (A) (A) (A) (A)
                 (A) (A) (A) (A) (A) (A) (A) (A) (A) (A) (A) (A)
                 (A) (A) (A) (A) (A) (A) (A) (A) (A) (A) (A) (A)
                 (A) (A) (A) (A) (A) (A) (A) (A) (A) (A) (A) (A)
                 (A) (A) (A) (A) (A) (A) (A) (A) (A) (A) (A) (A)
                 (A) (A) (A) (A) (A) (A) (A) (A) (A) (A) (A) (A)
                 (A) (A) (A) (A) (A) (A) (A) (A) (A) (A) (A) (A)
                 (A) (A) (A) (A) (A) (A) (A) (A) (A) (A) (A) (A)
                 (A) (A) (A) (A) (A) (A) (A) (A) (A) (A) (A) (A)
                 (A) (A) (A) (A)
 The electronic state is 1-A.
 Alpha  occ. eigenvalues --  -19.26340 -19.26031 -19.25496 -14.41281 -10.30969
 Alpha  occ. eigenvalues --  -10.30480 -10.29399 -10.28091 -10.27888 -10.26913
 Alpha  occ. eigenvalues --  -10.24575 -10.24498  -1.07401  -1.05937  -1.05513
 Alpha  occ. eigenvalues --   -0.96232  -0.82752  -0.79177  -0.75364  -0.72016
 Alpha  occ. eigenvalues --   -0.66700  -0.62117  -0.60831  -0.57387  -0.55146
 Alpha  occ. eigenvalues --   -0.53823  -0.52652  -0.51387  -0.48739  -0.46520
 Alpha  occ. eigenvalues --   -0.45267  -0.43999  -0.43025  -0.42682  -0.41564
 Alpha  occ. eigenvalues --   -0.38769  -0.38498  -0.38195  -0.37512  -0.35670
 Alpha  occ. eigenvalues --   -0.34731  -0.34140  -0.32637  -0.32316  -0.30531
 Alpha  occ. eigenvalues --   -0.28066  -0.23307
 Alpha virt. eigenvalues --    0.00523   0.01461   0.01867   0.02145   0.03441
 Alpha virt. eigenvalues --    0.04320   0.04564   0.05155   0.05357   0.06808
 Alpha virt. eigenvalues --    0.07665   0.08219   0.08516   0.09047   0.09520
 Alpha virt. eigenvalues --    0.10529   0.11233   0.11772   0.12281   0.12581
 Alpha virt. eigenvalues --    0.12934   0.13755   0.14319   0.14973   0.15207
 Alpha virt. eigenvalues --    0.15756   0.17004   0.17478   0.18158   0.18632
 Alpha virt. eigenvalues --    0.19223   0.19900   0.20029   0.20482   0.21196
 Alpha virt. eigenvalues --    0.21442   0.21794   0.22199   0.22894   0.23128
 Alpha virt. eigenvalues --    0.23571   0.24745   0.25051   0.25304   0.25596
 Alpha virt. eigenvalues --    0.26404   0.27211   0.27586   0.28067   0.28394
 Alpha virt. eigenvalues --    0.29461   0.30321   0.30558   0.31386   0.31705
 Alpha virt. eigenvalues --    0.32284   0.33192   0.33377   0.34505   0.34755
 Alpha virt. eigenvalues --    0.35565   0.36100   0.36202   0.36862   0.38160
 Alpha virt. eigenvalues --    0.38862   0.39509   0.40133   0.40555   0.41382
 Alpha virt. eigenvalues --    0.42942   0.43193   0.44006   0.45492   0.45820
 Alpha virt. eigenvalues --    0.49230   0.63112   0.66724   0.67158   0.68764
 Alpha virt. eigenvalues --    0.69481   0.70128   0.72213   0.73478   0.74547
 Alpha virt. eigenvalues --    0.75325   0.76063   0.78089   0.79089   0.80815
 Alpha virt. eigenvalues --    0.83212   0.84569   0.86435   0.88568   0.89081
 Alpha virt. eigenvalues --    0.90169   0.91898   0.93726   0.94532   0.95371
 Alpha virt. eigenvalues --    0.98095   0.99756   1.01382   1.02100   1.04461
 Alpha virt. eigenvalues --    1.05528   1.07429   1.07660   1.08665   1.10815
 Alpha virt. eigenvalues --    1.11428   1.12311   1.13886   1.14860   1.16323
 Alpha virt. eigenvalues --    1.16923   1.19242   1.20844   1.23287   1.24445
 Alpha virt. eigenvalues --    1.26527   1.27808   1.28630   1.30753   1.34131
 Alpha virt. eigenvalues --    1.35607   1.37440   1.39064   1.39208   1.40620
 Alpha virt. eigenvalues --    1.42024   1.45881   1.47576   1.48200   1.49501
 Alpha virt. eigenvalues --    1.52282   1.56386   1.56820   1.57260   1.61586
 Alpha virt. eigenvalues --    1.62546   1.64402   1.66810   1.69847   1.70826
 Alpha virt. eigenvalues --    1.73296   1.75113   1.76004   1.77006   1.77990
 Alpha virt. eigenvalues --    1.80224   1.82064   1.83006   1.85886   1.88204
 Alpha virt. eigenvalues --    1.88630   1.89043   1.93079   1.93975   1.95471
 Alpha virt. eigenvalues --    1.98150   2.00453   2.01145   2.02224   2.05640
 Alpha virt. eigenvalues --    2.06772   2.07646   2.08351   2.09217   2.11094
 Alpha virt. eigenvalues --    2.12924   2.14142   2.15527   2.15974   2.19838
 Alpha virt. eigenvalues --    2.22655   2.23249   2.25954   2.27190   2.29343
 Alpha virt. eigenvalues --    2.30707   2.33529   2.35071   2.37213   2.40677
 Alpha virt. eigenvalues --    2.41401   2.42536   2.44297   2.46324   2.46987
 Alpha virt. eigenvalues --    2.49033   2.49435   2.51700   2.52083   2.53674
 Alpha virt. eigenvalues --    2.55309   2.57644   2.58349   2.60906   2.62262
 Alpha virt. eigenvalues --    2.64945   2.65233   2.66539   2.68407   2.69256
 Alpha virt. eigenvalues --    2.70867   2.72024   2.73465   2.76941   2.77759
 Alpha virt. eigenvalues --    2.78697   2.80492   2.81490   2.84861   2.86030
 Alpha virt. eigenvalues --    2.86892   2.89272   2.90675   2.93544   2.95862
 Alpha virt. eigenvalues --    2.98459   2.99776   3.01093   3.01750   3.03806
 Alpha virt. eigenvalues --    3.05575   3.08677   3.10839   3.13752   3.32475
 Alpha virt. eigenvalues --    3.34897   3.36106   3.37876   3.42948   3.44506
 Alpha virt. eigenvalues --    3.46737   3.49662   3.51830   3.54382   3.56332
 Alpha virt. eigenvalues --    3.57803   3.58440   3.59767   3.61307   4.30900
 Alpha virt. eigenvalues --    4.32785   4.35131   4.42295   4.49819   4.57194
 Alpha virt. eigenvalues --    4.59664   4.70587   4.76727   4.80323   4.90001
 Alpha virt. eigenvalues --    4.95446
          Condensed to atoms (all electrons):
              1          2          3          4          5          6
     1  C    6.543398  -1.556545   0.192453  -0.132185   0.160661   0.302815
     2  C   -1.556545  10.239199  -0.423410  -0.579185   0.417631  -1.278463
     3  N    0.192453  -0.423410   7.606665   0.268739  -0.158227  -0.253031
     4  C   -0.132185  -0.579185   0.268739   5.686980  -0.038846  -0.003818
     5  C    0.160661   0.417631  -0.158227  -0.038846   5.815125  -0.260270
     6  C    0.302815  -1.278463  -0.253031  -0.003818  -0.260270   9.538776
     7  C   -0.583081   1.616976  -0.289542  -0.060774   0.017522  -1.894910
     8  C    0.597553  -2.236475   0.138439   0.246716  -0.135460   1.205703
     9  H    0.389976  -0.078589   0.013381   0.028819  -0.031980   0.005002
    10  H    0.520452  -0.234424   0.029474   0.027342  -0.076955   0.006244
    11  H    0.100108   0.094735  -0.004044   0.034455  -0.039180   0.018329
    12  H    0.035649   0.013602  -0.048895   0.378301  -0.027163  -0.008420
    13  H   -0.019109   0.014706  -0.096228   0.420285  -0.013784  -0.013425
    14  H   -0.018184  -0.059115   0.016800  -0.033685   0.403047   0.004726
    15  H   -0.086123   0.064738   0.004938  -0.017725   0.380701  -0.003976
    16  H   -0.014789   0.033075  -0.067553   0.021706   0.010291   0.289121
    17  H    0.012636  -0.014406   0.024670   0.000173   0.002634   0.010719
    18  H   -0.011324  -0.017494   0.012999  -0.000936  -0.002175  -0.003306
    19  O    0.059649  -0.226057   0.033193   0.027260  -0.044179  -0.082874
    20  H   -0.007017   0.040972  -0.003577  -0.002835   0.005327  -0.011205
    21  O    0.013834  -0.012934   0.042664   0.010147   0.002805  -0.220522
    22  H    0.014886   0.011941   0.021501   0.003843   0.001723  -0.037477
    23  C    0.006609   0.028637   0.114468  -0.074533  -0.005973  -1.007642
    24  H   -0.000075   0.014276   0.010037  -0.003731   0.001192  -0.170997
    25  H    0.000983   0.009741   0.018164   0.013046   0.001941  -0.097138
    26  O   -0.003924   0.045335   0.029399  -0.015416   0.012694  -0.156446
    27  H   -0.002335   0.014159   0.026328  -0.002531   0.008190  -0.103810
              7          8          9         10         11         12
     1  C   -0.583081   0.597553   0.389976   0.520452   0.100108   0.035649
     2  C    1.616976  -2.236475  -0.078589  -0.234424   0.094735   0.013602
     3  N   -0.289542   0.138439   0.013381   0.029474  -0.004044  -0.048895
     4  C   -0.060774   0.246716   0.028819   0.027342   0.034455   0.378301
     5  C    0.017522  -0.135460  -0.031980  -0.076955  -0.039180  -0.027163
     6  C   -1.894910   1.205703   0.005002   0.006244   0.018329  -0.008420
     7  C    8.208395  -1.883015  -0.009416  -0.011678  -0.061177  -0.006575
     8  C   -1.883015   7.800729   0.024844   0.063888   0.112104  -0.008358
     9  H   -0.009416   0.024844   0.519532  -0.025036  -0.005683  -0.000120
    10  H   -0.011678   0.063888  -0.025036   0.506683   0.003779  -0.000055
    11  H   -0.061177   0.112104  -0.005683   0.003779   0.565227   0.000087
    12  H   -0.006575  -0.008358  -0.000120  -0.000055   0.000087   0.557749
    13  H    0.019266  -0.002715  -0.000126   0.001104  -0.000552  -0.043709
    14  H   -0.002437   0.017413  -0.005697   0.003947   0.000555  -0.005837
    15  H    0.003301  -0.006649   0.000859  -0.005734  -0.000127   0.000402
    16  H    0.060658  -0.035041  -0.000003  -0.000003  -0.000561  -0.001396
    17  H    0.259702   0.065173   0.000003  -0.000012  -0.000042   0.000004
    18  H    0.058054   0.262981   0.000199   0.000099  -0.002197   0.000006
    19  O    0.099591   0.154000  -0.000213   0.001494   0.007022   0.000239
    20  H   -0.055862   0.054371  -0.000008  -0.000026  -0.000274  -0.000002
    21  O    0.388417  -0.106446   0.000005   0.000047  -0.000597   0.000043
    22  H   -0.013394  -0.012952   0.000006   0.000000   0.000975   0.000002
    23  C    0.303852  -0.259154   0.000227  -0.000438   0.010753   0.007542
    24  H    0.045975  -0.005300   0.000000   0.000000  -0.000013  -0.000050
    25  H   -0.009440  -0.023062   0.000000   0.000000  -0.000066   0.000033
    26  O    0.067015  -0.043388  -0.000003   0.000003  -0.000073   0.000893
    27  H    0.007686  -0.002705   0.000000   0.000000  -0.000013   0.000036
             13         14         15         16         17         18
     1  C   -0.019109  -0.018184  -0.086123  -0.014789   0.012636  -0.011324
     2  C    0.014706  -0.059115   0.064738   0.033075  -0.014406  -0.017494
     3  N   -0.096228   0.016800   0.004938  -0.067553   0.024670   0.012999
     4  C    0.420285  -0.033685  -0.017725   0.021706   0.000173  -0.000936
     5  C   -0.013784   0.403047   0.380701   0.010291   0.002634  -0.002175
     6  C   -0.013425   0.004726  -0.003976   0.289121   0.010719  -0.003306
     7  C    0.019266  -0.002437   0.003301   0.060658   0.259702   0.058054
     8  C   -0.002715   0.017413  -0.006649  -0.035041   0.065173   0.262981
     9  H   -0.000126  -0.005697   0.000859  -0.000003   0.000003   0.000199
    10  H    0.001104   0.003947  -0.005734  -0.000003  -0.000012   0.000099
    11  H   -0.000552   0.000555  -0.000127  -0.000561  -0.000042  -0.002197
    12  H   -0.043709  -0.005837   0.000402  -0.001396   0.000004   0.000006
    13  H    0.580850   0.004001  -0.003734   0.012378  -0.000064  -0.000037
    14  H    0.004001   0.522003  -0.024988  -0.000008   0.000000   0.000000
    15  H   -0.003734  -0.024988   0.517816  -0.000003   0.000000   0.000002
    16  H    0.012378  -0.000008  -0.000003   0.562956  -0.004213  -0.000178
    17  H   -0.000064   0.000000   0.000000  -0.004213   0.535696  -0.002796
    18  H   -0.000037   0.000000   0.000002  -0.000178  -0.002796   0.557264
    19  O    0.000271   0.000085   0.000354   0.002958  -0.014100  -0.034762
    20  H    0.000136   0.000000  -0.000001   0.000578   0.004352  -0.006532
    21  O   -0.000059   0.000008   0.000004   0.008911  -0.048286  -0.001565
    22  H   -0.000005  -0.000001   0.000000  -0.000101   0.006351  -0.000963
    23  C   -0.011290  -0.000113   0.000569  -0.052254  -0.016678   0.016874
    24  H    0.000035   0.000000   0.000000  -0.002217   0.000889  -0.000004
    25  H   -0.000006  -0.000001   0.000000   0.004578   0.000080  -0.000001
    26  O   -0.000510  -0.000026   0.000011   0.001429  -0.000656   0.000038
    27  H    0.000170  -0.000004   0.000000   0.000150   0.000004   0.000000
             19         20         21         22         23         24
     1  C    0.059649  -0.007017   0.013834   0.014886   0.006609  -0.000075
     2  C   -0.226057   0.040972  -0.012934   0.011941   0.028637   0.014276
     3  N    0.033193  -0.003577   0.042664   0.021501   0.114468   0.010037
     4  C    0.027260  -0.002835   0.010147   0.003843  -0.074533  -0.003731
     5  C   -0.044179   0.005327   0.002805   0.001723  -0.005973   0.001192
     6  C   -0.082874  -0.011205  -0.220522  -0.037477  -1.007642  -0.170997
     7  C    0.099591  -0.055862   0.388417  -0.013394   0.303852   0.045975
     8  C    0.154000   0.054371  -0.106446  -0.012952  -0.259154  -0.005300
     9  H   -0.000213  -0.000008   0.000005   0.000006   0.000227   0.000000
    10  H    0.001494  -0.000026   0.000047   0.000000  -0.000438   0.000000
    11  H    0.007022  -0.000274  -0.000597   0.000975   0.010753  -0.000013
    12  H    0.000239  -0.000002   0.000043   0.000002   0.007542  -0.000050
    13  H    0.000271   0.000136  -0.000059  -0.000005  -0.011290   0.000035
    14  H    0.000085   0.000000   0.000008  -0.000001  -0.000113   0.000000
    15  H    0.000354  -0.000001   0.000004   0.000000   0.000569   0.000000
    16  H    0.002958   0.000578   0.008911  -0.000101  -0.052254  -0.002217
    17  H   -0.014100   0.004352  -0.048286   0.006351  -0.016678   0.000889
    18  H   -0.034762  -0.006532  -0.001565  -0.000963   0.016874  -0.000004
    19  O    8.313323   0.226380   0.005627  -0.000316   0.045506  -0.000165
    20  H    0.226380   0.371803   0.000194   0.000015  -0.005402   0.000004
    21  O    0.005627   0.000194   8.154879   0.267182   0.003000  -0.004042
    22  H   -0.000316   0.000015   0.267182   0.360419  -0.002688   0.000334
    23  C    0.045506  -0.005402   0.003000  -0.002688   5.928006   0.488354
    24  H   -0.000165   0.000004  -0.004042   0.000334   0.488354   0.543962
    25  H    0.000142   0.000001   0.009863  -0.000288   0.432458  -0.032573
    26  O    0.000919   0.000002  -0.002210  -0.000284   0.189054  -0.058984
    27  H   -0.000047   0.000000  -0.000033   0.000018   0.048646   0.006582
             25         26         27
     1  C    0.000983  -0.003924  -0.002335
     2  C    0.009741   0.045335   0.014159
     3  N    0.018164   0.029399   0.026328
     4  C    0.013046  -0.015416  -0.002531
     5  C    0.001941   0.012694   0.008190
     6  C   -0.097138  -0.156446  -0.103810
     7  C   -0.009440   0.067015   0.007686
     8  C   -0.023062  -0.043388  -0.002705
     9  H    0.000000  -0.000003   0.000000
    10  H    0.000000   0.000003   0.000000
    11  H   -0.000066  -0.000073  -0.000013
    12  H    0.000033   0.000893   0.000036
    13  H   -0.000006  -0.000510   0.000170
    14  H   -0.000001  -0.000026  -0.000004
    15  H    0.000000   0.000011   0.000000
    16  H    0.004578   0.001429   0.000150
    17  H    0.000080  -0.000656   0.000004
    18  H   -0.000001   0.000038   0.000000
    19  O    0.000142   0.000919  -0.000047
    20  H    0.000001   0.000002   0.000000
    21  O    0.009863  -0.002210  -0.000033
    22  H   -0.000288  -0.000284   0.000018
    23  C    0.432458   0.189054   0.048646
    24  H   -0.032573  -0.058984   0.006582
    25  H    0.565088  -0.045123  -0.006682
    26  O   -0.045123   8.269983   0.257380
    27  H   -0.006682   0.257380   0.374175
 Mulliken atomic charges:
              1
     1  C   -0.516973
     2  C    0.057373
     3  N   -0.259805
     4  C   -0.201615
     5  C   -0.407292
     6  C    0.226298
     7  C   -0.275110
     8  C    0.016806
     9  H    0.174019
    10  H    0.189807
    11  H    0.166469
    12  H    0.155994
    13  H    0.152151
    14  H    0.177511
    15  H    0.175366
    16  H    0.169531
    17  H    0.178168
    18  H    0.175752
    19  O   -0.575301
    20  H    0.388606
    21  O   -0.510938
    22  H    0.379271
    23  C   -0.188389
    24  H    0.166512
    25  H    0.158263
    26  O   -0.547113
    27  H    0.374638
 Sum of Mulliken atomic charges =   0.00000
 Mulliken charges with hydrogens summed into heavy atoms:
              1
     1  C   -0.153146
     2  C    0.223841
     3  N   -0.259805
     4  C    0.106530
     5  C   -0.054414
     6  C    0.395829
     7  C   -0.096942
     8  C    0.192559
    19  O   -0.186695
    21  O   -0.131667
    23  C    0.136386
    26  O   -0.172475
 Sum of Mulliken charges with hydrogens summed into heavy atoms =   0.00000
 Electronic spatial extent (au):  <R**2>=           2020.9446
 Charge=              0.0000 electrons
 Dipole moment (field-independent basis, Debye):
    X=             -2.7636    Y=             -1.3290    Z=             -0.8922  Tot=              3.1937
 Quadrupole moment (field-independent basis, Debye-Ang):
   XX=            -83.0746   YY=            -71.9780   ZZ=            -69.8746
   XY=             -3.2941   XZ=              0.9950   YZ=             -6.3909
 Traceless Quadrupole moment (field-independent basis, Debye-Ang):
   XX=             -8.0988   YY=              2.9978   ZZ=              5.1011
   XY=             -3.2941   XZ=              0.9950   YZ=             -6.3909
 Octapole moment (field-independent basis, Debye-Ang**2):
  XXX=            -22.3866  YYY=             -3.5557  ZZZ=             -3.3828  XYY=            -22.3823
  XXY=            -10.1732  XXZ=             -8.2677  XZZ=              4.3716  YZZ=            -15.0895
  YYZ=             12.2400  XYZ=            -14.1786
 Hexadecapole moment (field-independent basis, Debye-Ang**3):
 XXXX=          -1421.3503 YYYY=           -926.5237 ZZZZ=           -270.4704 XXXY=            -59.5701
 XXXZ=             -6.7552 YYYX=             39.7164 YYYZ=            -73.6243 ZZZX=            -16.5361
 ZZZY=            -12.8776 XXYY=           -446.8627 XXZZ=           -271.8292 YYZZ=           -191.2069
 XXYZ=            -24.2213 YYXZ=            -11.3845 ZZXY=              0.4911
 N-N= 8.081436359048D+02 E-N=-3.002058214049D+03  KE= 5.886526806948D+02
 1\1\GINC-COMPUTE-3-2\SP\RmPW1PW91\6-31+G(d,p)\C8H15N1O3\MAMICHETTI.IQU
 IR\17-May-2024\0\\# mpw1pw91/6-31+G** nmr scrf=(pcm,solvent=water)\\co
 mment\\0,1\C,0,-2.477402,0.255219,-0.463934\C,0,-1.091765,-0.369131,-0
 .716467\N,0,-0.081669,0.6832,-0.351829\C,0,-0.799511,1.753952,0.361784
 \C,0,-2.179749,1.757667,-0.294809\C,0,1.02457,0.038188,0.389998\C,0,0.
 838524,-1.479981,0.163752\C,0,-0.696227,-1.618143,0.085912\H,0,-3.1744
 44,0.048974,-1.281303\H,0,-2.911825,-0.145303,0.456175\H,0,-0.977958,-
 0.622191,-1.779192\H,0,-0.278652,2.71325,0.264906\H,0,-0.888713,1.5351
 94,1.44063\H,0,-2.127759,2.251675,-1.272375\H,0,-2.930564,2.277914,0.3
 08216\H,0,0.909068,0.223936,1.469601\H,0,1.248753,-2.059815,0.995265\H
 ,0,-0.989871,-2.550379,-0.413157\O,0,-1.262015,-1.544325,1.397977\H,0,
 -0.929214,-2.31062,1.895548\O,0,1.491686,-1.994473,-1.002002\H,0,1.181
 876,-1.499159,-1.778692\C,0,2.400998,0.555409,-0.016956\H,0,3.17752,-0
 .005314,0.51446\H,0,2.556025,0.416461,-1.094166\O,0,2.595247,1.930279,
 0.340776\H,0,1.991463,2.452053,-0.212803\\Version=AM64L-G09RevC.01\Sta
 te=1-A\HF=-594.1951298\RMSD=5.701e-09\Dipole=-1.0872869,-0.5228871,-0.
 3510341\Quadrupole=-6.0212961,2.2287601,3.792536,-2.4490717,0.7397634,
 -4.7515118\PG=C01 [X(C8H15N1O3)]\\@


 PERICLES, SOPHOCLES,
 PELOPONESIAN WAR,
 FRENCH VERBS, LATIN VERBS
 H2SO4.
 Job cpu time:  0 days  0 hours  9 minutes  6.7 seconds.
 File lengths (MBytes):  RWF=    113 Int=      0 D2E=      0 Chk=      7 Scr=      1
 Normal termination of Gaussian 09 at Fri May 17 12:11:16 2024.
