 Entering Gaussian System, Link 0=g09
 Input=/home/mamichetti.iquir/Linux/03_Cardona_A1A3_R__S_S_R_049_OptB.gjc
 Output=/home/mamichetti.iquir/Linux/03_Cardona_A1A3_R__S_S_R_049_OptB.log
 Initial command:
 /opt/ohpc/pub/apps/software/Gaussian/09/AMD64.SSE4a-enabled/g09/l1.exe /local/mamichetti.iquir/Gau-126149.inp -scrdir=/local/mamichetti.iquir/
 Entering Link 1 = /opt/ohpc/pub/apps/software/Gaussian/09/AMD64.SSE4a-enabled/g09/l1.exe PID=    126150.
  
 Copyright (c) 1988,1990,1992,1993,1995,1998,2003,2009,2011,
            Gaussian, Inc.  All Rights Reserved.
  
 This is part of the Gaussian(R) 09 program.  It is based on
 the Gaussian(R) 03 system (copyright 2003, Gaussian, Inc.),
 the Gaussian(R) 98 system (copyright 1998, Gaussian, Inc.),
 the Gaussian(R) 94 system (copyright 1995, Gaussian, Inc.),
 the Gaussian 92(TM) system (copyright 1992, Gaussian, Inc.),
 the Gaussian 90(TM) system (copyright 1990, Gaussian, Inc.),
 the Gaussian 88(TM) system (copyright 1988, Gaussian, Inc.),
 the Gaussian 86(TM) system (copyright 1986, Carnegie Mellon
 University), and the Gaussian 82(TM) system (copyright 1983,
 Carnegie Mellon University). Gaussian is a federally registered
 trademark of Gaussian, Inc.
  
 This software contains proprietary and confidential information,
 including trade secrets, belonging to Gaussian, Inc.
  
 This software is provided under written license and may be
 used, copied, transmitted, or stored only in accord with that
 written license.
  
 The following legend is applicable only to US Government
 contracts under FAR:
  
                    RESTRICTED RIGHTS LEGEND
  
 Use, reproduction and disclosure by the US Government is
 subject to restrictions as set forth in subparagraphs (a)
 and (c) of the Commercial Computer Software - Restricted
 Rights clause in FAR 52.227-19.
  
 Gaussian, Inc.
 340 Quinnipiac St., Bldg. 40, Wallingford CT 06492
  
  
 ---------------------------------------------------------------
 Warning -- This program may not be used in any manner that
 competes with the business of Gaussian, Inc. or will provide
 assistance to any competitor of Gaussian, Inc.  The licensee
 of this program is prohibited from giving any competitor of
 Gaussian, Inc. access to this program.  By using this program,
 the user acknowledges that Gaussian, Inc. is engaged in the
 business of creating and licensing software in the field of
 computational chemistry and represents and warrants to the
 licensee that it is not a competitor of Gaussian, Inc. and that
 it will not use this program in any manner prohibited above.
 ---------------------------------------------------------------
  

 Cite this work as:
 Gaussian 09, Revision C.01,
 M. J. Frisch, G. W. Trucks, H. B. Schlegel, G. E. Scuseria, 
 M. A. Robb, J. R. Cheeseman, G. Scalmani, V. Barone, B. Mennucci, 
 G. A. Petersson, H. Nakatsuji, M. Caricato, X. Li, H. P. Hratchian, 
 A. F. Izmaylov, J. Bloino, G. Zheng, J. L. Sonnenberg, M. Hada, 
 M. Ehara, K. Toyota, R. Fukuda, J. Hasegawa, M. Ishida, T. Nakajima, 
 Y. Honda, O. Kitao, H. Nakai, T. Vreven, J. A. Montgomery, Jr., 
 J. E. Peralta, F. Ogliaro, M. Bearpark, J. J. Heyd, E. Brothers, 
 K. N. Kudin, V. N. Staroverov, T. Keith, R. Kobayashi, J. Normand, 
 K. Raghavachari, A. Rendell, J. C. Burant, S. S. Iyengar, J. Tomasi, 
 M. Cossi, N. Rega, J. M. Millam, M. Klene, J. E. Knox, J. B. Cross, 
 V. Bakken, C. Adamo, J. Jaramillo, R. Gomperts, R. E. Stratmann, 
 O. Yazyev, A. J. Austin, R. Cammi, C. Pomelli, J. W. Ochterski, 
 R. L. Martin, K. Morokuma, V. G. Zakrzewski, G. A. Voth, 
 P. Salvador, J. J. Dannenberg, S. Dapprich, A. D. Daniels, 
 O. Farkas, J. B. Foresman, J. V. Ortiz, J. Cioslowski, 
 and D. J. Fox, Gaussian, Inc., Wallingford CT, 2010.
 
 ******************************************
 Gaussian 09:  AM64L-G09RevC.01 23-Sep-2011
                17-May-2024 
 ******************************************
 %nprocshared=4
 Will use up to    4 processors via shared memory.
 ------------------------------------------------
 # mpw1pw91/6-31+G** nmr scrf=(pcm,solvent=water)
 ------------------------------------------------
 1/38=1/1;
 2/12=2,17=6,18=5,40=1/2;
 3/5=1,6=6,7=111,11=2,16=1,25=1,30=1,70=2201,72=1,74=-7/1,2,8,3;
 4//1;
 5/5=2,38=5,53=1/2;
 8/6=1,10=90,11=11/1;
 10/13=100,45=16/2;
 6/7=2,8=2,9=2,10=2,28=1/1;
 99/9=1/99;
 -------
 comment
 -------
 Charge =  0 Multiplicity = 1
 Symbolic Z-Matrix:
 6                     2.37716  -0.57146  -0.61577 
 6                     1.11124   0.27946  -0.83932 
 7                    -0.0571   -0.63232  -0.5984 
 6                     0.47421  -1.94418  -0.15948 
 6                     1.90909  -1.69396   0.32381 
 6                    -0.97359   0.03126   0.35799 
 6                    -0.6192    1.51982   0.26512 
 6                     0.90588   1.48579   0.10356 
 1                     2.70737  -0.99403  -1.57153 
 1                     3.21447   0.01063  -0.2147 
 1                     1.08179   0.66056  -1.86685 
 1                     0.483    -2.64311  -1.0072 
 1                    -0.17342  -2.37721   0.60813 
 1                     2.53731  -2.58925   0.27008 
 1                     1.90418  -1.34178   1.36073 
 1                    -0.75711  -0.28303   1.39151 
 1                    -0.91964   2.06621   1.16723 
 1                     1.2855    2.41653  -0.33875 
 8                     1.4514    1.30779   1.41548 
 1                     2.41658   1.24371   1.32712 
 8                    -1.23877   2.08476  -0.89528 
 1                    -0.97982   3.02103  -0.92759 
 6                    -2.44929  -0.27023   0.09842 
 1                    -3.06606   0.33923   0.76787 
 1                    -2.71687  -0.02063  -0.9347 
 8                    -2.79523  -1.63243   0.38529 
 1                    -2.36978  -2.18269  -0.29247 
 
                          Input orientation:                          
 ---------------------------------------------------------------------
 Center     Atomic      Atomic             Coordinates (Angstroms)
 Number     Number       Type             X           Y           Z
 ---------------------------------------------------------------------
      1          6           0        2.377155   -0.571461   -0.615766
      2          6           0        1.111237    0.279464   -0.839315
      3          7           0       -0.057096   -0.632318   -0.598401
      4          6           0        0.474205   -1.944179   -0.159476
      5          6           0        1.909089   -1.693957    0.323808
      6          6           0       -0.973588    0.031261    0.357987
      7          6           0       -0.619196    1.519821    0.265119
      8          6           0        0.905879    1.485792    0.103560
      9          1           0        2.707372   -0.994025   -1.571526
     10          1           0        3.214467    0.010628   -0.214695
     11          1           0        1.081794    0.660560   -1.866851
     12          1           0        0.482996   -2.643112   -1.007200
     13          1           0       -0.173417   -2.377213    0.608134
     14          1           0        2.537306   -2.589245    0.270076
     15          1           0        1.904181   -1.341782    1.360731
     16          1           0       -0.757107   -0.283032    1.391508
     17          1           0       -0.919637    2.066206    1.167234
     18          1           0        1.285496    2.416531   -0.338753
     19          8           0        1.451397    1.307793    1.415483
     20          1           0        2.416582    1.243713    1.327119
     21          8           0       -1.238765    2.084764   -0.895281
     22          1           0       -0.979824    3.021028   -0.927593
     23          6           0       -2.449287   -0.270231    0.098417
     24          1           0       -3.066063    0.339232    0.767873
     25          1           0       -2.716874   -0.020631   -0.934701
     26          8           0       -2.795230   -1.632432    0.385288
     27          1           0       -2.369783   -2.182692   -0.292466
 ---------------------------------------------------------------------
                    Distance matrix (angstroms):
                    1          2          3          4          5
     1  C    0.000000
     2  C    1.541621   0.000000
     3  N    2.435074   1.501462   0.000000
     4  C    2.390350   2.410929   1.481862   0.000000
     5  C    1.536842   2.425657   2.417319   1.534623   0.000000
     6  C    3.541038   2.416947   1.481544   2.503245   3.359668
     7  C    3.758662   2.398470   2.386069   3.657199   4.089503
     8  C    2.629520   1.544802   2.430321   3.467021   3.341518
     9  H    1.095938   2.169229   2.952979   2.807795   2.172430
    10  H    1.095800   2.210430   3.356149   3.366505   2.213506
    11  H    2.181983   1.096326   2.139525   3.173162   3.320716
    12  H    2.834219   2.994048   2.121817   1.098736   2.169382
    13  H    3.356202   3.286849   2.124598   1.093690   2.210093
    14  H    2.209483   3.390267   3.363739   2.203863   1.095027
    15  H    2.173393   2.845593   2.861493   2.172267   1.095108
    16  H    3.733087   2.963728   2.138166   2.584780   3.199890
    17  H    4.583145   3.367957   3.338184   4.448162   4.780364
    18  H    3.193204   2.201814   3.341474   4.439158   4.209984
    19  O    2.917978   2.501456   3.177312   3.743090   3.226723
    20  H    2.659175   2.706869   3.653245   4.018140   3.145487
    21  O    4.495391   2.963908   2.977753   4.439376   5.066941
    22  H    4.926715   3.449131   3.782424   5.230438   5.669471
    23  C    4.888286   3.722746   2.517785   3.378671   4.590560
    24  H    5.689678   4.476211   3.444488   4.313634   5.392883
    25  H    5.133640   3.841040   2.749850   3.805785   5.077736
    26  O    5.374136   4.518350   3.076565   3.329138   4.705123
    27  H    5.023346   4.298692   2.801031   2.857069   4.350563
                    6          7          8          9         10
     6  C    0.000000
     7  C    1.532980   0.000000
     8  C    2.390144   1.533986   0.000000
     9  H    4.280619   4.556176   3.492962   0.000000
    10  H    4.227079   4.147874   2.758074   1.762800   0.000000
    11  H    3.093625   2.859544   2.143472   2.338241   2.774946
    12  H    3.337311   4.490394   4.296564   2.825916   3.889902
    13  H    2.550215   3.937417   4.042559   3.868213   4.225706
    14  H    4.381912   5.181501   4.392631   2.442365   2.729998
    15  H    3.342499   3.969454   3.251501   3.060095   2.455164
    16  H    1.101730   2.130270   2.748285   4.613859   4.294127
    17  H    2.190615   1.096637   2.191071   5.479144   4.819330
    18  H    3.358336   2.190115   1.098192   3.895299   3.086209
    19  O    2.937411   2.378161   1.431927   3.974678   2.729200
    20  H    3.728607   3.228007   1.959062   3.673442   2.129392
    21  O    2.420305   1.431627   2.440481   5.050569   4.959487
    22  H    3.254453   1.950958   2.641231   5.489145   5.211795
    23  C    1.528385   2.565406   3.786923   5.468429   5.679351
    24  H    2.154369   2.762917   4.187151   6.370472   6.365413
    25  H    2.170894   2.865801   4.058526   5.547566   5.974964
    26  O    2.467184   3.832266   4.847773   5.874973   6.259080
    27  H    2.697042   4.133287   4.934022   5.369025   6.000046
                   11         12         13         14         15
    11  H    0.000000
    12  H    3.465805   0.000000
    13  H    4.114507   1.763770   0.000000
    14  H    4.152855   2.419613   2.739938   0.000000
    15  H    3.886255   3.052921   2.440273   1.773849   0.000000
    16  H    3.858604   3.586312   2.310836   4.174852   2.864324
    17  H    3.897081   5.373381   4.540199   5.867587   4.430098
    18  H    2.336667   5.166315   5.099510   5.195719   4.170843
    19  O    3.365893   4.734643   4.107445   4.204529   2.688542
    20  H    3.510437   4.929017   4.509561   3.977874   2.635995
    21  O    2.890899   5.032872   4.827469   6.120713   5.168067
    22  H    3.271740   5.850527   5.670075   6.729025   5.708592
    23  C    4.146949   3.930806   3.143051   5.502127   4.657719
    24  H    4.924402   4.963978   3.971397   6.342044   5.280210
    25  H    3.970240   4.137853   3.795127   5.971237   5.326218
    26  O    5.035996   3.702332   2.734641   5.418921   4.808371
    27  H    4.740902   2.976773   2.381794   4.955932   4.659073
                   16         17         18         19         20
    16  H    0.000000
    17  H    2.365509   0.000000
    18  H    3.801798   2.693202   0.000000
    19  O    2.721909   2.501723   2.081866   0.000000
    20  H    3.522414   3.439828   2.330233   0.971337   0.000000
    21  O    3.326839   2.087140   2.606086   3.630466   4.359815
    22  H    4.042851   2.302956   2.417400   3.786293   4.447263
    23  C    2.129723   2.990173   4.621516   4.409099   5.241986
    24  H    2.471318   2.783716   4.947308   4.665292   5.584822
    25  H    3.052997   3.464546   4.723757   4.966141   5.750371
    26  O    2.643351   4.220096   5.794019   5.266884   6.026794
    27  H    3.007524   4.720888   5.875037   5.449953   6.105129
                   21         22         23         24         25
    21  O    0.000000
    22  H    0.971949   0.000000
    23  C    2.828215   3.747586   0.000000
    24  H    3.025224   3.797240   1.095458   0.000000
    25  H    2.572751   3.502725   1.096009   1.774878   0.000000
    26  O    4.228473   5.164692   1.434421   2.026618   2.084805
    27  H    4.455757   5.423474   1.953617   2.822982   2.281983
                   26         27
    26  O    0.000000
    27  H    0.971155   0.000000
 Stoichiometry    C8H15NO3
 Framework group  C1[X(C8H15NO3)]
 Deg. of freedom    75
 Full point group                 C1      NOp   1
 Largest Abelian subgroup         C1      NOp   1
 Largest concise Abelian subgroup C1      NOp   1
                         Standard orientation:                         
 ---------------------------------------------------------------------
 Center     Atomic      Atomic             Coordinates (Angstroms)
 Number     Number       Type             X           Y           Z
 ---------------------------------------------------------------------
      1          6           0        2.377155   -0.571461   -0.615766
      2          6           0        1.111237    0.279464   -0.839315
      3          7           0       -0.057096   -0.632318   -0.598401
      4          6           0        0.474205   -1.944179   -0.159476
      5          6           0        1.909089   -1.693957    0.323808
      6          6           0       -0.973588    0.031261    0.357987
      7          6           0       -0.619196    1.519821    0.265119
      8          6           0        0.905879    1.485792    0.103560
      9          1           0        2.707372   -0.994025   -1.571526
     10          1           0        3.214467    0.010628   -0.214695
     11          1           0        1.081794    0.660560   -1.866851
     12          1           0        0.482996   -2.643112   -1.007200
     13          1           0       -0.173417   -2.377213    0.608134
     14          1           0        2.537306   -2.589245    0.270076
     15          1           0        1.904181   -1.341782    1.360731
     16          1           0       -0.757107   -0.283032    1.391508
     17          1           0       -0.919637    2.066206    1.167234
     18          1           0        1.285496    2.416531   -0.338753
     19          8           0        1.451397    1.307793    1.415483
     20          1           0        2.416582    1.243713    1.327119
     21          8           0       -1.238765    2.084764   -0.895281
     22          1           0       -0.979824    3.021028   -0.927593
     23          6           0       -2.449287   -0.270231    0.098417
     24          1           0       -3.066063    0.339232    0.767873
     25          1           0       -2.716874   -0.020631   -0.934701
     26          8           0       -2.795230   -1.632432    0.385288
     27          1           0       -2.369783   -2.182692   -0.292466
 ---------------------------------------------------------------------
 Rotational constants (GHZ):      1.2042295      0.9045976      0.6274759
 Standard basis: 6-31+G(d,p) (6D, 7F)
 There are   303 symmetry adapted basis functions of A   symmetry.
 Integral buffers will be    131072 words long.
 Raffenetti 2 integral format.
 Two-electron integral symmetry is turned on.
   303 basis functions,   489 primitive gaussians,   303 cartesian basis functions
    47 alpha electrons       47 beta electrons
       nuclear repulsion energy       812.3499687864 Hartrees.
 NAtoms=   27 NActive=   27 NUniq=   27 SFac= 1.00D+00 NAtFMM=   60 NAOKFM=F Big=F
 ------------------------------------------------------------------------------
 Polarizable Continuum Model (PCM)
 =================================
 Model                : PCM.
 Atomic radii         : UFF (Universal Force Field).
 Polarization charges : Total charges.
 Charge compensation  : None.
 Solution method      : Matrix inversion.
 Cavity type          : Scaled VdW (van der Waals Surface) (Alpha=1.100).
 Cavity algorithm     : GePol (No added spheres)
                        Default sphere list used, NSphG=   27.
                        Lebedev-Laikov grids with approx.  5.0 points / Ang**2.
                        Smoothing algorithm: Karplus/York (Gamma=1.0000).
                        Polarization charges: spherical gaussians, with
                                              point-specific exponents (IZeta= 3).
                        Self-potential: point-specific (ISelfS= 7).
                        Self-field    : sphere-specific E.n sum rule (ISelfD= 2).
 Solvent              : Water, Eps=  78.355300 Eps(inf)=   1.777849
 ------------------------------------------------------------------------------
 One-electron integrals computed using PRISM.
 NBasis=   303 RedAO= T  NBF=   303
 NBsUse=   303 1.00D-06 NBFU=   303
 Harris functional with IExCor=  908 diagonalized for initial guess.
 ExpMin= 4.38D-02 ExpMax= 5.48D+03 ExpMxC= 8.25D+02 IAcc=2 IRadAn=         4 AccDes= 0.00D+00
 HarFok:  IExCor=  908 AccDes= 0.00D+00 IRadAn=         4 IDoV= 1
 ScaDFX=  1.000000  1.000000  1.000000  1.000000
 FoFCou: FMM=F IPFlag=           0 FMFlag=      100000 FMFlg1=           0
         NFxFlg=           0 DoJE=T BraDBF=F KetDBF=T FulRan=T
         Omega=  0.000000  0.000000  1.000000  0.000000  0.000000 ICntrl=     500 IOpCl=  0
         NMat0=    1 NMatS0=    1 NMatT0=    0 NMatD0=    1 NMtDS0=    0 NMtDT0=    0
         I1Cent=           4 NGrid=           0.
 Petite list used in FoFCou.
 Initial guess orbital symmetries:
       Occupied  (A) (A) (A) (A) (A) (A) (A) (A) (A) (A) (A) (A)
                 (A) (A) (A) (A) (A) (A) (A) (A) (A) (A) (A) (A)
                 (A) (A) (A) (A) (A) (A) (A) (A) (A) (A) (A) (A)
                 (A) (A) (A) (A) (A) (A) (A) (A) (A) (A) (A)
       Virtual   (A) (A) (A) (A) (A) (A) (A) (A) (A) (A) (A) (A)
                 (A) (A) (A) (A) (A) (A) (A) (A) (A) (A) (A) (A)
                 (A) (A) (A) (A) (A) (A) (A) (A) (A) (A) (A) (A)
                 (A) (A) (A) (A) (A) (A) (A) (A) (A) (A) (A) (A)
                 (A) (A) (A) (A) (A) (A) (A) (A) (A) (A) (A) (A)
                 (A) (A) (A) (A) (A) (A) (A) (A) (A) (A) (A) (A)
                 (A) (A) (A) (A) (A) (A) (A) (A) (A) (A) (A) (A)
                 (A) (A) (A) (A) (A) (A) (A) (A) (A) (A) (A) (A)
                 (A) (A) (A) (A) (A) (A) (A) (A) (A) (A) (A) (A)
                 (A) (A) (A) (A) (A) (A) (A) (A) (A) (A) (A) (A)
                 (A) (A) (A) (A) (A) (A) (A) (A) (A) (A) (A) (A)
                 (A) (A) (A) (A) (A) (A) (A) (A) (A) (A) (A) (A)
                 (A) (A) (A) (A) (A) (A) (A) (A) (A) (A) (A) (A)
                 (A) (A) (A) (A) (A) (A) (A) (A) (A) (A) (A) (A)
                 (A) (A) (A) (A) (A) (A) (A) (A) (A) (A) (A) (A)
                 (A) (A) (A) (A) (A) (A) (A) (A) (A) (A) (A) (A)
                 (A) (A) (A) (A) (A) (A) (A) (A) (A) (A) (A) (A)
                 (A) (A) (A) (A) (A) (A) (A) (A) (A) (A) (A) (A)
                 (A) (A) (A) (A) (A) (A) (A) (A) (A) (A) (A) (A)
                 (A) (A) (A) (A) (A) (A) (A) (A) (A) (A) (A) (A)
                 (A) (A) (A) (A) (A) (A) (A) (A) (A) (A) (A) (A)
                 (A) (A) (A) (A)
 The electronic state of the initial guess is 1-A.
 Requested convergence on RMS density matrix=1.00D-08 within 128 cycles.
 Requested convergence on MAX density matrix=1.00D-06.
 Requested convergence on             energy=1.00D-06.
 No special actions if energy rises.
 Error on total polarization charges =  0.01431
 SCF Done:  E(RmPW1PW91) =  -594.194648016     A.U. after   13 cycles
             Convg  =    0.3689D-08             -V/T =  2.0094
 Range of M.O.s used for correlation:     1   303
 NBasis=   303 NAE=    47 NBE=    47 NFC=     0 NFV=     0
 NROrb=    303 NOA=    47 NOB=    47 NVA=   256 NVB=   256

 **** Warning!!: The largest alpha MO coefficient is  0.71204972D+02

 NEqPCM:  Using equilibrium solvation (IEInf=0, Eps=  78.3553, EpsInf=   1.7778)
          Differentiating once with respect to magnetic field using GIAOs.
          Electric field/nuclear overlap derivatives assumed to be zero.
 FoFCou: FMM=F IPFlag=           0 FMFlag=    10101102 FMFlg1=           0
         NFxFlg=    40000000 DoJE=F BraDBF=F KetDBF=T FulRan=T
         Omega=  0.000000  0.000000  1.000000  0.000000  0.000000 ICntrl=    6100 IOpCl=  0
         NMat0=    1 NMatS0=    1 NMatT0=    0 NMatD0=    1 NMtDS0=    0 NMtDT0=    0
         I1Cent=           7 NGrid=        1806.
 Symmetry not used in FoFCou.
          There are     3 degrees of freedom in the 1st order CPHF.  IDoFFX=0.
      3 vectors produced by pass  0 Test12= 4.01D-13 3.33D-08 XBig12= 3.48D+01 1.17D+00.
 AX will form     3 AO Fock derivatives at one time.
      3 vectors produced by pass  1 Test12= 4.01D-13 3.33D-08 XBig12= 8.27D-02 4.47D-02.
      3 vectors produced by pass  2 Test12= 4.01D-13 3.33D-08 XBig12= 1.95D-04 3.34D-03.
      3 vectors produced by pass  3 Test12= 4.01D-13 3.33D-08 XBig12= 1.12D-06 2.17D-04.
      3 vectors produced by pass  4 Test12= 4.01D-13 3.33D-08 XBig12= 3.11D-09 8.11D-06.
      3 vectors produced by pass  5 Test12= 4.01D-13 3.33D-08 XBig12= 9.48D-12 5.31D-07.
 Inverted reduced A of dimension    18 with in-core refinement.
 Calculating GIAO nuclear magnetic shielding tensors.
 SCF GIAO Magnetic shielding tensor (ppm):
      1  C    Isotropic =   168.4629   Anisotropy =    23.9362
   XX=   176.3137   YX=    -0.8366   ZX=    -1.0410
   XY=    -1.1740   YY=   173.4240   ZY=   -17.0045
   XZ=    -7.3476   YZ=   -18.0464   ZZ=   155.6512
   Eigenvalues:   144.3610   176.6074   184.4204
      2  C    Isotropic =   125.1162   Anisotropy =    59.4347
   XX=   146.9641   YX=    20.1245   ZX=    -3.0559
   XY=    21.7821   YY=   139.8626   ZY=    -4.1071
   XZ=    -6.1074   YZ=     7.6141   ZZ=    88.5220
   Eigenvalues:    87.9101   122.6993   164.7393
      3  N    Isotropic =   190.9888   Anisotropy =    81.0946
   XX=   230.7637   YX=     1.1692   ZX=   -31.5867
   XY=    -3.5219   YY=   200.7760   ZY=    -5.7495
   XZ=   -45.2200   YZ=    -9.0438   ZZ=   141.4268
   Eigenvalues:   126.4618   201.4528   245.0519
      4  C    Isotropic =   140.2768   Anisotropy =    58.1231
   XX=   139.3323   YX=   -21.0226   ZX=     0.8657
   XY=   -12.2263   YY=   165.4080   ZY=   -18.0340
   XZ=    15.4241   YZ=   -15.5269   ZZ=   116.0902
   Eigenvalues:   110.5619   131.2430   179.0256
      5  C    Isotropic =   168.0852   Anisotropy =    24.4867
   XX=   176.3741   YX=    -1.1579   ZX=     4.6831
   XY=     1.9256   YY=   177.8867   ZY=    -9.9813
   XZ=     9.0380   YZ=   -17.9326   ZZ=   149.9947
   Eigenvalues:   142.9475   176.8983   184.4096
      6  C    Isotropic =   124.9405   Anisotropy =    34.3103
   XX=   129.3035   YX=   -10.3276   ZX=   -12.0571
   XY=    -5.8750   YY=   131.4175   ZY=    15.5104
   XZ=   -22.4964   YZ=    -0.5649   ZZ=   114.1003
   Eigenvalues:   102.6958   124.3116   147.8140
      7  C    Isotropic =   114.2093   Anisotropy =    29.6255
   XX=   124.2921   YX=   -10.1050   ZX=     9.9176
   XY=    -2.1051   YY=   108.7431   ZY=    -0.9340
   XZ=    12.0270   YZ=   -17.1136   ZZ=   109.5928
   Eigenvalues:    99.5422   109.1261   133.9596
      8  C    Isotropic =   114.4953   Anisotropy =    28.4282
   XX=   117.6874   YX=    -2.5955   ZX=    17.3612
   XY=   -10.8492   YY=   108.3697   ZY=    -8.3054
   XZ=    11.9831   YZ=     6.3443   ZZ=   117.4287
   Eigenvalues:   100.5254   109.5130   133.4474
      9  H    Isotropic =    29.7490   Anisotropy =    12.3949
   XX=    29.5692   YX=    -2.6708   ZX=    -5.5034
   XY=    -3.0065   YY=    26.5888   ZY=     1.4642
   XZ=    -5.8220   YZ=     1.5932   ZZ=    33.0889
   Eigenvalues:    24.2622    26.9725    38.0122
     10  H    Isotropic =    29.9744   Anisotropy =     9.6104
   XX=    35.1870   YX=     2.5554   ZX=     0.4734
   XY=     3.2793   YY=    28.9229   ZY=     1.2686
   XZ=     0.1157   YZ=     1.0277   ZZ=    25.8133
   Eigenvalues:    25.3834    28.1584    36.3814
     11  H    Isotropic =    27.6544   Anisotropy =     8.1025
   XX=    25.8690   YX=     0.0177   ZX=    -1.3865
   XY=    -0.2723   YY=    25.7373   ZY=    -3.6305
   XZ=    -1.7650   YZ=    -2.7195   ZZ=    31.3570
   Eigenvalues:    23.9626    25.9446    33.0561
     12  H    Isotropic =    28.5563   Anisotropy =    11.4861
   XX=    25.9769   YX=    -1.3855   ZX=     0.8751
   XY=    -0.4534   YY=    33.6834   ZY=     5.5202
   XZ=     2.3951   YZ=     4.6406   ZZ=    26.0085
   Eigenvalues:    22.4763    26.9789    36.2136
     13  H    Isotropic =    28.6772   Anisotropy =     7.4368
   XX=    30.7801   YX=     1.1359   ZX=    -0.9103
   XY=     1.5069   YY=    30.7518   ZY=    -4.0478
   XZ=    -2.0937   YZ=    -3.2699   ZZ=    24.4997
   Eigenvalues:    22.7280    29.6685    33.6351
     14  H    Isotropic =    30.0842   Anisotropy =    12.8184
   XX=    30.6345   YX=    -5.2731   ZX=     0.5438
   XY=    -5.8185   YY=    34.3798   ZY=    -1.6214
   XZ=     1.0231   YZ=    -1.9264   ZZ=    25.2384
   Eigenvalues:    24.8818    26.7411    38.6299
     15  H    Isotropic =    29.8398   Anisotropy =     7.8114
   XX=    27.1237   YX=    -0.1530   ZX=     1.4735
   XY=    -0.0959   YY=    27.8448   ZY=     0.0377
   XZ=     2.3330   YZ=    -1.0421   ZZ=    34.5510
   Eigenvalues:    26.6644    27.8076    35.0475
     16  H    Isotropic =    28.5591   Anisotropy =     5.7334
   XX=    28.9815   YX=    -0.2912   ZX=    -1.5299
   XY=     0.9531   YY=    25.7591   ZY=     1.4629
   XZ=    -2.9018   YZ=    -0.9165   ZZ=    30.9365
   Eigenvalues:    25.6618    27.6340    32.3813
     17  H    Isotropic =    27.3338   Anisotropy =     5.3479
   XX=    25.5477   YX=    -2.4060   ZX=     0.6362
   XY=    -2.2844   YY=    27.7264   ZY=     1.8444
   XZ=    -0.1902   YZ=     2.6584   ZZ=    28.7271
   Eigenvalues:    23.6203    27.4819    30.8990
     18  H    Isotropic =    27.8077   Anisotropy =     6.8231
   XX=    25.2075   YX=     1.2512   ZX=     1.3580
   XY=     2.2985   YY=    31.2397   ZY=    -1.6589
   XZ=     1.6616   YZ=    -2.7907   ZZ=    26.9760
   Eigenvalues:    23.4175    27.6492    32.3565
     19  O    Isotropic =   299.3655   Anisotropy =    46.3081
   XX=   327.9663   YX=    -3.9421   ZX=    -0.6677
   XY=   -15.7156   YY=   276.7672   ZY=   -14.5529
   XZ=    -8.7251   YZ=     8.3779   ZZ=   293.3630
   Eigenvalues:   274.1447   293.7142   330.2375
     20  H    Isotropic =    29.9952   Anisotropy =    17.8610
   XX=    41.4913   YX=    -0.4330   ZX=     2.2659
   XY=    -0.7148   YY=    22.4960   ZY=     3.8305
   XZ=     2.8467   YZ=     2.2435   ZZ=    25.9982
   Eigenvalues:    20.5868    27.4962    41.9025
     21  O    Isotropic =   296.0255   Anisotropy =    70.2076
   XX=   283.0683   YX=    21.3247   ZX=    -8.9977
   XY=    12.7460   YY=   330.8283   ZY=   -23.7562
   XZ=    12.9466   YZ=   -21.6475   ZZ=   274.1800
   Eigenvalues:   262.8960   282.3500   342.8306
     22  H    Isotropic =    30.4325   Anisotropy =    20.1744
   XX=    24.1862   YX=     1.5758   ZX=     2.7196
   XY=     1.9856   YY=    42.7603   ZY=    -3.6442
   XZ=     1.9895   YZ=    -5.3827   ZZ=    24.3509
   Eigenvalues:    20.9864    26.4289    43.8821
     23  C    Isotropic =   127.7037   Anisotropy =    46.5142
   XX=   126.8296   YX=     4.7057   ZX=     1.4397
   XY=    15.8831   YY=   153.1549   ZY=   -13.7430
   XZ=    -0.0309   YZ=    -8.9985   ZZ=   103.1265
   Eigenvalues:   100.3307   124.0671   158.7131
     24  H    Isotropic =    27.7805   Anisotropy =     6.4880
   XX=    30.5098   YX=    -0.0593   ZX=    -2.8101
   XY=    -1.4850   YY=    29.7133   ZY=     1.7195
   XZ=    -3.1628   YZ=     0.6308   ZZ=    23.1185
   Eigenvalues:    21.9677    29.2681    32.1059
     25  H    Isotropic =    27.6459   Anisotropy =     6.1866
   XX=    27.8755   YX=     2.4631   ZX=     3.0371
   XY=     0.8226   YY=    29.6684   ZY=    -4.8755
   XZ=     3.0694   YZ=    -2.4381   ZZ=    25.3939
   Eigenvalues:    21.4313    29.7362    31.7703
     26  O    Isotropic =   310.9527   Anisotropy =    42.1341
   XX=   304.2565   YX=   -22.0984   ZX=    -8.5323
   XY=    -1.8447   YY=   310.8600   ZY=    11.9602
   XZ=   -20.1569   YZ=    16.6474   ZZ=   317.7417
   Eigenvalues:   294.1890   299.6271   339.0421
     27  H    Isotropic =    30.2893   Anisotropy =    14.9748
   XX=    28.2585   YX=    -0.4481   ZX=    -5.7562
   XY=    -1.5465   YY=    33.8868   ZY=     7.3010
   XZ=    -4.9510   YZ=     7.0104   ZZ=    28.7227
   Eigenvalues:    21.3138    29.2816    40.2725
 End of Minotr Frequency-dependent properties file   721 does not exist.
 End of Minotr Frequency-dependent properties file   722 does not exist.

 **********************************************************************

            Population analysis using the SCF density.

 **********************************************************************

 Orbital symmetries:
       Occupied  (A) (A) (A) (A) (A) (A) (A) (A) (A) (A) (A) (A)
                 (A) (A) (A) (A) (A) (A) (A) (A) (A) (A) (A) (A)
                 (A) (A) (A) (A) (A) (A) (A) (A) (A) (A) (A) (A)
                 (A) (A) (A) (A) (A) (A) (A) (A) (A) (A) (A)
       Virtual   (A) (A) (A) (A) (A) (A) (A) (A) (A) (A) (A) (A)
                 (A) (A) (A) (A) (A) (A) (A) (A) (A) (A) (A) (A)
                 (A) (A) (A) (A) (A) (A) (A) (A) (A) (A) (A) (A)
                 (A) (A) (A) (A) (A) (A) (A) (A) (A) (A) (A) (A)
                 (A) (A) (A) (A) (A) (A) (A) (A) (A) (A) (A) (A)
                 (A) (A) (A) (A) (A) (A) (A) (A) (A) (A) (A) (A)
                 (A) (A) (A) (A) (A) (A) (A) (A) (A) (A) (A) (A)
                 (A) (A) (A) (A) (A) (A) (A) (A) (A) (A) (A) (A)
                 (A) (A) (A) (A) (A) (A) (A) (A) (A) (A) (A) (A)
                 (A) (A) (A) (A) (A) (A) (A) (A) (A) (A) (A) (A)
                 (A) (A) (A) (A) (A) (A) (A) (A) (A) (A) (A) (A)
                 (A) (A) (A) (A) (A) (A) (A) (A) (A) (A) (A) (A)
                 (A) (A) (A) (A) (A) (A) (A) (A) (A) (A) (A) (A)
                 (A) (A) (A) (A) (A) (A) (A) (A) (A) (A) (A) (A)
                 (A) (A) (A) (A) (A) (A) (A) (A) (A) (A) (A) (A)
                 (A) (A) (A) (A) (A) (A) (A) (A) (A) (A) (A) (A)
                 (A) (A) (A) (A) (A) (A) (A) (A) (A) (A) (A) (A)
                 (A) (A) (A) (A) (A) (A) (A) (A) (A) (A) (A) (A)
                 (A) (A) (A) (A) (A) (A) (A) (A) (A) (A) (A) (A)
                 (A) (A) (A) (A) (A) (A) (A) (A) (A) (A) (A) (A)
                 (A) (A) (A) (A) (A) (A) (A) (A) (A) (A) (A) (A)
                 (A) (A) (A) (A)
 The electronic state is 1-A.
 Alpha  occ. eigenvalues --  -19.25981 -19.25943 -19.25417 -14.40980 -10.30740
 Alpha  occ. eigenvalues --  -10.30432 -10.29179 -10.27836 -10.27681 -10.26722
 Alpha  occ. eigenvalues --  -10.24971 -10.24265  -1.07249  -1.05786  -1.05404
 Alpha  occ. eigenvalues --   -0.95873  -0.82693  -0.78911  -0.75426  -0.72012
 Alpha  occ. eigenvalues --   -0.66487  -0.61366  -0.60205  -0.58109  -0.55698
 Alpha  occ. eigenvalues --   -0.52931  -0.51628  -0.50523  -0.49536  -0.47714
 Alpha  occ. eigenvalues --   -0.45628  -0.44580  -0.43275  -0.41582  -0.41046
 Alpha  occ. eigenvalues --   -0.39110  -0.38260  -0.37882  -0.35855  -0.35537
 Alpha  occ. eigenvalues --   -0.34606  -0.34503  -0.33994  -0.31049  -0.29553
 Alpha  occ. eigenvalues --   -0.29138  -0.22854
 Alpha virt. eigenvalues --    0.00500   0.01338   0.01658   0.02331   0.03230
 Alpha virt. eigenvalues --    0.04189   0.04804   0.05287   0.05526   0.06632
 Alpha virt. eigenvalues --    0.07479   0.08080   0.08292   0.08503   0.09992
 Alpha virt. eigenvalues --    0.10715   0.11483   0.11990   0.12552   0.12755
 Alpha virt. eigenvalues --    0.13124   0.13433   0.14450   0.14793   0.14952
 Alpha virt. eigenvalues --    0.16068   0.16349   0.17760   0.18189   0.18452
 Alpha virt. eigenvalues --    0.19171   0.19549   0.20203   0.20666   0.20984
 Alpha virt. eigenvalues --    0.21375   0.21615   0.22177   0.23020   0.23162
 Alpha virt. eigenvalues --    0.23933   0.24213   0.24632   0.25534   0.25727
 Alpha virt. eigenvalues --    0.26397   0.26872   0.27427   0.28513   0.28989
 Alpha virt. eigenvalues --    0.29523   0.29615   0.30220   0.31205   0.32276
 Alpha virt. eigenvalues --    0.32369   0.33056   0.33696   0.34062   0.34416
 Alpha virt. eigenvalues --    0.35243   0.35980   0.37331   0.38206   0.38613
 Alpha virt. eigenvalues --    0.39379   0.40331   0.40921   0.41301   0.41880
 Alpha virt. eigenvalues --    0.42144   0.43815   0.44645   0.45328   0.45804
 Alpha virt. eigenvalues --    0.48077   0.65611   0.66544   0.67649   0.68599
 Alpha virt. eigenvalues --    0.69175   0.70637   0.72279   0.73703   0.74440
 Alpha virt. eigenvalues --    0.76212   0.77838   0.79328   0.80506   0.82597
 Alpha virt. eigenvalues --    0.83195   0.84335   0.85633   0.86811   0.87950
 Alpha virt. eigenvalues --    0.89475   0.90198   0.93235   0.93826   0.96635
 Alpha virt. eigenvalues --    0.98910   1.00232   1.02999   1.03677   1.04480
 Alpha virt. eigenvalues --    1.05203   1.06221   1.08047   1.08633   1.10174
 Alpha virt. eigenvalues --    1.11181   1.12299   1.13957   1.14626   1.15707
 Alpha virt. eigenvalues --    1.16700   1.17711   1.19368   1.22109   1.25534
 Alpha virt. eigenvalues --    1.27605   1.28652   1.30357   1.32406   1.33304
 Alpha virt. eigenvalues --    1.34829   1.37573   1.39395   1.40112   1.42680
 Alpha virt. eigenvalues --    1.43649   1.44119   1.46587   1.49639   1.52905
 Alpha virt. eigenvalues --    1.53295   1.55300   1.58175   1.59670   1.60813
 Alpha virt. eigenvalues --    1.62516   1.65297   1.66033   1.70262   1.71862
 Alpha virt. eigenvalues --    1.72765   1.75061   1.75994   1.77842   1.78388
 Alpha virt. eigenvalues --    1.81404   1.82170   1.84140   1.85265   1.87555
 Alpha virt. eigenvalues --    1.87806   1.89717   1.90768   1.92934   1.95806
 Alpha virt. eigenvalues --    1.97976   1.99298   2.02746   2.03946   2.04576
 Alpha virt. eigenvalues --    2.06690   2.07735   2.07811   2.09739   2.12051
 Alpha virt. eigenvalues --    2.12773   2.15274   2.17217   2.19569   2.19770
 Alpha virt. eigenvalues --    2.21042   2.22159   2.25694   2.27587   2.30193
 Alpha virt. eigenvalues --    2.31464   2.34393   2.35445   2.38306   2.38940
 Alpha virt. eigenvalues --    2.41426   2.42739   2.44097   2.44847   2.46789
 Alpha virt. eigenvalues --    2.49313   2.50576   2.51829   2.52596   2.55664
 Alpha virt. eigenvalues --    2.56066   2.58422   2.59689   2.60427   2.62408
 Alpha virt. eigenvalues --    2.65089   2.66489   2.67791   2.68710   2.69712
 Alpha virt. eigenvalues --    2.70230   2.72590   2.74103   2.77298   2.77728
 Alpha virt. eigenvalues --    2.79582   2.80650   2.83707   2.84619   2.85019
 Alpha virt. eigenvalues --    2.86858   2.88563   2.89754   2.94156   2.96239
 Alpha virt. eigenvalues --    2.96474   2.99549   3.00107   3.03021   3.03303
 Alpha virt. eigenvalues --    3.05470   3.07589   3.12333   3.16264   3.32665
 Alpha virt. eigenvalues --    3.35142   3.37193   3.38890   3.42927   3.44616
 Alpha virt. eigenvalues --    3.45695   3.49614   3.54131   3.54453   3.55640
 Alpha virt. eigenvalues --    3.57235   3.57726   3.59509   3.61400   4.31509
 Alpha virt. eigenvalues --    4.33776   4.36865   4.44773   4.52643   4.60343
 Alpha virt. eigenvalues --    4.60673   4.69321   4.79929   4.81965   4.89333
 Alpha virt. eigenvalues --    5.01351
          Condensed to atoms (all electrons):
              1          2          3          4          5          6
     1  C    5.890325  -0.682514   0.000103  -0.114959   0.284782   0.220176
     2  C   -0.682514   9.304956  -0.227555  -0.125101  -0.113337  -1.251251
     3  N    0.000103  -0.227555   7.440061   0.054672  -0.074913  -0.154521
     4  C   -0.114959  -0.125101   0.054672   5.850961   0.072927  -0.094798
     5  C    0.284782  -0.113337  -0.074913   0.072927   5.423624  -0.044015
     6  C    0.220176  -1.251251  -0.154521  -0.094798  -0.044015   9.817627
     7  C   -0.370821   1.402337  -0.060437  -0.227474   0.074716  -2.359835
     8  C    0.411403  -2.386801   0.059208   0.141710   0.001969   1.308351
     9  H    0.453999  -0.117628   0.013050   0.002593  -0.051976   0.015580
    10  H    0.362480  -0.103359   0.017636   0.024721  -0.011230  -0.003458
    11  H    0.001423   0.210823  -0.008803  -0.014680   0.022542   0.003162
    12  H    0.016289  -0.050139  -0.031575   0.374261  -0.034315   0.026430
    13  H    0.020242   0.040066  -0.066482   0.395035  -0.033450   0.006439
    14  H   -0.043630   0.026016   0.013044  -0.030919   0.363913  -0.000021
    15  H   -0.038938  -0.015099   0.012656  -0.081404   0.437893   0.014516
    16  H   -0.001472   0.051981  -0.086477   0.052197  -0.010993   0.303917
    17  H    0.013702  -0.031321   0.021923   0.000229   0.001054   0.057050
    18  H   -0.004490   0.000507   0.016119  -0.002836  -0.001720  -0.049616
    19  O    0.023627  -0.132784   0.037180  -0.040147   0.023687  -0.019505
    20  H    0.005312  -0.071733   0.000292  -0.002847   0.003996  -0.006555
    21  O    0.040439  -0.073686   0.047908   0.002748   0.003556  -0.247238
    22  H   -0.002364  -0.009373  -0.005787   0.000144  -0.000733   0.040645
    23  C   -0.018415   0.267747   0.091314  -0.006119  -0.038076  -1.164596
    24  H    0.000395   0.011231   0.009355  -0.004357   0.001315  -0.133238
    25  H    0.001870   0.005092   0.011528   0.010189  -0.002087  -0.151997
    26  O   -0.001355   0.037389   0.023676  -0.013719  -0.002035  -0.175756
    27  H   -0.001008   0.010406   0.017886  -0.004719   0.006967  -0.070063
              7          8          9         10         11         12
     1  C   -0.370821   0.411403   0.453999   0.362480   0.001423   0.016289
     2  C    1.402337  -2.386801  -0.117628  -0.103359   0.210823  -0.050139
     3  N   -0.060437   0.059208   0.013050   0.017636  -0.008803  -0.031575
     4  C   -0.227474   0.141710   0.002593   0.024721  -0.014680   0.374261
     5  C    0.074716   0.001969  -0.051976  -0.011230   0.022542  -0.034315
     6  C   -2.359835   1.308351   0.015580  -0.003458   0.003162   0.026430
     7  C    8.734055  -2.070573  -0.013255  -0.012057   0.001468   0.001457
     8  C   -2.070573   8.453088   0.031117   0.055594   0.046492   0.008265
     9  H   -0.013255   0.031117   0.512315  -0.023176  -0.006541   0.001478
    10  H   -0.012057   0.055594  -0.023176   0.536952   0.002634  -0.000028
    11  H    0.001468   0.046492  -0.006541   0.002634   0.564884   0.000780
    12  H    0.001457   0.008265   0.001478  -0.000028   0.000780   0.556916
    13  H    0.015805  -0.026817  -0.000113  -0.000145  -0.000194  -0.033172
    14  H    0.004484   0.003654  -0.004870   0.000734  -0.000053  -0.003305
    15  H    0.002153   0.000687   0.004046  -0.005377  -0.000095   0.004051
    16  H   -0.012533  -0.035426  -0.000006  -0.000012  -0.000543  -0.000405
    17  H    0.157845   0.134662   0.000003  -0.000008  -0.000094   0.000003
    18  H    0.117029   0.238555  -0.000022   0.000249  -0.001434   0.000006
    19  O    0.012668   0.096108   0.000285  -0.007009   0.010055   0.000314
    20  H   -0.006173   0.095266  -0.000052   0.005864   0.000197   0.000000
    21  O    0.237503   0.034020   0.000105   0.000019   0.002123   0.000079
    22  H    0.045761  -0.058225   0.000000   0.000000   0.000205   0.000000
    23  C    0.422564  -0.491334  -0.000180  -0.001046   0.000571  -0.000268
    24  H    0.027490  -0.006647   0.000000   0.000000  -0.000008  -0.000005
    25  H    0.023695  -0.019713   0.000000   0.000000  -0.000018   0.000015
    26  O    0.088228  -0.056871  -0.000019   0.000000   0.000023  -0.000613
    27  H    0.009462  -0.002328   0.000000   0.000000  -0.000012  -0.000496
             13         14         15         16         17         18
     1  C    0.020242  -0.043630  -0.038938  -0.001472   0.013702  -0.004490
     2  C    0.040066   0.026016  -0.015099   0.051981  -0.031321   0.000507
     3  N   -0.066482   0.013044   0.012656  -0.086477   0.021923   0.016119
     4  C    0.395035  -0.030919  -0.081404   0.052197   0.000229  -0.002836
     5  C   -0.033450   0.363913   0.437893  -0.010993   0.001054  -0.001720
     6  C    0.006439  -0.000021   0.014516   0.303917   0.057050  -0.049616
     7  C    0.015805   0.004484   0.002153  -0.012533   0.157845   0.117029
     8  C   -0.026817   0.003654   0.000687  -0.035426   0.134662   0.238555
     9  H   -0.000113  -0.004870   0.004046  -0.000006   0.000003  -0.000022
    10  H   -0.000145   0.000734  -0.005377  -0.000012  -0.000008   0.000249
    11  H   -0.000194  -0.000053  -0.000095  -0.000543  -0.000094  -0.001434
    12  H   -0.033172  -0.003305   0.004051  -0.000405   0.000003   0.000006
    13  H    0.532370   0.000976  -0.006031   0.003095  -0.000019   0.000005
    14  H    0.000976   0.523685  -0.024170  -0.000123  -0.000001   0.000005
    15  H   -0.006031  -0.024170   0.513919   0.000094   0.000019   0.000031
    16  H    0.003095  -0.000123   0.000094   0.559658  -0.004420  -0.000141
    17  H   -0.000019  -0.000001   0.000019  -0.004420   0.554490  -0.003281
    18  H    0.000005   0.000005   0.000031  -0.000141  -0.003281   0.565702
    19  O    0.000701   0.000141   0.001868   0.000631  -0.002033  -0.037319
    20  H   -0.000011   0.000027  -0.000406  -0.000097   0.000039  -0.005135
    21  O   -0.000051  -0.000009   0.000024   0.009031  -0.032564  -0.015736
    22  H    0.000000   0.000000   0.000000  -0.000216  -0.007070   0.004275
    23  C   -0.016883   0.000157   0.000197  -0.007671  -0.036589   0.012891
    24  H   -0.000018   0.000000   0.000000  -0.002367   0.000994  -0.000002
    25  H    0.000083   0.000000   0.000001   0.004352   0.000012   0.000000
    26  O    0.004426   0.000035  -0.000176  -0.001193  -0.001003   0.000047
    27  H    0.000120  -0.000005   0.000001  -0.000005   0.000005   0.000000
             19         20         21         22         23         24
     1  C    0.023627   0.005312   0.040439  -0.002364  -0.018415   0.000395
     2  C   -0.132784  -0.071733  -0.073686  -0.009373   0.267747   0.011231
     3  N    0.037180   0.000292   0.047908  -0.005787   0.091314   0.009355
     4  C   -0.040147  -0.002847   0.002748   0.000144  -0.006119  -0.004357
     5  C    0.023687   0.003996   0.003556  -0.000733  -0.038076   0.001315
     6  C   -0.019505  -0.006555  -0.247238   0.040645  -1.164596  -0.133238
     7  C    0.012668  -0.006173   0.237503   0.045761   0.422564   0.027490
     8  C    0.096108   0.095266   0.034020  -0.058225  -0.491334  -0.006647
     9  H    0.000285  -0.000052   0.000105   0.000000  -0.000180   0.000000
    10  H   -0.007009   0.005864   0.000019   0.000000  -0.001046   0.000000
    11  H    0.010055   0.000197   0.002123   0.000205   0.000571  -0.000008
    12  H    0.000314   0.000000   0.000079   0.000000  -0.000268  -0.000005
    13  H    0.000701  -0.000011  -0.000051   0.000000  -0.016883  -0.000018
    14  H    0.000141   0.000027  -0.000009   0.000000   0.000157   0.000000
    15  H    0.001868  -0.000406   0.000024   0.000000   0.000197   0.000000
    16  H    0.000631  -0.000097   0.009031  -0.000216  -0.007671  -0.002367
    17  H   -0.002033   0.000039  -0.032564  -0.007070  -0.036589   0.000994
    18  H   -0.037319  -0.005135  -0.015736   0.004275   0.012891  -0.000002
    19  O    8.307838   0.231861   0.007067   0.000345   0.036001  -0.000147
    20  H    0.231861   0.378951  -0.000194  -0.000025  -0.006300   0.000000
    21  O    0.007067  -0.000194   8.305534   0.227012   0.000197  -0.000282
    22  H    0.000345  -0.000025   0.227012   0.373236   0.005995  -0.000101
    23  C    0.036001  -0.006300   0.000197   0.005995   6.061069   0.471721
    24  H   -0.000147   0.000000  -0.000282  -0.000101   0.471721   0.548378
    25  H    0.000116   0.000000   0.004819   0.000038   0.476213  -0.032131
    26  O    0.000393  -0.000017  -0.001633   0.000080   0.212240  -0.061690
    27  H   -0.000042   0.000000   0.000025  -0.000001   0.026570   0.006796
             25         26         27
     1  C    0.001870  -0.001355  -0.001008
     2  C    0.005092   0.037389   0.010406
     3  N    0.011528   0.023676   0.017886
     4  C    0.010189  -0.013719  -0.004719
     5  C   -0.002087  -0.002035   0.006967
     6  C   -0.151997  -0.175756  -0.070063
     7  C    0.023695   0.088228   0.009462
     8  C   -0.019713  -0.056871  -0.002328
     9  H    0.000000  -0.000019   0.000000
    10  H    0.000000   0.000000   0.000000
    11  H   -0.000018   0.000023  -0.000012
    12  H    0.000015  -0.000613  -0.000496
    13  H    0.000083   0.004426   0.000120
    14  H    0.000000   0.000035  -0.000005
    15  H    0.000001  -0.000176   0.000001
    16  H    0.004352  -0.001193  -0.000005
    17  H    0.000012  -0.001003   0.000005
    18  H    0.000000   0.000047   0.000000
    19  O    0.000116   0.000393  -0.000042
    20  H    0.000000  -0.000017   0.000000
    21  O    0.004819  -0.001633   0.000025
    22  H    0.000038   0.000080  -0.000001
    23  C    0.476213   0.212240   0.026570
    24  H   -0.032131  -0.061690   0.006796
    25  H    0.548261  -0.044059  -0.007299
    26  O   -0.044059   8.279944   0.259153
    27  H   -0.007299   0.259153   0.373331
 Mulliken atomic charges:
              1
     1  C   -0.466600
     2  C    0.023131
     3  N   -0.171060
     4  C   -0.218308
     5  C   -0.304061
     6  C    0.112571
     7  C   -0.245562
     8  C    0.034584
     9  H    0.183270
    10  H    0.160024
    11  H    0.165095
    12  H    0.163976
    13  H    0.164022
    14  H    0.170235
    15  H    0.179542
    16  H    0.179141
    17  H    0.176372
    18  H    0.166312
    19  O   -0.551900
    20  H    0.377740
    21  O   -0.550817
    22  H    0.386161
    23  C   -0.297969
    24  H    0.163318
    25  H    0.171020
    26  O   -0.545492
    27  H    0.375255
 Sum of Mulliken atomic charges =   0.00000
 Mulliken charges with hydrogens summed into heavy atoms:
              1
     1  C   -0.123307
     2  C    0.188226
     3  N   -0.171060
     4  C    0.109690
     5  C    0.045716
     6  C    0.291712
     7  C   -0.069190
     8  C    0.200896
    19  O   -0.174160
    21  O   -0.164656
    23  C    0.036369
    26  O   -0.170236
 Sum of Mulliken charges with hydrogens summed into heavy atoms =   0.00000
 Electronic spatial extent (au):  <R**2>=           1978.6858
 Charge=              0.0000 electrons
 Dipole moment (field-independent basis, Debye):
    X=              4.8677    Y=              2.0036    Z=             -0.8159  Tot=              5.3267
 Quadrupole moment (field-independent basis, Debye-Ang):
   XX=            -74.8383   YY=            -63.5288   ZZ=            -78.6805
   XY=             -2.9679   XZ=              0.0285   YZ=              1.2901
 Traceless Quadrupole moment (field-independent basis, Debye-Ang):
   XX=             -2.4891   YY=              8.8204   ZZ=             -6.3313
   XY=             -2.9679   XZ=              0.0285   YZ=              1.2901
 Octapole moment (field-independent basis, Debye-Ang**2):
  XXX=             50.0285  YYY=             30.7486  ZZZ=             -1.6727  XYY=              3.6836
  XXY=             22.8762  XXZ=             -1.7057  XZZ=              0.5977  YZZ=             -0.8263
  YYZ=            -14.2672  XYZ=            -11.7742
 Hexadecapole moment (field-independent basis, Debye-Ang**3):
 XXXX=          -1357.6294 YYYY=           -781.3355 ZZZZ=           -322.1529 XXXY=            -24.0073
 XXXZ=             54.0879 YYYX=             -7.5881 YYYZ=            -17.2678 ZZZX=             -0.7777
 ZZZY=             -7.9574 XXYY=           -388.1386 XXZZ=           -264.0641 YYZZ=           -212.2475
 XXYZ=             39.9664 YYXZ=             13.6000 ZZXY=             -3.2827
 N-N= 8.123499687864D+02 E-N=-3.010875779183D+03  KE= 5.886574067787D+02
 1\1\GINC-COMPUTE-3-2\SP\RmPW1PW91\6-31+G(d,p)\C8H15N1O3\MAMICHETTI.IQU
 IR\17-May-2024\0\\# mpw1pw91/6-31+G** nmr scrf=(pcm,solvent=water)\\co
 mment\\0,1\C,0,2.377155,-0.571461,-0.615766\C,0,1.111237,0.279464,-0.8
 39315\N,0,-0.057096,-0.632318,-0.598401\C,0,0.474205,-1.944179,-0.1594
 76\C,0,1.909089,-1.693957,0.323808\C,0,-0.973588,0.031261,0.357987\C,0
 ,-0.619196,1.519821,0.265119\C,0,0.905879,1.485792,0.10356\H,0,2.70737
 2,-0.994025,-1.571526\H,0,3.214467,0.010628,-0.214695\H,0,1.081794,0.6
 6056,-1.866851\H,0,0.482996,-2.643112,-1.0072\H,0,-0.173417,-2.377213,
 0.608134\H,0,2.537306,-2.589245,0.270076\H,0,1.904181,-1.341782,1.3607
 31\H,0,-0.757107,-0.283032,1.391508\H,0,-0.919637,2.066206,1.167234\H,
 0,1.285496,2.416531,-0.338753\O,0,1.451397,1.307793,1.415483\H,0,2.416
 582,1.243713,1.327119\O,0,-1.238765,2.084764,-0.895281\H,0,-0.979824,3
 .021028,-0.927593\C,0,-2.449287,-0.270231,0.098417\H,0,-3.066063,0.339
 232,0.767873\H,0,-2.716874,-0.020631,-0.934701\O,0,-2.79523,-1.632432,
 0.385288\H,0,-2.369783,-2.182692,-0.292466\\Version=AM64L-G09RevC.01\S
 tate=1-A\HF=-594.194648\RMSD=3.689e-09\Dipole=1.9150824,0.7882708,-0.3
 209981\Quadrupole=-1.8505713,6.5577301,-4.7071588,-2.2065311,0.0211629
 ,0.9591315\PG=C01 [X(C8H15N1O3)]\\@


 QUHEN THE CAUSS IS TAKEN AWAY THE EFFECT WANISHETH.
 -- PROVERBS AND REASONS OF THE YEAR 1585
           AS REPRINTED IN PAISLEY MAGAZINE 1828.
 Job cpu time:  0 days  0 hours  9 minutes  6.0 seconds.
 File lengths (MBytes):  RWF=    112 Int=      0 D2E=      0 Chk=      7 Scr=      1
 Normal termination of Gaussian 09 at Fri May 17 12:29:18 2024.
