 Entering Gaussian System, Link 0=g09
 Input=/home/mamichetti.iquir/Linux/03_Cardona_A1A3_R__S_S_R_044_OptB.gjc
 Output=/home/mamichetti.iquir/Linux/03_Cardona_A1A3_R__S_S_R_044_OptB.log
 Initial command:
 /opt/ohpc/pub/apps/software/Gaussian/09/AMD64.SSE4a-enabled/g09/l1.exe /local/mamichetti.iquir/Gau-123468.inp -scrdir=/local/mamichetti.iquir/
 Entering Link 1 = /opt/ohpc/pub/apps/software/Gaussian/09/AMD64.SSE4a-enabled/g09/l1.exe PID=    123469.
  
 Copyright (c) 1988,1990,1992,1993,1995,1998,2003,2009,2011,
            Gaussian, Inc.  All Rights Reserved.
  
 This is part of the Gaussian(R) 09 program.  It is based on
 the Gaussian(R) 03 system (copyright 2003, Gaussian, Inc.),
 the Gaussian(R) 98 system (copyright 1998, Gaussian, Inc.),
 the Gaussian(R) 94 system (copyright 1995, Gaussian, Inc.),
 the Gaussian 92(TM) system (copyright 1992, Gaussian, Inc.),
 the Gaussian 90(TM) system (copyright 1990, Gaussian, Inc.),
 the Gaussian 88(TM) system (copyright 1988, Gaussian, Inc.),
 the Gaussian 86(TM) system (copyright 1986, Carnegie Mellon
 University), and the Gaussian 82(TM) system (copyright 1983,
 Carnegie Mellon University). Gaussian is a federally registered
 trademark of Gaussian, Inc.
  
 This software contains proprietary and confidential information,
 including trade secrets, belonging to Gaussian, Inc.
  
 This software is provided under written license and may be
 used, copied, transmitted, or stored only in accord with that
 written license.
  
 The following legend is applicable only to US Government
 contracts under FAR:
  
                    RESTRICTED RIGHTS LEGEND
  
 Use, reproduction and disclosure by the US Government is
 subject to restrictions as set forth in subparagraphs (a)
 and (c) of the Commercial Computer Software - Restricted
 Rights clause in FAR 52.227-19.
  
 Gaussian, Inc.
 340 Quinnipiac St., Bldg. 40, Wallingford CT 06492
  
  
 ---------------------------------------------------------------
 Warning -- This program may not be used in any manner that
 competes with the business of Gaussian, Inc. or will provide
 assistance to any competitor of Gaussian, Inc.  The licensee
 of this program is prohibited from giving any competitor of
 Gaussian, Inc. access to this program.  By using this program,
 the user acknowledges that Gaussian, Inc. is engaged in the
 business of creating and licensing software in the field of
 computational chemistry and represents and warrants to the
 licensee that it is not a competitor of Gaussian, Inc. and that
 it will not use this program in any manner prohibited above.
 ---------------------------------------------------------------
  

 Cite this work as:
 Gaussian 09, Revision C.01,
 M. J. Frisch, G. W. Trucks, H. B. Schlegel, G. E. Scuseria, 
 M. A. Robb, J. R. Cheeseman, G. Scalmani, V. Barone, B. Mennucci, 
 G. A. Petersson, H. Nakatsuji, M. Caricato, X. Li, H. P. Hratchian, 
 A. F. Izmaylov, J. Bloino, G. Zheng, J. L. Sonnenberg, M. Hada, 
 M. Ehara, K. Toyota, R. Fukuda, J. Hasegawa, M. Ishida, T. Nakajima, 
 Y. Honda, O. Kitao, H. Nakai, T. Vreven, J. A. Montgomery, Jr., 
 J. E. Peralta, F. Ogliaro, M. Bearpark, J. J. Heyd, E. Brothers, 
 K. N. Kudin, V. N. Staroverov, T. Keith, R. Kobayashi, J. Normand, 
 K. Raghavachari, A. Rendell, J. C. Burant, S. S. Iyengar, J. Tomasi, 
 M. Cossi, N. Rega, J. M. Millam, M. Klene, J. E. Knox, J. B. Cross, 
 V. Bakken, C. Adamo, J. Jaramillo, R. Gomperts, R. E. Stratmann, 
 O. Yazyev, A. J. Austin, R. Cammi, C. Pomelli, J. W. Ochterski, 
 R. L. Martin, K. Morokuma, V. G. Zakrzewski, G. A. Voth, 
 P. Salvador, J. J. Dannenberg, S. Dapprich, A. D. Daniels, 
 O. Farkas, J. B. Foresman, J. V. Ortiz, J. Cioslowski, 
 and D. J. Fox, Gaussian, Inc., Wallingford CT, 2010.
 
 ******************************************
 Gaussian 09:  AM64L-G09RevC.01 23-Sep-2011
                17-May-2024 
 ******************************************
 %nprocshared=4
 Will use up to    4 processors via shared memory.
 ------------------------------------------------
 # mpw1pw91/6-31+G** nmr scrf=(pcm,solvent=water)
 ------------------------------------------------
 1/38=1/1;
 2/12=2,17=6,18=5,40=1/2;
 3/5=1,6=6,7=111,11=2,16=1,25=1,30=1,70=2201,72=1,74=-7/1,2,8,3;
 4//1;
 5/5=2,38=5,53=1/2;
 8/6=1,10=90,11=11/1;
 10/13=100,45=16/2;
 6/7=2,8=2,9=2,10=2,28=1/1;
 99/9=1/99;
 -------
 comment
 -------
 Charge =  0 Multiplicity = 1
 Symbolic Z-Matrix:
 6                    -2.45979   0.31031  -0.46355 
 6                    -1.09237  -0.35081  -0.71635 
 7                    -0.05711   0.67933  -0.36621 
 6                    -0.74518   1.77603   0.33739 
 6                    -2.12671   1.80708  -0.31493 
 6                     1.03155   0.01571   0.38477 
 6                     0.80871  -1.49261   0.17823 
 6                    -0.72269  -1.60126   0.10935 
 1                    -3.17126   0.10762  -1.26909 
 1                    -2.90093  -0.05693   0.46934 
 1                    -0.98508  -0.62036  -1.77432 
 1                    -0.20189   2.72151   0.22892 
 1                    -0.83712   1.57154   1.41878 
 1                    -2.06612   2.28651  -1.29918 
 1                    -2.86265   2.3532    0.2835 
 1                     0.91832   0.21306   1.46267 
 1                     1.21764  -2.07974   1.00926 
 1                    -1.03919  -2.53202  -0.37939 
 8                    -1.19522  -1.56004   1.45937 
 1                    -2.15491  -1.70731   1.4376 
 8                     1.40201  -1.8989   -1.05946 
 1                     1.22206  -2.84845  -1.16225 
 6                     2.42133   0.50356  -0.01723 
 1                     3.1837   -0.07142   0.51944 
 1                     2.58036   0.36405  -1.0927 
 8                     2.63722   1.87487   0.34359 
 1                     2.05573   2.40788  -0.22309 
 
                          Input orientation:                          
 ---------------------------------------------------------------------
 Center     Atomic      Atomic             Coordinates (Angstroms)
 Number     Number       Type             X           Y           Z
 ---------------------------------------------------------------------
      1          6           0       -2.459787    0.310309   -0.463548
      2          6           0       -1.092368   -0.350806   -0.716353
      3          7           0       -0.057110    0.679328   -0.366211
      4          6           0       -0.745184    1.776032    0.337390
      5          6           0       -2.126712    1.807084   -0.314932
      6          6           0        1.031549    0.015711    0.384766
      7          6           0        0.808712   -1.492614    0.178231
      8          6           0       -0.722692   -1.601263    0.109354
      9          1           0       -3.171261    0.107615   -1.269094
     10          1           0       -2.900926   -0.056932    0.469339
     11          1           0       -0.985077   -0.620363   -1.774317
     12          1           0       -0.201892    2.721508    0.228922
     13          1           0       -0.837124    1.571543    1.418782
     14          1           0       -2.066120    2.286511   -1.299184
     15          1           0       -2.862647    2.353204    0.283503
     16          1           0        0.918315    0.213063    1.462674
     17          1           0        1.217635   -2.079743    1.009260
     18          1           0       -1.039191   -2.532018   -0.379390
     19          8           0       -1.195222   -1.560037    1.459365
     20          1           0       -2.154907   -1.707311    1.437600
     21          8           0        1.402010   -1.898901   -1.059460
     22          1           0        1.222057   -2.848447   -1.162253
     23          6           0        2.421325    0.503559   -0.017234
     24          1           0        3.183701   -0.071417    0.519443
     25          1           0        2.580358    0.364050   -1.092696
     26          8           0        2.637219    1.874873    0.343588
     27          1           0        2.055735    2.407881   -0.223094
 ---------------------------------------------------------------------
                    Distance matrix (angstroms):
                    1          2          3          4          5
     1  C    0.000000
     2  C    1.539746   0.000000
     3  N    2.432798   1.501844   0.000000
     4  C    2.393681   2.398823   1.473520   0.000000
     5  C    1.540572   2.426416   2.357481   1.528106   0.000000
     6  C    3.604976   2.420294   1.479707   2.501550   3.697730
     7  C    3.787545   2.391257   2.400708   3.622702   4.443864
     8  C    2.645718   1.543404   2.422861   3.385060   3.710542
     9  H    1.093702   2.199425   3.292414   3.354140   2.211267
    10  H    1.095330   2.182455   3.054098   2.832736   2.165420
    11  H    2.181521   1.097023   2.129104   3.203055   3.053790
    12  H    3.375127   3.335507   2.132052   1.095836   2.199291
    13  H    2.786918   2.884333   2.142585   1.104390   2.173541
    14  H    2.181430   2.871119   2.736713   2.164217   1.096482
    15  H    2.212194   3.383086   3.330920   2.195377   1.094519
    16  H    3.889905   3.018104   2.124542   2.544870   3.869493
    17  H    4.626548   3.362005   3.336071   4.378478   5.295806
    18  H    3.178679   2.207727   3.358184   4.377158   4.473775
    19  O    2.965622   2.491298   3.105283   3.548340   3.918330
    20  H    2.788926   2.758371   3.653838   3.915541   3.927230
    21  O    4.488786   2.955713   3.042514   4.479594   5.171124
    22  H    4.901214   3.434181   3.836033   5.244499   5.797083
    23  C    4.905282   3.683035   2.509048   3.430995   4.740511
    24  H    5.741162   4.459822   3.442507   4.345382   5.694333
    25  H    5.079545   3.760528   2.753801   3.885623   4.984353
    26  O    5.392476   4.470676   3.031922   3.383853   4.809707
    27  H    4.984733   4.214761   2.733586   2.925495   4.226376
                    6          7          8          9         10
     6  C    0.000000
     7  C    1.538622   0.000000
     8  C    2.401628   1.536798   0.000000
     9  H    4.517445   4.527214   3.288749   0.000000
    10  H    3.934055   3.988401   2.694300   1.767005   0.000000
    11  H    3.022087   2.791226   2.139913   2.358941   3.003652
    12  H    2.977751   4.333903   4.355672   4.230088   3.881020
    13  H    2.642298   3.692804   3.434297   3.849150   2.795112
    14  H    4.193778   4.972846   4.347823   2.443324   3.052261
    15  H    4.543005   5.317920   4.499727   2.747448   2.417593
    16  H    1.101660   2.138023   2.795739   4.919178   3.955529
    17  H    2.194436   1.096607   2.191721   5.407203   4.620154
    18  H    3.370878   2.192270   1.097883   3.507842   3.211300
    19  O    2.931937   2.379412   1.430914   3.759027   2.479698
    20  H    3.772369   3.227250   1.956201   3.413667   2.053734
    21  O    2.426679   1.431416   2.443169   4.998486   4.923955
    22  H    3.260822   1.950906   2.637139   5.296316   5.239622
    23  C    1.526786   2.573603   3.785650   5.744645   5.373757
    24  H    2.158121   2.788691   4.215271   6.604276   6.084851
    25  H    2.168650   2.863771   4.027098   5.760034   5.715037
    26  O    2.456899   3.835459   4.840185   6.281909   5.866748
    27  H    2.672251   4.114607   4.889112   5.805758   5.578822
                   11         12         13         14         15
    11  H    0.000000
    12  H    3.974223   0.000000
    13  H    3.875851   1.772486   0.000000
    14  H    3.137566   2.449424   3.067401   0.000000
    15  H    4.074554   2.686679   2.450020   1.773077   0.000000
    16  H    3.846506   3.011529   2.220126   4.564417   4.501813
    17  H    3.837972   5.067149   4.209707   5.930947   6.068480
    18  H    2.367103   5.354498   4.484804   5.011869   5.256407
    19  O    3.373996   4.564244   3.152249   4.812898   4.413209
    20  H    3.586972   4.988949   3.533807   4.842363   4.280259
    21  O    2.800690   5.057728   4.816574   5.440870   6.170190
    22  H    3.195375   5.915015   5.517090   6.099070   6.769948
    23  C    3.994260   3.444003   3.717556   4.995946   5.606424
    24  H    4.789717   4.398531   4.435669   6.035549   6.518649
    25  H    3.761117   3.878814   4.409620   5.032718   5.956254
    26  O    4.881880   2.964876   3.649536   4.998954   5.520954
    27  H    4.563233   2.323695   3.429847   4.261735   4.944705
                   16         17         18         19         20
    16  H    0.000000
    17  H    2.356297   0.000000
    18  H    3.841940   2.688153   0.000000
    19  O    2.758792   2.508898   2.085692   0.000000
    20  H    3.623970   3.419974   2.286136   0.971164   0.000000
    21  O    3.324983   2.084778   2.612048   3.633858   4.350135
    22  H    4.044174   2.303561   2.413761   3.791585   4.411951
    23  C    2.129215   3.029193   4.617473   4.417939   5.286434
    24  H    2.470342   2.852842   4.969434   4.719577   5.658613
    25  H    3.052065   3.499622   4.690112   4.946729   5.754622
    26  O    2.639810   4.254095   5.784408   5.266039   6.082218
    27  H    2.992117   4.728623   5.831432   5.398496   6.117370
                   21         22         23         24         25
    21  O    0.000000
    22  H    0.971899   0.000000
    23  C    2.810169   3.739687   0.000000
    24  H    3.001176   3.793158   1.095371   0.000000
    25  H    2.551579   3.488547   1.096072   1.775569   0.000000
    26  O    4.211372   5.155579   1.434331   2.029190   2.085361
    27  H    4.435678   5.404260   1.949994   2.823223   2.282254
                   26         27
    26  O    0.000000
    27  H    0.971262   0.000000
 Stoichiometry    C8H15NO3
 Framework group  C1[X(C8H15NO3)]
 Deg. of freedom    75
 Full point group                 C1      NOp   1
 Largest Abelian subgroup         C1      NOp   1
 Largest concise Abelian subgroup C1      NOp   1
                         Standard orientation:                         
 ---------------------------------------------------------------------
 Center     Atomic      Atomic             Coordinates (Angstroms)
 Number     Number       Type             X           Y           Z
 ---------------------------------------------------------------------
      1          6           0       -2.459787    0.310309   -0.463548
      2          6           0       -1.092368   -0.350806   -0.716353
      3          7           0       -0.057110    0.679328   -0.366211
      4          6           0       -0.745184    1.776032    0.337390
      5          6           0       -2.126712    1.807084   -0.314932
      6          6           0        1.031549    0.015711    0.384766
      7          6           0        0.808712   -1.492614    0.178231
      8          6           0       -0.722692   -1.601263    0.109354
      9          1           0       -3.171261    0.107615   -1.269094
     10          1           0       -2.900926   -0.056932    0.469339
     11          1           0       -0.985077   -0.620363   -1.774317
     12          1           0       -0.201892    2.721508    0.228922
     13          1           0       -0.837124    1.571543    1.418782
     14          1           0       -2.066120    2.286511   -1.299184
     15          1           0       -2.862647    2.353204    0.283503
     16          1           0        0.918315    0.213063    1.462674
     17          1           0        1.217635   -2.079743    1.009260
     18          1           0       -1.039191   -2.532018   -0.379390
     19          8           0       -1.195222   -1.560037    1.459365
     20          1           0       -2.154907   -1.707311    1.437600
     21          8           0        1.402010   -1.898901   -1.059460
     22          1           0        1.222057   -2.848447   -1.162253
     23          6           0        2.421325    0.503559   -0.017234
     24          1           0        3.183701   -0.071417    0.519443
     25          1           0        2.580358    0.364050   -1.092696
     26          8           0        2.637219    1.874873    0.343588
     27          1           0        2.055735    2.407881   -0.223094
 ---------------------------------------------------------------------
 Rotational constants (GHZ):      1.1622041      0.9005935      0.6141395
 Standard basis: 6-31+G(d,p) (6D, 7F)
 There are   303 symmetry adapted basis functions of A   symmetry.
 Integral buffers will be    131072 words long.
 Raffenetti 2 integral format.
 Two-electron integral symmetry is turned on.
   303 basis functions,   489 primitive gaussians,   303 cartesian basis functions
    47 alpha electrons       47 beta electrons
       nuclear repulsion energy       808.7353588591 Hartrees.
 NAtoms=   27 NActive=   27 NUniq=   27 SFac= 1.00D+00 NAtFMM=   60 NAOKFM=F Big=F
 ------------------------------------------------------------------------------
 Polarizable Continuum Model (PCM)
 =================================
 Model                : PCM.
 Atomic radii         : UFF (Universal Force Field).
 Polarization charges : Total charges.
 Charge compensation  : None.
 Solution method      : Matrix inversion.
 Cavity type          : Scaled VdW (van der Waals Surface) (Alpha=1.100).
 Cavity algorithm     : GePol (No added spheres)
                        Default sphere list used, NSphG=   27.
                        Lebedev-Laikov grids with approx.  5.0 points / Ang**2.
                        Smoothing algorithm: Karplus/York (Gamma=1.0000).
                        Polarization charges: spherical gaussians, with
                                              point-specific exponents (IZeta= 3).
                        Self-potential: point-specific (ISelfS= 7).
                        Self-field    : sphere-specific E.n sum rule (ISelfD= 2).
 Solvent              : Water, Eps=  78.355300 Eps(inf)=   1.777849
 ------------------------------------------------------------------------------
 One-electron integrals computed using PRISM.
 NBasis=   303 RedAO= T  NBF=   303
 NBsUse=   303 1.00D-06 NBFU=   303
 Harris functional with IExCor=  908 diagonalized for initial guess.
 ExpMin= 4.38D-02 ExpMax= 5.48D+03 ExpMxC= 8.25D+02 IAcc=2 IRadAn=         4 AccDes= 0.00D+00
 HarFok:  IExCor=  908 AccDes= 0.00D+00 IRadAn=         4 IDoV= 1
 ScaDFX=  1.000000  1.000000  1.000000  1.000000
 FoFCou: FMM=F IPFlag=           0 FMFlag=      100000 FMFlg1=           0
         NFxFlg=           0 DoJE=T BraDBF=F KetDBF=T FulRan=T
         Omega=  0.000000  0.000000  1.000000  0.000000  0.000000 ICntrl=     500 IOpCl=  0
         NMat0=    1 NMatS0=    1 NMatT0=    0 NMatD0=    1 NMtDS0=    0 NMtDT0=    0
         I1Cent=           4 NGrid=           0.
 Petite list used in FoFCou.
 Initial guess orbital symmetries:
       Occupied  (A) (A) (A) (A) (A) (A) (A) (A) (A) (A) (A) (A)
                 (A) (A) (A) (A) (A) (A) (A) (A) (A) (A) (A) (A)
                 (A) (A) (A) (A) (A) (A) (A) (A) (A) (A) (A) (A)
                 (A) (A) (A) (A) (A) (A) (A) (A) (A) (A) (A)
       Virtual   (A) (A) (A) (A) (A) (A) (A) (A) (A) (A) (A) (A)
                 (A) (A) (A) (A) (A) (A) (A) (A) (A) (A) (A) (A)
                 (A) (A) (A) (A) (A) (A) (A) (A) (A) (A) (A) (A)
                 (A) (A) (A) (A) (A) (A) (A) (A) (A) (A) (A) (A)
                 (A) (A) (A) (A) (A) (A) (A) (A) (A) (A) (A) (A)
                 (A) (A) (A) (A) (A) (A) (A) (A) (A) (A) (A) (A)
                 (A) (A) (A) (A) (A) (A) (A) (A) (A) (A) (A) (A)
                 (A) (A) (A) (A) (A) (A) (A) (A) (A) (A) (A) (A)
                 (A) (A) (A) (A) (A) (A) (A) (A) (A) (A) (A) (A)
                 (A) (A) (A) (A) (A) (A) (A) (A) (A) (A) (A) (A)
                 (A) (A) (A) (A) (A) (A) (A) (A) (A) (A) (A) (A)
                 (A) (A) (A) (A) (A) (A) (A) (A) (A) (A) (A) (A)
                 (A) (A) (A) (A) (A) (A) (A) (A) (A) (A) (A) (A)
                 (A) (A) (A) (A) (A) (A) (A) (A) (A) (A) (A) (A)
                 (A) (A) (A) (A) (A) (A) (A) (A) (A) (A) (A) (A)
                 (A) (A) (A) (A) (A) (A) (A) (A) (A) (A) (A) (A)
                 (A) (A) (A) (A) (A) (A) (A) (A) (A) (A) (A) (A)
                 (A) (A) (A) (A) (A) (A) (A) (A) (A) (A) (A) (A)
                 (A) (A) (A) (A) (A) (A) (A) (A) (A) (A) (A) (A)
                 (A) (A) (A) (A) (A) (A) (A) (A) (A) (A) (A) (A)
                 (A) (A) (A) (A) (A) (A) (A) (A) (A) (A) (A) (A)
                 (A) (A) (A) (A)
 The electronic state of the initial guess is 1-A.
 Requested convergence on RMS density matrix=1.00D-08 within 128 cycles.
 Requested convergence on MAX density matrix=1.00D-06.
 Requested convergence on             energy=1.00D-06.
 No special actions if energy rises.
 Error on total polarization charges =  0.01427
 SCF Done:  E(RmPW1PW91) =  -594.195693513     A.U. after   13 cycles
             Convg  =    0.5575D-08             -V/T =  2.0094
 Range of M.O.s used for correlation:     1   303
 NBasis=   303 NAE=    47 NBE=    47 NFC=     0 NFV=     0
 NROrb=    303 NOA=    47 NOB=    47 NVA=   256 NVB=   256

 **** Warning!!: The largest alpha MO coefficient is  0.72211093D+02

 NEqPCM:  Using equilibrium solvation (IEInf=0, Eps=  78.3553, EpsInf=   1.7778)
          Differentiating once with respect to magnetic field using GIAOs.
          Electric field/nuclear overlap derivatives assumed to be zero.
 FoFCou: FMM=F IPFlag=           0 FMFlag=    10101102 FMFlg1=           0
         NFxFlg=    40000000 DoJE=F BraDBF=F KetDBF=T FulRan=T
         Omega=  0.000000  0.000000  1.000000  0.000000  0.000000 ICntrl=    6100 IOpCl=  0
         NMat0=    1 NMatS0=    1 NMatT0=    0 NMatD0=    1 NMtDS0=    0 NMtDT0=    0
         I1Cent=           7 NGrid=        1827.
 Symmetry not used in FoFCou.
          There are     3 degrees of freedom in the 1st order CPHF.  IDoFFX=0.
      3 vectors produced by pass  0 Test12= 4.01D-13 3.33D-08 XBig12= 4.40D+01 1.45D+00.
 AX will form     3 AO Fock derivatives at one time.
      3 vectors produced by pass  1 Test12= 4.01D-13 3.33D-08 XBig12= 1.03D-01 4.62D-02.
      3 vectors produced by pass  2 Test12= 4.01D-13 3.33D-08 XBig12= 2.61D-04 3.17D-03.
      3 vectors produced by pass  3 Test12= 4.01D-13 3.33D-08 XBig12= 1.43D-06 2.71D-04.
      3 vectors produced by pass  4 Test12= 4.01D-13 3.33D-08 XBig12= 3.94D-09 1.05D-05.
      3 vectors produced by pass  5 Test12= 4.01D-13 3.33D-08 XBig12= 1.23D-11 7.47D-07.
 Inverted reduced A of dimension    18 with in-core refinement.
 Calculating GIAO nuclear magnetic shielding tensors.
 SCF GIAO Magnetic shielding tensor (ppm):
      1  C    Isotropic =   171.8348   Anisotropy =    19.9645
   XX=   179.6727   YX=    -3.8037   ZX=     3.4818
   XY=     4.6147   YY=   183.3738   ZY=    10.4815
   XZ=     1.7760   YZ=     3.9204   ZZ=   152.4579
   Eigenvalues:   150.6510   179.7089   185.1445
      2  C    Isotropic =   125.2702   Anisotropy =    58.6747
   XX=   142.9177   YX=    17.4643   ZX=    10.0080
   XY=    20.4425   YY=   146.6377   ZY=     1.8241
   XZ=    12.3416   YZ=    -4.4089   ZZ=    86.2553
   Eigenvalues:    83.7282   127.6959   164.3867
      3  N    Isotropic =   185.9691   Anisotropy =    94.2327
   XX=   232.5289   YX=   -10.2990   ZX=    35.9534
   XY=   -16.3621   YY=   195.2787   ZY=     6.1637
   XZ=    47.0617   YZ=    15.2912   ZZ=   130.0997
   Eigenvalues:   112.8010   196.3154   248.7909
      4  C    Isotropic =   135.9213   Anisotropy =    55.8563
   XX=   138.0357   YX=   -21.7317   ZX=    -6.4011
   XY=   -30.1521   YY=   144.8600   ZY=    13.7683
   XZ=    -1.0062   YZ=    22.6043   ZZ=   124.8683
   Eigenvalues:   108.3173   126.2878   173.1589
      5  C    Isotropic =   163.1780   Anisotropy =    27.5450
   XX=   177.4999   YX=    -2.4327   ZX=     9.2200
   XY=    -2.2554   YY=   174.9552   ZY=    12.4094
   XZ=    17.5702   YZ=     4.2885   ZZ=   137.0788
   Eigenvalues:   131.3200   176.6726   181.5413
      6  C    Isotropic =   124.7722   Anisotropy =    35.5442
   XX=   136.1455   YX=    -8.5626   ZX=     9.3390
   XY=   -16.3374   YY=   125.5140   ZY=   -11.6506
   XZ=    10.6395   YZ=    -2.0792   ZZ=   112.6570
   Eigenvalues:   108.5508   117.2974   148.4683
      7  C    Isotropic =   111.7872   Anisotropy =    28.6138
   XX=   123.9121   YX=    -6.3008   ZX=    -8.9777
   XY=     1.4978   YY=   105.6760   ZY=     1.3957
   XZ=   -13.8052   YZ=    15.7439   ZZ=   105.7735
   Eigenvalues:    95.4432   109.0553   130.8630
      8  C    Isotropic =   115.9361   Anisotropy =    32.4478
   XX=   116.5242   YX=    -1.3149   ZX=   -18.5561
   XY=    -8.0508   YY=   108.1544   ZY=     8.1146
   XZ=   -15.4528   YZ=    -6.7834   ZZ=   123.1296
   Eigenvalues:   101.0100   109.2303   137.5679
      9  H    Isotropic =    29.8734   Anisotropy =    11.7641
   XX=    32.8845   YX=     0.8959   ZX=     5.9179
   XY=     2.0581   YY=    27.2170   ZY=     2.2603
   XZ=     5.6638   YZ=     1.3069   ZZ=    29.5188
   Eigenvalues:    25.0089    26.8952    37.7162
     10  H    Isotropic =    30.0665   Anisotropy =     7.5342
   XX=    31.7508   YX=     0.3247   ZX=    -3.2861
   XY=     0.2966   YY=    29.6107   ZY=    -3.7608
   XZ=    -3.5878   YZ=    -3.2900   ZZ=    28.8382
   Eigenvalues:    24.7816    30.3286    35.0894
     11  H    Isotropic =    27.5201   Anisotropy =     7.5079
   XX=    26.2554   YX=     0.0236   ZX=     1.3435
   XY=    -0.4266   YY=    25.4494   ZY=     3.6804
   XZ=     1.5507   YZ=     2.5587   ZZ=    30.8556
   Eigenvalues:    23.7592    26.2758    32.5254
     12  H    Isotropic =    28.4735   Anisotropy =     8.6260
   XX=    28.6261   YX=     0.8149   ZX=     0.1627
   XY=     1.9248   YY=    33.6753   ZY=     1.1181
   XZ=     0.0387   YZ=     1.9129   ZZ=    23.1190
   Eigenvalues:    22.9043    28.2921    34.2242
     13  H    Isotropic =    29.0336   Anisotropy =     7.5462
   XX=    27.1309   YX=    -1.1252   ZX=    -1.4315
   XY=    -1.1691   YY=    27.9700   ZY=     3.5511
   XZ=    -0.1647   YZ=     3.0105   ZZ=    32.0000
   Eigenvalues:    25.8039    27.2325    34.0645
     14  H    Isotropic =    29.3330   Anisotropy =    10.5778
   XX=    26.7200   YX=    -0.6665   ZX=     2.2332
   XY=    -1.0331   YY=    31.2246   ZY=    -5.2835
   XZ=     2.3223   YZ=    -5.1721   ZZ=    30.0544
   Eigenvalues:    24.6211    26.9931    36.3849
     15  H    Isotropic =    29.4643   Anisotropy =    11.6331
   XX=    31.4737   YX=    -4.4756   ZX=    -2.3964
   XY=    -5.1761   YY=    31.1365   ZY=     2.7230
   XZ=    -2.3354   YZ=     2.5205   ZZ=    25.7828
   Eigenvalues:    24.6678    26.5055    37.2197
     16  H    Isotropic =    28.5758   Anisotropy =     5.3093
   XX=    28.7460   YX=     0.2575   ZX=     2.1320
   XY=     1.7259   YY=    26.6462   ZY=    -1.5779
   XZ=     2.7291   YZ=     0.8907   ZZ=    30.3353
   Eigenvalues:    25.7877    27.8244    32.1153
     17  H    Isotropic =    27.0184   Anisotropy =     5.1179
   XX=    25.6960   YX=    -2.6516   ZX=    -0.4213
   XY=    -2.4697   YY=    27.3873   ZY=    -1.7295
   XZ=     0.3003   YZ=    -2.3732   ZZ=    27.9718
   Eigenvalues:    23.4592    27.1657    30.4303
     18  H    Isotropic =    27.8914   Anisotropy =     6.8659
   XX=    24.8497   YX=     1.1212   ZX=    -1.1749
   XY=     1.8622   YY=    31.2796   ZY=     1.6887
   XZ=    -1.7908   YZ=     2.9700   ZZ=    27.5449
   Eigenvalues:    23.4668    27.7388    32.4686
     19  O    Isotropic =   293.4094   Anisotropy =    40.8430
   XX=   316.5437   YX=     5.9053   ZX=    14.0084
   XY=     2.5417   YY=   278.1522   ZY=     8.8528
   XZ=     8.0163   YZ=    -2.6435   ZZ=   285.5324
   Eigenvalues:   277.0184   282.5718   320.6381
     20  H    Isotropic =    29.9706   Anisotropy =    19.0752
   XX=    40.8484   YX=     3.8330   ZX=    -3.9196
   XY=     3.3648   YY=    22.8588   ZY=    -4.3073
   XZ=    -3.5624   YZ=    -2.3521   ZZ=    26.2046
   Eigenvalues:    20.7329    26.4914    42.6874
     21  O    Isotropic =   295.8384   Anisotropy =    74.1463
   XX=   278.5106   YX=    17.9822   ZX=    11.0637
   XY=    10.6105   YY=   330.8626   ZY=    28.8074
   XZ=   -11.4018   YZ=    26.4577   ZZ=   278.1420
   Eigenvalues:   263.6750   278.5709   345.2692
     22  H    Isotropic =    30.3739   Anisotropy =    20.1957
   XX=    23.6530   YX=     0.6196   ZX=    -2.8944
   XY=     0.7780   YY=    42.0206   ZY=     4.8257
   XZ=    -2.4163   YZ=     6.7326   ZZ=    25.4480
   Eigenvalues:    20.8993    26.3847    43.8377
     23  C    Isotropic =   128.1508   Anisotropy =    47.7148
   XX=   123.8096   YX=     1.8775   ZX=    -4.6482
   XY=    13.9025   YY=   154.9946   ZY=    15.9252
   XZ=    -2.0712   YZ=    12.0124   ZZ=   105.6482
   Eigenvalues:   100.7277   123.7640   159.9606
     24  H    Isotropic =    27.8052   Anisotropy =     6.4716
   XX=    31.2426   YX=    -0.2405   ZX=     2.0638
   XY=    -1.7893   YY=    29.5757   ZY=    -0.5701
   XZ=     2.0417   YZ=     0.2382   ZZ=    22.5973
   Eigenvalues:    22.1342    29.1619    32.1196
     25  H    Isotropic =    27.6117   Anisotropy =     6.0094
   XX=    26.6789   YX=     2.7332   ZX=    -3.3865
   XY=     1.6249   YY=    29.3745   ZY=     4.6085
   XZ=    -3.3218   YZ=     1.9734   ZZ=    26.7815
   Eigenvalues:    21.4703    29.7467    31.6179
     26  O    Isotropic =   309.5792   Anisotropy =    41.9668
   XX=   312.6468   YX=   -25.3291   ZX=     8.8439
   XY=    -5.5410   YY=   313.2841   ZY=    -9.2859
   XZ=    21.2654   YZ=   -10.9069   ZZ=   302.8069
   Eigenvalues:   291.8154   299.3652   337.5571
     27  H    Isotropic =    30.2931   Anisotropy =    15.1768
   XX=    30.2596   YX=    -2.5513   ZX=     6.6457
   XY=    -3.2668   YY=    34.5497   ZY=    -5.7239
   XZ=     5.4944   YZ=    -5.4742   ZZ=    26.0701
   Eigenvalues:    21.0086    29.4597    40.4110
 End of Minotr Frequency-dependent properties file   721 does not exist.
 End of Minotr Frequency-dependent properties file   722 does not exist.

 **********************************************************************

            Population analysis using the SCF density.

 **********************************************************************

 Orbital symmetries:
       Occupied  (A) (A) (A) (A) (A) (A) (A) (A) (A) (A) (A) (A)
                 (A) (A) (A) (A) (A) (A) (A) (A) (A) (A) (A) (A)
                 (A) (A) (A) (A) (A) (A) (A) (A) (A) (A) (A) (A)
                 (A) (A) (A) (A) (A) (A) (A) (A) (A) (A) (A)
       Virtual   (A) (A) (A) (A) (A) (A) (A) (A) (A) (A) (A) (A)
                 (A) (A) (A) (A) (A) (A) (A) (A) (A) (A) (A) (A)
                 (A) (A) (A) (A) (A) (A) (A) (A) (A) (A) (A) (A)
                 (A) (A) (A) (A) (A) (A) (A) (A) (A) (A) (A) (A)
                 (A) (A) (A) (A) (A) (A) (A) (A) (A) (A) (A) (A)
                 (A) (A) (A) (A) (A) (A) (A) (A) (A) (A) (A) (A)
                 (A) (A) (A) (A) (A) (A) (A) (A) (A) (A) (A) (A)
                 (A) (A) (A) (A) (A) (A) (A) (A) (A) (A) (A) (A)
                 (A) (A) (A) (A) (A) (A) (A) (A) (A) (A) (A) (A)
                 (A) (A) (A) (A) (A) (A) (A) (A) (A) (A) (A) (A)
                 (A) (A) (A) (A) (A) (A) (A) (A) (A) (A) (A) (A)
                 (A) (A) (A) (A) (A) (A) (A) (A) (A) (A) (A) (A)
                 (A) (A) (A) (A) (A) (A) (A) (A) (A) (A) (A) (A)
                 (A) (A) (A) (A) (A) (A) (A) (A) (A) (A) (A) (A)
                 (A) (A) (A) (A) (A) (A) (A) (A) (A) (A) (A) (A)
                 (A) (A) (A) (A) (A) (A) (A) (A) (A) (A) (A) (A)
                 (A) (A) (A) (A) (A) (A) (A) (A) (A) (A) (A) (A)
                 (A) (A) (A) (A) (A) (A) (A) (A) (A) (A) (A) (A)
                 (A) (A) (A) (A) (A) (A) (A) (A) (A) (A) (A) (A)
                 (A) (A) (A) (A) (A) (A) (A) (A) (A) (A) (A) (A)
                 (A) (A) (A) (A) (A) (A) (A) (A) (A) (A) (A) (A)
                 (A) (A) (A) (A)
 The electronic state is 1-A.
 Alpha  occ. eigenvalues --  -19.26050 -19.26046 -19.25375 -14.41038 -10.30823
 Alpha  occ. eigenvalues --  -10.30472 -10.29171 -10.27823 -10.27624 -10.26833
 Alpha  occ. eigenvalues --  -10.24817 -10.24639  -1.07324  -1.05873  -1.05387
 Alpha  occ. eigenvalues --   -0.96069  -0.82924  -0.78915  -0.75312  -0.72060
 Alpha  occ. eigenvalues --   -0.66418  -0.60848  -0.60606  -0.58084  -0.55579
 Alpha  occ. eigenvalues --   -0.53106  -0.52896  -0.50155  -0.49821  -0.46117
 Alpha  occ. eigenvalues --   -0.45722  -0.44925  -0.43365  -0.42972  -0.40707
 Alpha  occ. eigenvalues --   -0.39136  -0.38095  -0.37200  -0.36043  -0.35672
 Alpha  occ. eigenvalues --   -0.34710  -0.34491  -0.33600  -0.31500  -0.29708
 Alpha  occ. eigenvalues --   -0.29233  -0.22922
 Alpha virt. eigenvalues --    0.00618   0.01295   0.01694   0.02402   0.03325
 Alpha virt. eigenvalues --    0.04213   0.04826   0.05232   0.05535   0.06651
 Alpha virt. eigenvalues --    0.07818   0.07988   0.08590   0.08738   0.10268
 Alpha virt. eigenvalues --    0.10339   0.11308   0.12023   0.12192   0.12636
 Alpha virt. eigenvalues --    0.12972   0.14275   0.14373   0.14443   0.15244
 Alpha virt. eigenvalues --    0.15863   0.17371   0.17629   0.17978   0.18821
 Alpha virt. eigenvalues --    0.19295   0.20085   0.20219   0.20523   0.21186
 Alpha virt. eigenvalues --    0.21368   0.21843   0.22139   0.22998   0.23422
 Alpha virt. eigenvalues --    0.24174   0.24390   0.25178   0.25486   0.26197
 Alpha virt. eigenvalues --    0.26397   0.27233   0.27342   0.27549   0.28470
 Alpha virt. eigenvalues --    0.29642   0.30130   0.30340   0.31909   0.32016
 Alpha virt. eigenvalues --    0.32257   0.33284   0.33533   0.34223   0.34715
 Alpha virt. eigenvalues --    0.35444   0.35703   0.37324   0.37820   0.38617
 Alpha virt. eigenvalues --    0.38957   0.39079   0.40205   0.40810   0.41632
 Alpha virt. eigenvalues --    0.42656   0.43492   0.44142   0.44578   0.45411
 Alpha virt. eigenvalues --    0.51031   0.63617   0.66337   0.67219   0.68824
 Alpha virt. eigenvalues --    0.69030   0.69443   0.72420   0.73065   0.74064
 Alpha virt. eigenvalues --    0.74680   0.76162   0.78965   0.80665   0.81279
 Alpha virt. eigenvalues --    0.82103   0.84552   0.86490   0.87830   0.88840
 Alpha virt. eigenvalues --    0.90209   0.91505   0.93539   0.94591   0.95127
 Alpha virt. eigenvalues --    0.97908   0.99737   1.01612   1.02179   1.05369
 Alpha virt. eigenvalues --    1.06329   1.06648   1.08361   1.08701   1.10343
 Alpha virt. eigenvalues --    1.11467   1.12709   1.13600   1.13954   1.16274
 Alpha virt. eigenvalues --    1.16829   1.18062   1.20070   1.23795   1.25578
 Alpha virt. eigenvalues --    1.27012   1.28263   1.30718   1.32519   1.33761
 Alpha virt. eigenvalues --    1.35443   1.37271   1.39273   1.40610   1.41696
 Alpha virt. eigenvalues --    1.42321   1.44579   1.46860   1.50070   1.50662
 Alpha virt. eigenvalues --    1.51781   1.54405   1.58312   1.59457   1.61118
 Alpha virt. eigenvalues --    1.62405   1.64192   1.65655   1.69530   1.71201
 Alpha virt. eigenvalues --    1.73064   1.74212   1.75568   1.77407   1.78573
 Alpha virt. eigenvalues --    1.80867   1.82319   1.82886   1.85499   1.87897
 Alpha virt. eigenvalues --    1.88490   1.89628   1.90303   1.94698   1.96307
 Alpha virt. eigenvalues --    1.98312   2.00845   2.02296   2.03998   2.05476
 Alpha virt. eigenvalues --    2.07047   2.07870   2.08670   2.10363   2.11191
 Alpha virt. eigenvalues --    2.11537   2.13063   2.15908   2.17439   2.18525
 Alpha virt. eigenvalues --    2.22909   2.23619   2.26613   2.27816   2.29789
 Alpha virt. eigenvalues --    2.30458   2.33141   2.34478   2.37027   2.39494
 Alpha virt. eigenvalues --    2.41096   2.42947   2.43185   2.44975   2.47709
 Alpha virt. eigenvalues --    2.48298   2.49653   2.51736   2.53334   2.54267
 Alpha virt. eigenvalues --    2.58014   2.58262   2.59411   2.61025   2.62384
 Alpha virt. eigenvalues --    2.65314   2.65648   2.66727   2.68996   2.69431
 Alpha virt. eigenvalues --    2.70577   2.72910   2.74106   2.76950   2.78348
 Alpha virt. eigenvalues --    2.80341   2.80975   2.82149   2.82513   2.85652
 Alpha virt. eigenvalues --    2.87132   2.89003   2.90004   2.94522   2.94989
 Alpha virt. eigenvalues --    2.98078   3.00228   3.00938   3.02011   3.02314
 Alpha virt. eigenvalues --    3.05196   3.08810   3.12547   3.15168   3.32342
 Alpha virt. eigenvalues --    3.35145   3.36113   3.37558   3.43260   3.44182
 Alpha virt. eigenvalues --    3.47494   3.50320   3.51728   3.54828   3.55886
 Alpha virt. eigenvalues --    3.57256   3.57984   3.59297   3.61045   4.31882
 Alpha virt. eigenvalues --    4.32411   4.38056   4.42880   4.49618   4.57899
 Alpha virt. eigenvalues --    4.59957   4.70385   4.76929   4.81897   4.91300
 Alpha virt. eigenvalues --    4.97884
          Condensed to atoms (all electrons):
              1          2          3          4          5          6
     1  C    6.210191  -1.333398   0.116346  -0.208791   0.234723   0.339465
     2  C   -1.333398  11.105619  -0.448706  -0.579298   0.417550  -1.509510
     3  N    0.116346  -0.448706   7.530609   0.265907  -0.179316  -0.135099
     4  C   -0.208791  -0.579298   0.265907   5.804904  -0.146773  -0.180534
     5  C    0.234723   0.417550  -0.179316  -0.146773   5.858805  -0.066389
     6  C    0.339465  -1.509510  -0.135099  -0.180534  -0.066389   9.861899
     7  C   -0.503637   1.796414  -0.313911   0.059055  -0.095926  -2.177081
     8  C    0.696911  -3.424560   0.260170   0.355035  -0.189632   1.191361
     9  H    0.412199  -0.100396   0.014160   0.032509  -0.041975   0.004970
    10  H    0.464805  -0.205340   0.029577   0.030260  -0.068272  -0.003633
    11  H    0.062780   0.111927  -0.001919   0.030504  -0.037429   0.039824
    12  H    0.033565   0.007979  -0.050891   0.381660  -0.028101  -0.006102
    13  H   -0.010533   0.019042  -0.097353   0.418391  -0.018293  -0.011075
    14  H   -0.025880  -0.053435   0.015924  -0.033070   0.408202   0.003952
    15  H   -0.079401   0.056384   0.005351  -0.014530   0.377341  -0.006217
    16  H   -0.013602   0.044735  -0.078917   0.011592   0.010353   0.273177
    17  H    0.013429  -0.026900   0.021444   0.000942   0.002385   0.060727
    18  H   -0.006015  -0.031733   0.016685   0.004100  -0.005463  -0.032400
    19  O    0.006107  -0.081655   0.010394   0.035170  -0.047017  -0.012754
    20  H    0.010228  -0.080576   0.000511   0.002359  -0.005787  -0.004867
    21  O    0.050365  -0.095248   0.052516   0.004262   0.004841  -0.238589
    22  H   -0.004989  -0.003522  -0.005875  -0.001225   0.000411   0.039365
    23  C   -0.034942   0.315756   0.107131  -0.079179   0.010803  -1.114131
    24  H   -0.000203   0.014680   0.009863  -0.003356   0.000922  -0.152411
    25  H    0.000486   0.013335   0.012364   0.007520   0.002658  -0.142463
    26  O   -0.006102   0.054878   0.027985  -0.018213   0.014187  -0.157397
    27  H   -0.001986   0.014296   0.025397  -0.001707   0.007599  -0.102713
              7          8          9         10         11         12
     1  C   -0.503637   0.696911   0.412199   0.464805   0.062780   0.033565
     2  C    1.796414  -3.424560  -0.100396  -0.205340   0.111927   0.007979
     3  N   -0.313911   0.260170   0.014160   0.029577  -0.001919  -0.050891
     4  C    0.059055   0.355035   0.032509   0.030260   0.030504   0.381660
     5  C   -0.095926  -0.189632  -0.041975  -0.068272  -0.037429  -0.028101
     6  C   -2.177081   1.191361   0.004970  -0.003633   0.039824  -0.006102
     7  C    8.774082  -2.090413  -0.010813  -0.012813  -0.058128  -0.003384
     8  C   -2.090413   8.940464   0.034006   0.072534   0.110497  -0.007607
     9  H   -0.010813   0.034006   0.513116  -0.025780  -0.004968  -0.000113
    10  H   -0.012813   0.072534  -0.025780   0.555795   0.004294  -0.000047
    11  H   -0.058128   0.110497  -0.004968   0.004294   0.561237   0.000097
    12  H   -0.003384  -0.007607  -0.000113  -0.000047   0.000097   0.559622
    13  H    0.014569  -0.003456  -0.000136   0.001361  -0.000529  -0.044100
    14  H   -0.003940   0.018901  -0.005492   0.004234   0.000560  -0.005823
    15  H    0.004632  -0.004692   0.000827  -0.006103  -0.000120   0.000426
    16  H    0.076280  -0.043773  -0.000003  -0.000007  -0.000556  -0.001486
    17  H    0.152186   0.120151   0.000003  -0.000018  -0.000030   0.000004
    18  H    0.071950   0.297432   0.000176   0.000333  -0.000501   0.000006
    19  O    0.018023   0.090119  -0.000526   0.006571   0.007341   0.000230
    20  H   -0.001346   0.092802   0.000018   0.006416   0.000225  -0.000002
    21  O    0.228216   0.032237   0.000062   0.000034   0.004325   0.000016
    22  H    0.045061  -0.060340   0.000000   0.000000   0.000138   0.000000
    23  C    0.184311  -0.440602   0.000022  -0.002819   0.003038   0.008220
    24  H    0.038386  -0.010723   0.000000   0.000000  -0.000014  -0.000051
    25  H    0.017537  -0.023991   0.000000   0.000000  -0.000050   0.000030
    26  O    0.071015  -0.055780  -0.000002   0.000001  -0.000122   0.000756
    27  H    0.007270  -0.003310   0.000000   0.000000  -0.000013   0.000138
             13         14         15         16         17         18
     1  C   -0.010533  -0.025880  -0.079401  -0.013602   0.013429  -0.006015
     2  C    0.019042  -0.053435   0.056384   0.044735  -0.026900  -0.031733
     3  N   -0.097353   0.015924   0.005351  -0.078917   0.021444   0.016685
     4  C    0.418391  -0.033070  -0.014530   0.011592   0.000942   0.004100
     5  C   -0.018293   0.408202   0.377341   0.010353   0.002385  -0.005463
     6  C   -0.011075   0.003952  -0.006217   0.273177   0.060727  -0.032400
     7  C    0.014569  -0.003940   0.004632   0.076280   0.152186   0.071950
     8  C   -0.003456   0.018901  -0.004692  -0.043773   0.120151   0.297432
     9  H   -0.000136  -0.005492   0.000827  -0.000003   0.000003   0.000176
    10  H    0.001361   0.004234  -0.006103  -0.000007  -0.000018   0.000333
    11  H   -0.000529   0.000560  -0.000120  -0.000556  -0.000030  -0.000501
    12  H   -0.044100  -0.005823   0.000426  -0.001486   0.000004   0.000006
    13  H    0.582733   0.003985  -0.003708   0.012666  -0.000070  -0.000047
    14  H    0.003985   0.519147  -0.024772  -0.000008   0.000000  -0.000002
    15  H   -0.003708  -0.024772   0.517558  -0.000002   0.000000   0.000002
    16  H    0.012666  -0.000008  -0.000002   0.565998  -0.004757  -0.000206
    17  H   -0.000070   0.000000   0.000000  -0.004757   0.554763  -0.003167
    18  H   -0.000047  -0.000002   0.000002  -0.000206  -0.003167   0.561053
    19  O    0.000522   0.000030   0.000346   0.002585  -0.001439  -0.038796
    20  H    0.000091   0.000005   0.000003  -0.000041   0.000048  -0.006192
    21  O   -0.000087  -0.000009  -0.000005   0.008796  -0.031418  -0.014262
    22  H    0.000000   0.000000   0.000000  -0.000216  -0.006942   0.004065
    23  C   -0.014928  -0.001445   0.000799  -0.035130  -0.027789   0.015242
    24  H    0.000037   0.000000   0.000000  -0.002080   0.000827  -0.000002
    25  H   -0.000004  -0.000001   0.000000   0.004479  -0.000008  -0.000001
    26  O   -0.000517  -0.000038   0.000011   0.000959  -0.000798   0.000038
    27  H    0.000167  -0.000004   0.000000   0.000108   0.000006   0.000000
             19         20         21         22         23         24
     1  C    0.006107   0.010228   0.050365  -0.004989  -0.034942  -0.000203
     2  C   -0.081655  -0.080576  -0.095248  -0.003522   0.315756   0.014680
     3  N    0.010394   0.000511   0.052516  -0.005875   0.107131   0.009863
     4  C    0.035170   0.002359   0.004262  -0.001225  -0.079179  -0.003356
     5  C   -0.047017  -0.005787   0.004841   0.000411   0.010803   0.000922
     6  C   -0.012754  -0.004867  -0.238589   0.039365  -1.114131  -0.152411
     7  C    0.018023  -0.001346   0.228216   0.045061   0.184311   0.038386
     8  C    0.090119   0.092802   0.032237  -0.060340  -0.440602  -0.010723
     9  H   -0.000526   0.000018   0.000062   0.000000   0.000022   0.000000
    10  H    0.006571   0.006416   0.000034   0.000000  -0.002819   0.000000
    11  H    0.007341   0.000225   0.004325   0.000138   0.003038  -0.000014
    12  H    0.000230  -0.000002   0.000016   0.000000   0.008220  -0.000051
    13  H    0.000522   0.000091  -0.000087   0.000000  -0.014928   0.000037
    14  H    0.000030   0.000005  -0.000009   0.000000  -0.001445   0.000000
    15  H    0.000346   0.000003  -0.000005   0.000000   0.000799   0.000000
    16  H    0.002585  -0.000041   0.008796  -0.000216  -0.035130  -0.002080
    17  H   -0.001439   0.000048  -0.031418  -0.006942  -0.027789   0.000827
    18  H   -0.038796  -0.006192  -0.014262   0.004065   0.015242  -0.000002
    19  O    8.301906   0.236152   0.008604   0.000284   0.036827  -0.000083
    20  H    0.236152   0.373290  -0.000247  -0.000027  -0.006609   0.000000
    21  O    0.008604  -0.000247   8.308225   0.227901  -0.003247  -0.000384
    22  H    0.000284  -0.000027   0.227901   0.371975   0.007036  -0.000108
    23  C    0.036827  -0.006609  -0.003247   0.007036   6.127332   0.479546
    24  H   -0.000083   0.000000  -0.000384  -0.000108   0.479546   0.547663
    25  H    0.000106   0.000000   0.005235   0.000045   0.466198  -0.032227
    26  O    0.000508  -0.000010  -0.001563   0.000063   0.188529  -0.059649
    27  H   -0.000028   0.000000   0.000051  -0.000001   0.048293   0.006664
             25         26         27
     1  C    0.000486  -0.006102  -0.001986
     2  C    0.013335   0.054878   0.014296
     3  N    0.012364   0.027985   0.025397
     4  C    0.007520  -0.018213  -0.001707
     5  C    0.002658   0.014187   0.007599
     6  C   -0.142463  -0.157397  -0.102713
     7  C    0.017537   0.071015   0.007270
     8  C   -0.023991  -0.055780  -0.003310
     9  H    0.000000  -0.000002   0.000000
    10  H    0.000000   0.000001   0.000000
    11  H   -0.000050  -0.000122  -0.000013
    12  H    0.000030   0.000756   0.000138
    13  H   -0.000004  -0.000517   0.000167
    14  H   -0.000001  -0.000038  -0.000004
    15  H    0.000000   0.000011   0.000000
    16  H    0.004479   0.000959   0.000108
    17  H   -0.000008  -0.000798   0.000006
    18  H   -0.000001   0.000038   0.000000
    19  O    0.000106   0.000508  -0.000028
    20  H    0.000000  -0.000010   0.000000
    21  O    0.005235  -0.001563   0.000051
    22  H    0.000045   0.000063  -0.000001
    23  C    0.466198   0.188529   0.048293
    24  H   -0.032227  -0.059649   0.006664
    25  H    0.551161  -0.044340  -0.007092
    26  O   -0.044340   8.273331   0.257517
    27  H   -0.007092   0.257517   0.375079
 Mulliken atomic charges:
              1
     1  C   -0.422122
     2  C    0.001682
     3  N   -0.210347
     4  C   -0.177495
     5  C   -0.420410
     6  C    0.238625
     7  C   -0.287592
     8  C    0.046258
     9  H    0.178136
    10  H    0.148616
    11  H    0.167591
    12  H    0.154956
    13  H    0.151272
    14  H    0.178977
    15  H    0.175868
    16  H    0.169058
    17  H    0.176424
    18  H    0.167706
    19  O   -0.579526
    20  H    0.383558
    21  O   -0.550625
    22  H    0.386899
    23  C   -0.238260
    24  H    0.162704
    25  H    0.169023
    26  O   -0.545247
    27  H    0.374271
 Sum of Mulliken atomic charges =   0.00000
 Mulliken charges with hydrogens summed into heavy atoms:
              1
     1  C   -0.095371
     2  C    0.169273
     3  N   -0.210347
     4  C    0.128734
     5  C   -0.065564
     6  C    0.407683
     7  C   -0.111168
     8  C    0.213965
    19  O   -0.195969
    21  O   -0.163727
    23  C    0.093466
    26  O   -0.170976
 Sum of Mulliken charges with hydrogens summed into heavy atoms =   0.00000
 Electronic spatial extent (au):  <R**2>=           2013.9441
 Charge=              0.0000 electrons
 Dipole moment (field-independent basis, Debye):
    X=             -4.8240    Y=             -2.9453    Z=             -0.8861  Tot=              5.7211
 Quadrupole moment (field-independent basis, Debye-Ang):
   XX=            -74.4013   YY=            -63.8598   ZZ=            -78.2345
   XY=             -3.9643   XZ=             -0.7711   YZ=             -0.1245
 Traceless Quadrupole moment (field-independent basis, Debye-Ang):
   XX=             -2.2361   YY=              8.3054   ZZ=             -6.0693
   XY=             -3.9643   XZ=             -0.7711   YZ=             -0.1245
 Octapole moment (field-independent basis, Debye-Ang**2):
  XXX=            -43.2924  YYY=            -32.8007  ZZZ=             -3.6178  XYY=             -7.9200
  XXY=            -29.8970  XXZ=              2.6676  XZZ=             -2.8791  YZZ=             -1.1546
  YYZ=            -15.8891  XYZ=             -8.4828
 Hexadecapole moment (field-independent basis, Debye-Ang**3):
 XXXX=          -1369.3469 YYYY=           -826.1121 ZZZZ=           -319.0444 XXXY=            -32.4147
 XXXZ=            -40.0204 YYYX=            -17.1410 YYYZ=             23.3111 ZZZX=             -4.9143
 ZZZY=              8.6276 XXYY=           -397.4983 XXZZ=           -260.8865 YYZZ=           -214.5602
 XXYZ=            -37.3029 YYXZ=            -29.1384 ZZXY=              1.0040
 N-N= 8.087353588591D+02 E-N=-3.003675750825D+03  KE= 5.886604657423D+02
 1\1\GINC-COMPUTE-3-2\SP\RmPW1PW91\6-31+G(d,p)\C8H15N1O3\MAMICHETTI.IQU
 IR\17-May-2024\0\\# mpw1pw91/6-31+G** nmr scrf=(pcm,solvent=water)\\co
 mment\\0,1\C,0,-2.459787,0.310309,-0.463548\C,0,-1.092368,-0.350806,-0
 .716353\N,0,-0.05711,0.679328,-0.366211\C,0,-0.745184,1.776032,0.33739
 \C,0,-2.126712,1.807084,-0.314932\C,0,1.031549,0.015711,0.384766\C,0,0
 .808712,-1.492614,0.178231\C,0,-0.722692,-1.601263,0.109354\H,0,-3.171
 261,0.107615,-1.269094\H,0,-2.900926,-0.056932,0.469339\H,0,-0.985077,
 -0.620363,-1.774317\H,0,-0.201892,2.721508,0.228922\H,0,-0.837124,1.57
 1543,1.418782\H,0,-2.06612,2.286511,-1.299184\H,0,-2.862647,2.353204,0
 .283503\H,0,0.918315,0.213063,1.462674\H,0,1.217635,-2.079743,1.00926\
 H,0,-1.039191,-2.532018,-0.37939\O,0,-1.195222,-1.560037,1.459365\H,0,
 -2.154907,-1.707311,1.4376\O,0,1.40201,-1.898901,-1.05946\H,0,1.222057
 ,-2.848447,-1.162253\C,0,2.421325,0.503559,-0.017234\H,0,3.183701,-0.0
 71417,0.519443\H,0,2.580358,0.36405,-1.092696\O,0,2.637219,1.874873,0.
 343588\H,0,2.055735,2.407881,-0.223094\\Version=AM64L-G09RevC.01\State
 =1-A\HF=-594.1956935\RMSD=5.575e-09\Dipole=-1.8979194,-1.1587807,-0.34
 86204\Quadrupole=-1.6624711,6.1748353,-4.5123642,-2.9473346,-0.5732702
 ,-0.0925285\PG=C01 [X(C8H15N1O3)]\\@


 KNOWLEDGE IS EXPERIMENT'S DAUGHTER.
 -- LEONARDO DA VINCI, IN "PENSIERI" CA. 1492
 Job cpu time:  0 days  0 hours  8 minutes 36.8 seconds.
 File lengths (MBytes):  RWF=    113 Int=      0 D2E=      0 Chk=      7 Scr=      1
 Normal termination of Gaussian 09 at Fri May 17 12:16:50 2024.
