 Entering Gaussian System, Link 0=g09
 Input=/home/mamichetti.iquir/Linux/03_Cardona_A1A3_R__S_S_R_013_OptB.gjc
 Output=/home/mamichetti.iquir/Linux/03_Cardona_A1A3_R__S_S_R_013_OptB.log
 Initial command:
 /opt/ohpc/pub/apps/software/Gaussian/09/AMD64.SSE4a-enabled/g09/l1.exe /local/mamichetti.iquir/Gau-125910.inp -scrdir=/local/mamichetti.iquir/
 Entering Link 1 = /opt/ohpc/pub/apps/software/Gaussian/09/AMD64.SSE4a-enabled/g09/l1.exe PID=    125911.
  
 Copyright (c) 1988,1990,1992,1993,1995,1998,2003,2009,2011,
            Gaussian, Inc.  All Rights Reserved.
  
 This is part of the Gaussian(R) 09 program.  It is based on
 the Gaussian(R) 03 system (copyright 2003, Gaussian, Inc.),
 the Gaussian(R) 98 system (copyright 1998, Gaussian, Inc.),
 the Gaussian(R) 94 system (copyright 1995, Gaussian, Inc.),
 the Gaussian 92(TM) system (copyright 1992, Gaussian, Inc.),
 the Gaussian 90(TM) system (copyright 1990, Gaussian, Inc.),
 the Gaussian 88(TM) system (copyright 1988, Gaussian, Inc.),
 the Gaussian 86(TM) system (copyright 1986, Carnegie Mellon
 University), and the Gaussian 82(TM) system (copyright 1983,
 Carnegie Mellon University). Gaussian is a federally registered
 trademark of Gaussian, Inc.
  
 This software contains proprietary and confidential information,
 including trade secrets, belonging to Gaussian, Inc.
  
 This software is provided under written license and may be
 used, copied, transmitted, or stored only in accord with that
 written license.
  
 The following legend is applicable only to US Government
 contracts under FAR:
  
                    RESTRICTED RIGHTS LEGEND
  
 Use, reproduction and disclosure by the US Government is
 subject to restrictions as set forth in subparagraphs (a)
 and (c) of the Commercial Computer Software - Restricted
 Rights clause in FAR 52.227-19.
  
 Gaussian, Inc.
 340 Quinnipiac St., Bldg. 40, Wallingford CT 06492
  
  
 ---------------------------------------------------------------
 Warning -- This program may not be used in any manner that
 competes with the business of Gaussian, Inc. or will provide
 assistance to any competitor of Gaussian, Inc.  The licensee
 of this program is prohibited from giving any competitor of
 Gaussian, Inc. access to this program.  By using this program,
 the user acknowledges that Gaussian, Inc. is engaged in the
 business of creating and licensing software in the field of
 computational chemistry and represents and warrants to the
 licensee that it is not a competitor of Gaussian, Inc. and that
 it will not use this program in any manner prohibited above.
 ---------------------------------------------------------------
  

 Cite this work as:
 Gaussian 09, Revision C.01,
 M. J. Frisch, G. W. Trucks, H. B. Schlegel, G. E. Scuseria, 
 M. A. Robb, J. R. Cheeseman, G. Scalmani, V. Barone, B. Mennucci, 
 G. A. Petersson, H. Nakatsuji, M. Caricato, X. Li, H. P. Hratchian, 
 A. F. Izmaylov, J. Bloino, G. Zheng, J. L. Sonnenberg, M. Hada, 
 M. Ehara, K. Toyota, R. Fukuda, J. Hasegawa, M. Ishida, T. Nakajima, 
 Y. Honda, O. Kitao, H. Nakai, T. Vreven, J. A. Montgomery, Jr., 
 J. E. Peralta, F. Ogliaro, M. Bearpark, J. J. Heyd, E. Brothers, 
 K. N. Kudin, V. N. Staroverov, T. Keith, R. Kobayashi, J. Normand, 
 K. Raghavachari, A. Rendell, J. C. Burant, S. S. Iyengar, J. Tomasi, 
 M. Cossi, N. Rega, J. M. Millam, M. Klene, J. E. Knox, J. B. Cross, 
 V. Bakken, C. Adamo, J. Jaramillo, R. Gomperts, R. E. Stratmann, 
 O. Yazyev, A. J. Austin, R. Cammi, C. Pomelli, J. W. Ochterski, 
 R. L. Martin, K. Morokuma, V. G. Zakrzewski, G. A. Voth, 
 P. Salvador, J. J. Dannenberg, S. Dapprich, A. D. Daniels, 
 O. Farkas, J. B. Foresman, J. V. Ortiz, J. Cioslowski, 
 and D. J. Fox, Gaussian, Inc., Wallingford CT, 2010.
 
 ******************************************
 Gaussian 09:  AM64L-G09RevC.01 23-Sep-2011
                17-May-2024 
 ******************************************
 %nprocshared=4
 Will use up to    4 processors via shared memory.
 ------------------------------------------------
 # mpw1pw91/6-31+G** nmr scrf=(pcm,solvent=water)
 ------------------------------------------------
 1/38=1/1;
 2/12=2,17=6,18=5,40=1/2;
 3/5=1,6=6,7=111,11=2,16=1,25=1,30=1,70=2201,72=1,74=-7/1,2,8,3;
 4//1;
 5/5=2,38=5,53=1/2;
 8/6=1,10=90,11=11/1;
 10/13=100,45=16/2;
 6/7=2,8=2,9=2,10=2,28=1/1;
 99/9=1/99;
 -------
 comment
 -------
 Charge =  0 Multiplicity = 1
 Symbolic Z-Matrix:
 6                    -2.22182   0.76562   0.09076 
 6                    -0.89841   0.34507   0.74427 
 7                    -0.54951  -0.98356   0.13342 
 6                    -1.74076  -1.47512  -0.60541 
 6                    -2.90314  -0.58998  -0.13796 
 6                     0.69411  -0.85037  -0.6664 
 6                     0.9312    0.66848  -0.78509 
 6                     0.32391   1.24621   0.49042 
 1                    -2.80443   1.44614   0.71947 
 1                    -2.03854   1.26364  -0.86883 
 1                    -1.05897   0.22055   1.82281 
 1                    -1.91922  -2.53895  -0.40802 
 1                    -1.59375  -1.36441  -1.68957 
 1                    -3.31822  -0.96799   0.80446 
 1                    -3.71414  -0.55282  -0.87194 
 1                     0.54641  -1.28281  -1.66278 
 1                     0.34536   1.0481   -1.6353 
 1                     1.04925   1.13503   1.30482 
 8                     0.03013   2.63086   0.29367 
 1                    -0.21193   3.00276   1.15803 
 8                     2.30838   0.98371  -0.97614 
 1                     2.36693   1.95301  -1.0255 
 6                     1.83398  -1.63667  -0.0096 
 1                     1.63311  -2.71018  -0.14275 
 1                     2.78997  -1.4119   -0.48966 
 8                     1.98314  -1.33376   1.37945 
 1                     1.08726  -1.44113   1.74904 
 
                          Input orientation:                          
 ---------------------------------------------------------------------
 Center     Atomic      Atomic             Coordinates (Angstroms)
 Number     Number       Type             X           Y           Z
 ---------------------------------------------------------------------
      1          6           0       -2.221817    0.765615    0.090758
      2          6           0       -0.898414    0.345071    0.744273
      3          7           0       -0.549513   -0.983556    0.133424
      4          6           0       -1.740758   -1.475116   -0.605412
      5          6           0       -2.903140   -0.589984   -0.137959
      6          6           0        0.694105   -0.850368   -0.666401
      7          6           0        0.931197    0.668476   -0.785088
      8          6           0        0.323909    1.246210    0.490416
      9          1           0       -2.804427    1.446137    0.719471
     10          1           0       -2.038540    1.263644   -0.868825
     11          1           0       -1.058972    0.220546    1.822810
     12          1           0       -1.919223   -2.538950   -0.408018
     13          1           0       -1.593752   -1.364411   -1.689571
     14          1           0       -3.318225   -0.967993    0.804462
     15          1           0       -3.714144   -0.552815   -0.871940
     16          1           0        0.546408   -1.282812   -1.662776
     17          1           0        0.345364    1.048098   -1.635299
     18          1           0        1.049246    1.135032    1.304821
     19          8           0        0.030128    2.630858    0.293669
     20          1           0       -0.211927    3.002763    1.158031
     21          8           0        2.308377    0.983709   -0.976135
     22          1           0        2.366926    1.953010   -1.025497
     23          6           0        1.833977   -1.636674   -0.009604
     24          1           0        1.633110   -2.710183   -0.142750
     25          1           0        2.789973   -1.411901   -0.489659
     26          8           0        1.983140   -1.333756    1.379445
     27          1           0        1.087258   -1.441130    1.749039
 ---------------------------------------------------------------------
                    Distance matrix (angstroms):
                    1          2          3          4          5
     1  C    0.000000
     2  C    1.534710   0.000000
     3  N    2.420335   1.503369   0.000000
     4  C    2.395192   2.417493   1.485454   0.000000
     5  C    1.534328   2.381509   2.401689   1.533983   0.000000
     6  C    3.418668   2.440326   1.484603   2.514476   3.645164
     7  C    3.273842   2.406452   2.401120   3.430250   4.087131
     8  C    2.621339   1.539665   2.421191   3.587381   3.765675
     9  H    1.094452   2.201328   3.366229   3.379412   2.211497
    10  H    1.096550   2.178474   2.876041   2.767466   2.172012
    11  H    2.156227   1.097510   2.136220   3.039139   2.811144
    12  H    3.355665   3.269159   2.142082   1.096612   2.199885
    13  H    2.846234   3.054410   2.135134   1.099667   2.172955
    14  H    2.171838   2.753769   2.848912   2.175620   1.096970
    15  H    2.211806   3.368483   3.348311   2.194522   1.094457
    16  H    3.864454   3.245212   2.125307   2.527079   3.834639
    17  H    3.106362   2.775535   2.838451   3.432081   3.934224
    18  H    3.508600   2.175231   2.901141   4.271532   4.547378
    19  O    2.931136   2.507998   3.664103   4.561075   4.377692
    20  H    3.191169   2.775930   4.129712   5.049600   4.672264
    21  O    4.659236   3.694749   3.642635   4.751710   5.508081
    22  H    4.869548   4.047221   4.297922   5.366711   5.918457
    23  C    4.714926   3.458555   2.475489   3.627646   4.853072
    24  H    5.195783   4.065710   2.796669   3.622490   5.007278
    25  H    5.495134   4.267756   3.424015   4.532650   5.762879
    26  O    4.873370   3.394887   2.844212   4.222210   5.170246
    27  H    4.309245   2.853588   2.344910   3.679982   4.495385
                    6          7          8          9         10
     6  C    0.000000
     7  C    1.541813   0.000000
     8  C    2.422996   1.526265   0.000000
     9  H    4.408435   4.101627   3.143075   0.000000
    10  H    3.460834   3.029946   2.725620   1.772730   0.000000
    11  H    3.227430   3.310974   2.177067   2.401259   3.048361
    12  H    3.122107   4.307512   4.490686   4.235060   3.832271
    13  H    2.558399   3.365425   3.904499   3.894663   2.788931
    14  H    4.275052   4.823099   4.273928   2.469663   3.068825
    15  H    4.423058   4.803987   4.625838   2.712192   2.471271
    16  H    1.096168   2.173919   3.328918   4.934608   3.714398
    17  H    2.159758   1.100078   2.135035   3.952791   2.513352
    18  H    2.820222   2.144605   1.096234   3.910271   3.778320
    19  O    3.671721   2.413832   1.429079   3.101544   2.738623
    20  H    4.358448   3.245203   1.954049   3.055565   3.235614
    21  O    2.462854   1.425656   2.481490   5.406448   4.357243
    22  H    3.284236   1.941428   2.640355   5.481307   4.461827
    23  C    1.532634   2.594244   3.292620   5.616945   4.913908
    24  H    2.148221   3.510074   4.215205   6.140860   5.458892
    25  H    2.176975   2.805405   3.756005   6.397475   5.533249
    26  O    2.465920   3.130610   3.193688   5.575318   5.289151
    27  H    2.517522   3.300999   3.064087   4.953941   4.892814
                   11         12         13         14         15
    11  H    0.000000
    12  H    3.651225   0.000000
    13  H    3.890360   1.768573   0.000000
    14  H    2.748433   2.428007   3.057966   0.000000
    15  H    3.861308   2.716928   2.413145   1.771849   0.000000
    16  H    4.121485   3.038361   2.141883   4.595842   4.394385
    17  H    3.823025   4.416049   3.095693   4.841378   4.430039
    18  H    2.355670   5.024318   4.711585   4.873179   5.502454
    19  O    3.055162   5.569493   4.746831   4.942075   5.051138
    20  H    2.983312   6.006492   5.393560   5.053811   5.387805
    21  O    4.444722   5.532132   4.609693   6.215973   6.216311
    22  H    4.780278   6.239396   5.208958   6.648455   6.578917
    23  C    3.895659   3.880637   3.826976   5.258804   5.718393
    24  H    4.438457   3.566337   3.823140   5.333681   5.811977
    25  H    4.777737   4.842874   4.545227   6.259544   6.571735
    26  O    3.444833   4.458246   4.713168   5.344984   6.175569
    27  H    2.715311   3.859667   4.360933   4.530382   5.541849
                   16         17         18         19         20
    16  H    0.000000
    17  H    2.339725   0.000000
    18  H    3.860757   3.024453   0.000000
    19  O    4.405796   2.515039   2.073289   0.000000
    20  H    5.186345   3.454559   2.258434   0.971610   0.000000
    21  O    2.951801   2.071730   2.609803   3.084789   3.870811
    22  H    3.767088   2.297267   2.799241   2.767725   3.538398
    23  C    2.125095   3.473738   3.166365   4.643024   5.203217
    24  H    2.351338   4.243898   4.149944   5.593454   6.142796
    25  H    2.535045   3.652424   3.568915   4.957242   5.587087
    26  O    3.364804   4.176628   2.640576   4.550970   4.865464
    27  H    3.458044   4.266193   2.614457   4.451597   4.667479
                   21         22         23         24         25
    21  O    0.000000
    22  H    0.972321   0.000000
    23  C    2.832957   3.768541   0.000000
    24  H    3.846473   4.802405   1.100226   0.000000
    25  H    2.491494   3.433470   1.093117   1.773193   0.000000
    26  O    3.320419   4.090705   1.429499   2.081862   2.037311
    27  H    3.846758   4.566814   1.920586   2.342502   2.812803
                   26         27
    26  O    0.000000
    27  H    0.975056   0.000000
 Stoichiometry    C8H15NO3
 Framework group  C1[X(C8H15NO3)]
 Deg. of freedom    75
 Full point group                 C1      NOp   1
 Largest Abelian subgroup         C1      NOp   1
 Largest concise Abelian subgroup C1      NOp   1
                         Standard orientation:                         
 ---------------------------------------------------------------------
 Center     Atomic      Atomic             Coordinates (Angstroms)
 Number     Number       Type             X           Y           Z
 ---------------------------------------------------------------------
      1          6           0       -2.221817    0.765615    0.090758
      2          6           0       -0.898414    0.345071    0.744273
      3          7           0       -0.549513   -0.983556    0.133424
      4          6           0       -1.740758   -1.475116   -0.605412
      5          6           0       -2.903140   -0.589984   -0.137959
      6          6           0        0.694105   -0.850368   -0.666401
      7          6           0        0.931197    0.668476   -0.785088
      8          6           0        0.323909    1.246210    0.490416
      9          1           0       -2.804427    1.446137    0.719471
     10          1           0       -2.038540    1.263644   -0.868825
     11          1           0       -1.058972    0.220546    1.822810
     12          1           0       -1.919223   -2.538950   -0.408018
     13          1           0       -1.593752   -1.364411   -1.689571
     14          1           0       -3.318225   -0.967993    0.804462
     15          1           0       -3.714144   -0.552815   -0.871940
     16          1           0        0.546408   -1.282812   -1.662776
     17          1           0        0.345364    1.048098   -1.635299
     18          1           0        1.049246    1.135032    1.304821
     19          8           0        0.030128    2.630858    0.293669
     20          1           0       -0.211927    3.002763    1.158031
     21          8           0        2.308377    0.983709   -0.976135
     22          1           0        2.366926    1.953010   -1.025497
     23          6           0        1.833977   -1.636674   -0.009604
     24          1           0        1.633110   -2.710183   -0.142750
     25          1           0        2.789973   -1.411901   -0.489659
     26          8           0        1.983140   -1.333756    1.379445
     27          1           0        1.087258   -1.441130    1.749039
 ---------------------------------------------------------------------
 Rotational constants (GHZ):      1.2327815      0.8773736      0.6368499
 Standard basis: 6-31+G(d,p) (6D, 7F)
 There are   303 symmetry adapted basis functions of A   symmetry.
 Integral buffers will be    131072 words long.
 Raffenetti 2 integral format.
 Two-electron integral symmetry is turned on.
   303 basis functions,   489 primitive gaussians,   303 cartesian basis functions
    47 alpha electrons       47 beta electrons
       nuclear repulsion energy       811.8348862609 Hartrees.
 NAtoms=   27 NActive=   27 NUniq=   27 SFac= 1.00D+00 NAtFMM=   60 NAOKFM=F Big=F
 ------------------------------------------------------------------------------
 Polarizable Continuum Model (PCM)
 =================================
 Model                : PCM.
 Atomic radii         : UFF (Universal Force Field).
 Polarization charges : Total charges.
 Charge compensation  : None.
 Solution method      : Matrix inversion.
 Cavity type          : Scaled VdW (van der Waals Surface) (Alpha=1.100).
 Cavity algorithm     : GePol (No added spheres)
                        Default sphere list used, NSphG=   27.
                        Lebedev-Laikov grids with approx.  5.0 points / Ang**2.
                        Smoothing algorithm: Karplus/York (Gamma=1.0000).
                        Polarization charges: spherical gaussians, with
                                              point-specific exponents (IZeta= 3).
                        Self-potential: point-specific (ISelfS= 7).
                        Self-field    : sphere-specific E.n sum rule (ISelfD= 2).
 Solvent              : Water, Eps=  78.355300 Eps(inf)=   1.777849
 ------------------------------------------------------------------------------
 One-electron integrals computed using PRISM.
 NBasis=   303 RedAO= T  NBF=   303
 NBsUse=   303 1.00D-06 NBFU=   303
 Harris functional with IExCor=  908 diagonalized for initial guess.
 ExpMin= 4.38D-02 ExpMax= 5.48D+03 ExpMxC= 8.25D+02 IAcc=2 IRadAn=         4 AccDes= 0.00D+00
 HarFok:  IExCor=  908 AccDes= 0.00D+00 IRadAn=         4 IDoV= 1
 ScaDFX=  1.000000  1.000000  1.000000  1.000000
 FoFCou: FMM=F IPFlag=           0 FMFlag=      100000 FMFlg1=           0
         NFxFlg=           0 DoJE=T BraDBF=F KetDBF=T FulRan=T
         Omega=  0.000000  0.000000  1.000000  0.000000  0.000000 ICntrl=     500 IOpCl=  0
         NMat0=    1 NMatS0=    1 NMatT0=    0 NMatD0=    1 NMtDS0=    0 NMtDT0=    0
         I1Cent=           4 NGrid=           0.
 Petite list used in FoFCou.
 Initial guess orbital symmetries:
       Occupied  (A) (A) (A) (A) (A) (A) (A) (A) (A) (A) (A) (A)
                 (A) (A) (A) (A) (A) (A) (A) (A) (A) (A) (A) (A)
                 (A) (A) (A) (A) (A) (A) (A) (A) (A) (A) (A) (A)
                 (A) (A) (A) (A) (A) (A) (A) (A) (A) (A) (A)
       Virtual   (A) (A) (A) (A) (A) (A) (A) (A) (A) (A) (A) (A)
                 (A) (A) (A) (A) (A) (A) (A) (A) (A) (A) (A) (A)
                 (A) (A) (A) (A) (A) (A) (A) (A) (A) (A) (A) (A)
                 (A) (A) (A) (A) (A) (A) (A) (A) (A) (A) (A) (A)
                 (A) (A) (A) (A) (A) (A) (A) (A) (A) (A) (A) (A)
                 (A) (A) (A) (A) (A) (A) (A) (A) (A) (A) (A) (A)
                 (A) (A) (A) (A) (A) (A) (A) (A) (A) (A) (A) (A)
                 (A) (A) (A) (A) (A) (A) (A) (A) (A) (A) (A) (A)
                 (A) (A) (A) (A) (A) (A) (A) (A) (A) (A) (A) (A)
                 (A) (A) (A) (A) (A) (A) (A) (A) (A) (A) (A) (A)
                 (A) (A) (A) (A) (A) (A) (A) (A) (A) (A) (A) (A)
                 (A) (A) (A) (A) (A) (A) (A) (A) (A) (A) (A) (A)
                 (A) (A) (A) (A) (A) (A) (A) (A) (A) (A) (A) (A)
                 (A) (A) (A) (A) (A) (A) (A) (A) (A) (A) (A) (A)
                 (A) (A) (A) (A) (A) (A) (A) (A) (A) (A) (A) (A)
                 (A) (A) (A) (A) (A) (A) (A) (A) (A) (A) (A) (A)
                 (A) (A) (A) (A) (A) (A) (A) (A) (A) (A) (A) (A)
                 (A) (A) (A) (A) (A) (A) (A) (A) (A) (A) (A) (A)
                 (A) (A) (A) (A) (A) (A) (A) (A) (A) (A) (A) (A)
                 (A) (A) (A) (A) (A) (A) (A) (A) (A) (A) (A) (A)
                 (A) (A) (A) (A) (A) (A) (A) (A) (A) (A) (A) (A)
                 (A) (A) (A) (A)
 The electronic state of the initial guess is 1-A.
 Requested convergence on RMS density matrix=1.00D-08 within 128 cycles.
 Requested convergence on MAX density matrix=1.00D-06.
 Requested convergence on             energy=1.00D-06.
 No special actions if energy rises.
 Error on total polarization charges =  0.01419
 SCF Done:  E(RmPW1PW91) =  -594.195971940     A.U. after   13 cycles
             Convg  =    0.2836D-08             -V/T =  2.0094
 Range of M.O.s used for correlation:     1   303
 NBasis=   303 NAE=    47 NBE=    47 NFC=     0 NFV=     0
 NROrb=    303 NOA=    47 NOB=    47 NVA=   256 NVB=   256

 **** Warning!!: The largest alpha MO coefficient is  0.63883190D+02

 NEqPCM:  Using equilibrium solvation (IEInf=0, Eps=  78.3553, EpsInf=   1.7778)
          Differentiating once with respect to magnetic field using GIAOs.
          Electric field/nuclear overlap derivatives assumed to be zero.
 FoFCou: FMM=F IPFlag=           0 FMFlag=    10101102 FMFlg1=           0
         NFxFlg=    40000000 DoJE=F BraDBF=F KetDBF=T FulRan=T
         Omega=  0.000000  0.000000  1.000000  0.000000  0.000000 ICntrl=    6100 IOpCl=  0
         NMat0=    1 NMatS0=    1 NMatT0=    0 NMatD0=    1 NMtDS0=    0 NMtDT0=    0
         I1Cent=           7 NGrid=        1842.
 Symmetry not used in FoFCou.
          There are     3 degrees of freedom in the 1st order CPHF.  IDoFFX=0.
      3 vectors produced by pass  0 Test12= 4.01D-13 3.33D-08 XBig12= 3.02D+01 9.40D-01.
 AX will form     3 AO Fock derivatives at one time.
      3 vectors produced by pass  1 Test12= 4.01D-13 3.33D-08 XBig12= 8.05D-02 4.64D-02.
      3 vectors produced by pass  2 Test12= 4.01D-13 3.33D-08 XBig12= 1.63D-04 2.89D-03.
      3 vectors produced by pass  3 Test12= 4.01D-13 3.33D-08 XBig12= 6.19D-07 1.50D-04.
      3 vectors produced by pass  4 Test12= 4.01D-13 3.33D-08 XBig12= 2.03D-09 9.19D-06.
      3 vectors produced by pass  5 Test12= 4.01D-13 3.33D-08 XBig12= 7.14D-12 5.98D-07.
 Inverted reduced A of dimension    18 with in-core refinement.
 Calculating GIAO nuclear magnetic shielding tensors.
 SCF GIAO Magnetic shielding tensor (ppm):
      1  C    Isotropic =   165.3718   Anisotropy =    14.9300
   XX=   172.1660   YX=     2.2905   ZX=     7.1485
   XY=    -3.9630   YY=   172.1265   ZY=    10.0910
   XZ=     8.4644   YZ=     1.1239   ZZ=   151.8227
   Eigenvalues:   147.8865   172.9037   175.3251
      2  C    Isotropic =   127.2544   Anisotropy =    50.7212
   XX=   128.5030   YX=    -0.3207   ZX=    -1.7935
   XY=   -13.0706   YY=   155.3004   ZY=    17.6092
   XZ=     8.9780   YZ=    17.0582   ZZ=    97.9597
   Eigenvalues:    92.3527   128.3419   161.0685
      3  N    Isotropic =   205.8763   Anisotropy =    65.3362
   XX=   231.7286   YX=     3.8062   ZX=   -18.6660
   XY=    11.7363   YY=   219.1995   ZY=    49.5351
   XZ=   -31.4241   YZ=    43.6934   ZZ=   166.7009
   Eigenvalues:   132.8348   235.3604   249.4338
      4  C    Isotropic =   136.7740   Anisotropy =    63.2959
   XX=   166.9924   YX=     3.9031   ZX=    18.6882
   XY=    14.4786   YY=   115.8812   ZY=    14.3850
   XZ=    19.5983   YZ=    24.7340   ZZ=   127.4483
   Eigenvalues:   100.9658   130.3849   178.9712
      5  C    Isotropic =   166.9634   Anisotropy =    22.4477
   XX=   178.8009   YX=    -1.7296   ZX=     6.1102
   XY=     4.4113   YY=   175.3007   ZY=    15.0447
   XZ=    -2.2626   YZ=    11.9790   ZZ=   146.7887
   Eigenvalues:   141.3582   177.6035   181.9285
      6  C    Isotropic =   124.9435   Anisotropy =    49.5612
   XX=   148.2536   YX=     0.7744   ZX=   -16.7003
   XY=    11.8158   YY=   102.9535   ZY=    -0.8384
   XZ=   -17.2555   YZ=    -8.2724   ZZ=   123.6234
   Eigenvalues:   101.7756   115.0706   157.9843
      7  C    Isotropic =   120.9515   Anisotropy =    49.9952
   XX=   141.6383   YX=     4.8915   ZX=   -17.2821
   XY=    18.3033   YY=   113.6178   ZY=     8.1484
   XZ=   -27.9768   YZ=     6.1210   ZZ=   107.5985
   Eigenvalues:    90.3460   118.2268   154.2817
      8  C    Isotropic =   116.2139   Anisotropy =    36.4046
   XX=   114.2532   YX=    -2.2237   ZX=   -16.4229
   XY=   -12.4674   YY=   136.2723   ZY=     0.2922
   XZ=   -12.3270   YZ=     8.8962   ZZ=    98.1162
   Eigenvalues:    89.6987   118.4594   140.4836
      9  H    Isotropic =    29.9426   Anisotropy =    10.6154
   XX=    31.4082   YX=    -3.2592   ZX=    -2.5195
   XY=    -3.8107   YY=    31.5360   ZY=     3.8149
   XZ=    -2.8189   YZ=     3.5691   ZZ=    26.8837
   Eigenvalues:    24.7577    28.0506    37.0196
     10  H    Isotropic =    30.0071   Anisotropy =     6.9019
   XX=    29.8002   YX=     0.8163   ZX=     1.3685
   XY=     0.7690   YY=    30.2855   ZY=    -4.2133
   XZ=     1.4849   YZ=    -4.6985   ZZ=    29.9356
   Eigenvalues:    25.1175    30.2954    34.6083
     11  H    Isotropic =    28.0708   Anisotropy =     7.6643
   XX=    25.7924   YX=    -1.2493   ZX=    -1.1698
   XY=    -0.9255   YY=    25.5306   ZY=     1.5113
   XZ=     0.0120   YZ=     1.0308   ZZ=    32.8894
   Eigenvalues:    24.5241    26.5079    33.1803
     12  H    Isotropic =    28.1359   Anisotropy =     9.9677
   XX=    27.9365   YX=     3.4121   ZX=     0.8845
   XY=     2.5214   YY=    33.3053   ZY=     0.7400
   XZ=     1.3166   YZ=     1.2522   ZZ=    23.1658
   Eigenvalues:    22.9109    26.7157    34.7810
     13  H    Isotropic =    28.9240   Anisotropy =     8.7571
   XX=    28.8276   YX=     1.0498   ZX=     2.6977
   XY=     1.1330   YY=    25.3498   ZY=     3.3640
   XZ=     1.2220   YZ=     3.3995   ZZ=    32.5946
   Eigenvalues:    23.9964    28.0136    34.7621
     14  H    Isotropic =    29.7851   Anisotropy =    11.1524
   XX=    31.3714   YX=     2.6055   ZX=    -5.0070
   XY=     2.6601   YY=    28.4320   ZY=    -2.1812
   XZ=    -5.5346   YZ=    -2.4936   ZZ=    29.5518
   Eigenvalues:    25.1089    27.0263    37.2200
     15  H    Isotropic =    29.5882   Anisotropy =    11.6642
   XX=    34.6589   YX=     0.3578   ZX=     4.9944
   XY=     1.1619   YY=    26.2648   ZY=     1.0525
   XZ=     4.9154   YZ=     0.5847   ZZ=    27.8410
   Eigenvalues:    25.1067    26.2936    37.3644
     16  H    Isotropic =    28.7992   Anisotropy =     5.3174
   XX=    28.1613   YX=    -0.1368   ZX=    -1.1884
   XY=    -0.5560   YY=    27.1570   ZY=     2.6558
   XZ=     0.8907   YZ=     2.4175   ZZ=    31.0793
   Eigenvalues:    25.8852    28.1683    32.3441
     17  H    Isotropic =    27.2008   Anisotropy =     3.7671
   XX=    29.4648   YX=     0.7283   ZX=     1.1330
   XY=     1.4772   YY=    24.5302   ZY=    -1.1174
   XZ=    -0.6202   YZ=    -2.5678   ZZ=    27.6074
   Eigenvalues:    23.4635    28.4267    29.7122
     18  H    Isotropic =    27.0471   Anisotropy =     5.2936
   XX=    25.5888   YX=    -0.5323   ZX=     2.9047
   XY=    -1.9915   YY=    29.9227   ZY=    -1.2446
   XZ=     2.8447   YZ=     0.6023   ZZ=    25.6298
   Eigenvalues:    22.6709    27.8942    30.5761
     19  O    Isotropic =   302.0593   Anisotropy =    59.2029
   XX=   280.5283   YX=   -30.3249   ZX=     1.3766
   XY=   -12.0844   YY=   304.8169   ZY=    16.9465
   XZ=    -8.1527   YZ=    29.7561   ZZ=   320.8326
   Eigenvalues:   266.5172   298.1327   341.5279
     20  H    Isotropic =    29.9959   Anisotropy =    20.2727
   XX=    21.8694   YX=    -2.5947   ZX=    -3.9231
   XY=    -2.7147   YY=    32.8256   ZY=     8.4958
   XZ=    -3.6084   YZ=     8.2837   ZZ=    35.2927
   Eigenvalues:    20.8564    25.6202    43.5110
     21  O    Isotropic =   304.4840   Anisotropy =    39.0266
   XX=   302.7230   YX=     0.6908   ZX=    -1.2858
   XY=    20.9960   YY=   326.1948   ZY=     1.9549
   XZ=    17.0778   YZ=    -4.5168   ZZ=   284.5341
   Eigenvalues:   280.9821   301.9681   330.5017
     22  H    Isotropic =    29.5800   Anisotropy =    18.7574
   XX=    27.8304   YX=     4.6649   ZX=    -2.4944
   XY=     3.5581   YY=    40.3295   ZY=    -2.5872
   XZ=    -3.9281   YZ=    -2.4404   ZZ=    20.5799
   Eigenvalues:    19.3196    27.3354    42.0849
     23  C    Isotropic =   133.4400   Anisotropy =    52.0791
   XX=   115.2863   YX=    -9.6010   ZX=     2.4561
   XY=    -4.2347   YY=   120.4890   ZY=     8.3792
   XZ=    14.9525   YZ=    14.1006   ZZ=   164.5447
   Eigenvalues:   107.2332   124.9275   168.1594
     24  H    Isotropic =    28.0797   Anisotropy =     9.3932
   XX=    24.2492   YX=    -2.5599   ZX=     1.7136
   XY=    -2.0011   YY=    32.2615   ZY=     2.3586
   XZ=     1.5516   YZ=     4.6838   ZZ=    27.7284
   Eigenvalues:    22.3036    27.5936    34.3418
     25  H    Isotropic =    27.7161   Anisotropy =     6.1924
   XX=    29.6533   YX=    -2.3396   ZX=    -1.7556
   XY=    -1.9544   YY=    26.4495   ZY=    -0.2315
   XZ=    -3.4686   YZ=    -0.1782   ZZ=    27.0454
   Eigenvalues:    24.3886    26.9153    31.8443
     26  O    Isotropic =   315.3545   Anisotropy =    34.0283
   XX=   334.0508   YX=    -7.0183   ZX=   -11.2101
   XY=    -3.9650   YY=   302.8205   ZY=    20.6990
   XZ=    -4.2428   YZ=    -2.7795   ZZ=   309.1922
   Eigenvalues:   296.4970   311.5264   338.0400
     27  H    Isotropic =    29.5045   Anisotropy =    14.2217
   XX=    37.2778   YX=     1.1720   ZX=    -3.1471
   XY=    -0.6995   YY=    21.0840   ZY=    -3.7417
   XZ=    -4.2896   YZ=    -2.4928   ZZ=    30.1516
   Eigenvalues:    20.0677    29.4601    38.9856
 End of Minotr Frequency-dependent properties file   721 does not exist.
 End of Minotr Frequency-dependent properties file   722 does not exist.

 **********************************************************************

            Population analysis using the SCF density.

 **********************************************************************

 Orbital symmetries:
       Occupied  (A) (A) (A) (A) (A) (A) (A) (A) (A) (A) (A) (A)
                 (A) (A) (A) (A) (A) (A) (A) (A) (A) (A) (A) (A)
                 (A) (A) (A) (A) (A) (A) (A) (A) (A) (A) (A) (A)
                 (A) (A) (A) (A) (A) (A) (A) (A) (A) (A) (A)
       Virtual   (A) (A) (A) (A) (A) (A) (A) (A) (A) (A) (A) (A)
                 (A) (A) (A) (A) (A) (A) (A) (A) (A) (A) (A) (A)
                 (A) (A) (A) (A) (A) (A) (A) (A) (A) (A) (A) (A)
                 (A) (A) (A) (A) (A) (A) (A) (A) (A) (A) (A) (A)
                 (A) (A) (A) (A) (A) (A) (A) (A) (A) (A) (A) (A)
                 (A) (A) (A) (A) (A) (A) (A) (A) (A) (A) (A) (A)
                 (A) (A) (A) (A) (A) (A) (A) (A) (A) (A) (A) (A)
                 (A) (A) (A) (A) (A) (A) (A) (A) (A) (A) (A) (A)
                 (A) (A) (A) (A) (A) (A) (A) (A) (A) (A) (A) (A)
                 (A) (A) (A) (A) (A) (A) (A) (A) (A) (A) (A) (A)
                 (A) (A) (A) (A) (A) (A) (A) (A) (A) (A) (A) (A)
                 (A) (A) (A) (A) (A) (A) (A) (A) (A) (A) (A) (A)
                 (A) (A) (A) (A) (A) (A) (A) (A) (A) (A) (A) (A)
                 (A) (A) (A) (A) (A) (A) (A) (A) (A) (A) (A) (A)
                 (A) (A) (A) (A) (A) (A) (A) (A) (A) (A) (A) (A)
                 (A) (A) (A) (A) (A) (A) (A) (A) (A) (A) (A) (A)
                 (A) (A) (A) (A) (A) (A) (A) (A) (A) (A) (A) (A)
                 (A) (A) (A) (A) (A) (A) (A) (A) (A) (A) (A) (A)
                 (A) (A) (A) (A) (A) (A) (A) (A) (A) (A) (A) (A)
                 (A) (A) (A) (A) (A) (A) (A) (A) (A) (A) (A) (A)
                 (A) (A) (A) (A) (A) (A) (A) (A) (A) (A) (A) (A)
                 (A) (A) (A) (A)
 The electronic state is 1-A.
 Alpha  occ. eigenvalues --  -19.26037 -19.25837 -19.24900 -14.41694 -10.30380
 Alpha  occ. eigenvalues --  -10.30096 -10.28878 -10.28226 -10.27784 -10.27075
 Alpha  occ. eigenvalues --  -10.24637 -10.24492  -1.07247  -1.05515  -1.05063
 Alpha  occ. eigenvalues --   -0.96442  -0.82722  -0.79200  -0.75131  -0.71737
 Alpha  occ. eigenvalues --   -0.66626  -0.61295  -0.60336  -0.58630  -0.54779
 Alpha  occ. eigenvalues --   -0.53752  -0.50679  -0.49741  -0.49353  -0.48234
 Alpha  occ. eigenvalues --   -0.45833  -0.44580  -0.43745  -0.41795  -0.40769
 Alpha  occ. eigenvalues --   -0.39707  -0.37899  -0.37201  -0.36598  -0.35767
 Alpha  occ. eigenvalues --   -0.35120  -0.34374  -0.33364  -0.30784  -0.29421
 Alpha  occ. eigenvalues --   -0.28592  -0.23339
 Alpha virt. eigenvalues --    0.00457   0.01296   0.01695   0.02211   0.03760
 Alpha virt. eigenvalues --    0.04190   0.04427   0.04803   0.05307   0.07087
 Alpha virt. eigenvalues --    0.07873   0.08345   0.08661   0.08945   0.09870
 Alpha virt. eigenvalues --    0.10168   0.10557   0.11917   0.12294   0.12771
 Alpha virt. eigenvalues --    0.13182   0.13672   0.14312   0.15189   0.15417
 Alpha virt. eigenvalues --    0.16314   0.16610   0.17155   0.17287   0.18193
 Alpha virt. eigenvalues --    0.18794   0.19286   0.19532   0.20773   0.21026
 Alpha virt. eigenvalues --    0.21703   0.21829   0.22301   0.23166   0.23442
 Alpha virt. eigenvalues --    0.23863   0.24755   0.25069   0.25518   0.26376
 Alpha virt. eigenvalues --    0.26706   0.26832   0.27601   0.28445   0.29213
 Alpha virt. eigenvalues --    0.29664   0.30201   0.30713   0.31331   0.32144
 Alpha virt. eigenvalues --    0.32568   0.33238   0.34172   0.34417   0.35040
 Alpha virt. eigenvalues --    0.35351   0.35927   0.36704   0.37434   0.37887
 Alpha virt. eigenvalues --    0.39261   0.39935   0.40798   0.41118   0.42048
 Alpha virt. eigenvalues --    0.42330   0.43698   0.44907   0.46787   0.48055
 Alpha virt. eigenvalues --    0.49286   0.64730   0.66418   0.67152   0.69326
 Alpha virt. eigenvalues --    0.70470   0.70868   0.72098   0.73493   0.74674
 Alpha virt. eigenvalues --    0.74941   0.76737   0.79556   0.80214   0.81096
 Alpha virt. eigenvalues --    0.82426   0.83028   0.84084   0.85901   0.88862
 Alpha virt. eigenvalues --    0.89948   0.92190   0.94787   0.96489   0.98415
 Alpha virt. eigenvalues --    0.99312   1.00768   1.01491   1.03885   1.05710
 Alpha virt. eigenvalues --    1.07116   1.07385   1.08419   1.08959   1.10392
 Alpha virt. eigenvalues --    1.11550   1.12549   1.13495   1.14792   1.15351
 Alpha virt. eigenvalues --    1.16434   1.18326   1.20271   1.23720   1.23941
 Alpha virt. eigenvalues --    1.26581   1.27732   1.31248   1.33282   1.33635
 Alpha virt. eigenvalues --    1.35384   1.35844   1.37256   1.40272   1.40720
 Alpha virt. eigenvalues --    1.45700   1.45915   1.49939   1.50144   1.53373
 Alpha virt. eigenvalues --    1.54833   1.55600   1.58369   1.59662   1.60351
 Alpha virt. eigenvalues --    1.63346   1.63622   1.67312   1.68456   1.71658
 Alpha virt. eigenvalues --    1.74719   1.75340   1.77436   1.78244   1.79653
 Alpha virt. eigenvalues --    1.81716   1.81997   1.84986   1.85117   1.86737
 Alpha virt. eigenvalues --    1.88409   1.89829   1.90387   1.93266   1.93946
 Alpha virt. eigenvalues --    1.96857   1.98733   2.01081   2.03514   2.05481
 Alpha virt. eigenvalues --    2.06997   2.07610   2.09110   2.10508   2.11780
 Alpha virt. eigenvalues --    2.13848   2.15411   2.16329   2.17610   2.18613
 Alpha virt. eigenvalues --    2.19712   2.22810   2.23307   2.27664   2.27752
 Alpha virt. eigenvalues --    2.30605   2.33234   2.34213   2.37726   2.40240
 Alpha virt. eigenvalues --    2.41781   2.42955   2.45016   2.46717   2.46955
 Alpha virt. eigenvalues --    2.48346   2.49890   2.51982   2.53802   2.54562
 Alpha virt. eigenvalues --    2.56624   2.57836   2.59231   2.61270   2.62713
 Alpha virt. eigenvalues --    2.65392   2.66002   2.67801   2.68962   2.69115
 Alpha virt. eigenvalues --    2.69994   2.72550   2.75301   2.75685   2.77213
 Alpha virt. eigenvalues --    2.79791   2.81171   2.83648   2.84927   2.85331
 Alpha virt. eigenvalues --    2.87046   2.87755   2.88960   2.92362   2.94191
 Alpha virt. eigenvalues --    2.96261   2.98312   2.98739   3.02527   3.04698
 Alpha virt. eigenvalues --    3.06412   3.08777   3.13575   3.19054   3.32035
 Alpha virt. eigenvalues --    3.35788   3.36529   3.37188   3.40985   3.47829
 Alpha virt. eigenvalues --    3.48550   3.50073   3.52284   3.53648   3.55525
 Alpha virt. eigenvalues --    3.56630   3.58023   3.59890   3.64460   4.30527
 Alpha virt. eigenvalues --    4.38483   4.43124   4.44286   4.51350   4.54489
 Alpha virt. eigenvalues --    4.62191   4.65499   4.79331   4.83402   4.87476
 Alpha virt. eigenvalues --    4.92799
          Condensed to atoms (all electrons):
              1          2          3          4          5          6
     1  C    6.058243  -0.574039   0.112340  -0.209219  -0.125314  -0.073107
     2  C   -0.574039   7.977687  -0.287811  -0.146546   0.313536  -0.010652
     3  N    0.112340  -0.287811   7.552401   0.131156  -0.252631  -0.238712
     4  C   -0.209219  -0.146546   0.131156   5.562054   0.162540  -0.160755
     5  C   -0.125314   0.313536  -0.252631   0.162540   5.841359   0.113022
     6  C   -0.073107  -0.010652  -0.238712  -0.160755   0.113022   8.089298
     7  C   -0.062978   0.220371  -0.178787   0.017467  -0.015225  -0.096232
     8  C    0.296999  -0.977442   0.098964   0.130192  -0.212239  -0.583759
     9  H    0.365403  -0.043155   0.014046   0.021324  -0.010632  -0.004105
    10  H    0.508917  -0.198306   0.036999   0.023570  -0.100928   0.004185
    11  H    0.049632   0.179066  -0.012753   0.003576  -0.042602   0.019485
    12  H    0.024608   0.003010  -0.051833   0.397809  -0.048484  -0.005439
    13  H    0.010207  -0.008014  -0.078123   0.430495  -0.025562   0.000530
    14  H   -0.001757  -0.043637   0.017942  -0.028875   0.369787   0.002240
    15  H   -0.052382   0.041931   0.005737  -0.023058   0.374796  -0.003950
    16  H   -0.006111   0.023650  -0.046358   0.014601   0.009280   0.247632
    17  H   -0.005813   0.014714   0.014751   0.010821  -0.006375  -0.049058
    18  H    0.001967  -0.077569   0.022067   0.006308  -0.001712   0.019437
    19  O   -0.025128  -0.167387   0.012592  -0.011962   0.026903   0.075684
    20  H   -0.003096  -0.034541   0.002596   0.001915  -0.002574  -0.012654
    21  O    0.003566   0.012610   0.036494  -0.008098   0.003063  -0.243112
    22  H    0.000078   0.009812  -0.004647  -0.001420   0.000665   0.071480
    23  C    0.062565  -0.176099   0.174820  -0.080628  -0.026479  -0.744433
    24  H   -0.000259  -0.001720  -0.010111   0.005361   0.004880  -0.038840
    25  H    0.001006   0.007801   0.016853  -0.000710   0.000154  -0.160605
    26  O    0.002455  -0.012239   0.042547   0.000754   0.000869  -0.237548
    27  H    0.005334   0.018656   0.040926   0.006564   0.000189  -0.060549
              7          8          9         10         11         12
     1  C   -0.062978   0.296999   0.365403   0.508917   0.049632   0.024608
     2  C    0.220371  -0.977442  -0.043155  -0.198306   0.179066   0.003010
     3  N   -0.178787   0.098964   0.014046   0.036999  -0.012753  -0.051833
     4  C    0.017467   0.130192   0.021324   0.023570   0.003576   0.397809
     5  C   -0.015225  -0.212239  -0.010632  -0.100928  -0.042602  -0.048484
     6  C   -0.096232  -0.583759  -0.004105   0.004185   0.019485  -0.005439
     7  C    6.161739  -0.055299   0.004962  -0.015426  -0.020834  -0.001547
     8  C   -0.055299   6.449234  -0.009250   0.059241   0.074345   0.000144
     9  H    0.004962  -0.009250   0.516134  -0.023103  -0.003257  -0.000085
    10  H   -0.015426   0.059241  -0.023103   0.521784   0.004194  -0.000065
    11  H   -0.020834   0.074345  -0.003257   0.004194   0.564649   0.000393
    12  H   -0.001547   0.000144  -0.000085  -0.000065   0.000393   0.553551
    13  H   -0.006552   0.004225  -0.000154   0.001127  -0.000435  -0.040684
    14  H   -0.003412   0.010368  -0.004653   0.004271   0.001280  -0.006765
    15  H    0.000835  -0.001860   0.000032  -0.004979  -0.000062   0.001604
    16  H    0.044976   0.015658   0.000001  -0.000104  -0.000238  -0.000416
    17  H    0.364258  -0.010629   0.000062  -0.000041  -0.000136   0.000017
    18  H   -0.105072   0.466276  -0.000088   0.000025  -0.006466   0.000008
    19  O   -0.167531   0.356806  -0.000116  -0.001510   0.002004   0.000057
    20  H    0.025979   0.026053   0.000090   0.000305   0.001088   0.000000
    21  O    0.349457  -0.097777   0.000010   0.000017   0.000193   0.000123
    22  H    0.001537  -0.061054  -0.000001   0.000001  -0.000009   0.000000
    23  C   -0.377538   0.161896   0.000243   0.000830   0.013056   0.011302
    24  H    0.028338  -0.000943   0.000000   0.000000  -0.000003  -0.000004
    25  H   -0.010921   0.000427   0.000000   0.000000  -0.000010  -0.000008
    26  O    0.045153   0.023380   0.000028   0.000022   0.001796   0.000408
    27  H   -0.015957  -0.009443  -0.000004  -0.000001  -0.001080  -0.000156
             13         14         15         16         17         18
     1  C    0.010207  -0.001757  -0.052382  -0.006111  -0.005813   0.001967
     2  C   -0.008014  -0.043637   0.041931   0.023650   0.014714  -0.077569
     3  N   -0.078123   0.017942   0.005737  -0.046358   0.014751   0.022067
     4  C    0.430495  -0.028875  -0.023058   0.014601   0.010821   0.006308
     5  C   -0.025562   0.369787   0.374796   0.009280  -0.006375  -0.001712
     6  C    0.000530   0.002240  -0.003950   0.247632  -0.049058   0.019437
     7  C   -0.006552  -0.003412   0.000835   0.044976   0.364258  -0.105072
     8  C    0.004225   0.010368  -0.001860   0.015658  -0.010629   0.466276
     9  H   -0.000154  -0.004653   0.000032   0.000001   0.000062  -0.000088
    10  H    0.001127   0.004271  -0.004979  -0.000104  -0.000041   0.000025
    11  H   -0.000435   0.001280  -0.000062  -0.000238  -0.000136  -0.006466
    12  H   -0.040684  -0.006765   0.001604  -0.000416   0.000017   0.000008
    13  H    0.559588   0.003973  -0.005656   0.007039   0.000355   0.000002
    14  H    0.003973   0.524530  -0.024397  -0.000012   0.000006   0.000005
    15  H   -0.005656  -0.024397   0.512762  -0.000023   0.000003   0.000002
    16  H    0.007039  -0.000012  -0.000023   0.550912  -0.009485  -0.000177
    17  H    0.000355   0.000006   0.000003  -0.009485   0.554760   0.004389
    18  H    0.000002   0.000005   0.000002  -0.000177   0.004389   0.538306
    19  O    0.000015   0.000068   0.000048  -0.000648  -0.004001  -0.048407
    20  H    0.000000   0.000001   0.000000   0.000004   0.000142  -0.005867
    21  O   -0.000652  -0.000001  -0.000003   0.002849  -0.044263  -0.002635
    22  H    0.000003   0.000000   0.000000  -0.000178  -0.005470  -0.000793
    23  C   -0.009055   0.001158   0.000195  -0.026626  -0.001580   0.005838
    24  H    0.000064   0.000001   0.000000  -0.002725  -0.000123  -0.000050
    25  H    0.000005   0.000000   0.000000   0.002098   0.000020   0.000097
    26  O   -0.000246   0.000013   0.000002   0.009104  -0.001192  -0.005592
    27  H    0.000036  -0.000001  -0.000001   0.000208  -0.000023  -0.001026
             19         20         21         22         23         24
     1  C   -0.025128  -0.003096   0.003566   0.000078   0.062565  -0.000259
     2  C   -0.167387  -0.034541   0.012610   0.009812  -0.176099  -0.001720
     3  N    0.012592   0.002596   0.036494  -0.004647   0.174820  -0.010111
     4  C   -0.011962   0.001915  -0.008098  -0.001420  -0.080628   0.005361
     5  C    0.026903  -0.002574   0.003063   0.000665  -0.026479   0.004880
     6  C    0.075684  -0.012654  -0.243112   0.071480  -0.744433  -0.038840
     7  C   -0.167531   0.025979   0.349457   0.001537  -0.377538   0.028338
     8  C    0.356806   0.026053  -0.097777  -0.061054   0.161896  -0.000943
     9  H   -0.000116   0.000090   0.000010  -0.000001   0.000243   0.000000
    10  H   -0.001510   0.000305   0.000017   0.000001   0.000830   0.000000
    11  H    0.002004   0.001088   0.000193  -0.000009   0.013056  -0.000003
    12  H    0.000057   0.000000   0.000123   0.000000   0.011302  -0.000004
    13  H    0.000015   0.000000  -0.000652   0.000003  -0.009055   0.000064
    14  H    0.000068   0.000001  -0.000001   0.000000   0.001158   0.000001
    15  H    0.000048   0.000000  -0.000003   0.000000   0.000195   0.000000
    16  H   -0.000648   0.000004   0.002849  -0.000178  -0.026626  -0.002725
    17  H   -0.004001   0.000142  -0.044263  -0.005470  -0.001580  -0.000123
    18  H   -0.048407  -0.005867  -0.002635  -0.000793   0.005838  -0.000050
    19  O    8.240279   0.244375  -0.008697   0.010727   0.007178  -0.000015
    20  H    0.244375   0.365232   0.000896  -0.000420   0.000047   0.000000
    21  O   -0.008697   0.000896   8.277894   0.225508   0.032892  -0.001653
    22  H    0.010727  -0.000420   0.225508   0.374584  -0.004760  -0.000002
    23  C    0.007178   0.000047   0.032892  -0.004760   5.973273   0.376316
    24  H   -0.000015   0.000000  -0.001653  -0.000002   0.376316   0.585476
    25  H   -0.000020   0.000000   0.002157   0.000028   0.521153  -0.037034
    26  O   -0.001120   0.000193   0.000910  -0.000644   0.254519  -0.053977
    27  H    0.000097  -0.000006  -0.000522   0.000011   0.022374  -0.004987
             25         26         27
     1  C    0.001006   0.002455   0.005334
     2  C    0.007801  -0.012239   0.018656
     3  N    0.016853   0.042547   0.040926
     4  C   -0.000710   0.000754   0.006564
     5  C    0.000154   0.000869   0.000189
     6  C   -0.160605  -0.237548  -0.060549
     7  C   -0.010921   0.045153  -0.015957
     8  C    0.000427   0.023380  -0.009443
     9  H    0.000000   0.000028  -0.000004
    10  H    0.000000   0.000022  -0.000001
    11  H   -0.000010   0.001796  -0.001080
    12  H   -0.000008   0.000408  -0.000156
    13  H    0.000005  -0.000246   0.000036
    14  H    0.000000   0.000013  -0.000001
    15  H    0.000000   0.000002  -0.000001
    16  H    0.002098   0.009104   0.000208
    17  H    0.000020  -0.001192  -0.000023
    18  H    0.000097  -0.005592  -0.001026
    19  O   -0.000020  -0.001120   0.000097
    20  H    0.000000   0.000193  -0.000006
    21  O    0.002157   0.000910  -0.000522
    22  H    0.000028  -0.000644   0.000011
    23  C    0.521153   0.254519   0.022374
    24  H   -0.037034  -0.053977  -0.004987
    25  H    0.533453  -0.051885   0.006717
    26  O   -0.051885   8.285692   0.246972
    27  H    0.006717   0.246972   0.361497
 Mulliken atomic charges:
              1
     1  C   -0.364118
     2  C   -0.063687
     3  N   -0.171467
     4  C   -0.255238
     5  C   -0.350285
     6  C    0.080519
     7  C   -0.131763
     8  C   -0.154513
     9  H    0.176268
    10  H    0.178979
    11  H    0.173128
    12  H    0.162451
    13  H    0.157469
    14  H    0.177865
    15  H    0.178421
    16  H    0.165088
    17  H    0.173891
    18  H    0.190726
    19  O   -0.540291
    20  H    0.390241
    21  O   -0.541226
    22  H    0.384965
    23  C   -0.172457
    24  H    0.152010
    25  H    0.169222
    26  O   -0.550375
    27  H    0.384175
 Sum of Mulliken atomic charges =   0.00000
 Mulliken charges with hydrogens summed into heavy atoms:
              1
     1  C   -0.008871
     2  C    0.109441
     3  N   -0.171467
     4  C    0.064683
     5  C    0.006002
     6  C    0.245607
     7  C    0.042127
     8  C    0.036213
    19  O   -0.150050
    21  O   -0.156261
    23  C    0.148775
    26  O   -0.166199
 Sum of Mulliken charges with hydrogens summed into heavy atoms =   0.00000
 Electronic spatial extent (au):  <R**2>=           1977.6780
 Charge=              0.0000 electrons
 Dipole moment (field-independent basis, Debye):
    X=             -4.5601    Y=              1.0202    Z=             -0.2743  Tot=              4.6809
 Quadrupole moment (field-independent basis, Debye-Ang):
   XX=            -80.3574   YY=            -70.5261   ZZ=            -70.1098
   XY=              3.5354   XZ=             -4.3478   YZ=              7.3583
 Traceless Quadrupole moment (field-independent basis, Debye-Ang):
   XX=             -6.6929   YY=              3.1383   ZZ=              3.5546
   XY=              3.5354   XZ=             -4.3478   YZ=              7.3583
 Octapole moment (field-independent basis, Debye-Ang**2):
  XXX=            -23.3045  YYY=             13.7511  ZZZ=              6.6550  XYY=              7.9796
  XXY=             12.4704  XXZ=            -10.0710  XZZ=             -8.6376  YZZ=             13.8768
  YYZ=              7.5702  XYZ=              1.7823
 Hexadecapole moment (field-independent basis, Debye-Ang**3):
 XXXX=          -1392.4682 YYYY=           -836.6337 ZZZZ=           -323.7285 XXXY=             34.6400
 XXXZ=            -23.5920 YYYX=             21.8262 YYYZ=             42.6986 ZZZX=             -6.5982
 ZZZY=              7.3908 XXYY=           -349.8986 XXZZ=           -304.9693 YYZZ=           -173.0200
 XXYZ=             15.6978 YYXZ=            -29.7592 ZZXY=             11.3022
 N-N= 8.118348862609D+02 E-N=-3.009677608143D+03  KE= 5.886557055382D+02
 1\1\GINC-COMPUTE-3-2\SP\RmPW1PW91\6-31+G(d,p)\C8H15N1O3\MAMICHETTI.IQU
 IR\17-May-2024\0\\# mpw1pw91/6-31+G** nmr scrf=(pcm,solvent=water)\\co
 mment\\0,1\C,0,-2.221817,0.765615,0.090758\C,0,-0.898414,0.345071,0.74
 4273\N,0,-0.549513,-0.983556,0.133424\C,0,-1.740758,-1.475116,-0.60541
 2\C,0,-2.90314,-0.589984,-0.137959\C,0,0.694105,-0.850368,-0.666401\C,
 0,0.931197,0.668476,-0.785088\C,0,0.323909,1.24621,0.490416\H,0,-2.804
 427,1.446137,0.719471\H,0,-2.03854,1.263644,-0.868825\H,0,-1.058972,0.
 220546,1.82281\H,0,-1.919223,-2.53895,-0.408018\H,0,-1.593752,-1.36441
 1,-1.689571\H,0,-3.318225,-0.967993,0.804462\H,0,-3.714144,-0.552815,-
 0.87194\H,0,0.546408,-1.282812,-1.662776\H,0,0.345364,1.048098,-1.6352
 99\H,0,1.049246,1.135032,1.304821\O,0,0.030128,2.630858,0.293669\H,0,-
 0.211927,3.002763,1.158031\O,0,2.308377,0.983709,-0.976135\H,0,2.36692
 6,1.95301,-1.025497\C,0,1.833977,-1.636674,-0.009604\H,0,1.63311,-2.71
 0183,-0.14275\H,0,2.789973,-1.411901,-0.489659\O,0,1.98314,-1.333756,1
 .379445\H,0,1.087258,-1.44113,1.749039\\Version=AM64L-G09RevC.01\State
 =1-A\HF=-594.1959719\RMSD=2.836e-09\Dipole=-1.7940994,0.4013743,-0.107
 9266\Quadrupole=-4.9760415,2.333281,2.6427604,2.6285009,-3.2324485,5.4
 706903\PG=C01 [X(C8H15N1O3)]\\@


 SCIENCE IS A VERY HUMAN FORM OF KNOWLEDGE.
 WE ARE ALWAYS AT THE BRINK OF THE KNOWN,
 WE ALWAYS FEEL FORWARD FOR WHAT IS HOPED.
 EVERY JUDGEMENT IN SCIENCE STANDS ON THE EDGE OF ERROR, AND IS PERSONAL.
 SCIENCE IS A TRIBUTE TO WHAT WE CAN KNOW ALTHOUGH WE ARE FALLIBLE.

                     -- J. BRONOWSKI
 Job cpu time:  0 days  0 hours  8 minutes 55.6 seconds.
 File lengths (MBytes):  RWF=    114 Int=      0 D2E=      0 Chk=      7 Scr=      1
 Normal termination of Gaussian 09 at Fri May 17 12:28:38 2024.
