 Entering Gaussian System, Link 0=g09
 Input=/home/mamichetti.iquir/Linux/03_Cardona_A1A3_R__S_S_R_036_OptB.gjc
 Output=/home/mamichetti.iquir/Linux/03_Cardona_A1A3_R__S_S_R_036_OptB.log
 Initial command:
 /opt/ohpc/pub/apps/software/Gaussian/09/AMD64.SSE4a-enabled/g09/l1.exe /local/mamichetti.iquir/Gau-129642.inp -scrdir=/local/mamichetti.iquir/
 Entering Link 1 = /opt/ohpc/pub/apps/software/Gaussian/09/AMD64.SSE4a-enabled/g09/l1.exe PID=    129643.
  
 Copyright (c) 1988,1990,1992,1993,1995,1998,2003,2009,2011,
            Gaussian, Inc.  All Rights Reserved.
  
 This is part of the Gaussian(R) 09 program.  It is based on
 the Gaussian(R) 03 system (copyright 2003, Gaussian, Inc.),
 the Gaussian(R) 98 system (copyright 1998, Gaussian, Inc.),
 the Gaussian(R) 94 system (copyright 1995, Gaussian, Inc.),
 the Gaussian 92(TM) system (copyright 1992, Gaussian, Inc.),
 the Gaussian 90(TM) system (copyright 1990, Gaussian, Inc.),
 the Gaussian 88(TM) system (copyright 1988, Gaussian, Inc.),
 the Gaussian 86(TM) system (copyright 1986, Carnegie Mellon
 University), and the Gaussian 82(TM) system (copyright 1983,
 Carnegie Mellon University). Gaussian is a federally registered
 trademark of Gaussian, Inc.
  
 This software contains proprietary and confidential information,
 including trade secrets, belonging to Gaussian, Inc.
  
 This software is provided under written license and may be
 used, copied, transmitted, or stored only in accord with that
 written license.
  
 The following legend is applicable only to US Government
 contracts under FAR:
  
                    RESTRICTED RIGHTS LEGEND
  
 Use, reproduction and disclosure by the US Government is
 subject to restrictions as set forth in subparagraphs (a)
 and (c) of the Commercial Computer Software - Restricted
 Rights clause in FAR 52.227-19.
  
 Gaussian, Inc.
 340 Quinnipiac St., Bldg. 40, Wallingford CT 06492
  
  
 ---------------------------------------------------------------
 Warning -- This program may not be used in any manner that
 competes with the business of Gaussian, Inc. or will provide
 assistance to any competitor of Gaussian, Inc.  The licensee
 of this program is prohibited from giving any competitor of
 Gaussian, Inc. access to this program.  By using this program,
 the user acknowledges that Gaussian, Inc. is engaged in the
 business of creating and licensing software in the field of
 computational chemistry and represents and warrants to the
 licensee that it is not a competitor of Gaussian, Inc. and that
 it will not use this program in any manner prohibited above.
 ---------------------------------------------------------------
  

 Cite this work as:
 Gaussian 09, Revision C.01,
 M. J. Frisch, G. W. Trucks, H. B. Schlegel, G. E. Scuseria, 
 M. A. Robb, J. R. Cheeseman, G. Scalmani, V. Barone, B. Mennucci, 
 G. A. Petersson, H. Nakatsuji, M. Caricato, X. Li, H. P. Hratchian, 
 A. F. Izmaylov, J. Bloino, G. Zheng, J. L. Sonnenberg, M. Hada, 
 M. Ehara, K. Toyota, R. Fukuda, J. Hasegawa, M. Ishida, T. Nakajima, 
 Y. Honda, O. Kitao, H. Nakai, T. Vreven, J. A. Montgomery, Jr., 
 J. E. Peralta, F. Ogliaro, M. Bearpark, J. J. Heyd, E. Brothers, 
 K. N. Kudin, V. N. Staroverov, T. Keith, R. Kobayashi, J. Normand, 
 K. Raghavachari, A. Rendell, J. C. Burant, S. S. Iyengar, J. Tomasi, 
 M. Cossi, N. Rega, J. M. Millam, M. Klene, J. E. Knox, J. B. Cross, 
 V. Bakken, C. Adamo, J. Jaramillo, R. Gomperts, R. E. Stratmann, 
 O. Yazyev, A. J. Austin, R. Cammi, C. Pomelli, J. W. Ochterski, 
 R. L. Martin, K. Morokuma, V. G. Zakrzewski, G. A. Voth, 
 P. Salvador, J. J. Dannenberg, S. Dapprich, A. D. Daniels, 
 O. Farkas, J. B. Foresman, J. V. Ortiz, J. Cioslowski, 
 and D. J. Fox, Gaussian, Inc., Wallingford CT, 2010.
 
 ******************************************
 Gaussian 09:  AM64L-G09RevC.01 23-Sep-2011
                17-May-2024 
 ******************************************
 %nprocshared=4
 Will use up to    4 processors via shared memory.
 ------------------------------------------------
 # mpw1pw91/6-31+G** nmr scrf=(pcm,solvent=water)
 ------------------------------------------------
 1/38=1/1;
 2/12=2,17=6,18=5,40=1/2;
 3/5=1,6=6,7=111,11=2,16=1,25=1,30=1,70=2201,72=1,74=-7/1,2,8,3;
 4//1;
 5/5=2,38=5,53=1/2;
 8/6=1,10=90,11=11/1;
 10/13=100,45=16/2;
 6/7=2,8=2,9=2,10=2,28=1/1;
 99/9=1/99;
 -------
 comment
 -------
 Charge =  0 Multiplicity = 1
 Symbolic Z-Matrix:
 6                    -2.21708   0.78734   0.05141 
 6                    -0.90873   0.36472   0.73626 
 7                    -0.55899  -0.97203   0.14889 
 6                    -1.756    -1.48245  -0.56942 
 6                    -2.91225  -0.56618  -0.14619 
 6                     0.67935  -0.85039  -0.66279 
 6                     0.9343    0.67362  -0.77529 
 6                     0.3224    1.24641   0.50063 
 1                    -2.79913   1.49259   0.65237 
 1                    -2.01417   1.25315  -0.92026 
 1                    -1.09544   0.25538   1.81183 
 1                    -1.94721  -2.53427  -0.32527 
 1                    -1.60342  -1.4235   -1.65652 
 1                    -3.34665  -0.90899   0.80089 
 1                    -3.71176  -0.54089  -0.89302 
 1                     0.51656  -1.27487  -1.66083 
 1                     0.36799   1.06179  -1.6327 
 1                     1.04389   1.10606   1.31591 
 8                    -0.04297   2.6229    0.41185 
 1                     0.78306   3.1203    0.28886 
 8                     2.29785   1.08028  -0.8795 
 1                     2.61033   0.8282   -1.76422 
 6                     1.81941  -1.64741  -0.0223 
 1                     1.61915  -2.72024  -0.16234 
 1                     2.77155  -1.41655  -0.50853 
 8                     1.97885  -1.35441   1.36779 
 1                     1.07994  -1.4381    1.73677 
 
                          Input orientation:                          
 ---------------------------------------------------------------------
 Center     Atomic      Atomic             Coordinates (Angstroms)
 Number     Number       Type             X           Y           Z
 ---------------------------------------------------------------------
      1          6           0       -2.217084    0.787339    0.051407
      2          6           0       -0.908725    0.364715    0.736261
      3          7           0       -0.558993   -0.972028    0.148886
      4          6           0       -1.755996   -1.482449   -0.569422
      5          6           0       -2.912250   -0.566175   -0.146189
      6          6           0        0.679345   -0.850390   -0.662786
      7          6           0        0.934302    0.673617   -0.775294
      8          6           0        0.322404    1.246409    0.500627
      9          1           0       -2.799134    1.492587    0.652365
     10          1           0       -2.014173    1.253147   -0.920263
     11          1           0       -1.095444    0.255383    1.811830
     12          1           0       -1.947212   -2.534268   -0.325272
     13          1           0       -1.603418   -1.423504   -1.656522
     14          1           0       -3.346652   -0.908992    0.800887
     15          1           0       -3.711762   -0.540892   -0.893016
     16          1           0        0.516557   -1.274870   -1.660831
     17          1           0        0.367988    1.061786   -1.632698
     18          1           0        1.043893    1.106060    1.315905
     19          8           0       -0.042968    2.622903    0.411849
     20          1           0        0.783061    3.120302    0.288863
     21          8           0        2.297853    1.080285   -0.879504
     22          1           0        2.610325    0.828203   -1.764224
     23          6           0        1.819409   -1.647410   -0.022300
     24          1           0        1.619145   -2.720239   -0.162344
     25          1           0        2.771552   -1.416552   -0.508527
     26          8           0        1.978846   -1.354410    1.367787
     27          1           0        1.079941   -1.438101    1.736771
 ---------------------------------------------------------------------
                    Distance matrix (angstroms):
                    1          2          3          4          5
     1  C    0.000000
     2  C    1.536047   0.000000
     3  N    2.419533   1.501401   0.000000
     4  C    2.397909   2.415511   1.486376   0.000000
     5  C    1.534373   2.378947   2.406160   1.534799   0.000000
     6  C    3.403165   2.440446   1.485627   2.517757   3.639671
     7  C    3.260000   2.403532   2.406696   3.453796   4.090088
     8  C    2.619455   1.532510   2.412891   3.593246   3.763883
     9  H    1.094215   2.202903   3.368390   3.381086   2.211105
    10  H    1.096491   2.180688   2.865664   2.770060   2.171558
    11  H    2.154099   1.097117   2.135345   3.021051   2.794563
    12  H    3.353773   3.257209   2.143029   1.096584   2.199263
    13  H    2.860321   3.066877   2.134046   1.099337   2.174663
    14  H    2.171447   2.751362   2.863585   2.176416   1.096896
    15  H    2.211378   3.366257   3.348341   2.194599   1.094353
    16  H    3.828480   3.235076   2.126875   2.529577   3.814853
    17  H    3.097439   2.779905   2.858275   3.480660   3.952205
    18  H    3.512052   2.167555   2.872216   4.253730   4.537087
    19  O    2.868099   2.440121   3.641286   4.555356   4.326015
    20  H    3.807883   3.264286   4.309045   5.326235   5.237815
    21  O    4.619207   3.661267   3.664852   4.805980   5.513053
    22  H    5.157719   4.341769   4.116479   5.082462   5.921247
    23  C    4.714521   3.473727   2.478355   3.620784   4.855205
    24  H    5.202446   4.088344   2.810230   3.617929   5.017349
    25  H    5.482440   4.273973   3.423788   4.528437   5.758475
    26  O    4.891398   3.419398   2.841226   4.209301   5.180372
    27  H    4.320117   2.864604   2.329100   3.655548   4.499265
                    6          7          8          9         10
     6  C    0.000000
     7  C    1.549277   0.000000
     8  C    2.424356   1.526592   0.000000
     9  H    4.395336   4.080131   3.134905   0.000000
    10  H    3.427273   3.008384   2.734697   1.773881   0.000000
    11  H    3.239805   3.314815   2.170640   2.403662   3.050234
    12  H    3.138178   4.335455   4.486289   4.230497   3.834450
    13  H    2.554795   3.408006   3.935799   3.906953   2.806289
    14  H    4.284206   4.828619   4.265897   2.467674   3.068013
    15  H    4.408017   4.803624   4.627222   2.712218   2.470046
    16  H    1.096712   2.180662   3.326626   4.899337   3.652931
    17  H    2.166585   1.098421   2.141784   3.929092   2.493767
    18  H    2.806387   2.138254   1.097690   3.918998   3.791286
    19  O    3.706797   2.482757   1.426925   2.988631   2.745251
    20  H    4.084457   2.672372   1.941269   3.951419   3.573901
    21  O    2.528644   1.426713   2.415524   5.338154   4.315682
    22  H    2.785592   1.952161   3.246387   5.961842   4.720045
    23  C    1.531408   2.595685   3.299798   5.625451   4.890391
    24  H    2.151744   3.516102   4.225561   6.158964   5.437209
    25  H    2.172939   2.795614   3.756072   6.390877   5.495451
    26  O    2.462918   3.129978   3.203128   5.607701   5.289492
    27  H    2.502750   3.284971   3.050985   4.981174   4.886327
                   11         12         13         14         15
    11  H    0.000000
    12  H    3.615918   0.000000
    13  H    3.886665   1.767546   0.000000
    14  H    2.728683   2.422434   3.056542   0.000000
    15  H    3.846474   2.722043   2.409784   1.771471   0.000000
    16  H    4.123057   3.072452   2.125183   4.595466   4.359696
    17  H    3.828406   4.472261   3.172330   4.858483   4.445230
    18  H    2.355070   4.989204   4.716171   4.858247   5.496184
    19  O    2.944962   5.546702   4.804849   4.851800   5.017202
    20  H    3.749129   6.309177   5.488714   5.792401   5.916470
    21  O    4.408878   5.602923   4.700280   6.216219   6.224457
    22  H    5.181603   5.843624   4.778851   6.714404   6.527037
    23  C    3.934593   3.881461   3.799547   5.283094   5.707572
    24  H    4.485608   3.574917   3.781402   5.372855   5.805343
    25  H    4.809686   4.852794   4.523086   6.277309   6.553470
    26  O    3.498552   4.435363   4.688692   5.374077   6.177059
    27  H    2.757865   3.823252   4.326091   4.555278   5.539060
                   16         17         18         19         20
    16  H    0.000000
    17  H    2.341543   0.000000
    18  H    3.848099   3.025404   0.000000
    19  O    4.449911   2.605023   2.073499   0.000000
    20  H    4.815586   2.846431   2.275966   0.972037   0.000000
    21  O    3.054545   2.071720   2.528419   3.086536   2.796667
    22  H    2.969423   2.258304   3.466714   3.872493   3.578796
    23  C    2.126263   3.469834   3.158135   4.678943   4.888959
    24  H    2.355898   4.246298   4.142065   5.625076   5.917309
    25  H    2.536312   3.630846   3.560468   5.008574   5.017267
    26  O    3.364096   4.175617   2.632630   4.562956   4.755736
    27  H    3.447861   4.255541   2.578989   4.416797   4.792036
                   21         22         23         24         25
    21  O    0.000000
    22  H    0.971552   0.000000
    23  C    2.898970   3.128659   0.000000
    24  H    3.926697   4.017449   1.100309   0.000000
    25  H    2.568309   2.577148   1.093750   1.774115   0.000000
    26  O    3.328637   3.869374   1.429549   2.082348   2.037842
    27  H    3.830205   4.442429   1.919623   2.353987   2.811294
                   26         27
    26  O    0.000000
    27  H    0.975286   0.000000
 Stoichiometry    C8H15NO3
 Framework group  C1[X(C8H15NO3)]
 Deg. of freedom    75
 Full point group                 C1      NOp   1
 Largest Abelian subgroup         C1      NOp   1
 Largest concise Abelian subgroup C1      NOp   1
                         Standard orientation:                         
 ---------------------------------------------------------------------
 Center     Atomic      Atomic             Coordinates (Angstroms)
 Number     Number       Type             X           Y           Z
 ---------------------------------------------------------------------
      1          6           0       -2.217084    0.787339    0.051407
      2          6           0       -0.908725    0.364715    0.736261
      3          7           0       -0.558993   -0.972028    0.148886
      4          6           0       -1.755996   -1.482449   -0.569422
      5          6           0       -2.912250   -0.566175   -0.146189
      6          6           0        0.679345   -0.850390   -0.662786
      7          6           0        0.934302    0.673617   -0.775294
      8          6           0        0.322404    1.246409    0.500627
      9          1           0       -2.799134    1.492587    0.652365
     10          1           0       -2.014173    1.253147   -0.920263
     11          1           0       -1.095444    0.255383    1.811830
     12          1           0       -1.947212   -2.534268   -0.325272
     13          1           0       -1.603418   -1.423504   -1.656522
     14          1           0       -3.346652   -0.908991    0.800887
     15          1           0       -3.711762   -0.540891   -0.893016
     16          1           0        0.516557   -1.274870   -1.660831
     17          1           0        0.367988    1.061786   -1.632698
     18          1           0        1.043893    1.106060    1.315905
     19          8           0       -0.042967    2.622903    0.411849
     20          1           0        0.783062    3.120302    0.288863
     21          8           0        2.297853    1.080284   -0.879504
     22          1           0        2.610325    0.828202   -1.764224
     23          6           0        1.819409   -1.647411   -0.022300
     24          1           0        1.619144   -2.720239   -0.162344
     25          1           0        2.771552   -1.416553   -0.508527
     26          8           0        1.978846   -1.354411    1.367787
     27          1           0        1.079941   -1.438101    1.736771
 ---------------------------------------------------------------------
 Rotational constants (GHZ):      1.2340524      0.8783422      0.6342855
 Standard basis: 6-31+G(d,p) (6D, 7F)
 There are   303 symmetry adapted basis functions of A   symmetry.
 Integral buffers will be    131072 words long.
 Raffenetti 2 integral format.
 Two-electron integral symmetry is turned on.
   303 basis functions,   489 primitive gaussians,   303 cartesian basis functions
    47 alpha electrons       47 beta electrons
       nuclear repulsion energy       811.6786731959 Hartrees.
 NAtoms=   27 NActive=   27 NUniq=   27 SFac= 1.00D+00 NAtFMM=   60 NAOKFM=F Big=F
 ------------------------------------------------------------------------------
 Polarizable Continuum Model (PCM)
 =================================
 Model                : PCM.
 Atomic radii         : UFF (Universal Force Field).
 Polarization charges : Total charges.
 Charge compensation  : None.
 Solution method      : Matrix inversion.
 Cavity type          : Scaled VdW (van der Waals Surface) (Alpha=1.100).
 Cavity algorithm     : GePol (No added spheres)
                        Default sphere list used, NSphG=   27.
                        Lebedev-Laikov grids with approx.  5.0 points / Ang**2.
                        Smoothing algorithm: Karplus/York (Gamma=1.0000).
                        Polarization charges: spherical gaussians, with
                                              point-specific exponents (IZeta= 3).
                        Self-potential: point-specific (ISelfS= 7).
                        Self-field    : sphere-specific E.n sum rule (ISelfD= 2).
 Solvent              : Water, Eps=  78.355300 Eps(inf)=   1.777849
 ------------------------------------------------------------------------------
 One-electron integrals computed using PRISM.
 NBasis=   303 RedAO= T  NBF=   303
 NBsUse=   303 1.00D-06 NBFU=   303
 Harris functional with IExCor=  908 diagonalized for initial guess.
 ExpMin= 4.38D-02 ExpMax= 5.48D+03 ExpMxC= 8.25D+02 IAcc=2 IRadAn=         4 AccDes= 0.00D+00
 HarFok:  IExCor=  908 AccDes= 0.00D+00 IRadAn=         4 IDoV= 1
 ScaDFX=  1.000000  1.000000  1.000000  1.000000
 FoFCou: FMM=F IPFlag=           0 FMFlag=      100000 FMFlg1=           0
         NFxFlg=           0 DoJE=T BraDBF=F KetDBF=T FulRan=T
         Omega=  0.000000  0.000000  1.000000  0.000000  0.000000 ICntrl=     500 IOpCl=  0
         NMat0=    1 NMatS0=    1 NMatT0=    0 NMatD0=    1 NMtDS0=    0 NMtDT0=    0
         I1Cent=           4 NGrid=           0.
 Petite list used in FoFCou.
 Initial guess orbital symmetries:
       Occupied  (A) (A) (A) (A) (A) (A) (A) (A) (A) (A) (A) (A)
                 (A) (A) (A) (A) (A) (A) (A) (A) (A) (A) (A) (A)
                 (A) (A) (A) (A) (A) (A) (A) (A) (A) (A) (A) (A)
                 (A) (A) (A) (A) (A) (A) (A) (A) (A) (A) (A)
       Virtual   (A) (A) (A) (A) (A) (A) (A) (A) (A) (A) (A) (A)
                 (A) (A) (A) (A) (A) (A) (A) (A) (A) (A) (A) (A)
                 (A) (A) (A) (A) (A) (A) (A) (A) (A) (A) (A) (A)
                 (A) (A) (A) (A) (A) (A) (A) (A) (A) (A) (A) (A)
                 (A) (A) (A) (A) (A) (A) (A) (A) (A) (A) (A) (A)
                 (A) (A) (A) (A) (A) (A) (A) (A) (A) (A) (A) (A)
                 (A) (A) (A) (A) (A) (A) (A) (A) (A) (A) (A) (A)
                 (A) (A) (A) (A) (A) (A) (A) (A) (A) (A) (A) (A)
                 (A) (A) (A) (A) (A) (A) (A) (A) (A) (A) (A) (A)
                 (A) (A) (A) (A) (A) (A) (A) (A) (A) (A) (A) (A)
                 (A) (A) (A) (A) (A) (A) (A) (A) (A) (A) (A) (A)
                 (A) (A) (A) (A) (A) (A) (A) (A) (A) (A) (A) (A)
                 (A) (A) (A) (A) (A) (A) (A) (A) (A) (A) (A) (A)
                 (A) (A) (A) (A) (A) (A) (A) (A) (A) (A) (A) (A)
                 (A) (A) (A) (A) (A) (A) (A) (A) (A) (A) (A) (A)
                 (A) (A) (A) (A) (A) (A) (A) (A) (A) (A) (A) (A)
                 (A) (A) (A) (A) (A) (A) (A) (A) (A) (A) (A) (A)
                 (A) (A) (A) (A) (A) (A) (A) (A) (A) (A) (A) (A)
                 (A) (A) (A) (A) (A) (A) (A) (A) (A) (A) (A) (A)
                 (A) (A) (A) (A) (A) (A) (A) (A) (A) (A) (A) (A)
                 (A) (A) (A) (A) (A) (A) (A) (A) (A) (A) (A) (A)
                 (A) (A) (A) (A)
 The electronic state of the initial guess is 1-A.
 Requested convergence on RMS density matrix=1.00D-08 within 128 cycles.
 Requested convergence on MAX density matrix=1.00D-06.
 Requested convergence on             energy=1.00D-06.
 No special actions if energy rises.
 Error on total polarization charges =  0.01420
 SCF Done:  E(RmPW1PW91) =  -594.196016827     A.U. after   13 cycles
             Convg  =    0.2606D-08             -V/T =  2.0094
 Range of M.O.s used for correlation:     1   303
 NBasis=   303 NAE=    47 NBE=    47 NFC=     0 NFV=     0
 NROrb=    303 NOA=    47 NOB=    47 NVA=   256 NVB=   256

 **** Warning!!: The largest alpha MO coefficient is  0.60007200D+02

 NEqPCM:  Using equilibrium solvation (IEInf=0, Eps=  78.3553, EpsInf=   1.7778)
          Differentiating once with respect to magnetic field using GIAOs.
          Electric field/nuclear overlap derivatives assumed to be zero.
 FoFCou: FMM=F IPFlag=           0 FMFlag=    10101102 FMFlg1=           0
         NFxFlg=    40000000 DoJE=F BraDBF=F KetDBF=T FulRan=T
         Omega=  0.000000  0.000000  1.000000  0.000000  0.000000 ICntrl=    6100 IOpCl=  0
         NMat0=    1 NMatS0=    1 NMatT0=    0 NMatD0=    1 NMtDS0=    0 NMtDT0=    0
         I1Cent=           7 NGrid=        1834.
 Symmetry not used in FoFCou.
          There are     3 degrees of freedom in the 1st order CPHF.  IDoFFX=0.
      3 vectors produced by pass  0 Test12= 4.01D-13 3.33D-08 XBig12= 2.76D+01 6.90D-01.
 AX will form     3 AO Fock derivatives at one time.
      3 vectors produced by pass  1 Test12= 4.01D-13 3.33D-08 XBig12= 7.07D-02 3.09D-02.
      3 vectors produced by pass  2 Test12= 4.01D-13 3.33D-08 XBig12= 1.40D-04 2.28D-03.
      3 vectors produced by pass  3 Test12= 4.01D-13 3.33D-08 XBig12= 5.80D-07 1.38D-04.
      3 vectors produced by pass  4 Test12= 4.01D-13 3.33D-08 XBig12= 2.05D-09 8.47D-06.
      3 vectors produced by pass  5 Test12= 4.01D-13 3.33D-08 XBig12= 6.88D-12 4.07D-07.
 Inverted reduced A of dimension    18 with in-core refinement.
 Calculating GIAO nuclear magnetic shielding tensors.
 SCF GIAO Magnetic shielding tensor (ppm):
      1  C    Isotropic =   165.3797   Anisotropy =    14.9091
   XX=   172.2175   YX=     1.4415   ZX=     7.6841
   XY=    -4.3651   YY=   171.7433   ZY=     9.2666
   XZ=     9.2268   YZ=    -0.2788   ZZ=   152.1783
   Eigenvalues:   148.1423   172.6777   175.3191
      2  C    Isotropic =   128.4398   Anisotropy =    51.4232
   XX=   128.0125   YX=    -1.3610   ZX=    -1.7483
   XY=   -14.1838   YY=   156.7338   ZY=    16.7511
   XZ=    10.4770   YZ=    17.5548   ZZ=   100.5730
   Eigenvalues:    94.5392   128.0582   162.7219
      3  N    Isotropic =   206.4125   Anisotropy =    66.2270
   XX=   230.7795   YX=     3.0991   ZX=   -18.4705
   XY=    11.2791   YY=   223.0291   ZY=    48.4718
   XZ=   -29.3270   YZ=    43.7907   ZZ=   165.4287
   Eigenvalues:   133.7039   234.9697   250.5638
      4  C    Isotropic =   136.7856   Anisotropy =    64.3201
   XX=   167.1810   YX=     4.9660   ZX=    19.3876
   XY=    14.8616   YY=   116.6850   ZY=    14.7466
   XZ=    19.8470   YZ=    24.2882   ZZ=   126.4907
   Eigenvalues:   101.1337   129.5574   179.6656
      5  C    Isotropic =   166.8709   Anisotropy =    22.9412
   XX=   178.8036   YX=    -1.6117   ZX=     6.4866
   XY=     4.5832   YY=   176.2293   ZY=    13.9551
   XZ=    -1.7208   YZ=    11.0837   ZZ=   145.5798
   Eigenvalues:   141.0351   177.4125   182.1650
      6  C    Isotropic =   123.2468   Anisotropy =    48.9760
   XX=   146.0107   YX=     1.8361   ZX=   -16.3485
   XY=    12.4473   YY=   102.4312   ZY=    -1.5659
   XZ=   -17.3974   YZ=    -7.5445   ZZ=   121.2984
   Eigenvalues:   101.0443   112.7985   155.8974
      7  C    Isotropic =   118.8051   Anisotropy =    43.4255
   XX=   137.9938   YX=    -0.5141   ZX=   -16.4165
   XY=    12.0739   YY=   118.0242   ZY=     5.9594
   XZ=   -25.4997   YZ=     3.0955   ZZ=   100.3972
   Eigenvalues:    89.5519   119.1079   147.7554
      8  C    Isotropic =   117.5676   Anisotropy =    41.0101
   XX=   106.2626   YX=    -2.0231   ZX=   -16.2892
   XY=   -12.6321   YY=   141.5101   ZY=     0.9174
   XZ=   -14.5035   YZ=     9.7321   ZZ=   104.9303
   Eigenvalues:    90.1550   117.6402   144.9077
      9  H    Isotropic =    29.8293   Anisotropy =    10.5838
   XX=    31.3511   YX=    -3.3547   ZX=    -2.3407
   XY=    -3.8618   YY=    31.7495   ZY=     3.6031
   XZ=    -2.5102   YZ=     3.4826   ZZ=    26.3874
   Eigenvalues:    24.5578    28.0449    36.8852
     10  H    Isotropic =    29.9737   Anisotropy =     7.0832
   XX=    29.7101   YX=     0.9420   ZX=     1.3504
   XY=     0.8688   YY=    29.9458   ZY=    -4.2694
   XZ=     1.5262   YZ=    -4.8353   ZZ=    30.2652
   Eigenvalues:    24.9733    30.2520    34.6958
     11  H    Isotropic =    27.9921   Anisotropy =     8.0993
   XX=    25.6249   YX=    -1.1850   ZX=    -1.1773
   XY=    -0.8123   YY=    25.2470   ZY=     1.4489
   XZ=    -0.1949   YZ=     1.0697   ZZ=    33.1046
   Eigenvalues:    24.3836    26.2012    33.3917
     12  H    Isotropic =    28.1459   Anisotropy =     9.9535
   XX=    28.0129   YX=     3.4707   ZX=     0.7203
   XY=     2.6623   YY=    33.3119   ZY=     0.2784
   XZ=     1.2248   YZ=     0.7665   ZZ=    23.1130
   Eigenvalues:    22.9266    26.7296    34.7816
     13  H    Isotropic =    28.9639   Anisotropy =     8.7657
   XX=    28.8593   YX=     0.9837   ZX=     2.6004
   XY=     1.2037   YY=    25.6361   ZY=     3.6459
   XZ=     1.1774   YZ=     3.7222   ZZ=    32.3962
   Eigenvalues:    24.0033    28.0807    34.8077
     14  H    Isotropic =    29.7766   Anisotropy =    11.2217
   XX=    31.5738   YX=     2.4170   ZX=    -5.1409
   XY=     2.4805   YY=    28.2137   ZY=    -2.0715
   XZ=    -5.6905   YZ=    -2.2985   ZZ=    29.5422
   Eigenvalues:    25.0415    27.0305    37.2577
     15  H    Isotropic =    29.5653   Anisotropy =    11.6361
   XX=    34.4991   YX=     0.3552   ZX=     5.0466
   XY=     1.2001   YY=    26.2569   ZY=     1.0473
   XZ=     4.9991   YZ=     0.5945   ZZ=    27.9401
   Eigenvalues:    25.1039    26.2693    37.3227
     16  H    Isotropic =    28.9236   Anisotropy =     4.9161
   XX=    28.4714   YX=    -0.2206   ZX=    -1.2483
   XY=    -0.5249   YY=    27.2571   ZY=     2.5062
   XZ=     0.9517   YZ=     2.2206   ZZ=    31.0423
   Eigenvalues:    26.0907    28.4792    32.2010
     17  H    Isotropic =    27.2242   Anisotropy =     3.8969
   XX=    29.4951   YX=     0.5986   ZX=     1.1540
   XY=     1.8455   YY=    25.0402   ZY=    -1.7386
   XZ=    -0.3331   YZ=    -2.6946   ZZ=    27.1373
   Eigenvalues:    23.3795    28.4710    29.8221
     18  H    Isotropic =    27.0020   Anisotropy =     5.1981
   XX=    25.1840   YX=    -1.0802   ZX=     2.7090
   XY=    -2.1242   YY=    29.7129   ZY=    -1.2472
   XZ=     2.7248   YZ=     1.1112   ZZ=    26.1091
   Eigenvalues:    22.6862    27.8523    30.4674
     19  O    Isotropic =   300.4047   Anisotropy =    32.8062
   XX=   298.4500   YX=     9.0989   ZX=    -1.7349
   XY=     9.0924   YY=   317.3470   ZY=    -4.2969
   XZ=    17.5165   YZ=   -15.8509   ZZ=   285.4170
   Eigenvalues:   277.4079   301.5306   322.2755
     20  H    Isotropic =    29.4261   Anisotropy =    19.1226
   XX=    33.7140   YX=     7.3997   ZX=    -1.4628
   XY=     8.2160   YY=    34.8535   ZY=    -0.5045
   XZ=    -2.3317   YZ=     0.8155   ZZ=    19.7109
   Eigenvalues:    19.3359    26.7680    42.1745
     21  O    Isotropic =   302.5298   Anisotropy =    54.6933
   XX=   302.8997   YX=    -2.5621   ZX=   -13.3883
   XY=   -13.7064   YY=   277.2609   ZY=    13.9315
   XZ=   -20.0032   YZ=     8.8754   ZZ=   327.4287
   Eigenvalues:   273.9480   294.6493   338.9920
     22  H    Isotropic =    30.0457   Anisotropy =    20.7183
   XX=    30.0623   YX=     0.7126   ZX=    -9.0179
   XY=     1.0698   YY=    22.4354   ZY=     3.0310
   XZ=    -9.2085   YZ=     2.2649   ZZ=    37.6394
   Eigenvalues:    20.7809    25.4983    43.8579
     23  C    Isotropic =   133.7572   Anisotropy =    52.1471
   XX=   115.5567   YX=    -8.8309   ZX=     2.8167
   XY=    -3.5680   YY=   120.7485   ZY=     8.1840
   XZ=    14.8844   YZ=    13.6563   ZZ=   164.9665
   Eigenvalues:   108.2001   124.5496   168.5220
     24  H    Isotropic =    28.1085   Anisotropy =     9.4286
   XX=    24.3006   YX=    -2.4683   ZX=     1.7101
   XY=    -1.9451   YY=    32.2717   ZY=     2.3676
   XZ=     1.5247   YZ=     4.8103   ZZ=    27.7533
   Eigenvalues:    22.3749    27.5563    34.3943
     25  H    Isotropic =    27.8129   Anisotropy =     6.0593
   XX=    29.5560   YX=    -2.2336   ZX=    -1.8491
   XY=    -1.7654   YY=    26.5598   ZY=    -0.2675
   XZ=    -3.5488   YZ=    -0.0410   ZZ=    27.3229
   Eigenvalues:    24.5716    27.0147    31.8524
     26  O    Isotropic =   315.1782   Anisotropy =    34.9806
   XX=   334.8383   YX=    -7.5775   ZX=    -8.6699
   XY=    -5.3974   YY=   302.8789   ZY=    21.3706
   XZ=    -4.5201   YZ=    -2.1592   ZZ=   307.8175
   Eigenvalues:   295.3967   311.6393   338.4986
     27  H    Isotropic =    29.4877   Anisotropy =    14.3959
   XX=    37.4831   YX=     0.6800   ZX=    -3.1792
   XY=    -1.1175   YY=    20.9535   ZY=    -3.7566
   XZ=    -4.2882   YZ=    -2.3395   ZZ=    30.0264
   Eigenvalues:    19.9222    29.4558    39.0850
 End of Minotr Frequency-dependent properties file   721 does not exist.
 End of Minotr Frequency-dependent properties file   722 does not exist.

 **********************************************************************

            Population analysis using the SCF density.

 **********************************************************************

 Orbital symmetries:
       Occupied  (A) (A) (A) (A) (A) (A) (A) (A) (A) (A) (A) (A)
                 (A) (A) (A) (A) (A) (A) (A) (A) (A) (A) (A) (A)
                 (A) (A) (A) (A) (A) (A) (A) (A) (A) (A) (A) (A)
                 (A) (A) (A) (A) (A) (A) (A) (A) (A) (A) (A)
       Virtual   (A) (A) (A) (A) (A) (A) (A) (A) (A) (A) (A) (A)
                 (A) (A) (A) (A) (A) (A) (A) (A) (A) (A) (A) (A)
                 (A) (A) (A) (A) (A) (A) (A) (A) (A) (A) (A) (A)
                 (A) (A) (A) (A) (A) (A) (A) (A) (A) (A) (A) (A)
                 (A) (A) (A) (A) (A) (A) (A) (A) (A) (A) (A) (A)
                 (A) (A) (A) (A) (A) (A) (A) (A) (A) (A) (A) (A)
                 (A) (A) (A) (A) (A) (A) (A) (A) (A) (A) (A) (A)
                 (A) (A) (A) (A) (A) (A) (A) (A) (A) (A) (A) (A)
                 (A) (A) (A) (A) (A) (A) (A) (A) (A) (A) (A) (A)
                 (A) (A) (A) (A) (A) (A) (A) (A) (A) (A) (A) (A)
                 (A) (A) (A) (A) (A) (A) (A) (A) (A) (A) (A) (A)
                 (A) (A) (A) (A) (A) (A) (A) (A) (A) (A) (A) (A)
                 (A) (A) (A) (A) (A) (A) (A) (A) (A) (A) (A) (A)
                 (A) (A) (A) (A) (A) (A) (A) (A) (A) (A) (A) (A)
                 (A) (A) (A) (A) (A) (A) (A) (A) (A) (A) (A) (A)
                 (A) (A) (A) (A) (A) (A) (A) (A) (A) (A) (A) (A)
                 (A) (A) (A) (A) (A) (A) (A) (A) (A) (A) (A) (A)
                 (A) (A) (A) (A) (A) (A) (A) (A) (A) (A) (A) (A)
                 (A) (A) (A) (A) (A) (A) (A) (A) (A) (A) (A) (A)
                 (A) (A) (A) (A) (A) (A) (A) (A) (A) (A) (A) (A)
                 (A) (A) (A) (A) (A) (A) (A) (A) (A) (A) (A) (A)
                 (A) (A) (A) (A)
 The electronic state is 1-A.
 Alpha  occ. eigenvalues --  -19.26135 -19.25785 -19.24886 -14.41764 -10.30294
 Alpha  occ. eigenvalues --  -10.30185 -10.28951 -10.28100 -10.27942 -10.27085
 Alpha  occ. eigenvalues --  -10.24630 -10.24483  -1.07282  -1.05513  -1.05090
 Alpha  occ. eigenvalues --   -0.96469  -0.82611  -0.79399  -0.75058  -0.71742
 Alpha  occ. eigenvalues --   -0.66694  -0.61288  -0.60669  -0.57819  -0.55613
 Alpha  occ. eigenvalues --   -0.53314  -0.50841  -0.49882  -0.49426  -0.48049
 Alpha  occ. eigenvalues --   -0.45883  -0.45094  -0.43012  -0.41835  -0.40222
 Alpha  occ. eigenvalues --   -0.39551  -0.38718  -0.37606  -0.37092  -0.35654
 Alpha  occ. eigenvalues --   -0.34795  -0.33884  -0.33253  -0.31071  -0.29232
 Alpha  occ. eigenvalues --   -0.28883  -0.23333
 Alpha virt. eigenvalues --    0.00621   0.00927   0.01843   0.02235   0.03839
 Alpha virt. eigenvalues --    0.04144   0.04512   0.04620   0.05301   0.07173
 Alpha virt. eigenvalues --    0.07714   0.08249   0.08749   0.09375   0.09577
 Alpha virt. eigenvalues --    0.09827   0.10720   0.12159   0.12415   0.12827
 Alpha virt. eigenvalues --    0.13102   0.13423   0.14370   0.15162   0.15664
 Alpha virt. eigenvalues --    0.16229   0.16665   0.16854   0.17533   0.17812
 Alpha virt. eigenvalues --    0.18817   0.19425   0.20098   0.20256   0.20564
 Alpha virt. eigenvalues --    0.21721   0.22201   0.22563   0.23013   0.23439
 Alpha virt. eigenvalues --    0.23657   0.24618   0.25212   0.25765   0.26386
 Alpha virt. eigenvalues --    0.26500   0.27038   0.27916   0.28522   0.28953
 Alpha virt. eigenvalues --    0.29682   0.29987   0.30821   0.31044   0.32251
 Alpha virt. eigenvalues --    0.32830   0.33205   0.33576   0.34060   0.34873
 Alpha virt. eigenvalues --    0.35376   0.35896   0.36847   0.36942   0.38633
 Alpha virt. eigenvalues --    0.38773   0.39543   0.40754   0.41645   0.42514
 Alpha virt. eigenvalues --    0.42742   0.44742   0.45370   0.47225   0.47618
 Alpha virt. eigenvalues --    0.49700   0.64279   0.66485   0.67172   0.69011
 Alpha virt. eigenvalues --    0.70219   0.70542   0.71747   0.74016   0.74557
 Alpha virt. eigenvalues --    0.75424   0.76469   0.78858   0.80600   0.81085
 Alpha virt. eigenvalues --    0.82382   0.83195   0.84167   0.86297   0.88059
 Alpha virt. eigenvalues --    0.89897   0.91008   0.94733   0.96664   0.98167
 Alpha virt. eigenvalues --    0.99557   1.00884   1.01640   1.04382   1.05222
 Alpha virt. eigenvalues --    1.07040   1.08161   1.08389   1.09724   1.10729
 Alpha virt. eigenvalues --    1.11355   1.12368   1.14656   1.15472   1.16172
 Alpha virt. eigenvalues --    1.16410   1.18153   1.20301   1.22671   1.23411
 Alpha virt. eigenvalues --    1.25877   1.28440   1.31945   1.32834   1.33571
 Alpha virt. eigenvalues --    1.34806   1.36162   1.39013   1.40398   1.42258
 Alpha virt. eigenvalues --    1.43991   1.45845   1.47554   1.50683   1.52977
 Alpha virt. eigenvalues --    1.55258   1.56879   1.58613   1.59546   1.60884
 Alpha virt. eigenvalues --    1.63304   1.63437   1.66813   1.68954   1.71057
 Alpha virt. eigenvalues --    1.72870   1.74791   1.77290   1.78833   1.80236
 Alpha virt. eigenvalues --    1.81300   1.82271   1.84784   1.85343   1.86950
 Alpha virt. eigenvalues --    1.88186   1.89558   1.92437   1.92707   1.93537
 Alpha virt. eigenvalues --    1.96699   1.99224   2.02437   2.03340   2.04518
 Alpha virt. eigenvalues --    2.06151   2.07148   2.08112   2.10311   2.11241
 Alpha virt. eigenvalues --    2.14567   2.15365   2.15943   2.17210   2.19348
 Alpha virt. eigenvalues --    2.20015   2.20765   2.25819   2.26597   2.30013
 Alpha virt. eigenvalues --    2.31102   2.31264   2.33303   2.38423   2.39305
 Alpha virt. eigenvalues --    2.40902   2.42802   2.44571   2.45855   2.47847
 Alpha virt. eigenvalues --    2.49102   2.50034   2.53396   2.53654   2.56159
 Alpha virt. eigenvalues --    2.56723   2.57995   2.60933   2.61255   2.63962
 Alpha virt. eigenvalues --    2.64856   2.65825   2.66664   2.67044   2.68560
 Alpha virt. eigenvalues --    2.71404   2.73255   2.73612   2.76012   2.77305
 Alpha virt. eigenvalues --    2.79221   2.81086   2.82464   2.84200   2.84836
 Alpha virt. eigenvalues --    2.86153   2.88673   2.89391   2.92778   2.95471
 Alpha virt. eigenvalues --    2.96350   2.98055   3.00210   3.03019   3.06214
 Alpha virt. eigenvalues --    3.06953   3.07817   3.11487   3.19009   3.32178
 Alpha virt. eigenvalues --    3.35703   3.36707   3.37676   3.41088   3.47623
 Alpha virt. eigenvalues --    3.49028   3.49810   3.51976   3.54221   3.55422
 Alpha virt. eigenvalues --    3.56590   3.58152   3.59296   3.64975   4.30290
 Alpha virt. eigenvalues --    4.38567   4.43229   4.44635   4.50839   4.54569
 Alpha virt. eigenvalues --    4.62836   4.65312   4.78630   4.83091   4.87776
 Alpha virt. eigenvalues --    4.92553
          Condensed to atoms (all electrons):
              1          2          3          4          5          6
     1  C    5.905809  -0.507683   0.137970  -0.174441   0.006288  -0.029063
     2  C   -0.507683   8.070125  -0.285148  -0.170841   0.242011  -0.141630
     3  N    0.137970  -0.285148   7.570806   0.133758  -0.238219  -0.227517
     4  C   -0.174441  -0.170841   0.133758   5.624598   0.091511  -0.202766
     5  C    0.006288   0.242011  -0.238219   0.091511   5.751436   0.084133
     6  C   -0.029063  -0.141630  -0.227517  -0.202766   0.084133   7.824087
     7  C   -0.024293  -0.039934  -0.084495   0.063731  -0.007868  -0.438627
     8  C    0.074108  -0.665739  -0.030100   0.116348  -0.108267  -0.069361
     9  H    0.376051  -0.055889   0.015374   0.020914  -0.010393  -0.003680
    10  H    0.506716  -0.201568   0.037896   0.023356  -0.096012   0.004571
    11  H    0.062026   0.159421  -0.009644   0.006105  -0.044937   0.021425
    12  H    0.023903   0.003569  -0.050804   0.402470  -0.053653  -0.003207
    13  H    0.006194  -0.005364  -0.077317   0.425100  -0.019347  -0.000020
    14  H   -0.006780  -0.042851   0.017724  -0.029407   0.374665   0.002240
    15  H   -0.051739   0.040107   0.005688  -0.022965   0.373986  -0.002623
    16  H   -0.005618   0.024387  -0.051554   0.016136   0.007614   0.267786
    17  H   -0.004563   0.008961   0.022386   0.011916  -0.007347  -0.070382
    18  H   -0.010737  -0.066709   0.020523   0.004487  -0.000152   0.024790
    19  O   -0.000619  -0.226365   0.019675  -0.009056   0.019295   0.040513
    20  H   -0.009079   0.069372  -0.003522  -0.001099  -0.000100   0.009682
    21  O    0.005930   0.048666   0.030236  -0.011535   0.001972  -0.179955
    22  H    0.002375  -0.014774   0.001672   0.002203  -0.001621  -0.036258
    23  C    0.061400  -0.144792   0.127279  -0.082345  -0.015912  -0.499170
    24  H   -0.000960  -0.002286  -0.008051   0.005045   0.005418  -0.054979
    25  H    0.001174   0.008217   0.017270  -0.000333   0.000039  -0.140406
    26  O    0.004180  -0.017665   0.038495  -0.000606  -0.000607  -0.226685
    27  H    0.004316   0.017750   0.041550   0.007012   0.000366  -0.053646
              7          8          9         10         11         12
     1  C   -0.024293   0.074108   0.376051   0.506716   0.062026   0.023903
     2  C   -0.039934  -0.665739  -0.055889  -0.201568   0.159421   0.003569
     3  N   -0.084495  -0.030100   0.015374   0.037896  -0.009644  -0.050804
     4  C    0.063731   0.116348   0.020914   0.023356   0.006105   0.402470
     5  C   -0.007868  -0.108267  -0.010393  -0.096012  -0.044937  -0.053653
     6  C   -0.438627  -0.069361  -0.003680   0.004571   0.021425  -0.003207
     7  C    6.509856  -0.135496   0.004052  -0.011661  -0.014021  -0.000286
     8  C   -0.135496   6.132726  -0.008875   0.053354   0.068496  -0.001213
     9  H    0.004052  -0.008875   0.514663  -0.022763  -0.003027  -0.000082
    10  H   -0.011661   0.053354  -0.022763   0.523460   0.004184  -0.000072
    11  H   -0.014021   0.068496  -0.003027   0.004184   0.563077   0.000428
    12  H   -0.000286  -0.001213  -0.000082  -0.000072   0.000428   0.553090
    13  H   -0.007436   0.003850  -0.000161   0.001159  -0.000423  -0.040387
    14  H   -0.003463   0.010711  -0.004726   0.004280   0.001352  -0.006831
    15  H    0.000277  -0.000689   0.000083  -0.004995  -0.000049   0.001725
    16  H    0.058263   0.004807   0.000001  -0.000121  -0.000242  -0.000418
    17  H    0.423238  -0.061159   0.000066   0.000414  -0.000043   0.000016
    18  H   -0.067230   0.427745  -0.000058  -0.000005  -0.007419   0.000008
    19  O   -0.091310   0.312370   0.001269   0.001046   0.007582   0.000053
    20  H   -0.074430   0.018960  -0.000009  -0.000144  -0.000267   0.000000
    21  O    0.305139  -0.148866   0.000003  -0.000100   0.000153   0.000107
    22  H    0.036513   0.027509   0.000000   0.000006   0.000004   0.000000
    23  C   -0.348351   0.091387   0.000242   0.000984   0.011428   0.008875
    24  H    0.031919  -0.001037   0.000000   0.000000  -0.000001  -0.000010
    25  H   -0.018973  -0.002583   0.000000   0.000000  -0.000008  -0.000007
    26  O    0.060932   0.018979   0.000025   0.000028   0.001946   0.000472
    27  H   -0.014732  -0.011089  -0.000004  -0.000001  -0.001046  -0.000169
             13         14         15         16         17         18
     1  C    0.006194  -0.006780  -0.051739  -0.005618  -0.004563  -0.010737
     2  C   -0.005364  -0.042851   0.040107   0.024387   0.008961  -0.066709
     3  N   -0.077317   0.017724   0.005688  -0.051554   0.022386   0.020523
     4  C    0.425100  -0.029407  -0.022965   0.016136   0.011916   0.004487
     5  C   -0.019347   0.374665   0.373986   0.007614  -0.007347  -0.000152
     6  C   -0.000020   0.002240  -0.002623   0.267786  -0.070382   0.024790
     7  C   -0.007436  -0.003463   0.000277   0.058263   0.423238  -0.067230
     8  C    0.003850   0.010711  -0.000689   0.004807  -0.061159   0.427745
     9  H   -0.000161  -0.004726   0.000083   0.000001   0.000066  -0.000058
    10  H    0.001159   0.004280  -0.004995  -0.000121   0.000414  -0.000005
    11  H   -0.000423   0.001352  -0.000049  -0.000242  -0.000043  -0.007419
    12  H   -0.040387  -0.006831   0.001725  -0.000418   0.000016   0.000008
    13  H    0.558489   0.003951  -0.005817   0.007760   0.000191   0.000002
    14  H    0.003951   0.524185  -0.024421  -0.000012   0.000006   0.000005
    15  H   -0.005817  -0.024421   0.512495  -0.000027   0.000003   0.000002
    16  H    0.007760  -0.000012  -0.000027   0.551839  -0.008877  -0.000238
    17  H    0.000191   0.000006   0.000003  -0.008877   0.552098   0.004416
    18  H    0.000002   0.000005   0.000002  -0.000238   0.004416   0.539617
    19  O    0.000026   0.000116   0.000020  -0.000683  -0.003990  -0.043796
    20  H    0.000000   0.000000   0.000000   0.000002  -0.000627  -0.005952
    21  O   -0.000536   0.000000  -0.000003  -0.003292  -0.045785  -0.003314
    22  H    0.000004   0.000000   0.000000   0.001272  -0.006136   0.000106
    23  C   -0.006677   0.001137   0.000285  -0.042373   0.007724   0.005472
    24  H    0.000063   0.000001   0.000000  -0.002394  -0.000126  -0.000037
    25  H    0.000004   0.000000   0.000000   0.002049   0.000079   0.000118
    26  O   -0.000239   0.000016   0.000002   0.008761  -0.000956  -0.006737
    27  H    0.000040  -0.000002  -0.000001   0.000240  -0.000031  -0.001005
             19         20         21         22         23         24
     1  C   -0.000619  -0.009079   0.005930   0.002375   0.061400  -0.000960
     2  C   -0.226365   0.069372   0.048666  -0.014774  -0.144792  -0.002286
     3  N    0.019675  -0.003522   0.030236   0.001672   0.127279  -0.008051
     4  C   -0.009056  -0.001099  -0.011535   0.002203  -0.082345   0.005045
     5  C    0.019295  -0.000100   0.001972  -0.001621  -0.015912   0.005418
     6  C    0.040513   0.009682  -0.179955  -0.036258  -0.499170  -0.054979
     7  C   -0.091310  -0.074430   0.305139   0.036513  -0.348351   0.031919
     8  C    0.312370   0.018960  -0.148866   0.027509   0.091387  -0.001037
     9  H    0.001269  -0.000009   0.000003   0.000000   0.000242   0.000000
    10  H    0.001046  -0.000144  -0.000100   0.000006   0.000984   0.000000
    11  H    0.007582  -0.000267   0.000153   0.000004   0.011428  -0.000001
    12  H    0.000053   0.000000   0.000107   0.000000   0.008875  -0.000010
    13  H    0.000026   0.000000  -0.000536   0.000004  -0.006677   0.000063
    14  H    0.000116   0.000000   0.000000   0.000000   0.001137   0.000001
    15  H    0.000020   0.000000  -0.000003   0.000000   0.000285   0.000000
    16  H   -0.000683   0.000002  -0.003292   0.001272  -0.042373  -0.002394
    17  H   -0.003990  -0.000627  -0.045785  -0.006136   0.007724  -0.000126
    18  H   -0.043796  -0.005952  -0.003314   0.000106   0.005472  -0.000037
    19  O    8.284859   0.224070  -0.005587   0.000210   0.008514  -0.000009
    20  H    0.224070   0.379448   0.009721  -0.000399   0.000485   0.000000
    21  O   -0.005587   0.009721   8.277222   0.241462   0.044302  -0.001321
    22  H    0.000210  -0.000399   0.241462   0.365214  -0.010720  -0.000034
    23  C    0.008514   0.000485   0.044302  -0.010720   5.816921   0.387604
    24  H   -0.000009   0.000000  -0.001321  -0.000034   0.387604   0.584741
    25  H    0.000001   0.000000   0.004902   0.000744   0.508414  -0.037724
    26  O   -0.000820   0.000160  -0.003972  -0.000303   0.245436  -0.053462
    27  H    0.000105   0.000001  -0.000658   0.000010   0.016737  -0.004627
             25         26         27
     1  C    0.001174   0.004180   0.004316
     2  C    0.008217  -0.017665   0.017750
     3  N    0.017270   0.038495   0.041550
     4  C   -0.000333  -0.000606   0.007012
     5  C    0.000039  -0.000607   0.000366
     6  C   -0.140406  -0.226685  -0.053646
     7  C   -0.018973   0.060932  -0.014732
     8  C   -0.002583   0.018979  -0.011089
     9  H    0.000000   0.000025  -0.000004
    10  H    0.000000   0.000028  -0.000001
    11  H   -0.000008   0.001946  -0.001046
    12  H   -0.000007   0.000472  -0.000169
    13  H    0.000004  -0.000239   0.000040
    14  H    0.000000   0.000016  -0.000002
    15  H    0.000000   0.000002  -0.000001
    16  H    0.002049   0.008761   0.000240
    17  H    0.000079  -0.000956  -0.000031
    18  H    0.000118  -0.006737  -0.001005
    19  O    0.000001  -0.000820   0.000105
    20  H    0.000000   0.000160   0.000001
    21  O    0.004902  -0.003972  -0.000658
    22  H    0.000744  -0.000303   0.000010
    23  C    0.508414   0.245436   0.016737
    24  H   -0.037724  -0.053462  -0.004627
    25  H    0.543740  -0.053860   0.006837
    26  O   -0.053860   8.288337   0.246812
    27  H    0.006837   0.246812   0.359978
 Mulliken atomic charges:
              1
     1  C   -0.352865
     2  C   -0.103351
     3  N   -0.171931
     4  C   -0.249298
     5  C   -0.354300
     6  C    0.100747
     7  C   -0.111312
     8  C   -0.116878
     9  H    0.176925
    10  H    0.175990
    11  H    0.173501
    12  H    0.162422
    13  H    0.156892
    14  H    0.178105
    15  H    0.178657
    16  H    0.164931
    17  H    0.178506
    18  H    0.186096
    19  O   -0.537491
    20  H    0.383728
    21  O   -0.564892
    22  H    0.390943
    23  C   -0.194288
    24  H    0.152269
    25  H    0.160307
    26  O   -0.548671
    27  H    0.385258
 Sum of Mulliken atomic charges =   0.00000
 Mulliken charges with hydrogens summed into heavy atoms:
              1
     1  C    0.000049
     2  C    0.070150
     3  N   -0.171931
     4  C    0.070016
     5  C    0.002462
     6  C    0.265679
     7  C    0.067194
     8  C    0.069218
    19  O   -0.153763
    21  O   -0.173949
    23  C    0.118288
    26  O   -0.163412
 Sum of Mulliken charges with hydrogens summed into heavy atoms =   0.00000
 Electronic spatial extent (au):  <R**2>=           1979.8359
 Charge=              0.0000 electrons
 Dipole moment (field-independent basis, Debye):
    X=             -1.9839    Y=             -1.1397    Z=             -4.0570  Tot=              4.6577
 Quadrupole moment (field-independent basis, Debye-Ang):
   XX=            -76.2385   YY=            -76.4827   ZZ=            -68.1234
   XY=              5.1541   XZ=             -8.5739   YZ=              2.1663
 Traceless Quadrupole moment (field-independent basis, Debye-Ang):
   XX=             -2.6236   YY=             -2.8679   ZZ=              5.4915
   XY=              5.1541   XZ=             -8.5739   YZ=              2.1663
 Octapole moment (field-independent basis, Debye-Ang**2):
  XXX=            -11.2684  YYY=              3.6919  ZZZ=            -10.4521  XYY=             13.1100
  XXY=              4.3767  XXZ=            -25.8317  XZZ=              7.2774  YZZ=              5.4083
  YYZ=             -6.3466  XYZ=              7.5056
 Hexadecapole moment (field-independent basis, Debye-Ang**3):
 XXXX=          -1360.3828 YYYY=           -844.6413 ZZZZ=           -299.9840 XXXY=             11.9065
 XXXZ=            -70.6773 YYYX=             56.1931 YYYZ=             -2.6534 ZZZX=            -38.5540
 ZZZY=            -13.4095 XXYY=           -379.6068 XXZZ=           -263.7477 YYZZ=           -208.3924
 XXYZ=             18.9508 YYXZ=             -4.4946 ZZXY=             20.0621
 N-N= 8.116786731959D+02 E-N=-3.009348095237D+03  KE= 5.886538729997D+02
 1\1\GINC-COMPUTE-3-2\SP\RmPW1PW91\6-31+G(d,p)\C8H15N1O3\MAMICHETTI.IQU
 IR\17-May-2024\0\\# mpw1pw91/6-31+G** nmr scrf=(pcm,solvent=water)\\co
 mment\\0,1\C,0,-2.217084,0.787339,0.051407\C,0,-0.908725,0.364715,0.73
 6261\N,0,-0.558993,-0.972028,0.148886\C,0,-1.755996,-1.482449,-0.56942
 2\C,0,-2.91225,-0.566175,-0.146189\C,0,0.679345,-0.85039,-0.662786\C,0
 ,0.934302,0.673617,-0.775294\C,0,0.322404,1.246409,0.500627\H,0,-2.799
 134,1.492587,0.652365\H,0,-2.014173,1.253147,-0.920263\H,0,-1.095444,0
 .255383,1.81183\H,0,-1.947212,-2.534268,-0.325272\H,0,-1.603418,-1.423
 504,-1.656522\H,0,-3.346652,-0.908992,0.800887\H,0,-3.711762,-0.540892
 ,-0.893016\H,0,0.516557,-1.27487,-1.660831\H,0,0.367988,1.061786,-1.63
 2698\H,0,1.043893,1.10606,1.315905\O,0,-0.042968,2.622903,0.411849\H,0
 ,0.783061,3.120302,0.288863\O,0,2.297853,1.080285,-0.879504\H,0,2.6103
 25,0.828203,-1.764224\C,0,1.819409,-1.64741,-0.0223\H,0,1.619145,-2.72
 0239,-0.162344\H,0,2.771552,-1.416552,-0.508527\O,0,1.978846,-1.35441,
 1.367787\H,0,1.079941,-1.438101,1.736771\\Version=AM64L-G09RevC.01\Sta
 te=1-A\HF=-594.1960168\RMSD=2.606e-09\Dipole=-0.7805323,-0.4483875,-1.
 5961459\Quadrupole=-1.9506099,-2.132177,4.0827869,3.8319232,-6.3744724
 ,1.6106139\PG=C01 [X(C8H15N1O3)]\\@


 MARY HAD A LITTLE LAMB
      HIS FEET WERE BLACK AS SOOT,
           AND EVERYWHERE THAT MARY WENT
                HIS SOOTY FOOT HE PUT.

                    -- NONAME
 Job cpu time:  0 days  0 hours  8 minutes 41.8 seconds.
 File lengths (MBytes):  RWF=    113 Int=      0 D2E=      0 Chk=      7 Scr=      1
 Normal termination of Gaussian 09 at Fri May 17 12:46:42 2024.
