 Entering Gaussian System, Link 0=g09
 Input=/home/mamichetti.iquir/Linux/03_Cardona_A1A3_R__S_S_R_032_OptB.gjc
 Output=/home/mamichetti.iquir/Linux/03_Cardona_A1A3_R__S_S_R_032_OptB.log
 Initial command:
 /opt/ohpc/pub/apps/software/Gaussian/09/AMD64.SSE4a-enabled/g09/l1.exe /local/mamichetti.iquir/Gau-127906.inp -scrdir=/local/mamichetti.iquir/
 Entering Link 1 = /opt/ohpc/pub/apps/software/Gaussian/09/AMD64.SSE4a-enabled/g09/l1.exe PID=    127907.
  
 Copyright (c) 1988,1990,1992,1993,1995,1998,2003,2009,2011,
            Gaussian, Inc.  All Rights Reserved.
  
 This is part of the Gaussian(R) 09 program.  It is based on
 the Gaussian(R) 03 system (copyright 2003, Gaussian, Inc.),
 the Gaussian(R) 98 system (copyright 1998, Gaussian, Inc.),
 the Gaussian(R) 94 system (copyright 1995, Gaussian, Inc.),
 the Gaussian 92(TM) system (copyright 1992, Gaussian, Inc.),
 the Gaussian 90(TM) system (copyright 1990, Gaussian, Inc.),
 the Gaussian 88(TM) system (copyright 1988, Gaussian, Inc.),
 the Gaussian 86(TM) system (copyright 1986, Carnegie Mellon
 University), and the Gaussian 82(TM) system (copyright 1983,
 Carnegie Mellon University). Gaussian is a federally registered
 trademark of Gaussian, Inc.
  
 This software contains proprietary and confidential information,
 including trade secrets, belonging to Gaussian, Inc.
  
 This software is provided under written license and may be
 used, copied, transmitted, or stored only in accord with that
 written license.
  
 The following legend is applicable only to US Government
 contracts under FAR:
  
                    RESTRICTED RIGHTS LEGEND
  
 Use, reproduction and disclosure by the US Government is
 subject to restrictions as set forth in subparagraphs (a)
 and (c) of the Commercial Computer Software - Restricted
 Rights clause in FAR 52.227-19.
  
 Gaussian, Inc.
 340 Quinnipiac St., Bldg. 40, Wallingford CT 06492
  
  
 ---------------------------------------------------------------
 Warning -- This program may not be used in any manner that
 competes with the business of Gaussian, Inc. or will provide
 assistance to any competitor of Gaussian, Inc.  The licensee
 of this program is prohibited from giving any competitor of
 Gaussian, Inc. access to this program.  By using this program,
 the user acknowledges that Gaussian, Inc. is engaged in the
 business of creating and licensing software in the field of
 computational chemistry and represents and warrants to the
 licensee that it is not a competitor of Gaussian, Inc. and that
 it will not use this program in any manner prohibited above.
 ---------------------------------------------------------------
  

 Cite this work as:
 Gaussian 09, Revision C.01,
 M. J. Frisch, G. W. Trucks, H. B. Schlegel, G. E. Scuseria, 
 M. A. Robb, J. R. Cheeseman, G. Scalmani, V. Barone, B. Mennucci, 
 G. A. Petersson, H. Nakatsuji, M. Caricato, X. Li, H. P. Hratchian, 
 A. F. Izmaylov, J. Bloino, G. Zheng, J. L. Sonnenberg, M. Hada, 
 M. Ehara, K. Toyota, R. Fukuda, J. Hasegawa, M. Ishida, T. Nakajima, 
 Y. Honda, O. Kitao, H. Nakai, T. Vreven, J. A. Montgomery, Jr., 
 J. E. Peralta, F. Ogliaro, M. Bearpark, J. J. Heyd, E. Brothers, 
 K. N. Kudin, V. N. Staroverov, T. Keith, R. Kobayashi, J. Normand, 
 K. Raghavachari, A. Rendell, J. C. Burant, S. S. Iyengar, J. Tomasi, 
 M. Cossi, N. Rega, J. M. Millam, M. Klene, J. E. Knox, J. B. Cross, 
 V. Bakken, C. Adamo, J. Jaramillo, R. Gomperts, R. E. Stratmann, 
 O. Yazyev, A. J. Austin, R. Cammi, C. Pomelli, J. W. Ochterski, 
 R. L. Martin, K. Morokuma, V. G. Zakrzewski, G. A. Voth, 
 P. Salvador, J. J. Dannenberg, S. Dapprich, A. D. Daniels, 
 O. Farkas, J. B. Foresman, J. V. Ortiz, J. Cioslowski, 
 and D. J. Fox, Gaussian, Inc., Wallingford CT, 2010.
 
 ******************************************
 Gaussian 09:  AM64L-G09RevC.01 23-Sep-2011
                17-May-2024 
 ******************************************
 %nprocshared=4
 Will use up to    4 processors via shared memory.
 ------------------------------------------------
 # mpw1pw91/6-31+G** nmr scrf=(pcm,solvent=water)
 ------------------------------------------------
 1/38=1/1;
 2/12=2,17=6,18=5,40=1/2;
 3/5=1,6=6,7=111,11=2,16=1,25=1,30=1,70=2201,72=1,74=-7/1,2,8,3;
 4//1;
 5/5=2,38=5,53=1/2;
 8/6=1,10=90,11=11/1;
 10/13=100,45=16/2;
 6/7=2,8=2,9=2,10=2,28=1/1;
 99/9=1/99;
 -------
 comment
 -------
 Charge =  0 Multiplicity = 1
 Symbolic Z-Matrix:
 6                    -2.46019   0.19102  -0.19991 
 6                    -1.27055   0.28162   0.80753 
 7                    -0.48745  -0.98774   0.6848 
 6                    -1.42105  -1.95653   0.07696 
 6                    -2.2614   -1.15526  -0.92595 
 6                     0.72049  -0.72136  -0.14821 
 6                     0.63697   0.76971  -0.56013 
 6                    -0.23735   1.37823   0.53714 
 1                    -3.40729   0.19814   0.34979 
 1                    -2.47897   1.03882  -0.88957 
 1                    -1.66315   0.37366   1.82512 
 1                    -2.06453  -2.36548   0.8671 
 1                    -0.86887  -2.79178  -0.36238 
 1                    -3.20519  -1.64739  -1.18311 
 1                    -1.69388  -1.0127   -1.85378 
 1                     0.72058  -1.35804  -1.04057 
 1                     0.0925    0.84801  -1.51267 
 1                     0.38645   1.51804   1.43174 
 8                    -0.85877   2.61346   0.1902 
 1                    -0.14477   3.26258   0.07253 
 8                     1.88348   1.45702  -0.67757 
 1                     2.58242   0.76916  -0.71012 
 6                     1.98623  -1.05685   0.64222 
 1                     2.10508  -0.37944   1.49682 
 1                     1.92102  -2.08304   1.02433 
 8                     3.10711  -0.93507  -0.25828 
 1                     3.91716  -0.92306   0.27846 
 
                          Input orientation:                          
 ---------------------------------------------------------------------
 Center     Atomic      Atomic             Coordinates (Angstroms)
 Number     Number       Type             X           Y           Z
 ---------------------------------------------------------------------
      1          6           0       -2.460185    0.191021   -0.199906
      2          6           0       -1.270553    0.281619    0.807529
      3          7           0       -0.487445   -0.987744    0.684796
      4          6           0       -1.421047   -1.956533    0.076961
      5          6           0       -2.261398   -1.155260   -0.925948
      6          6           0        0.720494   -0.721361   -0.148206
      7          6           0        0.636973    0.769711   -0.560133
      8          6           0       -0.237348    1.378232    0.537138
      9          1           0       -3.407288    0.198142    0.349793
     10          1           0       -2.478967    1.038824   -0.889567
     11          1           0       -1.663146    0.373664    1.825118
     12          1           0       -2.064526   -2.365484    0.867100
     13          1           0       -0.868872   -2.791779   -0.362378
     14          1           0       -3.205187   -1.647386   -1.183114
     15          1           0       -1.693884   -1.012701   -1.853778
     16          1           0        0.720584   -1.358039   -1.040573
     17          1           0        0.092502    0.848007   -1.512666
     18          1           0        0.386449    1.518036    1.431740
     19          8           0       -0.858774    2.613459    0.190201
     20          1           0       -0.144770    3.262575    0.072534
     21          8           0        1.883477    1.457019   -0.677568
     22          1           0        2.582416    0.769158   -0.710122
     23          6           0        1.986232   -1.056852    0.642220
     24          1           0        2.105077   -0.379438    1.496824
     25          1           0        1.921023   -2.083038    1.024330
     26          8           0        3.107114   -0.935070   -0.258284
     27          1           0        3.917155   -0.923055    0.278458
 ---------------------------------------------------------------------
                    Distance matrix (angstroms):
                    1          2          3          4          5
     1  C    0.000000
     2  C    1.561524   0.000000
     3  N    2.462496   1.496531   0.000000
     4  C    2.401760   2.359174   1.476356   0.000000
     5  C    1.542442   2.459947   2.401972   1.534293   0.000000
     6  C    3.309355   2.425627   1.491298   2.482448   3.112046
     7  C    3.171283   2.397371   2.429570   3.474729   3.498555
     8  C    2.625587   1.530746   2.383735   3.568412   3.557525
     9  H    1.095091   2.186808   3.169233   2.943164   2.184554
    10  H    1.093048   2.216700   3.248347   3.320472   2.205145
    11  H    2.183885   1.094572   2.129798   2.923095   3.203729
    12  H    2.798351   2.764253   2.102043   1.098010   2.172193
    13  H    3.384637   3.312975   2.120519   1.093413   2.221471
    14  H    2.213926   3.380315   3.363084   2.206018   1.095016
    15  H    2.184366   2.989486   2.810779   2.166336   1.096934
    16  H    3.636427   3.173104   2.138539   2.488707   2.991066
    17  H    2.944687   2.749913   2.921500   3.561347   3.146134
    18  H    3.539288   2.159635   2.756909   4.144285   4.440304
    19  O    2.930001   2.447066   3.653926   4.605844   4.173294
    20  H    3.856140   3.270123   4.307842   5.372894   4.999435
    21  O    4.549540   3.678992   3.667993   4.810564   4.905679
    22  H    5.101214   4.169692   3.802177   4.906792   5.216560
    23  C    4.694357   3.524979   2.475008   3.569103   4.528929
    24  H    4.903665   3.508134   2.783989   4.115433   5.053497
    25  H    5.085772   3.978035   2.667521   3.476053   4.707122
    26  O    5.680344   4.666932   3.716588   4.654032   5.414349
    27  H    6.491569   5.351959   4.423776   5.441055   6.299129
                    6          7          8          9         10
     6  C    0.000000
     7  C    1.549179   0.000000
     8  C    2.407374   1.529294   0.000000
     9  H    4.258177   4.184579   3.387659   0.000000
    10  H    3.726180   3.144842   2.678720   1.761970   0.000000
    11  H    3.282503   3.337188   2.168167   2.291162   2.911617
    12  H    3.389738   4.377732   4.178859   2.939863   3.853174
    13  H    2.618890   3.871807   4.312417   3.986273   4.188538
    14  H    4.164076   4.581774   4.574024   2.407618   2.798087
    15  H    2.970366   3.206775   3.681649   3.042634   2.398919
    16  H    1.096211   2.182919   3.300604   4.625380   4.000610
    17  H    2.172335   1.099954   2.142810   4.017413   2.652756
    18  H    2.760926   2.142501   1.099537   4.159948   3.718699
    19  O    3.705352   2.489913   1.425595   3.514847   2.504077
    20  H    4.082788   2.688077   1.942981   4.484601   3.364399
    21  O    2.525489   1.428270   2.445325   5.534658   4.387567
    22  H    2.450337   1.951216   3.142880   6.109504   5.071737
    23  C    1.529516   2.569530   3.299240   5.545321   5.164904
    24  H    2.177178   2.776138   3.081778   5.659986   5.359085
    25  H    2.161082   3.506777   4.108079   5.835210   5.724416
    26  O    2.398696   3.016453   4.143608   6.640133   5.958110
    27  H    3.231310   3.785272   4.756336   7.410104   6.791438
                   11         12         13         14         15
    11  H    0.000000
    12  H    2.929477   0.000000
    13  H    3.928873   1.767182   0.000000
    14  H    3.938527   2.453599   2.727932   0.000000
    15  H    3.931568   3.061139   2.463745   1.771060   0.000000
    16  H    4.110128   3.522925   2.245424   3.939000   2.571034
    17  H    3.801066   4.543411   3.936425   4.148535   2.601878
    18  H    2.380162   4.626859   4.834170   5.455017   4.639725
    19  O    2.887326   5.167388   5.433419   5.054349   4.245503
    20  H    3.704433   5.999320   6.112992   5.920348   4.938463
    21  O    4.473883   5.708262   5.072184   5.982258   4.503387
    22  H    4.960711   5.823030   4.971176   6.289655   4.771762
    23  C    4.094336   4.262831   3.488668   5.534565   4.446933
    24  H    3.856740   4.661172   4.256806   6.081831   5.104866
    25  H    4.418474   3.998637   3.195119   5.598270   4.743066
    26  O    5.367376   5.482557   4.389381   6.419334   5.059764
    27  H    5.934088   6.181230   5.177727   7.306751   6.003185
                   16         17         18         19         20
    16  H    0.000000
    17  H    2.341794   0.000000
    18  H    3.807333   3.033953   0.000000
    19  O    4.447693   2.630875   2.071702   0.000000
    20  H    4.830933   2.898154   2.274434   0.972110   0.000000
    21  O    3.067351   2.067819   2.587276   3.100051   2.817174
    22  H    2.846152   2.617244   3.157636   4.006721   3.777198
    23  C    2.127057   3.443579   3.132522   4.665786   4.850068
    24  H    3.051699   3.822840   2.560923   4.410114   4.511615
    25  H    2.496097   4.286124   3.935560   5.520881   5.809388
    26  O    2.546842   3.720312   4.034344   5.340549   5.320189
    27  H    3.485272   4.579602   4.444645   5.943418   5.836192
                   21         22         23         24         25
    21  O    0.000000
    22  H    0.981187   0.000000
    23  C    2.841117   2.349165   0.000000
    24  H    2.854761   2.533325   1.096979   0.000000
    25  H    3.928087   3.403055   1.096959   1.777464   0.000000
    26  O    2.719407   1.839527   1.442953   2.095998   2.090393
    27  H    3.273314   2.371161   1.969439   2.250236   2.426196
                   26         27
    26  O    0.000000
    27  H    0.971804   0.000000
 Stoichiometry    C8H15NO3
 Framework group  C1[X(C8H15NO3)]
 Deg. of freedom    75
 Full point group                 C1      NOp   1
 Largest Abelian subgroup         C1      NOp   1
 Largest concise Abelian subgroup C1      NOp   1
                         Standard orientation:                         
 ---------------------------------------------------------------------
 Center     Atomic      Atomic             Coordinates (Angstroms)
 Number     Number       Type             X           Y           Z
 ---------------------------------------------------------------------
      1          6           0        2.460185    0.191022    0.199906
      2          6           0        1.270553    0.281619   -0.807529
      3          7           0        0.487445   -0.987744   -0.684796
      4          6           0        1.421047   -1.956533   -0.076961
      5          6           0        2.261398   -1.155259    0.925948
      6          6           0       -0.720494   -0.721361    0.148206
      7          6           0       -0.636973    0.769711    0.560133
      8          6           0        0.237348    1.378232   -0.537138
      9          1           0        3.407288    0.198143   -0.349793
     10          1           0        2.478967    1.038825    0.889567
     11          1           0        1.663146    0.373664   -1.825118
     12          1           0        2.064527   -2.365484   -0.867100
     13          1           0        0.868873   -2.791779    0.362378
     14          1           0        3.205187   -1.647385    1.183114
     15          1           0        1.693884   -1.012701    1.853778
     16          1           0       -0.720584   -1.358039    1.040573
     17          1           0       -0.092502    0.848007    1.512666
     18          1           0       -0.386449    1.518036   -1.431740
     19          8           0        0.858773    2.613459   -0.190201
     20          1           0        0.144769    3.262575   -0.072534
     21          8           0       -1.883477    1.457018    0.677568
     22          1           0       -2.582416    0.769157    0.710122
     23          6           0       -1.986232   -1.056853   -0.642220
     24          1           0       -2.105077   -0.379439   -1.496824
     25          1           0       -1.921023   -2.083039   -1.024330
     26          8           0       -3.107114   -0.935071    0.258284
     27          1           0       -3.917155   -0.923056   -0.278458
 ---------------------------------------------------------------------
 Rotational constants (GHZ):      1.2969447      0.8435817      0.5897980
 Standard basis: 6-31+G(d,p) (6D, 7F)
 There are   303 symmetry adapted basis functions of A   symmetry.
 Integral buffers will be    131072 words long.
 Raffenetti 2 integral format.
 Two-electron integral symmetry is turned on.
   303 basis functions,   489 primitive gaussians,   303 cartesian basis functions
    47 alpha electrons       47 beta electrons
       nuclear repulsion energy       808.7175122767 Hartrees.
 NAtoms=   27 NActive=   27 NUniq=   27 SFac= 1.00D+00 NAtFMM=   60 NAOKFM=F Big=F
 ------------------------------------------------------------------------------
 Polarizable Continuum Model (PCM)
 =================================
 Model                : PCM.
 Atomic radii         : UFF (Universal Force Field).
 Polarization charges : Total charges.
 Charge compensation  : None.
 Solution method      : Matrix inversion.
 Cavity type          : Scaled VdW (van der Waals Surface) (Alpha=1.100).
 Cavity algorithm     : GePol (No added spheres)
                        Default sphere list used, NSphG=   27.
                        Lebedev-Laikov grids with approx.  5.0 points / Ang**2.
                        Smoothing algorithm: Karplus/York (Gamma=1.0000).
                        Polarization charges: spherical gaussians, with
                                              point-specific exponents (IZeta= 3).
                        Self-potential: point-specific (ISelfS= 7).
                        Self-field    : sphere-specific E.n sum rule (ISelfD= 2).
 Solvent              : Water, Eps=  78.355300 Eps(inf)=   1.777849
 ------------------------------------------------------------------------------
 One-electron integrals computed using PRISM.
 NBasis=   303 RedAO= T  NBF=   303
 NBsUse=   303 1.00D-06 NBFU=   303
 Harris functional with IExCor=  908 diagonalized for initial guess.
 ExpMin= 4.38D-02 ExpMax= 5.48D+03 ExpMxC= 8.25D+02 IAcc=2 IRadAn=         4 AccDes= 0.00D+00
 HarFok:  IExCor=  908 AccDes= 0.00D+00 IRadAn=         4 IDoV= 1
 ScaDFX=  1.000000  1.000000  1.000000  1.000000
 FoFCou: FMM=F IPFlag=           0 FMFlag=      100000 FMFlg1=           0
         NFxFlg=           0 DoJE=T BraDBF=F KetDBF=T FulRan=T
         Omega=  0.000000  0.000000  1.000000  0.000000  0.000000 ICntrl=     500 IOpCl=  0
         NMat0=    1 NMatS0=    1 NMatT0=    0 NMatD0=    1 NMtDS0=    0 NMtDT0=    0
         I1Cent=           4 NGrid=           0.
 Petite list used in FoFCou.
 Initial guess orbital symmetries:
       Occupied  (A) (A) (A) (A) (A) (A) (A) (A) (A) (A) (A) (A)
                 (A) (A) (A) (A) (A) (A) (A) (A) (A) (A) (A) (A)
                 (A) (A) (A) (A) (A) (A) (A) (A) (A) (A) (A) (A)
                 (A) (A) (A) (A) (A) (A) (A) (A) (A) (A) (A)
       Virtual   (A) (A) (A) (A) (A) (A) (A) (A) (A) (A) (A) (A)
                 (A) (A) (A) (A) (A) (A) (A) (A) (A) (A) (A) (A)
                 (A) (A) (A) (A) (A) (A) (A) (A) (A) (A) (A) (A)
                 (A) (A) (A) (A) (A) (A) (A) (A) (A) (A) (A) (A)
                 (A) (A) (A) (A) (A) (A) (A) (A) (A) (A) (A) (A)
                 (A) (A) (A) (A) (A) (A) (A) (A) (A) (A) (A) (A)
                 (A) (A) (A) (A) (A) (A) (A) (A) (A) (A) (A) (A)
                 (A) (A) (A) (A) (A) (A) (A) (A) (A) (A) (A) (A)
                 (A) (A) (A) (A) (A) (A) (A) (A) (A) (A) (A) (A)
                 (A) (A) (A) (A) (A) (A) (A) (A) (A) (A) (A) (A)
                 (A) (A) (A) (A) (A) (A) (A) (A) (A) (A) (A) (A)
                 (A) (A) (A) (A) (A) (A) (A) (A) (A) (A) (A) (A)
                 (A) (A) (A) (A) (A) (A) (A) (A) (A) (A) (A) (A)
                 (A) (A) (A) (A) (A) (A) (A) (A) (A) (A) (A) (A)
                 (A) (A) (A) (A) (A) (A) (A) (A) (A) (A) (A) (A)
                 (A) (A) (A) (A) (A) (A) (A) (A) (A) (A) (A) (A)
                 (A) (A) (A) (A) (A) (A) (A) (A) (A) (A) (A) (A)
                 (A) (A) (A) (A) (A) (A) (A) (A) (A) (A) (A) (A)
                 (A) (A) (A) (A) (A) (A) (A) (A) (A) (A) (A) (A)
                 (A) (A) (A) (A) (A) (A) (A) (A) (A) (A) (A) (A)
                 (A) (A) (A) (A) (A) (A) (A) (A) (A) (A) (A) (A)
                 (A) (A) (A) (A)
 The electronic state of the initial guess is 1-A.
 Requested convergence on RMS density matrix=1.00D-08 within 128 cycles.
 Requested convergence on MAX density matrix=1.00D-06.
 Requested convergence on             energy=1.00D-06.
 No special actions if energy rises.
 Error on total polarization charges =  0.01443
 SCF Done:  E(RmPW1PW91) =  -594.195398563     A.U. after   13 cycles
             Convg  =    0.6453D-08             -V/T =  2.0094
 Range of M.O.s used for correlation:     1   303
 NBasis=   303 NAE=    47 NBE=    47 NFC=     0 NFV=     0
 NROrb=    303 NOA=    47 NOB=    47 NVA=   256 NVB=   256

 **** Warning!!: The largest alpha MO coefficient is  0.72265630D+02

 NEqPCM:  Using equilibrium solvation (IEInf=0, Eps=  78.3553, EpsInf=   1.7778)
          Differentiating once with respect to magnetic field using GIAOs.
          Electric field/nuclear overlap derivatives assumed to be zero.
 FoFCou: FMM=F IPFlag=           0 FMFlag=    10101102 FMFlg1=           0
         NFxFlg=    40000000 DoJE=F BraDBF=F KetDBF=T FulRan=T
         Omega=  0.000000  0.000000  1.000000  0.000000  0.000000 ICntrl=    6100 IOpCl=  0
         NMat0=    1 NMatS0=    1 NMatT0=    0 NMatD0=    1 NMtDS0=    0 NMtDT0=    0
         I1Cent=           7 NGrid=        1810.
 Symmetry not used in FoFCou.
          There are     3 degrees of freedom in the 1st order CPHF.  IDoFFX=0.
      3 vectors produced by pass  0 Test12= 4.01D-13 3.33D-08 XBig12= 2.41D+01 8.33D-01.
 AX will form     3 AO Fock derivatives at one time.
      3 vectors produced by pass  1 Test12= 4.01D-13 3.33D-08 XBig12= 6.04D-02 3.92D-02.
      3 vectors produced by pass  2 Test12= 4.01D-13 3.33D-08 XBig12= 1.48D-04 2.66D-03.
      3 vectors produced by pass  3 Test12= 4.01D-13 3.33D-08 XBig12= 6.56D-07 1.59D-04.
      3 vectors produced by pass  4 Test12= 4.01D-13 3.33D-08 XBig12= 2.41D-09 8.78D-06.
      3 vectors produced by pass  5 Test12= 4.01D-13 3.33D-08 XBig12= 6.52D-12 4.15D-07.
 Inverted reduced A of dimension    18 with in-core refinement.
 Calculating GIAO nuclear magnetic shielding tensors.
 SCF GIAO Magnetic shielding tensor (ppm):
      1  C    Isotropic =   169.2783   Anisotropy =    25.1380
   XX=   171.3247   YX=     8.9630   ZX=    15.9833
   XY=     6.0081   YY=   172.5883   ZY=   -12.3971
   XZ=    16.5774   YZ=   -16.7424   ZZ=   163.9219
   Eigenvalues:   142.3345   179.4635   186.0369
      2  C    Isotropic =   129.5449   Anisotropy =    61.5406
   XX=   124.8240   YX=    20.1344   ZX=     8.2372
   XY=    20.1084   YY=   161.7132   ZY=    -5.0120
   XZ=    14.6313   YZ=    -6.5613   ZZ=   102.0974
   Eigenvalues:    94.4743   123.5884   170.5720
      3  N    Isotropic =   193.2438   Anisotropy =    56.0604
   XX=   204.8253   YX=    18.8729   ZX=    -6.1008
   XY=     2.5701   YY=   220.8141   ZY=   -21.2256
   XZ=   -22.0823   YZ=    -5.4243   ZZ=   154.0919
   Eigenvalues:   148.9239   200.1900   230.6174
      4  C    Isotropic =   138.6444   Anisotropy =    57.2399
   XX=   140.9294   YX=   -26.7412   ZX=    15.2661
   XY=   -11.8285   YY=   152.2351   ZY=   -17.1714
   XZ=    29.5689   YZ=    -6.4132   ZZ=   122.7686
   Eigenvalues:   107.6331   131.4958   176.8043
      5  C    Isotropic =   169.2676   Anisotropy =    20.0286
   XX=   163.5205   YX=     2.1108   ZX=    15.3968
   XY=     4.0428   YY=   181.2145   ZY=    -1.2524
   XZ=    21.1272   YZ=    -7.3900   ZZ=   163.0678
   Eigenvalues:   144.2878   180.8950   182.6200
      6  C    Isotropic =   130.4518   Anisotropy =    59.5448
   XX=   153.1939   YX=    -9.9809   ZX=   -27.1676
   XY=    -5.5922   YY=   117.0213   ZY=     2.8887
   XZ=   -27.4230   YZ=     3.7243   ZZ=   121.1401
   Eigenvalues:   105.4192   115.7878   170.1483
      7  C    Isotropic =   117.1157   Anisotropy =    44.9752
   XX=   137.0755   YX=    -5.1993   ZX=   -12.3702
   XY=   -18.1763   YY=   115.4247   ZY=     1.2682
   XZ=   -18.9324   YZ=     3.6932   ZZ=    98.8471
   Eigenvalues:    93.1260   111.1221   147.0992
      8  C    Isotropic =   114.6649   Anisotropy =    36.8744
   XX=   113.5653   YX=     4.3112   ZX=   -16.6148
   XY=    20.7318   YY=   132.1077   ZY=     7.8601
   XZ=   -14.2987   YZ=    -4.2313   ZZ=    98.3216
   Eigenvalues:    87.1407   117.6061   139.2478
      9  H    Isotropic =    30.0846   Anisotropy =    12.3239
   XX=    37.0144   YX=     1.6197   ZX=    -3.0466
   XY=     1.2529   YY=    25.8848   ZY=    -2.2054
   XZ=    -3.2883   YZ=    -2.3841   ZZ=    27.3547
   Eigenvalues:    24.1625    27.7909    38.3006
     10  H    Isotropic =    29.5218   Anisotropy =     7.5564
   XX=    28.2151   YX=     0.2515   ZX=     3.3692
   XY=     0.4780   YY=    32.9698   ZY=     2.8189
   XZ=     2.5041   YZ=     2.8861   ZZ=    27.3804
   Eigenvalues:    24.3664    29.6395    34.5594
     11  H    Isotropic =    28.0586   Anisotropy =     8.9747
   XX=    27.0764   YX=     1.3394   ZX=    -2.7156
   XY=     0.7224   YY=    24.3796   ZY=    -2.0779
   XZ=    -1.8047   YZ=    -1.9850   ZZ=    32.7197
   Eigenvalues:    23.8172    26.3167    34.0417
     12  H    Isotropic =    28.8400   Anisotropy =    11.9580
   XX=    28.7779   YX=    -5.7084   ZX=    -2.1391
   XY=    -4.9056   YY=    29.9969   ZY=     4.4758
   XZ=    -0.6189   YZ=     4.5141   ZZ=    27.7453
   Eigenvalues:    22.8852    26.8229    36.8120
     13  H    Isotropic =    28.7043   Anisotropy =     9.5977
   XX=    27.1300   YX=     0.3742   ZX=     1.7691
   XY=     1.4352   YY=    34.7019   ZY=    -2.2749
   XZ=     0.4473   YZ=    -1.5438   ZZ=    24.2810
   Eigenvalues:    23.5064    27.5037    35.1028
     14  H    Isotropic =    29.9790   Anisotropy =    12.4882
   XX=    33.7062   YX=    -3.9952   ZX=     4.1698
   XY=    -4.3698   YY=    29.1993   ZY=    -2.8063
   XZ=     4.0517   YZ=    -2.4081   ZZ=    27.0315
   Eigenvalues:    24.9229    26.7097    38.3045
     15  H    Isotropic =    30.0494   Anisotropy =     8.8102
   XX=    27.5287   YX=     0.2824   ZX=    -1.7668
   XY=     0.2111   YY=    27.0866   ZY=    -0.7295
   XZ=    -1.1433   YZ=    -1.3906   ZZ=    35.5329
   Eigenvalues:    26.9425    27.2828    35.9229
     16  H    Isotropic =    28.7195   Anisotropy =     4.4506
   XX=    30.5256   YX=     0.5521   ZX=    -1.2727
   XY=     0.1460   YY=    27.6888   ZY=    -2.4402
   XZ=    -1.1654   YZ=    -3.0189   ZZ=    27.9441
   Eigenvalues:    25.0181    29.4538    31.6866
     17  H    Isotropic =    27.4766   Anisotropy =     4.8441
   XX=    29.4319   YX=    -2.4788   ZX=     1.0500
   XY=    -2.6922   YY=    25.3203   ZY=     0.4987
   XZ=    -0.3655   YZ=     2.1694   ZZ=    27.6777
   Eigenvalues:    23.6221    28.1017    30.7060
     18  H    Isotropic =    27.0883   Anisotropy =     3.0812
   XX=    25.6110   YX=     1.2161   ZX=     2.4321
   XY=     1.3961   YY=    28.5940   ZY=     0.4011
   XZ=     2.4812   YZ=    -1.9057   ZZ=    27.0598
   Eigenvalues:    23.3468    28.7755    29.1424
     19  O    Isotropic =   303.7150   Anisotropy =    39.2731
   XX=   299.5540   YX=   -16.8128   ZX=    -2.4083
   XY=   -10.2599   YY=   323.7245   ZY=     7.4497
   XZ=    21.7534   YZ=     5.7460   ZZ=   287.8664
   Eigenvalues:   278.7650   302.4828   329.8970
     20  H    Isotropic =    29.4488   Anisotropy =    19.0893
   XX=    31.1400   YX=    -6.5196   ZX=    -0.7481
   XY=    -7.2326   YY=    37.5949   ZY=     2.1996
   XZ=    -1.6750   YZ=     1.4390   ZZ=    19.6114
   Eigenvalues:    19.3994    26.7719    42.1750
     21  O    Isotropic =   310.7482   Anisotropy =    37.8253
   XX=   333.0967   YX=     4.3125   ZX=    -1.3460
   XY=    14.3243   YY=   302.2770   ZY=   -10.7552
   XZ=     9.6836   YZ=     4.9135   ZZ=   296.8709
   Eigenvalues:   293.9298   302.3497   335.9651
     22  H    Isotropic =    26.1208   Anisotropy =    24.7103
   XX=    32.6915   YX=    10.0876   ZX=    -1.7190
   XY=     9.6714   YY=    32.6348   ZY=     3.2330
   XZ=    -1.4855   YZ=     3.4428   ZZ=    13.0360
   Eigenvalues:    11.8683    23.8997    42.5943
     23  C    Isotropic =   128.2105   Anisotropy =    72.6115
   XX=   161.8691   YX=    -1.6218   ZX=   -34.5374
   XY=     0.0716   YY=   103.2217   ZY=     9.6499
   XZ=   -22.7099   YZ=     8.5110   ZZ=   119.5408
   Eigenvalues:    96.1871   111.8263   176.6182
     24  H    Isotropic =    27.6444   Anisotropy =     2.4166
   XX=    28.9761   YX=     2.1328   ZX=    -0.1967
   XY=    -0.0161   YY=    24.9324   ZY=     0.0196
   XZ=     0.5611   YZ=    -1.0252   ZZ=    29.0247
   Eigenvalues:    24.6081    29.0696    29.2555
     25  H    Isotropic =    27.7932   Anisotropy =     5.0079
   XX=    29.1457   YX=    -0.3062   ZX=    -0.8229
   XY=     1.7634   YY=    28.6284   ZY=     3.0702
   XZ=    -1.4792   YZ=     4.3670   ZZ=    25.6056
   Eigenvalues:    22.8102    29.4376    31.1319
     26  O    Isotropic =   308.7375   Anisotropy =    83.4759
   XX=   348.6308   YX=     6.4062   ZX=    14.0257
   XY=    13.7452   YY=   278.3951   ZY=    -3.3189
   XZ=    48.0234   YZ=    -0.1613   ZZ=   299.1866
   Eigenvalues:   274.1295   287.6949   364.3881
     27  H    Isotropic =    29.9719   Anisotropy =    21.1825
   XX=    41.5320   YX=     0.8508   ZX=     7.2908
   XY=     0.7125   YY=    20.5163   ZY=     0.6904
   XZ=     5.4956   YZ=     0.4238   ZZ=    27.8674
   Eigenvalues:    20.4685    25.3536    44.0935
 End of Minotr Frequency-dependent properties file   721 does not exist.
 End of Minotr Frequency-dependent properties file   722 does not exist.

 **********************************************************************

            Population analysis using the SCF density.

 **********************************************************************

 Orbital symmetries:
       Occupied  (A) (A) (A) (A) (A) (A) (A) (A) (A) (A) (A) (A)
                 (A) (A) (A) (A) (A) (A) (A) (A) (A) (A) (A) (A)
                 (A) (A) (A) (A) (A) (A) (A) (A) (A) (A) (A) (A)
                 (A) (A) (A) (A) (A) (A) (A) (A) (A) (A) (A)
       Virtual   (A) (A) (A) (A) (A) (A) (A) (A) (A) (A) (A) (A)
                 (A) (A) (A) (A) (A) (A) (A) (A) (A) (A) (A) (A)
                 (A) (A) (A) (A) (A) (A) (A) (A) (A) (A) (A) (A)
                 (A) (A) (A) (A) (A) (A) (A) (A) (A) (A) (A) (A)
                 (A) (A) (A) (A) (A) (A) (A) (A) (A) (A) (A) (A)
                 (A) (A) (A) (A) (A) (A) (A) (A) (A) (A) (A) (A)
                 (A) (A) (A) (A) (A) (A) (A) (A) (A) (A) (A) (A)
                 (A) (A) (A) (A) (A) (A) (A) (A) (A) (A) (A) (A)
                 (A) (A) (A) (A) (A) (A) (A) (A) (A) (A) (A) (A)
                 (A) (A) (A) (A) (A) (A) (A) (A) (A) (A) (A) (A)
                 (A) (A) (A) (A) (A) (A) (A) (A) (A) (A) (A) (A)
                 (A) (A) (A) (A) (A) (A) (A) (A) (A) (A) (A) (A)
                 (A) (A) (A) (A) (A) (A) (A) (A) (A) (A) (A) (A)
                 (A) (A) (A) (A) (A) (A) (A) (A) (A) (A) (A) (A)
                 (A) (A) (A) (A) (A) (A) (A) (A) (A) (A) (A) (A)
                 (A) (A) (A) (A) (A) (A) (A) (A) (A) (A) (A) (A)
                 (A) (A) (A) (A) (A) (A) (A) (A) (A) (A) (A) (A)
                 (A) (A) (A) (A) (A) (A) (A) (A) (A) (A) (A) (A)
                 (A) (A) (A) (A) (A) (A) (A) (A) (A) (A) (A) (A)
                 (A) (A) (A) (A) (A) (A) (A) (A) (A) (A) (A) (A)
                 (A) (A) (A) (A) (A) (A) (A) (A) (A) (A) (A) (A)
                 (A) (A) (A) (A)
 The electronic state is 1-A.
 Alpha  occ. eigenvalues --  -19.27246 -19.25881 -19.24587 -14.41828 -10.30159
 Alpha  occ. eigenvalues --  -10.30138 -10.30079 -10.28658 -10.27837 -10.26960
 Alpha  occ. eigenvalues --  -10.24359 -10.24269  -1.07638  -1.06502  -1.04402
 Alpha  occ. eigenvalues --   -0.96989  -0.82247  -0.79312  -0.75628  -0.71621
 Alpha  occ. eigenvalues --   -0.66971  -0.61661  -0.60104  -0.58356  -0.54817
 Alpha  occ. eigenvalues --   -0.54020  -0.53027  -0.50191  -0.48706  -0.47484
 Alpha  occ. eigenvalues --   -0.46623  -0.44149  -0.44004  -0.41897  -0.41482
 Alpha  occ. eigenvalues --   -0.39774  -0.38325  -0.37651  -0.36347  -0.35524
 Alpha  occ. eigenvalues --   -0.35198  -0.33882  -0.33522  -0.31770  -0.29869
 Alpha  occ. eigenvalues --   -0.27823  -0.24031
 Alpha virt. eigenvalues --    0.00513   0.01196   0.01624   0.02015   0.03819
 Alpha virt. eigenvalues --    0.04328   0.04440   0.05069   0.05290   0.06750
 Alpha virt. eigenvalues --    0.07923   0.08094   0.08648   0.09377   0.09443
 Alpha virt. eigenvalues --    0.10377   0.11327   0.11886   0.12267   0.12895
 Alpha virt. eigenvalues --    0.13149   0.13924   0.14261   0.14529   0.15126
 Alpha virt. eigenvalues --    0.16029   0.16453   0.17645   0.17800   0.18222
 Alpha virt. eigenvalues --    0.18516   0.18840   0.18992   0.20187   0.20947
 Alpha virt. eigenvalues --    0.21548   0.21792   0.22220   0.22605   0.23220
 Alpha virt. eigenvalues --    0.23582   0.24335   0.24961   0.25262   0.25794
 Alpha virt. eigenvalues --    0.26550   0.26869   0.27054   0.27891   0.28495
 Alpha virt. eigenvalues --    0.29677   0.29968   0.31166   0.31591   0.32119
 Alpha virt. eigenvalues --    0.32823   0.33316   0.33905   0.34464   0.35695
 Alpha virt. eigenvalues --    0.36190   0.36481   0.37072   0.37842   0.38486
 Alpha virt. eigenvalues --    0.39612   0.40991   0.41366   0.41410   0.42132
 Alpha virt. eigenvalues --    0.43098   0.43967   0.45009   0.45291   0.47158
 Alpha virt. eigenvalues --    0.48156   0.63648   0.63982   0.67284   0.68433
 Alpha virt. eigenvalues --    0.69301   0.71242   0.71909   0.72423   0.74120
 Alpha virt. eigenvalues --    0.75396   0.76536   0.79212   0.79280   0.81544
 Alpha virt. eigenvalues --    0.82053   0.83650   0.85050   0.86301   0.87363
 Alpha virt. eigenvalues --    0.89560   0.92176   0.93918   0.96094   0.98197
 Alpha virt. eigenvalues --    0.99641   1.00012   1.02407   1.03574   1.04886
 Alpha virt. eigenvalues --    1.05761   1.07214   1.08041   1.09251   1.10388
 Alpha virt. eigenvalues --    1.11163   1.12417   1.14925   1.15819   1.17022
 Alpha virt. eigenvalues --    1.18874   1.19656   1.20802   1.23529   1.24533
 Alpha virt. eigenvalues --    1.26258   1.28175   1.29037   1.29716   1.31926
 Alpha virt. eigenvalues --    1.33549   1.36121   1.38858   1.40759   1.43157
 Alpha virt. eigenvalues --    1.44000   1.45549   1.46136   1.50671   1.51359
 Alpha virt. eigenvalues --    1.53492   1.54160   1.59693   1.60979   1.61651
 Alpha virt. eigenvalues --    1.63592   1.65682   1.66304   1.67437   1.72638
 Alpha virt. eigenvalues --    1.74331   1.75008   1.77426   1.78562   1.79225
 Alpha virt. eigenvalues --    1.79922   1.81433   1.83673   1.85251   1.87816
 Alpha virt. eigenvalues --    1.88531   1.89663   1.90255   1.92056   1.93354
 Alpha virt. eigenvalues --    1.94268   1.97981   1.99531   2.00857   2.01790
 Alpha virt. eigenvalues --    2.03855   2.04668   2.06391   2.09206   2.11594
 Alpha virt. eigenvalues --    2.13742   2.14775   2.15768   2.16610   2.18820
 Alpha virt. eigenvalues --    2.21754   2.25069   2.26334   2.28453   2.30411
 Alpha virt. eigenvalues --    2.34338   2.35602   2.37387   2.38916   2.39328
 Alpha virt. eigenvalues --    2.40523   2.43772   2.44183   2.47092   2.48254
 Alpha virt. eigenvalues --    2.49965   2.51824   2.52643   2.54676   2.55058
 Alpha virt. eigenvalues --    2.55406   2.57536   2.58998   2.62607   2.63243
 Alpha virt. eigenvalues --    2.64089   2.65909   2.67152   2.68935   2.69294
 Alpha virt. eigenvalues --    2.70647   2.73430   2.73923   2.76921   2.77867
 Alpha virt. eigenvalues --    2.79479   2.80110   2.82272   2.83098   2.85967
 Alpha virt. eigenvalues --    2.87006   2.88320   2.90215   2.92975   2.93833
 Alpha virt. eigenvalues --    2.96700   2.97655   2.99974   3.03481   3.06006
 Alpha virt. eigenvalues --    3.07704   3.09071   3.12998   3.16610   3.32404
 Alpha virt. eigenvalues --    3.34767   3.36853   3.39055   3.40065   3.45382
 Alpha virt. eigenvalues --    3.47147   3.52145   3.52530   3.54806   3.55986
 Alpha virt. eigenvalues --    3.56120   3.58009   3.60004   3.65321   4.36462
 Alpha virt. eigenvalues --    4.40853   4.44204   4.47316   4.52076   4.55321
 Alpha virt. eigenvalues --    4.59599   4.66756   4.73253   4.86802   4.90602
 Alpha virt. eigenvalues --    4.93258
          Condensed to atoms (all electrons):
              1          2          3          4          5          6
     1  C    5.748947  -0.404418   0.165804  -0.049210   0.081787  -0.088844
     2  C   -0.404418   7.813418  -0.442149  -0.295973   0.260395   0.261697
     3  N    0.165804  -0.442149   7.418659   0.234380  -0.323047  -0.247170
     4  C   -0.049210  -0.295973   0.234380   5.572754   0.203307  -0.118085
     5  C    0.081787   0.260395  -0.323047   0.203307   5.458509   0.126535
     6  C   -0.088844   0.261697  -0.247170  -0.118085   0.126535   8.913537
     7  C   -0.067675  -0.020369  -0.088183  -0.029308   0.035755  -0.564496
     8  C    0.120802  -0.872115   0.151899  -0.010394  -0.107914  -0.531056
     9  H    0.406265  -0.074176   0.008603   0.007134  -0.043892   0.009448
    10  H    0.471448  -0.141255   0.022633   0.027329  -0.054607  -0.000839
    11  H    0.011999   0.226804  -0.022679  -0.003317  -0.005064  -0.010630
    12  H    0.009940  -0.017558  -0.033484   0.411256  -0.074402  -0.008549
    13  H    0.013097   0.027223  -0.053031   0.364547  -0.024097   0.013160
    14  H   -0.009910   0.000574   0.017740  -0.036607   0.362328  -0.002193
    15  H   -0.052252  -0.003913   0.007813  -0.057038   0.406783   0.019147
    16  H   -0.009937   0.031395  -0.050730   0.029577  -0.003530   0.282474
    17  H   -0.000445   0.040257   0.020600   0.004658  -0.007492  -0.049728
    18  H    0.003027  -0.046117   0.021019   0.004992  -0.001303   0.015361
    19  O    0.003305  -0.200890   0.006603  -0.003291   0.010559   0.025206
    20  H   -0.007650   0.061133  -0.002640   0.000120  -0.001085   0.013451
    21  O    0.003523   0.005115   0.035098   0.004645  -0.005004  -0.078665
    22  H    0.002535  -0.003401   0.005143   0.000024  -0.000843  -0.111700
    23  C    0.077411  -0.230814   0.193178  -0.020728  -0.080260  -1.137820
    24  H    0.001544  -0.010039   0.017938   0.007333  -0.001661  -0.100988
    25  H   -0.000298   0.009824  -0.008892  -0.010530   0.000322  -0.090675
    26  O   -0.001067   0.025882   0.006341  -0.002606   0.001835  -0.093592
    27  H   -0.000072  -0.002000  -0.001488  -0.000002  -0.000030   0.052326
              7          8          9         10         11         12
     1  C   -0.067675   0.120802   0.406265   0.471448   0.011999   0.009940
     2  C   -0.020369  -0.872115  -0.074176  -0.141255   0.226804  -0.017558
     3  N   -0.088183   0.151899   0.008603   0.022633  -0.022679  -0.033484
     4  C   -0.029308  -0.010394   0.007134   0.027329  -0.003317   0.411256
     5  C    0.035755  -0.107914  -0.043892  -0.054607  -0.005064  -0.074402
     6  C   -0.564496  -0.531056   0.009448  -0.000839  -0.010630  -0.008549
     7  C    6.377793  -0.230370  -0.011309  -0.003039   0.021498   0.002417
     8  C   -0.230370   6.841131   0.032263   0.010854   0.062057   0.014118
     9  H   -0.011309   0.032263   0.523525  -0.024109  -0.007616   0.001267
    10  H   -0.003039   0.010854  -0.024109   0.504349   0.003628  -0.000018
    11  H    0.021498   0.062057  -0.007616   0.003628   0.547941   0.001691
    12  H    0.002417   0.014118   0.001267  -0.000018   0.001691   0.537902
    13  H    0.007509  -0.005035  -0.000119  -0.000131  -0.000106  -0.023635
    14  H    0.003598   0.002844  -0.005604   0.001617   0.000022  -0.002603
    15  H   -0.014713   0.015637   0.003905  -0.006985  -0.000154   0.004087
    16  H    0.011104   0.004596   0.000002  -0.000027  -0.000219   0.000078
    17  H    0.469331  -0.162564   0.000075   0.000377  -0.000143   0.000005
    18  H   -0.044183   0.361271  -0.000073   0.000088  -0.007882   0.000005
    19  O   -0.139593   0.383383  -0.000428   0.001432   0.001108  -0.000087
    20  H   -0.059565   0.000381   0.000006  -0.000133  -0.000257   0.000000
    21  O    0.328984  -0.156893   0.000036  -0.000150  -0.000406   0.000075
    22  H    0.033497   0.017804   0.000000   0.000000   0.000007   0.000000
    23  C   -0.051280   0.193051   0.001409  -0.000262   0.006737   0.009172
    24  H    0.014941   0.012769   0.000000   0.000000  -0.000026   0.000020
    25  H    0.007651  -0.007296   0.000000   0.000000   0.000004  -0.000069
    26  O    0.070572  -0.025816   0.000000  -0.000004  -0.000012   0.000034
    27  H   -0.015618   0.004691   0.000000   0.000000   0.000000   0.000000
             13         14         15         16         17         18
     1  C    0.013097  -0.009910  -0.052252  -0.009937  -0.000445   0.003027
     2  C    0.027223   0.000574  -0.003913   0.031395   0.040257  -0.046117
     3  N   -0.053031   0.017740   0.007813  -0.050730   0.020600   0.021019
     4  C    0.364547  -0.036607  -0.057038   0.029577   0.004658   0.004992
     5  C   -0.024097   0.362328   0.406783  -0.003530  -0.007492  -0.001303
     6  C    0.013160  -0.002193   0.019147   0.282474  -0.049728   0.015361
     7  C    0.007509   0.003598  -0.014713   0.011104   0.469331  -0.044183
     8  C   -0.005035   0.002844   0.015637   0.004596  -0.162564   0.361271
     9  H   -0.000119  -0.005604   0.003905   0.000002   0.000075  -0.000073
    10  H   -0.000131   0.001617  -0.006985  -0.000027   0.000377   0.000088
    11  H   -0.000106   0.000022  -0.000154  -0.000219  -0.000143  -0.007882
    12  H   -0.023635  -0.002603   0.004087   0.000078   0.000005   0.000005
    13  H    0.525082   0.001334  -0.005282   0.000666   0.000040   0.000006
    14  H    0.001334   0.518485  -0.023736  -0.000151   0.000052   0.000003
    15  H   -0.005282  -0.023736   0.525299   0.000843  -0.000095   0.000001
    16  H    0.000666  -0.000151   0.000843   0.538431  -0.009089  -0.000195
    17  H    0.000040   0.000052  -0.000095  -0.009089   0.559469   0.004556
    18  H    0.000006   0.000003   0.000001  -0.000195   0.004556   0.560487
    19  O    0.000044   0.000078  -0.000340  -0.000413  -0.004219  -0.041692
    20  H    0.000000   0.000000  -0.000002  -0.000002  -0.000025  -0.005508
    21  O   -0.000045   0.000007   0.000233   0.003712  -0.054882  -0.000720
    22  H    0.000002   0.000000  -0.000002   0.000358   0.001023   0.000055
    23  C   -0.010560  -0.000119   0.008275  -0.014824   0.018278   0.005531
    24  H   -0.000010   0.000000   0.000002   0.004734  -0.000142  -0.000852
    25  H    0.000395   0.000000  -0.000005  -0.005661  -0.000086   0.000008
    26  O   -0.000264  -0.000003   0.000025   0.008004  -0.002368   0.000046
    27  H    0.000001   0.000000   0.000000  -0.000002  -0.000012  -0.000013
             19         20         21         22         23         24
     1  C    0.003305  -0.007650   0.003523   0.002535   0.077411   0.001544
     2  C   -0.200890   0.061133   0.005115  -0.003401  -0.230814  -0.010039
     3  N    0.006603  -0.002640   0.035098   0.005143   0.193178   0.017938
     4  C   -0.003291   0.000120   0.004645   0.000024  -0.020728   0.007333
     5  C    0.010559  -0.001085  -0.005004  -0.000843  -0.080260  -0.001661
     6  C    0.025206   0.013451  -0.078665  -0.111700  -1.137820  -0.100988
     7  C   -0.139593  -0.059565   0.328984   0.033497  -0.051280   0.014941
     8  C    0.383383   0.000381  -0.156893   0.017804   0.193051   0.012769
     9  H   -0.000428   0.000006   0.000036   0.000000   0.001409   0.000000
    10  H    0.001432  -0.000133  -0.000150   0.000000  -0.000262   0.000000
    11  H    0.001108  -0.000257  -0.000406   0.000007   0.006737  -0.000026
    12  H   -0.000087   0.000000   0.000075   0.000000   0.009172   0.000020
    13  H    0.000044   0.000000  -0.000045   0.000002  -0.010560  -0.000010
    14  H    0.000078   0.000000   0.000007   0.000000  -0.000119   0.000000
    15  H   -0.000340  -0.000002   0.000233  -0.000002   0.008275   0.000002
    16  H   -0.000413  -0.000002   0.003712   0.000358  -0.014824   0.004734
    17  H   -0.004219  -0.000025  -0.054882   0.001023   0.018278  -0.000142
    18  H   -0.041692  -0.005508  -0.000720   0.000055   0.005531  -0.000852
    19  O    8.262466   0.234617  -0.004535   0.000772   0.004599  -0.000150
    20  H    0.234617   0.373297   0.008508  -0.000128  -0.000561  -0.000002
    21  O   -0.004535   0.008508   8.278491   0.249087  -0.009510   0.000141
    22  H    0.000772  -0.000128   0.249087   0.334479   0.033227  -0.000223
    23  C    0.004599  -0.000561  -0.009510   0.033227   6.043502   0.425888
    24  H   -0.000150  -0.000002   0.000141  -0.000223   0.425888   0.553240
    25  H    0.000026   0.000000  -0.001706   0.000485   0.476327  -0.039868
    26  O    0.000257  -0.000001  -0.034964   0.031246   0.065677  -0.056670
    27  H    0.000001   0.000000   0.000535  -0.002470  -0.031854  -0.004931
             25         26         27
     1  C   -0.000298  -0.001067  -0.000072
     2  C    0.009824   0.025882  -0.002000
     3  N   -0.008892   0.006341  -0.001488
     4  C   -0.010530  -0.002606  -0.000002
     5  C    0.000322   0.001835  -0.000030
     6  C   -0.090675  -0.093592   0.052326
     7  C    0.007651   0.070572  -0.015618
     8  C   -0.007296  -0.025816   0.004691
     9  H    0.000000   0.000000   0.000000
    10  H    0.000000  -0.000004   0.000000
    11  H    0.000004  -0.000012   0.000000
    12  H   -0.000069   0.000034   0.000000
    13  H    0.000395  -0.000264   0.000001
    14  H    0.000000  -0.000003   0.000000
    15  H   -0.000005   0.000025   0.000000
    16  H   -0.005661   0.008004  -0.000002
    17  H   -0.000086  -0.002368  -0.000012
    18  H    0.000008   0.000046  -0.000013
    19  O    0.000026   0.000257   0.000001
    20  H    0.000000  -0.000001   0.000000
    21  O   -0.001706  -0.034964   0.000535
    22  H    0.000485   0.031246  -0.002470
    23  C    0.476327   0.065677  -0.031854
    24  H   -0.039868  -0.056670  -0.004931
    25  H    0.540103  -0.041564  -0.002944
    26  O   -0.041564   8.424164   0.242898
    27  H   -0.002944   0.242898   0.348822
 Mulliken atomic charges:
              1
     1  C   -0.429659
     2  C    0.001469
     3  N   -0.059959
     4  C   -0.234965
     5  C   -0.213881
     6  C   -0.497312
     7  C   -0.044950
     8  C   -0.120100
     9  H    0.173389
    10  H    0.187805
    11  H    0.175017
    12  H    0.168338
    13  H    0.169207
    14  H    0.172243
    15  H    0.172465
    16  H    0.178806
    17  H    0.172567
    18  H    0.172081
    19  O   -0.538817
    20  H    0.386046
    21  O   -0.570709
    22  H    0.409022
    23  C    0.026331
    24  H    0.177009
    25  H    0.174450
    26  O   -0.618052
    27  H    0.412159
 Sum of Mulliken atomic charges =   0.00000
 Mulliken charges with hydrogens summed into heavy atoms:
              1
     1  C   -0.068465
     2  C    0.176485
     3  N   -0.059959
     4  C    0.102581
     5  C    0.130827
     6  C   -0.318506
     7  C    0.127617
     8  C    0.051981
    19  O   -0.152771
    21  O   -0.161687
    23  C    0.377790
    26  O   -0.205892
 Sum of Mulliken charges with hydrogens summed into heavy atoms =   0.00000
 Electronic spatial extent (au):  <R**2>=           2035.9357
 Charge=              0.0000 electrons
 Dipole moment (field-independent basis, Debye):
    X=             -1.2920    Y=             -2.7239    Z=             -1.1761  Tot=              3.2361
 Quadrupole moment (field-independent basis, Debye-Ang):
   XX=            -65.0153   YY=            -75.5058   ZZ=            -74.4618
   XY=             -1.1716   XZ=              7.0897   YZ=             -1.8528
 Traceless Quadrupole moment (field-independent basis, Debye-Ang):
   XX=              6.6457   YY=             -3.8448   ZZ=             -2.8009
   XY=             -1.1716   XZ=              7.0897   YZ=             -1.8528
 Octapole moment (field-independent basis, Debye-Ang**2):
  XXX=            -58.6541  YYY=              6.9054  ZZZ=              1.5766  XYY=             -9.3566
  XXY=            -21.7850  XXZ=            -23.4940  XZZ=             -4.4089  YZZ=              3.8574
  YYZ=             -1.1603  XYZ=             -1.8654
 Hexadecapole moment (field-independent basis, Debye-Ang**3):
 XXXX=          -1168.6456 YYYY=           -821.1080 ZZZZ=           -280.0607 XXXY=             32.3578
 XXXZ=             56.9150 YYYX=            -20.2627 YYYZ=              0.5635 ZZZX=             -2.3740
 ZZZY=             -7.1614 XXYY=           -420.8817 XXZZ=           -284.4486 YYZZ=           -205.2778
 XXYZ=             19.1263 YYXZ=             19.4524 ZZXY=              5.5368
 N-N= 8.087175122767D+02 E-N=-3.003497032393D+03  KE= 5.886639111939D+02
 1\1\GINC-COMPUTE-3-2\SP\RmPW1PW91\6-31+G(d,p)\C8H15N1O3\MAMICHETTI.IQU
 IR\17-May-2024\0\\# mpw1pw91/6-31+G** nmr scrf=(pcm,solvent=water)\\co
 mment\\0,1\C,0,-2.460185,0.191021,-0.199906\C,0,-1.270553,0.281619,0.8
 07529\N,0,-0.487445,-0.987744,0.684796\C,0,-1.421047,-1.956533,0.07696
 1\C,0,-2.261398,-1.15526,-0.925948\C,0,0.720494,-0.721361,-0.148206\C,
 0,0.636973,0.769711,-0.560133\C,0,-0.237348,1.378232,0.537138\H,0,-3.4
 07288,0.198142,0.349793\H,0,-2.478967,1.038824,-0.889567\H,0,-1.663146
 ,0.373664,1.825118\H,0,-2.064526,-2.365484,0.8671\H,0,-0.868872,-2.791
 779,-0.362378\H,0,-3.205187,-1.647386,-1.183114\H,0,-1.693884,-1.01270
 1,-1.853778\H,0,0.720584,-1.358039,-1.040573\H,0,0.092502,0.848007,-1.
 512666\H,0,0.386449,1.518036,1.43174\O,0,-0.858774,2.613459,0.190201\H
 ,0,-0.14477,3.262575,0.072534\O,0,1.883477,1.457019,-0.677568\H,0,2.58
 2416,0.769158,-0.710122\C,0,1.986232,-1.056852,0.64222\H,0,2.105077,-0
 .379438,1.496824\H,0,1.921023,-2.083038,1.02433\O,0,3.107114,-0.93507,
 -0.258284\H,0,3.917155,-0.923055,0.278458\\Version=AM64L-G09RevC.01\St
 ate=1-A\HF=-594.1953986\RMSD=6.453e-09\Dipole=0.5083314,-1.0716693,0.4
 627031\Quadrupole=4.9408913,-2.8585277,-2.0823636,0.8710438,5.2710281,
 1.3775276\PG=C01 [X(C8H15N1O3)]\\@


 REFRAIN FROM ILLUSIONS, INSIST ON WORK AND NOT WORDS,
 PATIENTLY SEEK DIVINE AND SCIENTIFIC TRUTH.
 LAST WORDS OF MARIA MENDELEEVA TO HER SON DMITRI, C. 1850
 Job cpu time:  0 days  0 hours  8 minutes 27.7 seconds.
 File lengths (MBytes):  RWF=    112 Int=      0 D2E=      0 Chk=      7 Scr=      1
 Normal termination of Gaussian 09 at Fri May 17 12:36:49 2024.
