 Entering Gaussian System, Link 0=g09
 Input=/home/mamichetti.iquir/Linux/03_Cardona_A1A3_R__S_S_R_017_OptB.gjc
 Output=/home/mamichetti.iquir/Linux/03_Cardona_A1A3_R__S_S_R_017_OptB.log
 Initial command:
 /opt/ohpc/pub/apps/software/Gaussian/09/AMD64.SSE4a-enabled/g09/l1.exe /local/mamichetti.iquir/Gau-128034.inp -scrdir=/local/mamichetti.iquir/
 Entering Link 1 = /opt/ohpc/pub/apps/software/Gaussian/09/AMD64.SSE4a-enabled/g09/l1.exe PID=    128035.
  
 Copyright (c) 1988,1990,1992,1993,1995,1998,2003,2009,2011,
            Gaussian, Inc.  All Rights Reserved.
  
 This is part of the Gaussian(R) 09 program.  It is based on
 the Gaussian(R) 03 system (copyright 2003, Gaussian, Inc.),
 the Gaussian(R) 98 system (copyright 1998, Gaussian, Inc.),
 the Gaussian(R) 94 system (copyright 1995, Gaussian, Inc.),
 the Gaussian 92(TM) system (copyright 1992, Gaussian, Inc.),
 the Gaussian 90(TM) system (copyright 1990, Gaussian, Inc.),
 the Gaussian 88(TM) system (copyright 1988, Gaussian, Inc.),
 the Gaussian 86(TM) system (copyright 1986, Carnegie Mellon
 University), and the Gaussian 82(TM) system (copyright 1983,
 Carnegie Mellon University). Gaussian is a federally registered
 trademark of Gaussian, Inc.
  
 This software contains proprietary and confidential information,
 including trade secrets, belonging to Gaussian, Inc.
  
 This software is provided under written license and may be
 used, copied, transmitted, or stored only in accord with that
 written license.
  
 The following legend is applicable only to US Government
 contracts under FAR:
  
                    RESTRICTED RIGHTS LEGEND
  
 Use, reproduction and disclosure by the US Government is
 subject to restrictions as set forth in subparagraphs (a)
 and (c) of the Commercial Computer Software - Restricted
 Rights clause in FAR 52.227-19.
  
 Gaussian, Inc.
 340 Quinnipiac St., Bldg. 40, Wallingford CT 06492
  
  
 ---------------------------------------------------------------
 Warning -- This program may not be used in any manner that
 competes with the business of Gaussian, Inc. or will provide
 assistance to any competitor of Gaussian, Inc.  The licensee
 of this program is prohibited from giving any competitor of
 Gaussian, Inc. access to this program.  By using this program,
 the user acknowledges that Gaussian, Inc. is engaged in the
 business of creating and licensing software in the field of
 computational chemistry and represents and warrants to the
 licensee that it is not a competitor of Gaussian, Inc. and that
 it will not use this program in any manner prohibited above.
 ---------------------------------------------------------------
  

 Cite this work as:
 Gaussian 09, Revision C.01,
 M. J. Frisch, G. W. Trucks, H. B. Schlegel, G. E. Scuseria, 
 M. A. Robb, J. R. Cheeseman, G. Scalmani, V. Barone, B. Mennucci, 
 G. A. Petersson, H. Nakatsuji, M. Caricato, X. Li, H. P. Hratchian, 
 A. F. Izmaylov, J. Bloino, G. Zheng, J. L. Sonnenberg, M. Hada, 
 M. Ehara, K. Toyota, R. Fukuda, J. Hasegawa, M. Ishida, T. Nakajima, 
 Y. Honda, O. Kitao, H. Nakai, T. Vreven, J. A. Montgomery, Jr., 
 J. E. Peralta, F. Ogliaro, M. Bearpark, J. J. Heyd, E. Brothers, 
 K. N. Kudin, V. N. Staroverov, T. Keith, R. Kobayashi, J. Normand, 
 K. Raghavachari, A. Rendell, J. C. Burant, S. S. Iyengar, J. Tomasi, 
 M. Cossi, N. Rega, J. M. Millam, M. Klene, J. E. Knox, J. B. Cross, 
 V. Bakken, C. Adamo, J. Jaramillo, R. Gomperts, R. E. Stratmann, 
 O. Yazyev, A. J. Austin, R. Cammi, C. Pomelli, J. W. Ochterski, 
 R. L. Martin, K. Morokuma, V. G. Zakrzewski, G. A. Voth, 
 P. Salvador, J. J. Dannenberg, S. Dapprich, A. D. Daniels, 
 O. Farkas, J. B. Foresman, J. V. Ortiz, J. Cioslowski, 
 and D. J. Fox, Gaussian, Inc., Wallingford CT, 2010.
 
 ******************************************
 Gaussian 09:  AM64L-G09RevC.01 23-Sep-2011
                17-May-2024 
 ******************************************
 %nprocshared=4
 Will use up to    4 processors via shared memory.
 ------------------------------------------------
 # mpw1pw91/6-31+G** nmr scrf=(pcm,solvent=water)
 ------------------------------------------------
 1/38=1/1;
 2/12=2,17=6,18=5,40=1/2;
 3/5=1,6=6,7=111,11=2,16=1,25=1,30=1,70=2201,72=1,74=-7/1,2,8,3;
 4//1;
 5/5=2,38=5,53=1/2;
 8/6=1,10=90,11=11/1;
 10/13=100,45=16/2;
 6/7=2,8=2,9=2,10=2,28=1/1;
 99/9=1/99;
 -------
 comment
 -------
 Charge =  0 Multiplicity = 1
 Symbolic Z-Matrix:
 6                     2.36471   0.22153  -0.12181 
 6                     0.97895   0.17743  -0.78621 
 7                     0.25399  -0.98342  -0.14508 
 6                     1.21183  -1.66677   0.76441 
 6                     2.59385  -1.2473    0.26073 
 6                    -0.97466  -0.4782    0.5139 
 6                    -0.74709   1.03793   0.6712 
 6                     0.07107   1.40043  -0.57448 
 1                     3.13125   0.6254   -0.78984 
 1                     2.34309   0.84241   0.78086 
 1                     1.10131  -0.01907  -1.85729 
 1                     1.05528  -2.75105   0.74527 
 1                     1.07713  -1.33066   1.80372 
 1                     2.87559  -1.83363  -0.62257 
 1                     3.37128  -1.38225   1.01889 
 1                    -1.08784  -0.96934   1.48591 
 1                    -0.12895   1.21782   1.5569 
 1                    -0.62261   1.49943  -1.42355 
 8                     0.83157   2.59932  -0.4463 
 1                     0.19229   3.31533  -0.28958 
 8                    -1.91377   1.83846   0.85748 
 1                    -2.41844   1.82306   0.02601 
 6                    -2.19882  -0.84899  -0.33578 
 1                    -3.12449  -0.66006   0.21638 
 1                    -2.22937  -0.25311  -1.26159 
 8                    -2.15522  -2.24189  -0.64288 
 1                    -1.21317  -2.38386  -0.87217 
 
                          Input orientation:                          
 ---------------------------------------------------------------------
 Center     Atomic      Atomic             Coordinates (Angstroms)
 Number     Number       Type             X           Y           Z
 ---------------------------------------------------------------------
      1          6           0        2.364708    0.221529   -0.121806
      2          6           0        0.978945    0.177434   -0.786205
      3          7           0        0.253986   -0.983418   -0.145082
      4          6           0        1.211829   -1.666765    0.764412
      5          6           0        2.593854   -1.247298    0.260726
      6          6           0       -0.974655   -0.478197    0.513900
      7          6           0       -0.747085    1.037929    0.671195
      8          6           0        0.071066    1.400432   -0.574481
      9          1           0        3.131253    0.625395   -0.789835
     10          1           0        2.343091    0.842408    0.780857
     11          1           0        1.101314   -0.019068   -1.857293
     12          1           0        1.055283   -2.751049    0.745267
     13          1           0        1.077135   -1.330657    1.803716
     14          1           0        2.875591   -1.833628   -0.622566
     15          1           0        3.371282   -1.382246    1.018892
     16          1           0       -1.087836   -0.969343    1.485907
     17          1           0       -0.128952    1.217823    1.556898
     18          1           0       -0.622605    1.499431   -1.423549
     19          8           0        0.831571    2.599315   -0.446296
     20          1           0        0.192294    3.315329   -0.289579
     21          8           0       -1.913770    1.838457    0.857476
     22          1           0       -2.418440    1.823063    0.026005
     23          6           0       -2.198815   -0.848987   -0.335776
     24          1           0       -3.124490   -0.660057    0.216384
     25          1           0       -2.229370   -0.253105   -1.261593
     26          8           0       -2.155220   -2.241895   -0.642875
     27          1           0       -1.213174   -2.383860   -0.872169
 ---------------------------------------------------------------------
                    Distance matrix (angstroms):
                    1          2          3          4          5
     1  C    0.000000
     2  C    1.537436   0.000000
     3  N    2.430553   1.511351   0.000000
     4  C    2.383310   2.420685   1.487147   0.000000
     5  C    1.535022   2.394547   2.389413   1.529590   0.000000
     6  C    3.470603   2.436530   1.482924   2.501232   3.659217
     7  C    3.313399   2.417363   2.398811   3.340869   4.068491
     8  C    2.618305   1.537789   2.429112   3.535770   3.751334
     9  H    1.094057   2.198434   3.358966   3.369550   2.213471
    10  H    1.095791   2.181460   2.924955   2.752449   2.168015
    11  H    2.160085   1.095818   2.140001   3.098460   2.867443
    12  H    3.361938   3.305639   2.135256   1.095694   2.205277
    13  H    2.788326   2.998611   2.143820   1.100574   2.165226
    14  H    2.176105   2.769190   2.797081   2.172477   1.096979
    15  H    2.210538   3.378499   3.351333   2.192931   1.094267
    16  H    3.990361   3.278593   2.112063   2.509066   3.890137
    17  H    3.166858   2.792844   2.808708   3.278197   3.894940
    18  H    3.500230   2.172290   2.927017   4.263463   4.552682
    19  O    2.847748   2.450054   3.641471   4.450826   4.289750
    20  H    3.784062   3.272895   4.301617   5.193420   5.185354
    21  O    4.677480   3.718667   3.696927   4.697298   5.495150
    22  H    5.046312   3.861348   3.879106   5.089499   5.882627
    23  C    4.692284   3.369657   2.463873   3.675822   4.846044
    24  H    5.569817   4.306362   3.413110   4.485249   5.748589
    25  H    4.757094   3.271795   2.819044   4.236152   5.154548
    26  O    5.173946   3.961904   2.763302   3.694354   4.935526
    27  H    4.489135   3.372388   2.154635   3.012186   4.131427
                    6          7          8          9         10
     6  C    0.000000
     7  C    1.541158   0.000000
     8  C    2.409845   1.533782   0.000000
     9  H    4.447035   4.164889   3.164144   0.000000
    10  H    3.580880   3.098297   2.703781   1.770697   0.000000
    11  H    3.184808   3.305612   2.173016   2.382321   3.040392
    12  H    3.056147   4.196471   4.466006   4.250478   3.817414
    13  H    2.569077   3.196965   3.758569   3.843442   2.714976
    14  H    4.237115   4.800358   4.280983   2.477930   3.068277
    15  H    4.467604   4.789477   4.601474   2.712882   2.462300
    16  H    1.094912   2.192945   3.347251   5.052020   3.943450
    17  H    2.163225   1.094952   2.148518   4.060426   2.618047
    18  H    2.790817   2.148588   1.100862   3.906019   3.753190
    19  O    3.695336   2.485733   1.425524   3.050068   2.622464
    20  H    4.049468   2.644252   1.939767   4.015405   3.447767
    21  O    2.523265   1.427130   2.486351   5.444025   4.372511
    22  H    2.760137   1.956050   2.595542   5.735773   4.919722
    23  C    1.535579   2.584949   3.204563   5.548837   4.973590
    24  H    2.177930   2.956698   3.883640   6.465229   5.698287
    25  H    2.185715   2.756738   2.915187   5.452577   5.126319
    26  O    2.417125   3.803534   4.269376   6.015791   5.636909
    27  H    2.368466   3.782572   4.007338   5.285493   5.078220
                   11         12         13         14         15
    11  H    0.000000
    12  H    3.773481   0.000000
    13  H    3.888938   1.771526   0.000000
    14  H    2.822275   2.454822   3.061743   0.000000
    15  H    3.909405   2.704135   2.425226   1.773088   0.000000
    16  H    4.107601   2.883745   2.217803   4.571805   4.502480
    17  H    3.834078   4.220557   2.830250   4.805070   4.393341
    18  H    2.337920   5.058226   4.616682   4.897778   5.497337
    19  O    2.986571   5.486006   4.535144   4.884677   4.944667
    20  H    3.795029   6.214225   5.172042   5.815731   5.821106
    21  O    4.462186   5.467306   4.459167   6.213913   6.191184
    22  H    4.396467   5.788488   5.032420   6.466746   6.691839
    23  C    3.727550   3.921179   3.942243   5.177003   5.757210
    24  H    4.750623   4.703453   4.541253   6.171068   6.584879
    25  H    3.391620   4.588699   4.635754   5.382103   6.151656
    26  O    4.125625   3.534615   4.155031   5.047391   5.834611
    27  H    3.452472   2.810129   3.676291   4.133165   5.059306
                   16         17         18         19         20
    16  H    0.000000
    17  H    2.389183   0.000000
    18  H    3.843985   3.034149   0.000000
    19  O    4.489193   2.616087   2.068670   0.000000
    20  H    4.811392   2.812865   2.290728   0.972580   0.000000
    21  O    2.993465   2.014933   2.642938   3.132990   2.816450
    22  H    3.420432   2.819877   2.330444   3.374642   3.023637
    23  C    2.137122   3.483999   3.030306   4.591976   4.802194
    24  H    2.419774   3.781092   3.689471   5.168469   5.201995
    25  H    3.060205   3.810417   2.383129   4.262672   4.420745
    26  O    2.700076   4.573228   4.117752   5.691826   6.043044
    27  H    2.752652   4.477502   3.966452   5.403183   5.898772
                   21         22         23         24         25
    21  O    0.000000
    22  H    0.972766   0.000000
    23  C    2.954227   2.705360   0.000000
    24  H    2.849459   2.588559   1.094280   0.000000
    25  H    2.994109   2.450333   1.101429   1.775180   0.000000
    26  O    4.354150   4.128022   1.427026   2.044510   2.084130
    27  H    4.616326   4.467391   1.901326   2.794561   2.392576
                   26         27
    26  O    0.000000
    27  H    0.979888   0.000000
 Stoichiometry    C8H15NO3
 Framework group  C1[X(C8H15NO3)]
 Deg. of freedom    75
 Full point group                 C1      NOp   1
 Largest Abelian subgroup         C1      NOp   1
 Largest concise Abelian subgroup C1      NOp   1
                         Standard orientation:                         
 ---------------------------------------------------------------------
 Center     Atomic      Atomic             Coordinates (Angstroms)
 Number     Number       Type             X           Y           Z
 ---------------------------------------------------------------------
      1          6           0        2.364708    0.221529   -0.121806
      2          6           0        0.978945    0.177434   -0.786205
      3          7           0        0.253986   -0.983418   -0.145082
      4          6           0        1.211829   -1.666765    0.764412
      5          6           0        2.593854   -1.247298    0.260726
      6          6           0       -0.974655   -0.478197    0.513900
      7          6           0       -0.747085    1.037929    0.671195
      8          6           0        0.071066    1.400432   -0.574481
      9          1           0        3.131253    0.625395   -0.789835
     10          1           0        2.343091    0.842408    0.780857
     11          1           0        1.101314   -0.019068   -1.857293
     12          1           0        1.055283   -2.751049    0.745267
     13          1           0        1.077135   -1.330657    1.803716
     14          1           0        2.875591   -1.833628   -0.622566
     15          1           0        3.371282   -1.382246    1.018892
     16          1           0       -1.087836   -0.969343    1.485907
     17          1           0       -0.128952    1.217823    1.556898
     18          1           0       -0.622605    1.499431   -1.423549
     19          8           0        0.831571    2.599315   -0.446296
     20          1           0        0.192294    3.315329   -0.289579
     21          8           0       -1.913770    1.838457    0.857476
     22          1           0       -2.418440    1.823063    0.026005
     23          6           0       -2.198815   -0.848987   -0.335776
     24          1           0       -3.124490   -0.660057    0.216384
     25          1           0       -2.229370   -0.253105   -1.261593
     26          8           0       -2.155220   -2.241895   -0.642875
     27          1           0       -1.213174   -2.383860   -0.872169
 ---------------------------------------------------------------------
 Rotational constants (GHZ):      1.0816188      0.9501291      0.5885885
 Standard basis: 6-31+G(d,p) (6D, 7F)
 There are   303 symmetry adapted basis functions of A   symmetry.
 Integral buffers will be    131072 words long.
 Raffenetti 2 integral format.
 Two-electron integral symmetry is turned on.
   303 basis functions,   489 primitive gaussians,   303 cartesian basis functions
    47 alpha electrons       47 beta electrons
       nuclear repulsion energy       805.8641764810 Hartrees.
 NAtoms=   27 NActive=   27 NUniq=   27 SFac= 1.00D+00 NAtFMM=   60 NAOKFM=F Big=F
 ------------------------------------------------------------------------------
 Polarizable Continuum Model (PCM)
 =================================
 Model                : PCM.
 Atomic radii         : UFF (Universal Force Field).
 Polarization charges : Total charges.
 Charge compensation  : None.
 Solution method      : Matrix inversion.
 Cavity type          : Scaled VdW (van der Waals Surface) (Alpha=1.100).
 Cavity algorithm     : GePol (No added spheres)
                        Default sphere list used, NSphG=   27.
                        Lebedev-Laikov grids with approx.  5.0 points / Ang**2.
                        Smoothing algorithm: Karplus/York (Gamma=1.0000).
                        Polarization charges: spherical gaussians, with
                                              point-specific exponents (IZeta= 3).
                        Self-potential: point-specific (ISelfS= 7).
                        Self-field    : sphere-specific E.n sum rule (ISelfD= 2).
 Solvent              : Water, Eps=  78.355300 Eps(inf)=   1.777849
 ------------------------------------------------------------------------------
 One-electron integrals computed using PRISM.
 NBasis=   303 RedAO= T  NBF=   303
 NBsUse=   303 1.00D-06 NBFU=   303
 Harris functional with IExCor=  908 diagonalized for initial guess.
 ExpMin= 4.38D-02 ExpMax= 5.48D+03 ExpMxC= 8.25D+02 IAcc=2 IRadAn=         4 AccDes= 0.00D+00
 HarFok:  IExCor=  908 AccDes= 0.00D+00 IRadAn=         4 IDoV= 1
 ScaDFX=  1.000000  1.000000  1.000000  1.000000
 FoFCou: FMM=F IPFlag=           0 FMFlag=      100000 FMFlg1=           0
         NFxFlg=           0 DoJE=T BraDBF=F KetDBF=T FulRan=T
         Omega=  0.000000  0.000000  1.000000  0.000000  0.000000 ICntrl=     500 IOpCl=  0
         NMat0=    1 NMatS0=    1 NMatT0=    0 NMatD0=    1 NMtDS0=    0 NMtDT0=    0
         I1Cent=           4 NGrid=           0.
 Petite list used in FoFCou.
 Initial guess orbital symmetries:
       Occupied  (A) (A) (A) (A) (A) (A) (A) (A) (A) (A) (A) (A)
                 (A) (A) (A) (A) (A) (A) (A) (A) (A) (A) (A) (A)
                 (A) (A) (A) (A) (A) (A) (A) (A) (A) (A) (A) (A)
                 (A) (A) (A) (A) (A) (A) (A) (A) (A) (A) (A)
       Virtual   (A) (A) (A) (A) (A) (A) (A) (A) (A) (A) (A) (A)
                 (A) (A) (A) (A) (A) (A) (A) (A) (A) (A) (A) (A)
                 (A) (A) (A) (A) (A) (A) (A) (A) (A) (A) (A) (A)
                 (A) (A) (A) (A) (A) (A) (A) (A) (A) (A) (A) (A)
                 (A) (A) (A) (A) (A) (A) (A) (A) (A) (A) (A) (A)
                 (A) (A) (A) (A) (A) (A) (A) (A) (A) (A) (A) (A)
                 (A) (A) (A) (A) (A) (A) (A) (A) (A) (A) (A) (A)
                 (A) (A) (A) (A) (A) (A) (A) (A) (A) (A) (A) (A)
                 (A) (A) (A) (A) (A) (A) (A) (A) (A) (A) (A) (A)
                 (A) (A) (A) (A) (A) (A) (A) (A) (A) (A) (A) (A)
                 (A) (A) (A) (A) (A) (A) (A) (A) (A) (A) (A) (A)
                 (A) (A) (A) (A) (A) (A) (A) (A) (A) (A) (A) (A)
                 (A) (A) (A) (A) (A) (A) (A) (A) (A) (A) (A) (A)
                 (A) (A) (A) (A) (A) (A) (A) (A) (A) (A) (A) (A)
                 (A) (A) (A) (A) (A) (A) (A) (A) (A) (A) (A) (A)
                 (A) (A) (A) (A) (A) (A) (A) (A) (A) (A) (A) (A)
                 (A) (A) (A) (A) (A) (A) (A) (A) (A) (A) (A) (A)
                 (A) (A) (A) (A) (A) (A) (A) (A) (A) (A) (A) (A)
                 (A) (A) (A) (A) (A) (A) (A) (A) (A) (A) (A) (A)
                 (A) (A) (A) (A) (A) (A) (A) (A) (A) (A) (A) (A)
                 (A) (A) (A) (A) (A) (A) (A) (A) (A) (A) (A) (A)
                 (A) (A) (A) (A)
 The electronic state of the initial guess is 1-A.
 Requested convergence on RMS density matrix=1.00D-08 within 128 cycles.
 Requested convergence on MAX density matrix=1.00D-06.
 Requested convergence on             energy=1.00D-06.
 No special actions if energy rises.
 Error on total polarization charges =  0.01408
 SCF Done:  E(RmPW1PW91) =  -594.196738825     A.U. after   13 cycles
             Convg  =    0.2435D-08             -V/T =  2.0094
 Range of M.O.s used for correlation:     1   303
 NBasis=   303 NAE=    47 NBE=    47 NFC=     0 NFV=     0
 NROrb=    303 NOA=    47 NOB=    47 NVA=   256 NVB=   256

 **** Warning!!: The largest alpha MO coefficient is  0.60302477D+02

 NEqPCM:  Using equilibrium solvation (IEInf=0, Eps=  78.3553, EpsInf=   1.7778)
          Differentiating once with respect to magnetic field using GIAOs.
          Electric field/nuclear overlap derivatives assumed to be zero.
 FoFCou: FMM=F IPFlag=           0 FMFlag=    10101102 FMFlg1=           0
         NFxFlg=    40000000 DoJE=F BraDBF=F KetDBF=T FulRan=T
         Omega=  0.000000  0.000000  1.000000  0.000000  0.000000 ICntrl=    6100 IOpCl=  0
         NMat0=    1 NMatS0=    1 NMatT0=    0 NMatD0=    1 NMtDS0=    0 NMtDT0=    0
         I1Cent=           7 NGrid=        1831.
 Symmetry not used in FoFCou.
          There are     3 degrees of freedom in the 1st order CPHF.  IDoFFX=0.
      3 vectors produced by pass  0 Test12= 4.01D-13 3.33D-08 XBig12= 2.86D+01 8.57D-01.
 AX will form     3 AO Fock derivatives at one time.
      3 vectors produced by pass  1 Test12= 4.01D-13 3.33D-08 XBig12= 7.60D-02 4.30D-02.
      3 vectors produced by pass  2 Test12= 4.01D-13 3.33D-08 XBig12= 1.69D-04 3.17D-03.
      3 vectors produced by pass  3 Test12= 4.01D-13 3.33D-08 XBig12= 8.70D-07 2.31D-04.
      3 vectors produced by pass  4 Test12= 4.01D-13 3.33D-08 XBig12= 2.57D-09 1.03D-05.
      3 vectors produced by pass  5 Test12= 4.01D-13 3.33D-08 XBig12= 8.31D-12 5.15D-07.
 Inverted reduced A of dimension    18 with in-core refinement.
 Calculating GIAO nuclear magnetic shielding tensors.
 SCF GIAO Magnetic shielding tensor (ppm):
      1  C    Isotropic =   166.2351   Anisotropy =    18.3579
   XX=   173.1069   YX=    -3.2426   ZX=     4.7748
   XY=     5.5353   YY=   173.2359   ZY=   -14.3650
   XZ=     6.9135   YZ=    -7.9909   ZZ=   152.3626
   Eigenvalues:   146.2444   173.9872   178.4738
      2  C    Isotropic =   131.2767   Anisotropy =    52.1517
   XX=   137.2253   YX=     8.5586   ZX=    -7.6529
   XY=    16.3742   YY=   153.2363   ZY=   -19.2565
   XZ=     1.1739   YZ=   -20.9330   ZZ=   103.3685
   Eigenvalues:    96.2480   131.5377   166.0445
      3  N    Isotropic =   203.3019   Anisotropy =    73.8177
   XX=   231.7243   YX=    -3.0979   ZX=   -23.6276
   XY=    -2.6002   YY=   198.4929   ZY=   -46.5226
   XZ=   -31.6912   YZ=   -48.9692   ZZ=   179.6886
   Eigenvalues:   134.7557   222.6364   252.5138
      4  C    Isotropic =   136.4406   Anisotropy =    59.6324
   XX=   157.9288   YX=    -8.5934   ZX=    15.0611
   XY=   -23.5034   YY=   119.3975   ZY=   -17.4882
   XZ=    14.1905   YZ=   -31.3040   ZZ=   131.9955
   Eigenvalues:   100.2144   132.9119   176.1955
      5  C    Isotropic =   167.3246   Anisotropy =    19.7537
   XX=   178.8002   YX=     1.6649   ZX=     2.9873
   XY=    -3.6340   YY=   172.2646   ZY=   -18.4208
   XZ=    -5.3192   YZ=   -12.6252   ZZ=   150.9090
   Eigenvalues:   142.6844   178.7956   180.4938
      6  C    Isotropic =   127.0081   Anisotropy =    43.3163
   XX=   143.9189   YX=    -1.1366   ZX=   -11.5270
   XY=   -28.1782   YY=   118.9788   ZY=     9.8788
   XZ=    -8.8176   YZ=    12.1825   ZZ=   118.1265
   Eigenvalues:   107.1639   117.9747   155.8856
      7  C    Isotropic =   117.9539   Anisotropy =    47.4596
   XX=   134.4260   YX=    -6.2184   ZX=   -19.2676
   XY=   -19.4291   YY=   123.5390   ZY=    -3.1503
   XZ=   -25.1196   YZ=     1.5582   ZZ=    95.8968
   Eigenvalues:    84.7744   119.4937   149.5936
      8  C    Isotropic =   115.7506   Anisotropy =    32.2967
   XX=   114.9528   YX=     4.7381   ZX=   -14.8916
   XY=    18.8109   YY=   127.3942   ZY=     4.0000
   XZ=   -16.4169   YZ=    -5.2363   ZZ=   104.9048
   Eigenvalues:    92.2060   117.7641   137.2817
      9  H    Isotropic =    29.8261   Anisotropy =    10.8472
   XX=    33.4133   YX=     2.4059   ZX=    -3.7599
   XY=     3.0332   YY=    28.8379   ZY=    -3.1232
   XZ=    -4.1021   YZ=    -2.7749   ZZ=    27.2271
   Eigenvalues:    24.5903    27.8304    37.0576
     10  H    Isotropic =    29.7521   Anisotropy =     7.1348
   XX=    29.0837   YX=    -0.3052   ZX=     2.8618
   XY=    -0.3480   YY=    31.3475   ZY=     3.5544
   XZ=     3.1798   YZ=     3.9002   ZZ=    28.8252
   Eigenvalues:    24.5310    30.2167    34.5086
     11  H    Isotropic =    27.9119   Anisotropy =     8.5312
   XX=    25.5995   YX=     0.7491   ZX=    -1.6620
   XY=     0.4374   YY=    24.7790   ZY=    -0.5970
   XZ=    -0.7322   YZ=    -0.7142   ZZ=    33.3571
   Eigenvalues:    24.4679    25.6683    33.5993
     12  H    Isotropic =    28.2578   Anisotropy =     9.5304
   XX=    27.1102   YX=    -0.9516   ZX=     1.3011
   XY=    -0.2746   YY=    33.5559   ZY=    -2.5655
   XZ=     1.4378   YZ=    -3.6322   ZZ=    24.1073
   Eigenvalues:    22.8708    27.2911    34.6114
     13  H    Isotropic =    28.9765   Anisotropy =     8.7994
   XX=    27.9072   YX=    -1.5327   ZX=     2.0171
   XY=    -1.7732   YY=    25.3194   ZY=    -2.7667
   XZ=     0.6161   YZ=    -2.3064   ZZ=    33.7029
   Eigenvalues:    24.1676    27.9191    34.8427
     14  H    Isotropic =    29.7796   Anisotropy =    11.1066
   XX=    29.6727   YX=    -3.3455   ZX=    -3.6220
   XY=    -3.5936   YY=    31.0240   ZY=     3.4433
   XZ=    -4.0688   YZ=     3.9507   ZZ=    28.6421
   Eigenvalues:    25.1823    26.9724    37.1840
     15  H    Isotropic =    29.6319   Anisotropy =    11.8516
   XX=    33.4752   YX=    -2.1963   ZX=     4.9078
   XY=    -2.9908   YY=    27.1102   ZY=    -2.3773
   XZ=     4.9772   YZ=    -1.9011   ZZ=    28.3102
   Eigenvalues:    25.0907    26.2720    37.5330
     16  H    Isotropic =    28.7072   Anisotropy =     5.9674
   XX=    29.3984   YX=     0.1386   ZX=    -2.7923
   XY=     0.9463   YY=    26.0178   ZY=    -1.2938
   XZ=    -1.4878   YZ=    -1.9294   ZZ=    30.7053
   Eigenvalues:    25.5127    27.9234    32.6854
     17  H    Isotropic =    27.4372   Anisotropy =     3.4197
   XX=    28.0938   YX=    -1.7558   ZX=     1.5476
   XY=    -2.4410   YY=    26.8336   ZY=     0.8554
   XZ=    -0.0254   YZ=     2.2743   ZZ=    27.3842
   Eigenvalues:    24.3143    28.2802    29.7170
     18  H    Isotropic =    27.4823   Anisotropy =     3.6210
   XX=    26.7975   YX=     1.3075   ZX=     2.7217
   XY=     2.1987   YY=    28.4727   ZY=    -0.0378
   XZ=     2.6464   YZ=    -2.1734   ZZ=    27.1766
   Eigenvalues:    23.4645    29.0861    29.8963
     19  O    Isotropic =   305.2550   Anisotropy =    35.8602
   XX=   300.9081   YX=   -11.7870   ZX=    -1.5657
   XY=    -8.5244   YY=   323.7264   ZY=     8.8897
   XZ=    20.4595   YZ=    13.6807   ZZ=   291.1303
   Eigenvalues:   280.2293   306.3738   329.1617
     20  H    Isotropic =    29.5118   Anisotropy =    19.1903
   XX=    29.7453   YX=    -5.9298   ZX=    -1.5930
   XY=    -6.4992   YY=    38.9934   ZY=     1.6671
   XZ=    -2.9461   YZ=     0.6647   ZZ=    19.7966
   Eigenvalues:    19.3013    26.9287    42.3053
     21  O    Isotropic =   307.5575   Anisotropy =    75.3766
   XX=   319.7723   YX=   -17.7627   ZX=    14.9743
   XY=    -4.4471   YY=   263.6766   ZY=     0.8741
   XZ=    36.3927   YZ=    -7.1305   ZZ=   339.2236
   Eigenvalues:   261.5128   303.3512   357.8086
     22  H    Isotropic =    30.9859   Anisotropy =    15.7486
   XX=    32.9746   YX=    -3.8516   ZX=     8.0462
   XY=    -4.0259   YY=    26.7887   ZY=     0.3945
   XZ=     7.9508   YZ=     0.6997   ZZ=    33.1945
   Eigenvalues:    22.5207    28.9521    41.4850
     23  C    Isotropic =   135.1084   Anisotropy =    48.3704
   XX=   118.9502   YX=    -6.6424   ZX=     3.6093
   XY=     4.2124   YY=   165.3150   ZY=     7.6370
   XZ=     3.9138   YZ=    11.7829   ZZ=   121.0601
   Eigenvalues:   115.0541   122.9158   167.3553
     24  H    Isotropic =    28.0773   Anisotropy =     6.1358
   XX=    31.5189   YX=     0.3125   ZX=    -1.2136
   XY=    -1.0152   YY=    28.4830   ZY=     2.1042
   XZ=    -2.5017   YZ=     1.9371   ZZ=    24.2302
   Eigenvalues:    23.1144    28.9497    32.1679
     25  H    Isotropic =    28.3977   Anisotropy =     6.0685
   XX=    26.1269   YX=     0.8295   ZX=     3.8106
   XY=     0.4819   YY=    31.8276   ZY=    -2.4786
   XZ=     3.5685   YZ=    -0.8723   ZZ=    27.2388
   Eigenvalues:    22.6727    30.0771    32.4434
     26  O    Isotropic =   317.9031   Anisotropy =    37.9112
   XX=   343.1438   YX=     0.8362   ZX=    -1.0869
   XY=     0.5394   YY=   313.2751   ZY=    -0.7119
   XZ=    -0.0824   YZ=   -22.7850   ZZ=   297.2906
   Eigenvalues:   291.0728   319.4593   343.1773
     27  H    Isotropic =    28.4525   Anisotropy =    17.1887
   XX=    39.4941   YX=     0.5400   ZX=    -3.1188
   XY=    -0.8129   YY=    25.9820   ZY=     4.1799
   XZ=    -2.3046   YZ=     5.6440   ZZ=    19.8815
   Eigenvalues:    16.9129    28.5330    39.9117
 End of Minotr Frequency-dependent properties file   721 does not exist.
 End of Minotr Frequency-dependent properties file   722 does not exist.

 **********************************************************************

            Population analysis using the SCF density.

 **********************************************************************

 Orbital symmetries:
       Occupied  (A) (A) (A) (A) (A) (A) (A) (A) (A) (A) (A) (A)
                 (A) (A) (A) (A) (A) (A) (A) (A) (A) (A) (A) (A)
                 (A) (A) (A) (A) (A) (A) (A) (A) (A) (A) (A) (A)
                 (A) (A) (A) (A) (A) (A) (A) (A) (A) (A) (A)
       Virtual   (A) (A) (A) (A) (A) (A) (A) (A) (A) (A) (A) (A)
                 (A) (A) (A) (A) (A) (A) (A) (A) (A) (A) (A) (A)
                 (A) (A) (A) (A) (A) (A) (A) (A) (A) (A) (A) (A)
                 (A) (A) (A) (A) (A) (A) (A) (A) (A) (A) (A) (A)
                 (A) (A) (A) (A) (A) (A) (A) (A) (A) (A) (A) (A)
                 (A) (A) (A) (A) (A) (A) (A) (A) (A) (A) (A) (A)
                 (A) (A) (A) (A) (A) (A) (A) (A) (A) (A) (A) (A)
                 (A) (A) (A) (A) (A) (A) (A) (A) (A) (A) (A) (A)
                 (A) (A) (A) (A) (A) (A) (A) (A) (A) (A) (A) (A)
                 (A) (A) (A) (A) (A) (A) (A) (A) (A) (A) (A) (A)
                 (A) (A) (A) (A) (A) (A) (A) (A) (A) (A) (A) (A)
                 (A) (A) (A) (A) (A) (A) (A) (A) (A) (A) (A) (A)
                 (A) (A) (A) (A) (A) (A) (A) (A) (A) (A) (A) (A)
                 (A) (A) (A) (A) (A) (A) (A) (A) (A) (A) (A) (A)
                 (A) (A) (A) (A) (A) (A) (A) (A) (A) (A) (A) (A)
                 (A) (A) (A) (A) (A) (A) (A) (A) (A) (A) (A) (A)
                 (A) (A) (A) (A) (A) (A) (A) (A) (A) (A) (A) (A)
                 (A) (A) (A) (A) (A) (A) (A) (A) (A) (A) (A) (A)
                 (A) (A) (A) (A) (A) (A) (A) (A) (A) (A) (A) (A)
                 (A) (A) (A) (A) (A) (A) (A) (A) (A) (A) (A) (A)
                 (A) (A) (A) (A) (A) (A) (A) (A) (A) (A) (A) (A)
                 (A) (A) (A) (A)
 The electronic state is 1-A.
 Alpha  occ. eigenvalues --  -19.26676 -19.26160 -19.24895 -14.42201 -10.30867
 Alpha  occ. eigenvalues --  -10.30766 -10.29494 -10.28360 -10.28299 -10.27231
 Alpha  occ. eigenvalues --  -10.24752 -10.24679  -1.07756  -1.05889  -1.05363
 Alpha  occ. eigenvalues --   -0.96791  -0.83020  -0.79489  -0.75106  -0.71905
 Alpha  occ. eigenvalues --   -0.67478  -0.62192  -0.61099  -0.57667  -0.55378
 Alpha  occ. eigenvalues --   -0.54210  -0.51785  -0.50789  -0.48972  -0.47555
 Alpha  occ. eigenvalues --   -0.45955  -0.44824  -0.43649  -0.42099  -0.41538
 Alpha  occ. eigenvalues --   -0.40061  -0.38367  -0.37537  -0.37282  -0.35888
 Alpha  occ. eigenvalues --   -0.35105  -0.34567  -0.33539  -0.32289  -0.29519
 Alpha  occ. eigenvalues --   -0.28630  -0.23924
 Alpha virt. eigenvalues --    0.00655   0.00987   0.01732   0.02022   0.03663
 Alpha virt. eigenvalues --    0.04326   0.04695   0.04832   0.05445   0.07077
 Alpha virt. eigenvalues --    0.07541   0.08403   0.08785   0.09383   0.09806
 Alpha virt. eigenvalues --    0.10151   0.10821   0.11709   0.12067   0.12424
 Alpha virt. eigenvalues --    0.13287   0.13662   0.14153   0.14920   0.15093
 Alpha virt. eigenvalues --    0.16225   0.16402   0.16637   0.17211   0.18191
 Alpha virt. eigenvalues --    0.18522   0.19116   0.19628   0.19840   0.20979
 Alpha virt. eigenvalues --    0.21526   0.21825   0.22505   0.22887   0.23338
 Alpha virt. eigenvalues --    0.23682   0.24107   0.24820   0.24902   0.25734
 Alpha virt. eigenvalues --    0.26885   0.27221   0.27507   0.28188   0.28760
 Alpha virt. eigenvalues --    0.29688   0.29805   0.30306   0.31173   0.31330
 Alpha virt. eigenvalues --    0.32728   0.33609   0.33726   0.34349   0.34821
 Alpha virt. eigenvalues --    0.35431   0.36005   0.36192   0.38162   0.38204
 Alpha virt. eigenvalues --    0.38585   0.38999   0.39913   0.40726   0.42181
 Alpha virt. eigenvalues --    0.42610   0.43566   0.45411   0.46055   0.46665
 Alpha virt. eigenvalues --    0.48371   0.64503   0.65496   0.66954   0.68317
 Alpha virt. eigenvalues --    0.68784   0.70184   0.71086   0.72846   0.74318
 Alpha virt. eigenvalues --    0.75178   0.75581   0.77664   0.80324   0.80743
 Alpha virt. eigenvalues --    0.81961   0.83404   0.84232   0.85974   0.86106
 Alpha virt. eigenvalues --    0.90851   0.92783   0.94756   0.95368   0.97533
 Alpha virt. eigenvalues --    0.98131   0.99748   1.01608   1.03148   1.05132
 Alpha virt. eigenvalues --    1.06368   1.07793   1.08893   1.09347   1.10685
 Alpha virt. eigenvalues --    1.11643   1.11723   1.13258   1.14929   1.15683
 Alpha virt. eigenvalues --    1.16537   1.18154   1.19442   1.22692   1.24966
 Alpha virt. eigenvalues --    1.25756   1.27793   1.28900   1.31528   1.32422
 Alpha virt. eigenvalues --    1.35029   1.35222   1.38298   1.40151   1.40916
 Alpha virt. eigenvalues --    1.41834   1.45315   1.46257   1.50054   1.51871
 Alpha virt. eigenvalues --    1.53635   1.56598   1.58573   1.59452   1.62056
 Alpha virt. eigenvalues --    1.63004   1.64059   1.66117   1.67024   1.72116
 Alpha virt. eigenvalues --    1.73257   1.73923   1.76547   1.77076   1.79515
 Alpha virt. eigenvalues --    1.81298   1.82116   1.83974   1.84636   1.85238
 Alpha virt. eigenvalues --    1.88179   1.89751   1.91307   1.91635   1.94004
 Alpha virt. eigenvalues --    1.94536   1.98875   2.00587   2.01496   2.02358
 Alpha virt. eigenvalues --    2.04294   2.07542   2.07951   2.10046   2.11632
 Alpha virt. eigenvalues --    2.12761   2.13943   2.16681   2.18365   2.20068
 Alpha virt. eigenvalues --    2.21084   2.21686   2.23404   2.26353   2.27539
 Alpha virt. eigenvalues --    2.28851   2.32731   2.34213   2.38070   2.38405
 Alpha virt. eigenvalues --    2.40987   2.41639   2.44164   2.45046   2.46599
 Alpha virt. eigenvalues --    2.49178   2.50473   2.51980   2.53240   2.54292
 Alpha virt. eigenvalues --    2.56570   2.58401   2.59551   2.59740   2.61645
 Alpha virt. eigenvalues --    2.62875   2.65391   2.66151   2.67818   2.70412
 Alpha virt. eigenvalues --    2.71402   2.72773   2.74540   2.76303   2.77521
 Alpha virt. eigenvalues --    2.79472   2.80751   2.82615   2.83157   2.84795
 Alpha virt. eigenvalues --    2.86834   2.88524   2.89979   2.91509   2.94968
 Alpha virt. eigenvalues --    2.97228   2.98018   3.00400   3.00528   3.02077
 Alpha virt. eigenvalues --    3.07800   3.09229   3.13629   3.17459   3.32353
 Alpha virt. eigenvalues --    3.33995   3.36230   3.37048   3.40133   3.45750
 Alpha virt. eigenvalues --    3.48856   3.50729   3.52605   3.52972   3.55670
 Alpha virt. eigenvalues --    3.56700   3.57768   3.61261   3.64106   4.31854
 Alpha virt. eigenvalues --    4.35060   4.40933   4.42392   4.50395   4.53465
 Alpha virt. eigenvalues --    4.60210   4.65194   4.77115   4.81639   4.85415
 Alpha virt. eigenvalues --    4.93863
          Condensed to atoms (all electrons):
              1          2          3          4          5          6
     1  C    5.871683  -0.494793   0.120831  -0.131211   0.061598   0.071065
     2  C   -0.494793   8.055573  -0.325792  -0.373641   0.341141  -0.296740
     3  N    0.120831  -0.325792   7.498397   0.183713  -0.255980  -0.034787
     4  C   -0.131211  -0.373641   0.183713   5.625350   0.015264   0.029215
     5  C    0.061598   0.341141  -0.255980   0.015264   5.702474   0.013779
     6  C    0.071065  -0.296740  -0.034787   0.029215   0.013779   7.814185
     7  C   -0.083162   0.179126  -0.087177  -0.147952   0.105567  -0.893619
     8  C   -0.030401  -0.496503  -0.030439   0.176036  -0.117142   0.142541
     9  H    0.371700  -0.055355   0.013083   0.021836  -0.012210  -0.002278
    10  H    0.517134  -0.206189   0.038979   0.029299  -0.094866   0.002069
    11  H    0.052478   0.191541  -0.009703   0.017336  -0.032188   0.006738
    12  H    0.025470   0.009362  -0.053021   0.402910  -0.035201  -0.018912
    13  H    0.007074  -0.007376  -0.073086   0.416538  -0.028739   0.011800
    14  H   -0.001571  -0.051368   0.019952  -0.020307   0.367787   0.004402
    15  H   -0.059271   0.047030   0.005084  -0.019037   0.374616  -0.007265
    16  H   -0.004878   0.026148  -0.060640   0.001259   0.012187   0.329724
    17  H    0.002377  -0.016078   0.011183   0.018061  -0.015628  -0.045847
    18  H   -0.001019  -0.120326   0.016960   0.008384  -0.007327   0.023214
    19  O    0.014988  -0.214405   0.029351  -0.000705   0.008537  -0.005160
    20  H   -0.009423   0.060602  -0.003841  -0.001096  -0.000159   0.017254
    21  O    0.009181   0.003412   0.021694  -0.007443   0.002310  -0.066586
    22  H    0.000474  -0.008820  -0.000868   0.000493  -0.001176  -0.071578
    23  C    0.059345  -0.164105   0.120013  -0.007155  -0.062281  -0.574978
    24  H    0.001221   0.004999   0.009312  -0.004204  -0.000601  -0.128500
    25  H   -0.001918   0.008560  -0.003121  -0.001252   0.003659  -0.109166
    26  O    0.005978  -0.024653   0.003656  -0.022123   0.000952  -0.117508
    27  H    0.000429   0.025084   0.051212  -0.002971  -0.002629  -0.080078
              7          8          9         10         11         12
     1  C   -0.083162  -0.030401   0.371700   0.517134   0.052478   0.025470
     2  C    0.179126  -0.496503  -0.055355  -0.206189   0.191541   0.009362
     3  N   -0.087177  -0.030439   0.013083   0.038979  -0.009703  -0.053021
     4  C   -0.147952   0.176036   0.021836   0.029299   0.017336   0.402910
     5  C    0.105567  -0.117142  -0.012210  -0.094866  -0.032188  -0.035201
     6  C   -0.893619   0.142541  -0.002278   0.002069   0.006738  -0.018912
     7  C    6.868280  -0.232922   0.003308  -0.007451  -0.002178   0.000399
     8  C   -0.232922   5.904270  -0.001255   0.041944   0.035986  -0.005888
     9  H    0.003308  -0.001255   0.513160  -0.022619  -0.004177  -0.000097
    10  H   -0.007451   0.041944  -0.022619   0.515399   0.003961  -0.000057
    11  H   -0.002178   0.035986  -0.004177   0.003961   0.549460   0.000198
    12  H    0.000399  -0.005888  -0.000097  -0.000057   0.000198   0.543201
    13  H   -0.007905   0.008273  -0.000118   0.000909  -0.000437  -0.039951
    14  H   -0.003247   0.009792  -0.004563   0.004127   0.001034  -0.006229
    15  H    0.001668  -0.000796   0.000066  -0.005155  -0.000097   0.000967
    16  H    0.034819   0.002036   0.000003  -0.000027  -0.000185  -0.000085
    17  H    0.428038  -0.035468   0.000035   0.000156  -0.000083   0.000028
    18  H   -0.045086   0.459742  -0.000048   0.000020  -0.006963   0.000007
    19  O   -0.040496   0.265814   0.001130   0.001048   0.007676   0.000063
    20  H   -0.081946   0.028783  -0.000002  -0.000195  -0.000291   0.000000
    21  O    0.209234  -0.095289  -0.000005  -0.000071   0.000300   0.000103
    22  H    0.069686  -0.010378   0.000000  -0.000003  -0.000027   0.000000
    23  C   -0.128742   0.038452   0.000281  -0.001431   0.011432   0.006285
    24  H   -0.017421  -0.004140   0.000000   0.000000  -0.000002  -0.000009
    25  H    0.099462  -0.008354   0.000000  -0.000001  -0.000097   0.000009
    26  O    0.028551   0.007446   0.000013   0.000041   0.001665   0.003333
    27  H    0.010506  -0.011998  -0.000003  -0.000001  -0.000402  -0.001345
             13         14         15         16         17         18
     1  C    0.007074  -0.001571  -0.059271  -0.004878   0.002377  -0.001019
     2  C   -0.007376  -0.051368   0.047030   0.026148  -0.016078  -0.120326
     3  N   -0.073086   0.019952   0.005084  -0.060640   0.011183   0.016960
     4  C    0.416538  -0.020307  -0.019037   0.001259   0.018061   0.008384
     5  C   -0.028739   0.367787   0.374616   0.012187  -0.015628  -0.007327
     6  C    0.011800   0.004402  -0.007265   0.329724  -0.045847   0.023214
     7  C   -0.007905  -0.003247   0.001668   0.034819   0.428038  -0.045086
     8  C    0.008273   0.009792  -0.000796   0.002036  -0.035468   0.459742
     9  H   -0.000118  -0.004563   0.000066   0.000003   0.000035  -0.000048
    10  H    0.000909   0.004127  -0.005155  -0.000027   0.000156   0.000020
    11  H   -0.000437   0.001034  -0.000097  -0.000185  -0.000083  -0.006963
    12  H   -0.039951  -0.006229   0.000967  -0.000085   0.000028   0.000007
    13  H    0.555562   0.003919  -0.005013   0.004278   0.000218  -0.000007
    14  H    0.003919   0.520678  -0.024047  -0.000011   0.000007   0.000004
    15  H   -0.005013  -0.024047   0.511748  -0.000015   0.000009   0.000003
    16  H    0.004278  -0.000011  -0.000015   0.531068  -0.007674  -0.000273
    17  H    0.000218   0.000007   0.000009  -0.007674   0.521245   0.004340
    18  H   -0.000007   0.000004   0.000003  -0.000273   0.004340   0.569595
    19  O   -0.000121   0.000110   0.000005  -0.000671  -0.004604  -0.046959
    20  H    0.000001   0.000000   0.000000   0.000001  -0.000454  -0.005182
    21  O   -0.000769  -0.000001  -0.000005   0.001020  -0.059675  -0.016594
    22  H   -0.000002   0.000000   0.000000  -0.000187   0.006615   0.005468
    23  C   -0.009628   0.000054   0.000401  -0.051448   0.005071  -0.004171
    24  H    0.000013   0.000000   0.000000  -0.004971  -0.000084   0.000102
    25  H   -0.000010  -0.000001   0.000000   0.004590  -0.000283  -0.001786
    26  O   -0.000862   0.000007  -0.000002   0.003971  -0.000773  -0.000612
    27  H    0.000348   0.000019  -0.000002  -0.000185  -0.000011   0.000035
             19         20         21         22         23         24
     1  C    0.014988  -0.009423   0.009181   0.000474   0.059345   0.001221
     2  C   -0.214405   0.060602   0.003412  -0.008820  -0.164105   0.004999
     3  N    0.029351  -0.003841   0.021694  -0.000868   0.120013   0.009312
     4  C   -0.000705  -0.001096  -0.007443   0.000493  -0.007155  -0.004204
     5  C    0.008537  -0.000159   0.002310  -0.001176  -0.062281  -0.000601
     6  C   -0.005160   0.017254  -0.066586  -0.071578  -0.574978  -0.128500
     7  C   -0.040496  -0.081946   0.209234   0.069686  -0.128742  -0.017421
     8  C    0.265814   0.028783  -0.095289  -0.010378   0.038452  -0.004140
     9  H    0.001130  -0.000002  -0.000005   0.000000   0.000281   0.000000
    10  H    0.001048  -0.000195  -0.000071  -0.000003  -0.001431   0.000000
    11  H    0.007676  -0.000291   0.000300  -0.000027   0.011432  -0.000002
    12  H    0.000063   0.000000   0.000103   0.000000   0.006285  -0.000009
    13  H   -0.000121   0.000001  -0.000769  -0.000002  -0.009628   0.000013
    14  H    0.000110   0.000000  -0.000001   0.000000   0.000054   0.000000
    15  H    0.000005   0.000000  -0.000005   0.000000   0.000401   0.000000
    16  H   -0.000671   0.000001   0.001020  -0.000187  -0.051448  -0.004971
    17  H   -0.004604  -0.000454  -0.059675   0.006615   0.005071  -0.000084
    18  H   -0.046959  -0.005182  -0.016594   0.005468  -0.004171   0.000102
    19  O    8.282154   0.221669  -0.003220  -0.003431   0.013487   0.000083
    20  H    0.221669   0.379166   0.010958  -0.000111  -0.000871  -0.000001
    21  O   -0.003220   0.010958   8.218135   0.237208   0.035106   0.006558
    22  H   -0.003431  -0.000111   0.237208   0.380056   0.027579  -0.001095
    23  C    0.013487  -0.000871   0.035106   0.027579   5.685554   0.516251
    24  H    0.000083  -0.000001   0.006558  -0.001095   0.516251   0.537570
    25  H   -0.000652   0.000009  -0.011877   0.000286   0.366683  -0.041482
    26  O    0.000298  -0.000005  -0.000172  -0.000065   0.225836  -0.056219
    27  H   -0.000006   0.000000   0.000076  -0.000001   0.031716   0.006489
             25         26         27
     1  C   -0.001918   0.005978   0.000429
     2  C    0.008560  -0.024653   0.025084
     3  N   -0.003121   0.003656   0.051212
     4  C   -0.001252  -0.022123  -0.002971
     5  C    0.003659   0.000952  -0.002629
     6  C   -0.109166  -0.117508  -0.080078
     7  C    0.099462   0.028551   0.010506
     8  C   -0.008354   0.007446  -0.011998
     9  H    0.000000   0.000013  -0.000003
    10  H   -0.000001   0.000041  -0.000001
    11  H   -0.000097   0.001665  -0.000402
    12  H    0.000009   0.003333  -0.001345
    13  H   -0.000010  -0.000862   0.000348
    14  H   -0.000001   0.000007   0.000019
    15  H    0.000000  -0.000002  -0.000002
    16  H    0.004590   0.003971  -0.000185
    17  H   -0.000283  -0.000773  -0.000011
    18  H   -0.001786  -0.000612   0.000035
    19  O   -0.000652   0.000298  -0.000006
    20  H    0.000009  -0.000005   0.000000
    21  O   -0.011877  -0.000172   0.000076
    22  H    0.000286  -0.000065  -0.000001
    23  C    0.366683   0.225836   0.031716
    24  H   -0.041482  -0.056219   0.006489
    25  H    0.594624  -0.045034  -0.003301
    26  O   -0.045034   8.296328   0.227365
    27  H   -0.003301   0.227365   0.364091
 Mulliken atomic charges:
              1
     1  C   -0.375378
     2  C   -0.096433
     3  N   -0.204963
     4  C   -0.206596
     5  C   -0.343743
     6  C   -0.012984
     7  C   -0.259339
     8  C   -0.040140
     9  H    0.178116
    10  H    0.182980
    11  H    0.177025
    12  H    0.168461
    13  H    0.165091
    14  H    0.179453
    15  H    0.179109
    16  H    0.180148
    17  H    0.189280
    18  H    0.168479
    19  O   -0.525983
    20  H    0.385135
    21  O   -0.493590
    22  H    0.369877
    23  C   -0.138738
    24  H    0.176132
    25  H    0.150452
    26  O   -0.537414
    27  H    0.385562
 Sum of Mulliken atomic charges =   0.00000
 Mulliken charges with hydrogens summed into heavy atoms:
              1
     1  C   -0.014282
     2  C    0.080592
     3  N   -0.204963
     4  C    0.126956
     5  C    0.014819
     6  C    0.167164
     7  C   -0.070059
     8  C    0.128339
    19  O   -0.140848
    21  O   -0.123713
    23  C    0.187846
    26  O   -0.151852
 Sum of Mulliken charges with hydrogens summed into heavy atoms =   0.00000
 Electronic spatial extent (au):  <R**2>=           2046.1136
 Charge=              0.0000 electrons
 Dipole moment (field-independent basis, Debye):
    X=              1.6071    Y=              1.3810    Z=             -0.3627  Tot=              2.1498
 Quadrupole moment (field-independent basis, Debye-Ang):
   XX=            -76.9393   YY=            -79.8342   ZZ=            -73.0826
   XY=            -12.9802   XZ=              3.5664   YZ=             -5.6903
 Traceless Quadrupole moment (field-independent basis, Debye-Ang):
   XX=             -0.3206   YY=             -3.2155   ZZ=              3.5361
   XY=            -12.9802   XZ=              3.5664   YZ=             -5.6903
 Octapole moment (field-independent basis, Debye-Ang**2):
  XXX=              2.7595  YYY=             31.0917  ZZZ=             -1.1261  XYY=             11.1050
  XXY=             15.7935  XXZ=             -2.9380  XZZ=              4.0778  YZZ=             -1.2475
  YYZ=             -2.3463  XYZ=             17.5575
 Hexadecapole moment (field-independent basis, Debye-Ang**3):
 XXXX=          -1280.3939 YYYY=           -997.7356 ZZZZ=           -275.2179 XXXY=            -69.8808
 XXXZ=              2.9421 YYYX=            -83.8244 YYYZ=            -14.8744 ZZZX=              2.9741
 ZZZY=             -0.2706 XXYY=           -470.2228 XXZZ=           -272.7373 YYZZ=           -235.0633
 XXYZ=            -36.6229 YYXZ=             14.4249 ZZXY=              1.4999
 N-N= 8.058641764810D+02 E-N=-2.997037281297D+03  KE= 5.886546953256D+02
 1\1\GINC-COMPUTE-3-2\SP\RmPW1PW91\6-31+G(d,p)\C8H15N1O3\MAMICHETTI.IQU
 IR\17-May-2024\0\\# mpw1pw91/6-31+G** nmr scrf=(pcm,solvent=water)\\co
 mment\\0,1\C,0,2.364708,0.221529,-0.121806\C,0,0.978945,0.177434,-0.78
 6205\N,0,0.253986,-0.983418,-0.145082\C,0,1.211829,-1.666765,0.764412\
 C,0,2.593854,-1.247298,0.260726\C,0,-0.974655,-0.478197,0.5139\C,0,-0.
 747085,1.037929,0.671195\C,0,0.071066,1.400432,-0.574481\H,0,3.131253,
 0.625395,-0.789835\H,0,2.343091,0.842408,0.780857\H,0,1.101314,-0.0190
 68,-1.857293\H,0,1.055283,-2.751049,0.745267\H,0,1.077135,-1.330657,1.
 803716\H,0,2.875591,-1.833628,-0.622566\H,0,3.371282,-1.382246,1.01889
 2\H,0,-1.087836,-0.969343,1.485907\H,0,-0.128952,1.217823,1.556898\H,0
 ,-0.622605,1.499431,-1.423549\O,0,0.831571,2.599315,-0.446296\H,0,0.19
 2294,3.315329,-0.289579\O,0,-1.91377,1.838457,0.857476\H,0,-2.41844,1.
 823063,0.026005\C,0,-2.198815,-0.848987,-0.335776\H,0,-3.12449,-0.6600
 57,0.216384\H,0,-2.22937,-0.253105,-1.261593\O,0,-2.15522,-2.241895,-0
 .642875\H,0,-1.213174,-2.38386,-0.872169\\Version=AM64L-G09RevC.01\Sta
 te=1-A\HF=-594.1967388\RMSD=2.435e-09\Dipole=0.6322824,0.5433335,-0.14
 27075\Quadrupole=-0.2383653,-2.390655,2.6290204,-9.6504301,2.6515024,-
 4.2305953\PG=C01 [X(C8H15N1O3)]\\@


 Time has a wonderful way of weeding out the trivial.
                                -- Richard Ben Sapir
 Job cpu time:  0 days  0 hours  8 minutes 39.4 seconds.
 File lengths (MBytes):  RWF=    113 Int=      0 D2E=      0 Chk=      7 Scr=      1
 Normal termination of Gaussian 09 at Fri May 17 12:37:34 2024.
