 Entering Gaussian System, Link 0=g09
 Input=/home/mamichetti.iquir/Linux/03_Cardona_A1A3_R__S_S_R_031_OptB.gjc
 Output=/home/mamichetti.iquir/Linux/03_Cardona_A1A3_R__S_S_R_031_OptB.log
 Initial command:
 /opt/ohpc/pub/apps/software/Gaussian/09/AMD64.SSE4a-enabled/g09/l1.exe /local/mamichetti.iquir/Gau-127136.inp -scrdir=/local/mamichetti.iquir/
 Entering Link 1 = /opt/ohpc/pub/apps/software/Gaussian/09/AMD64.SSE4a-enabled/g09/l1.exe PID=    127137.
  
 Copyright (c) 1988,1990,1992,1993,1995,1998,2003,2009,2011,
            Gaussian, Inc.  All Rights Reserved.
  
 This is part of the Gaussian(R) 09 program.  It is based on
 the Gaussian(R) 03 system (copyright 2003, Gaussian, Inc.),
 the Gaussian(R) 98 system (copyright 1998, Gaussian, Inc.),
 the Gaussian(R) 94 system (copyright 1995, Gaussian, Inc.),
 the Gaussian 92(TM) system (copyright 1992, Gaussian, Inc.),
 the Gaussian 90(TM) system (copyright 1990, Gaussian, Inc.),
 the Gaussian 88(TM) system (copyright 1988, Gaussian, Inc.),
 the Gaussian 86(TM) system (copyright 1986, Carnegie Mellon
 University), and the Gaussian 82(TM) system (copyright 1983,
 Carnegie Mellon University). Gaussian is a federally registered
 trademark of Gaussian, Inc.
  
 This software contains proprietary and confidential information,
 including trade secrets, belonging to Gaussian, Inc.
  
 This software is provided under written license and may be
 used, copied, transmitted, or stored only in accord with that
 written license.
  
 The following legend is applicable only to US Government
 contracts under FAR:
  
                    RESTRICTED RIGHTS LEGEND
  
 Use, reproduction and disclosure by the US Government is
 subject to restrictions as set forth in subparagraphs (a)
 and (c) of the Commercial Computer Software - Restricted
 Rights clause in FAR 52.227-19.
  
 Gaussian, Inc.
 340 Quinnipiac St., Bldg. 40, Wallingford CT 06492
  
  
 ---------------------------------------------------------------
 Warning -- This program may not be used in any manner that
 competes with the business of Gaussian, Inc. or will provide
 assistance to any competitor of Gaussian, Inc.  The licensee
 of this program is prohibited from giving any competitor of
 Gaussian, Inc. access to this program.  By using this program,
 the user acknowledges that Gaussian, Inc. is engaged in the
 business of creating and licensing software in the field of
 computational chemistry and represents and warrants to the
 licensee that it is not a competitor of Gaussian, Inc. and that
 it will not use this program in any manner prohibited above.
 ---------------------------------------------------------------
  

 Cite this work as:
 Gaussian 09, Revision C.01,
 M. J. Frisch, G. W. Trucks, H. B. Schlegel, G. E. Scuseria, 
 M. A. Robb, J. R. Cheeseman, G. Scalmani, V. Barone, B. Mennucci, 
 G. A. Petersson, H. Nakatsuji, M. Caricato, X. Li, H. P. Hratchian, 
 A. F. Izmaylov, J. Bloino, G. Zheng, J. L. Sonnenberg, M. Hada, 
 M. Ehara, K. Toyota, R. Fukuda, J. Hasegawa, M. Ishida, T. Nakajima, 
 Y. Honda, O. Kitao, H. Nakai, T. Vreven, J. A. Montgomery, Jr., 
 J. E. Peralta, F. Ogliaro, M. Bearpark, J. J. Heyd, E. Brothers, 
 K. N. Kudin, V. N. Staroverov, T. Keith, R. Kobayashi, J. Normand, 
 K. Raghavachari, A. Rendell, J. C. Burant, S. S. Iyengar, J. Tomasi, 
 M. Cossi, N. Rega, J. M. Millam, M. Klene, J. E. Knox, J. B. Cross, 
 V. Bakken, C. Adamo, J. Jaramillo, R. Gomperts, R. E. Stratmann, 
 O. Yazyev, A. J. Austin, R. Cammi, C. Pomelli, J. W. Ochterski, 
 R. L. Martin, K. Morokuma, V. G. Zakrzewski, G. A. Voth, 
 P. Salvador, J. J. Dannenberg, S. Dapprich, A. D. Daniels, 
 O. Farkas, J. B. Foresman, J. V. Ortiz, J. Cioslowski, 
 and D. J. Fox, Gaussian, Inc., Wallingford CT, 2010.
 
 ******************************************
 Gaussian 09:  AM64L-G09RevC.01 23-Sep-2011
                17-May-2024 
 ******************************************
 %nprocshared=4
 Will use up to    4 processors via shared memory.
 ------------------------------------------------
 # mpw1pw91/6-31+G** nmr scrf=(pcm,solvent=water)
 ------------------------------------------------
 1/38=1/1;
 2/12=2,17=6,18=5,40=1/2;
 3/5=1,6=6,7=111,11=2,16=1,25=1,30=1,70=2201,72=1,74=-7/1,2,8,3;
 4//1;
 5/5=2,38=5,53=1/2;
 8/6=1,10=90,11=11/1;
 10/13=100,45=16/2;
 6/7=2,8=2,9=2,10=2,28=1/1;
 99/9=1/99;
 -------
 comment
 -------
 Charge =  0 Multiplicity = 1
 Symbolic Z-Matrix:
 6                    -2.6116    0.16086   0.21153 
 6                    -1.17343   0.48295   0.6558 
 7                    -0.36791  -0.76476   0.41178 
 6                    -1.22643  -1.72607  -0.30257 
 6                    -2.64093  -1.37823   0.16599 
 6                     0.88015  -0.39222  -0.27974 
 6                     1.04475   1.11631   0.00154 
 6                    -0.41603   1.61348  -0.05861 
 1                    -3.35618   0.58348   0.89266 
 1                    -2.79932   0.56708  -0.78621 
 1                    -1.15638   0.71121   1.72988 
 1                    -0.9441   -2.75945  -0.07067 
 1                    -1.14588  -1.60073  -1.39674 
 1                    -2.82089  -1.79095   1.16599 
 1                    -3.41091  -1.7733   -0.50412 
 1                     0.76749  -0.50703  -1.37079 
 1                     1.66549   1.60734  -0.75243 
 1                    -0.5305    2.57962   0.4488 
 8                    -0.85125   1.70301  -1.41874 
 1                    -0.29139   2.36876  -1.85295 
 8                     1.66288   1.4176    1.25547 
 1                     1.2029    0.92187   1.95357 
 6                     2.05175  -1.26186   0.15432 
 1                     2.26026  -1.1081    1.22162 
 1                     1.78964  -2.32006   0.01292 
 8                     3.18564  -0.91176  -0.64773 
 1                     3.91769  -1.48849  -0.37557 
 
                          Input orientation:                          
 ---------------------------------------------------------------------
 Center     Atomic      Atomic             Coordinates (Angstroms)
 Number     Number       Type             X           Y           Z
 ---------------------------------------------------------------------
      1          6           0       -2.611601    0.160858    0.211526
      2          6           0       -1.173431    0.482952    0.655800
      3          7           0       -0.367912   -0.764757    0.411784
      4          6           0       -1.226433   -1.726071   -0.302572
      5          6           0       -2.640934   -1.378227    0.165985
      6          6           0        0.880149   -0.392224   -0.279741
      7          6           0        1.044747    1.116306    0.001540
      8          6           0       -0.416033    1.613479   -0.058609
      9          1           0       -3.356180    0.583477    0.892657
     10          1           0       -2.799323    0.567081   -0.786212
     11          1           0       -1.156384    0.711206    1.729883
     12          1           0       -0.944099   -2.759454   -0.070673
     13          1           0       -1.145884   -1.600728   -1.396743
     14          1           0       -2.820891   -1.790947    1.165991
     15          1           0       -3.410912   -1.773299   -0.504124
     16          1           0        0.767490   -0.507030   -1.370792
     17          1           0        1.665487    1.607339   -0.752432
     18          1           0       -0.530499    2.579619    0.448802
     19          8           0       -0.851251    1.703007   -1.418738
     20          1           0       -0.291388    2.368759   -1.852952
     21          8           0        1.662879    1.417604    1.255474
     22          1           0        1.202901    0.921870    1.953569
     23          6           0        2.051754   -1.261863    0.154316
     24          1           0        2.260264   -1.108101    1.221623
     25          1           0        1.789643   -2.320064    0.012921
     26          8           0        3.185641   -0.911760   -0.647726
     27          1           0        3.917694   -1.488492   -0.375568
 ---------------------------------------------------------------------
                    Distance matrix (angstroms):
                    1          2          3          4          5
     1  C    0.000000
     2  C    1.539304   0.000000
     3  N    2.435366   1.505052   0.000000
     4  C    2.396558   2.408541   1.473597   0.000000
     5  C    1.540038   2.420221   2.367148   1.530148   0.000000
     6  C    3.569252   2.420405   1.474667   2.493463   3.683599
     7  C    3.784951   2.397813   2.387950   3.651007   4.453536
     8  C    2.646431   1.536920   2.424787   3.445121   3.735095
     9  H    1.094049   2.197863   3.313415   3.361310   2.210862
    10  H    1.093498   2.174857   3.020057   2.822488   2.171633
    11  H    2.173924   1.098201   2.130150   3.174287   3.002565
    12  H    3.374674   3.330699   2.131566   1.096070   2.200692
    13  H    2.799650   2.924964   2.138892   1.104269   2.174121
    14  H    2.182739   2.853951   2.763874   2.168682   1.096692
    15  H    2.211790   3.382664   3.334051   2.194266   1.094529
    16  H    3.790522   2.975620   2.129117   2.569608   3.839013
    17  H    4.616818   3.362561   3.334209   4.435899   5.319996
    18  H    3.199639   2.202776   3.348530   4.425817   4.494270
    19  O    2.852160   2.428177   3.110352   3.625626   3.899784
    20  H    3.810549   3.260077   3.867015   4.477234   4.861726
    21  O    4.576070   3.045954   3.098165   4.545143   5.246567
    22  H    4.261957   2.742956   2.772952   4.243045   4.822963
    23  C    4.875888   3.701038   2.483584   3.342267   4.694145
    24  H    5.134746   3.826469   2.771468   3.855141   5.020865
    25  H    5.056221   4.129165   2.689445   3.090158   4.532163
    26  O    5.957922   4.758772   3.711052   4.499848   5.901584
    27  H    6.759936   5.556066   4.417028   5.150128   6.581872
                    6          7          8          9         10
     6  C    0.000000
     7  C    1.543332   0.000000
     8  C    2.398298   1.544240   0.000000
     9  H    4.502554   4.521742   3.257342   0.000000
    10  H    3.836052   3.962206   2.702670   1.768887   0.000000
    11  H    3.066531   2.827765   2.135631   2.357194   3.008447
    12  H    2.995892   4.356861   4.404718   4.233359   3.875524
    13  H    2.610170   3.759832   3.557304   3.859730   2.793923
    14  H    4.212394   4.975060   4.344319   2.449313   3.061349
    15  H    4.513416   5.334642   4.542912   2.740143   2.435363
    16  H    1.102844   2.143685   2.760273   4.828774   3.770624
    17  H    2.199647   1.093117   2.194118   5.382541   4.584518
    18  H    3.369355   2.196071   1.097267   3.487988   3.274619
    19  O    2.947041   2.440536   1.430867   3.587557   2.342093
    20  H    3.386815   2.606345   1.950808   4.485371   3.267065
    21  O    2.499006   1.430111   2.467196   5.100819   4.980273
    22  H    2.611261   1.968054   2.673599   4.693108   4.863134
    23  C    1.522280   2.587101   3.795115   5.761612   5.269021
    24  H    2.161317   2.813196   4.025985   5.874870   5.695354
    25  H    2.151603   3.516197   4.510309   5.973607   5.480222
    26  O    2.391783   3.019607   4.438012   6.885052   6.166518
    27  H    3.230738   3.896281   5.338902   7.668813   7.036500
                   11         12         13         14         15
    11  H    0.000000
    12  H    3.915680   0.000000
    13  H    3.888565   1.772519   0.000000
    14  H    3.057667   2.447385   3.067481   0.000000
    15  H    4.030688   2.691756   2.440676   1.771361   0.000000
    16  H    3.847022   3.113400   2.204053   4.578230   4.451246
    17  H    3.863664   5.132603   4.314005   5.946115   6.104113
    18  H    2.350291   5.380206   4.610861   4.986191   5.305916
    19  O    3.315206   4.662559   3.316920   4.771585   4.412832
    20  H    4.041337   5.468192   4.085966   5.728486   5.357930
    21  O    2.944878   5.099295   4.902421   5.514254   6.246711
    22  H    2.379210   4.717977   4.806754   4.916356   5.881451
    23  C    4.082593   3.356864   3.570084   5.004606   5.525923
    24  H    3.904061   3.829483   4.324392   5.127135   5.965143
    25  H    4.562415   2.770090   3.334954   4.781899   5.254718
    26  O    5.209628   4.560890   4.449473   6.335690   6.654125
    27  H    5.917589   5.034415   5.166741   6.919278   7.335265
                   16         17         18         19         20
    16  H    0.000000
    17  H    2.378933   0.000000
    18  H    3.810919   2.685265   0.000000
    19  O    2.739869   2.605204   2.087830   0.000000
    20  H    3.102235   2.370710   2.323727   0.972221   0.000000
    21  O    3.376864   2.016852   2.609963   3.681537   3.792910
    22  H    3.644546   2.829540   2.831454   4.025192   4.337740
    23  C    2.131915   3.033762   4.638075   4.437611   4.764541
    24  H    3.051275   3.409438   4.688805   4.955337   5.296461
    25  H    2.499310   4.003208   5.438745   5.020863   5.458684
    26  O    2.556186   2.944094   5.215534   4.871136   4.929919
    27  H    3.446378   3.846899   6.084039   5.832384   5.897238
                   21         22         23         24         25
    21  O    0.000000
    22  H    0.971941   0.000000
    23  C    2.922895   2.954074   0.000000
    24  H    2.595612   2.403028   1.098300   0.000000
    25  H    3.940834   3.823678   1.099311   1.775190   0.000000
    26  O    3.371485   3.749692   1.432321   2.095075   2.090116
    27  H    4.023665   4.313331   1.952913   2.332979   2.317550
                   26         27
    26  O    0.000000
    27  H    0.970871   0.000000
 Stoichiometry    C8H15NO3
 Framework group  C1[X(C8H15NO3)]
 Deg. of freedom    75
 Full point group                 C1      NOp   1
 Largest Abelian subgroup         C1      NOp   1
 Largest concise Abelian subgroup C1      NOp   1
                         Standard orientation:                         
 ---------------------------------------------------------------------
 Center     Atomic      Atomic             Coordinates (Angstroms)
 Number     Number       Type             X           Y           Z
 ---------------------------------------------------------------------
      1          6           0        2.611601    0.160858   -0.211526
      2          6           0        1.173431    0.482952   -0.655800
      3          7           0        0.367912   -0.764757   -0.411784
      4          6           0        1.226433   -1.726071    0.302572
      5          6           0        2.640934   -1.378227   -0.165985
      6          6           0       -0.880149   -0.392224    0.279741
      7          6           0       -1.044747    1.116306   -0.001540
      8          6           0        0.416033    1.613479    0.058609
      9          1           0        3.356180    0.583477   -0.892657
     10          1           0        2.799323    0.567081    0.786212
     11          1           0        1.156384    0.711206   -1.729883
     12          1           0        0.944099   -2.759454    0.070673
     13          1           0        1.145884   -1.600728    1.396743
     14          1           0        2.820891   -1.790947   -1.165991
     15          1           0        3.410912   -1.773299    0.504124
     16          1           0       -0.767490   -0.507030    1.370792
     17          1           0       -1.665487    1.607339    0.752432
     18          1           0        0.530499    2.579619   -0.448802
     19          8           0        0.851251    1.703007    1.418738
     20          1           0        0.291388    2.368759    1.852952
     21          8           0       -1.662879    1.417604   -1.255474
     22          1           0       -1.202901    0.921870   -1.953569
     23          6           0       -2.051754   -1.261863   -0.154316
     24          1           0       -2.260264   -1.108101   -1.221623
     25          1           0       -1.789643   -2.320064   -0.012921
     26          8           0       -3.185641   -0.911760    0.647726
     27          1           0       -3.917694   -1.488492    0.375568
 ---------------------------------------------------------------------
 Rotational constants (GHZ):      1.3805031      0.7643681      0.6029529
 Standard basis: 6-31+G(d,p) (6D, 7F)
 There are   303 symmetry adapted basis functions of A   symmetry.
 Integral buffers will be    131072 words long.
 Raffenetti 2 integral format.
 Two-electron integral symmetry is turned on.
   303 basis functions,   489 primitive gaussians,   303 cartesian basis functions
    47 alpha electrons       47 beta electrons
       nuclear repulsion energy       806.2242344413 Hartrees.
 NAtoms=   27 NActive=   27 NUniq=   27 SFac= 1.00D+00 NAtFMM=   60 NAOKFM=F Big=F
 ------------------------------------------------------------------------------
 Polarizable Continuum Model (PCM)
 =================================
 Model                : PCM.
 Atomic radii         : UFF (Universal Force Field).
 Polarization charges : Total charges.
 Charge compensation  : None.
 Solution method      : Matrix inversion.
 Cavity type          : Scaled VdW (van der Waals Surface) (Alpha=1.100).
 Cavity algorithm     : GePol (No added spheres)
                        Default sphere list used, NSphG=   27.
                        Lebedev-Laikov grids with approx.  5.0 points / Ang**2.
                        Smoothing algorithm: Karplus/York (Gamma=1.0000).
                        Polarization charges: spherical gaussians, with
                                              point-specific exponents (IZeta= 3).
                        Self-potential: point-specific (ISelfS= 7).
                        Self-field    : sphere-specific E.n sum rule (ISelfD= 2).
 Solvent              : Water, Eps=  78.355300 Eps(inf)=   1.777849
 ------------------------------------------------------------------------------
 One-electron integrals computed using PRISM.
 NBasis=   303 RedAO= T  NBF=   303
 NBsUse=   303 1.00D-06 NBFU=   303
 Harris functional with IExCor=  908 diagonalized for initial guess.
 ExpMin= 4.38D-02 ExpMax= 5.48D+03 ExpMxC= 8.25D+02 IAcc=2 IRadAn=         4 AccDes= 0.00D+00
 HarFok:  IExCor=  908 AccDes= 0.00D+00 IRadAn=         4 IDoV= 1
 ScaDFX=  1.000000  1.000000  1.000000  1.000000
 FoFCou: FMM=F IPFlag=           0 FMFlag=      100000 FMFlg1=           0
         NFxFlg=           0 DoJE=T BraDBF=F KetDBF=T FulRan=T
         Omega=  0.000000  0.000000  1.000000  0.000000  0.000000 ICntrl=     500 IOpCl=  0
         NMat0=    1 NMatS0=    1 NMatT0=    0 NMatD0=    1 NMtDS0=    0 NMtDT0=    0
         I1Cent=           4 NGrid=           0.
 Petite list used in FoFCou.
 Initial guess orbital symmetries:
       Occupied  (A) (A) (A) (A) (A) (A) (A) (A) (A) (A) (A) (A)
                 (A) (A) (A) (A) (A) (A) (A) (A) (A) (A) (A) (A)
                 (A) (A) (A) (A) (A) (A) (A) (A) (A) (A) (A) (A)
                 (A) (A) (A) (A) (A) (A) (A) (A) (A) (A) (A)
       Virtual   (A) (A) (A) (A) (A) (A) (A) (A) (A) (A) (A) (A)
                 (A) (A) (A) (A) (A) (A) (A) (A) (A) (A) (A) (A)
                 (A) (A) (A) (A) (A) (A) (A) (A) (A) (A) (A) (A)
                 (A) (A) (A) (A) (A) (A) (A) (A) (A) (A) (A) (A)
                 (A) (A) (A) (A) (A) (A) (A) (A) (A) (A) (A) (A)
                 (A) (A) (A) (A) (A) (A) (A) (A) (A) (A) (A) (A)
                 (A) (A) (A) (A) (A) (A) (A) (A) (A) (A) (A) (A)
                 (A) (A) (A) (A) (A) (A) (A) (A) (A) (A) (A) (A)
                 (A) (A) (A) (A) (A) (A) (A) (A) (A) (A) (A) (A)
                 (A) (A) (A) (A) (A) (A) (A) (A) (A) (A) (A) (A)
                 (A) (A) (A) (A) (A) (A) (A) (A) (A) (A) (A) (A)
                 (A) (A) (A) (A) (A) (A) (A) (A) (A) (A) (A) (A)
                 (A) (A) (A) (A) (A) (A) (A) (A) (A) (A) (A) (A)
                 (A) (A) (A) (A) (A) (A) (A) (A) (A) (A) (A) (A)
                 (A) (A) (A) (A) (A) (A) (A) (A) (A) (A) (A) (A)
                 (A) (A) (A) (A) (A) (A) (A) (A) (A) (A) (A) (A)
                 (A) (A) (A) (A) (A) (A) (A) (A) (A) (A) (A) (A)
                 (A) (A) (A) (A) (A) (A) (A) (A) (A) (A) (A) (A)
                 (A) (A) (A) (A) (A) (A) (A) (A) (A) (A) (A) (A)
                 (A) (A) (A) (A) (A) (A) (A) (A) (A) (A) (A) (A)
                 (A) (A) (A) (A) (A) (A) (A) (A) (A) (A) (A) (A)
                 (A) (A) (A) (A)
 The electronic state of the initial guess is 1-A.
 Requested convergence on RMS density matrix=1.00D-08 within 128 cycles.
 Requested convergence on MAX density matrix=1.00D-06.
 Requested convergence on             energy=1.00D-06.
 No special actions if energy rises.
 Error on total polarization charges =  0.01414
 SCF Done:  E(RmPW1PW91) =  -594.195343679     A.U. after   13 cycles
             Convg  =    0.5317D-08             -V/T =  2.0094
 Range of M.O.s used for correlation:     1   303
 NBasis=   303 NAE=    47 NBE=    47 NFC=     0 NFV=     0
 NROrb=    303 NOA=    47 NOB=    47 NVA=   256 NVB=   256

 **** Warning!!: The largest alpha MO coefficient is  0.94975848D+02

 NEqPCM:  Using equilibrium solvation (IEInf=0, Eps=  78.3553, EpsInf=   1.7778)
          Differentiating once with respect to magnetic field using GIAOs.
          Electric field/nuclear overlap derivatives assumed to be zero.
 FoFCou: FMM=F IPFlag=           0 FMFlag=    10101102 FMFlg1=           0
         NFxFlg=    40000000 DoJE=F BraDBF=F KetDBF=T FulRan=T
         Omega=  0.000000  0.000000  1.000000  0.000000  0.000000 ICntrl=    6100 IOpCl=  0
         NMat0=    1 NMatS0=    1 NMatT0=    0 NMatD0=    1 NMtDS0=    0 NMtDT0=    0
         I1Cent=           7 NGrid=        1852.
 Symmetry not used in FoFCou.
          There are     3 degrees of freedom in the 1st order CPHF.  IDoFFX=0.
      3 vectors produced by pass  0 Test12= 4.01D-13 3.33D-08 XBig12= 4.12D+01 1.62D+00.
 AX will form     3 AO Fock derivatives at one time.
      3 vectors produced by pass  1 Test12= 4.01D-13 3.33D-08 XBig12= 1.06D-01 6.25D-02.
      3 vectors produced by pass  2 Test12= 4.01D-13 3.33D-08 XBig12= 2.07D-04 3.18D-03.
      3 vectors produced by pass  3 Test12= 4.01D-13 3.33D-08 XBig12= 8.58D-07 2.15D-04.
      3 vectors produced by pass  4 Test12= 4.01D-13 3.33D-08 XBig12= 3.38D-09 1.04D-05.
      3 vectors produced by pass  5 Test12= 4.01D-13 3.33D-08 XBig12= 1.07D-11 5.47D-07.
 Inverted reduced A of dimension    18 with in-core refinement.
 Calculating GIAO nuclear magnetic shielding tensors.
 SCF GIAO Magnetic shielding tensor (ppm):
      1  C    Isotropic =   172.0375   Anisotropy =    21.1099
   XX=   180.5452   YX=    -3.9205   ZX=     2.6689
   XY=     5.0976   YY=   184.8049   ZY=    -9.8813
   XZ=     3.6131   YZ=    -3.7070   ZZ=   150.7624
   Eigenvalues:   149.1315   180.8703   186.1108
      2  C    Isotropic =   128.2402   Anisotropy =    59.7900
   XX=   140.2584   YX=    15.2380   ZX=    -3.4296
   XY=    17.9927   YY=   158.0180   ZY=    -3.4595
   XZ=    -5.5152   YZ=     1.4567   ZZ=    86.4441
   Eigenvalues:    86.0729   130.5475   168.1002
      3  N    Isotropic =   194.2310   Anisotropy =    87.9468
   XX=   246.4341   YX=     6.2201   ZX=   -25.6634
   XY=    -7.9410   YY=   220.7297   ZY=   -21.6136
   XZ=   -31.3252   YZ=   -23.5893   ZZ=   115.5293
   Eigenvalues:   105.2838   224.5471   252.8622
      4  C    Isotropic =   138.6533   Anisotropy =    56.6952
   XX=   148.0587   YX=   -19.9817   ZX=    11.6717
   XY=   -29.9419   YY=   135.8516   ZY=   -15.6393
   XZ=     6.8962   YZ=   -23.5888   ZZ=   132.0497
   Eigenvalues:   110.1369   129.3729   176.4501
      5  C    Isotropic =   163.6867   Anisotropy =    25.7917
   XX=   179.6487   YX=    -0.1880   ZX=    -1.7439
   XY=    -0.1492   YY=   176.3336   ZY=   -12.3256
   XZ=   -10.3261   YZ=    -6.4761   ZZ=   135.0779
   Eigenvalues:   132.2929   177.8861   180.8812
      6  C    Isotropic =   126.3892   Anisotropy =    54.3312
   XX=   153.6035   YX=   -18.0914   ZX=   -13.7177
   XY=    -7.9129   YY=   112.8532   ZY=     6.2914
   XZ=   -16.3696   YZ=     5.6845   ZZ=   112.7108
   Eigenvalues:   106.6269   109.9306   162.6100
      7  C    Isotropic =   110.8296   Anisotropy =    33.9820
   XX=   119.0592   YX=     1.7800   ZX=    14.1482
   XY=     8.6628   YY=   104.3771   ZY=     1.7168
   XZ=    23.3371   YZ=   -12.3510   ZZ=   109.0524
   Eigenvalues:    90.6616   108.3429   133.4842
      8  C    Isotropic =   118.4574   Anisotropy =    32.9092
   XX=   118.7981   YX=     9.0438   ZX=    16.9614
   XY=     2.3132   YY=   106.3982   ZY=    -5.4023
   XZ=    11.4993   YZ=     8.4030   ZZ=   130.1760
   Eigenvalues:   103.3130   111.6623   140.3969
      9  H    Isotropic =    29.9569   Anisotropy =    11.7160
   XX=    33.4596   YX=     2.7375   ZX=    -4.4271
   XY=     3.8561   YY=    28.7936   ZY=    -3.0190
   XZ=    -4.3944   YZ=    -2.2877   ZZ=    27.6176
   Eigenvalues:    24.9764    27.1267    37.7676
     10  H    Isotropic =    29.3663   Anisotropy =     7.3946
   XX=    30.2773   YX=    -0.3474   ZX=     2.6489
   XY=    -0.7005   YY=    28.4766   ZY=     4.7574
   XZ=     2.9389   YZ=     4.2905   ZZ=    29.3451
   Eigenvalues:    23.5652    30.2377    34.2961
     11  H    Isotropic =    27.7619   Anisotropy =     7.8803
   XX=    26.7495   YX=     1.1269   ZX=    -1.0449
   XY=     0.2494   YY=    25.5966   ZY=    -4.0424
   XZ=    -1.6727   YZ=    -2.8923   ZZ=    30.9396
   Eigenvalues:    23.8908    26.3794    33.0154
     12  H    Isotropic =    28.4443   Anisotropy =     9.5434
   XX=    27.2740   YX=    -0.4985   ZX=     0.5535
   XY=     0.4395   YY=    34.7906   ZY=    -0.2792
   XZ=     0.3470   YZ=    -0.5713   ZZ=    23.2683
   Eigenvalues:    23.2031    27.3232    34.8065
     13  H    Isotropic =    29.1748   Anisotropy =     8.0308
   XX=    27.7714   YX=    -1.1871   ZX=     1.5388
   XY=    -1.1889   YY=    27.6320   ZY=    -4.0511
   XZ=    -0.1617   YZ=    -3.6145   ZZ=    32.1210
   Eigenvalues:    25.2358    27.7599    34.5287
     14  H    Isotropic =    29.4257   Anisotropy =    10.6924
   XX=    28.3595   YX=    -2.0007   ZX=    -3.8856
   XY=    -2.3210   YY=    29.9504   ZY=     4.2339
   XZ=    -4.0898   YZ=     4.2523   ZZ=    29.9673
   Eigenvalues:    24.7131    27.0101    36.5540
     15  H    Isotropic =    29.4999   Anisotropy =    11.6210
   XX=    32.9771   YX=    -3.8604   ZX=     3.5301
   XY=    -4.5471   YY=    29.1194   ZY=    -2.5248
   XZ=     3.2912   YZ=    -2.1427   ZZ=    26.4033
   Eigenvalues:    24.8214    26.4312    37.2473
     16  H    Isotropic =    28.5335   Anisotropy =     4.3542
   XX=    28.7147   YX=     1.1871   ZX=    -1.3226
   XY=     1.4592   YY=    27.0783   ZY=    -0.2355
   XZ=    -1.3936   YZ=    -2.2033   ZZ=    29.8075
   Eigenvalues:    26.2764    27.8878    31.4363
     17  H    Isotropic =    27.3425   Anisotropy =     4.5218
   XX=    27.5849   YX=    -2.1044   ZX=    -0.4102
   XY=    -2.1464   YY=    27.0544   ZY=     1.3378
   XZ=    -0.4364   YZ=     2.4216   ZZ=    27.3882
   Eigenvalues:    24.6160    27.0544    30.3570
     18  H    Isotropic =    27.6449   Anisotropy =     6.7454
   XX=    24.0175   YX=     0.6812   ZX=     1.5114
   XY=     0.3665   YY=    31.1212   ZY=    -1.4902
   XZ=     1.4214   YZ=    -2.7126   ZZ=    27.7960
   Eigenvalues:    23.3212    27.4717    32.1419
     19  O    Isotropic =   288.8273   Anisotropy =    83.0176
   XX=   289.7372   YX=   -23.7025   ZX=   -43.7992
   XY=   -20.0105   YY=   282.9172   ZY=    30.4299
   XZ=   -14.4848   YZ=    31.5689   ZZ=   293.8276
   Eigenvalues:   256.5719   265.7377   344.1724
     20  H    Isotropic =    30.2469   Anisotropy =    19.7023
   XX=    27.4147   YX=    -6.6783   ZX=    -1.9663
   XY=    -6.3570   YY=    31.4445   ZY=     8.3417
   XZ=    -3.2848   YZ=     9.7812   ZZ=    31.8814
   Eigenvalues:    20.8241    26.5348    43.3817
     21  O    Isotropic =   301.0239   Anisotropy =    33.7918
   XX=   297.7258   YX=   -11.2732   ZX=   -27.0300
   XY=    -6.2664   YY=   292.4372   ZY=    11.6326
   XZ=     0.4989   YZ=     0.1175   ZZ=   312.9087
   Eigenvalues:   285.3212   294.1987   323.5517
     22  H    Isotropic =    30.3136   Anisotropy =    14.2630
   XX=    27.1311   YX=    -4.6168   ZX=    -2.2681
   XY=    -4.2664   YY=    25.8990   ZY=     4.0420
   XZ=    -1.2878   YZ=     3.7831   ZZ=    37.9106
   Eigenvalues:    21.8107    29.3077    39.8222
     23  C    Isotropic =   133.7974   Anisotropy =    72.0784
   XX=   164.0193   YX=   -11.3245   ZX=   -31.1704
   XY=    -3.2485   YY=   110.9416   ZY=     6.1776
   XZ=   -28.3520   YZ=     9.0010   ZZ=   126.4313
   Eigenvalues:   106.6630   112.8797   181.8497
     24  H    Isotropic =    27.7811   Anisotropy =     2.7656
   XX=    28.1219   YX=     1.8275   ZX=    -1.3567
   XY=     0.9673   YY=    25.8095   ZY=     1.0176
   XZ=     0.8296   YZ=     0.7675   ZZ=    29.4120
   Eigenvalues:    24.9617    28.7569    29.6248
     25  H    Isotropic =    27.7410   Anisotropy =     5.2420
   XX=    29.9444   YX=    -1.5589   ZX=    -1.0862
   XY=     0.6375   YY=    30.6969   ZY=     0.1607
   XZ=    -2.5625   YZ=     1.5547   ZZ=    22.5818
   Eigenvalues:    22.0923    29.8951    31.2357
     26  O    Isotropic =   316.3385   Anisotropy =    92.6217
   XX=   354.9560   YX=    30.9391   ZX=    -1.0460
   XY=    47.5669   YY=   303.6502   ZY=     6.9254
   XZ=    19.7012   YZ=    12.6578   ZZ=   290.4094
   Eigenvalues:   280.3272   290.6021   378.0864
     27  H    Isotropic =    30.3758   Anisotropy =    21.6353
   XX=    39.5218   YX=     9.9818   ZX=     1.3786
   XY=     8.1953   YY=    28.0360   ZY=     3.8195
   XZ=    -0.0282   YZ=     3.5511   ZZ=    23.5696
   Eigenvalues:    20.2770    26.0511    44.7993
 End of Minotr Frequency-dependent properties file   721 does not exist.
 End of Minotr Frequency-dependent properties file   722 does not exist.

 **********************************************************************

            Population analysis using the SCF density.

 **********************************************************************

 Orbital symmetries:
       Occupied  (A) (A) (A) (A) (A) (A) (A) (A) (A) (A) (A) (A)
                 (A) (A) (A) (A) (A) (A) (A) (A) (A) (A) (A) (A)
                 (A) (A) (A) (A) (A) (A) (A) (A) (A) (A) (A) (A)
                 (A) (A) (A) (A) (A) (A) (A) (A) (A) (A) (A)
       Virtual   (A) (A) (A) (A) (A) (A) (A) (A) (A) (A) (A) (A)
                 (A) (A) (A) (A) (A) (A) (A) (A) (A) (A) (A) (A)
                 (A) (A) (A) (A) (A) (A) (A) (A) (A) (A) (A) (A)
                 (A) (A) (A) (A) (A) (A) (A) (A) (A) (A) (A) (A)
                 (A) (A) (A) (A) (A) (A) (A) (A) (A) (A) (A) (A)
                 (A) (A) (A) (A) (A) (A) (A) (A) (A) (A) (A) (A)
                 (A) (A) (A) (A) (A) (A) (A) (A) (A) (A) (A) (A)
                 (A) (A) (A) (A) (A) (A) (A) (A) (A) (A) (A) (A)
                 (A) (A) (A) (A) (A) (A) (A) (A) (A) (A) (A) (A)
                 (A) (A) (A) (A) (A) (A) (A) (A) (A) (A) (A) (A)
                 (A) (A) (A) (A) (A) (A) (A) (A) (A) (A) (A) (A)
                 (A) (A) (A) (A) (A) (A) (A) (A) (A) (A) (A) (A)
                 (A) (A) (A) (A) (A) (A) (A) (A) (A) (A) (A) (A)
                 (A) (A) (A) (A) (A) (A) (A) (A) (A) (A) (A) (A)
                 (A) (A) (A) (A) (A) (A) (A) (A) (A) (A) (A) (A)
                 (A) (A) (A) (A) (A) (A) (A) (A) (A) (A) (A) (A)
                 (A) (A) (A) (A) (A) (A) (A) (A) (A) (A) (A) (A)
                 (A) (A) (A) (A) (A) (A) (A) (A) (A) (A) (A) (A)
                 (A) (A) (A) (A) (A) (A) (A) (A) (A) (A) (A) (A)
                 (A) (A) (A) (A) (A) (A) (A) (A) (A) (A) (A) (A)
                 (A) (A) (A) (A) (A) (A) (A) (A) (A) (A) (A) (A)
                 (A) (A) (A) (A)
 The electronic state is 1-A.
 Alpha  occ. eigenvalues --  -19.26124 -19.25952 -19.25518 -14.41245 -10.30592
 Alpha  occ. eigenvalues --  -10.30370 -10.29418 -10.27968 -10.27891 -10.26818
 Alpha  occ. eigenvalues --  -10.24569 -10.24426  -1.07294  -1.05890  -1.05441
 Alpha  occ. eigenvalues --   -0.96286  -0.82705  -0.79218  -0.75099  -0.71936
 Alpha  occ. eigenvalues --   -0.66629  -0.61644  -0.60651  -0.57477  -0.54834
 Alpha  occ. eigenvalues --   -0.53519  -0.52473  -0.50584  -0.49794  -0.47846
 Alpha  occ. eigenvalues --   -0.45487  -0.43495  -0.42898  -0.41752  -0.41257
 Alpha  occ. eigenvalues --   -0.39066  -0.38488  -0.38035  -0.37020  -0.35542
 Alpha  occ. eigenvalues --   -0.34955  -0.34061  -0.32599  -0.32194  -0.29703
 Alpha  occ. eigenvalues --   -0.28274  -0.23289
 Alpha virt. eigenvalues --    0.00725   0.01092   0.01658   0.02385   0.03627
 Alpha virt. eigenvalues --    0.04225   0.04537   0.05064   0.05470   0.06494
 Alpha virt. eigenvalues --    0.07716   0.08157   0.08844   0.09133   0.09483
 Alpha virt. eigenvalues --    0.10548   0.11614   0.11884   0.12139   0.12853
 Alpha virt. eigenvalues --    0.13510   0.13890   0.14212   0.14893   0.15710
 Alpha virt. eigenvalues --    0.15840   0.17145   0.17438   0.18130   0.19005
 Alpha virt. eigenvalues --    0.19216   0.19565   0.19955   0.20867   0.21113
 Alpha virt. eigenvalues --    0.21752   0.22094   0.22583   0.23349   0.23389
 Alpha virt. eigenvalues --    0.23816   0.24323   0.24413   0.25399   0.25658
 Alpha virt. eigenvalues --    0.25793   0.27572   0.28070   0.28275   0.28725
 Alpha virt. eigenvalues --    0.28967   0.29867   0.31080   0.31557   0.32020
 Alpha virt. eigenvalues --    0.32746   0.33152   0.33797   0.34657   0.34843
 Alpha virt. eigenvalues --    0.35179   0.36131   0.36356   0.37533   0.38507
 Alpha virt. eigenvalues --    0.39433   0.39748   0.40753   0.41079   0.41831
 Alpha virt. eigenvalues --    0.42078   0.43333   0.44368   0.44755   0.46240
 Alpha virt. eigenvalues --    0.48451   0.64084   0.66146   0.67745   0.68638
 Alpha virt. eigenvalues --    0.69037   0.70960   0.72139   0.73184   0.74740
 Alpha virt. eigenvalues --    0.75077   0.75722   0.77726   0.79590   0.80831
 Alpha virt. eigenvalues --    0.82778   0.84173   0.86594   0.88065   0.89428
 Alpha virt. eigenvalues --    0.90695   0.92286   0.94300   0.94761   0.96367
 Alpha virt. eigenvalues --    0.99455   0.99937   1.01088   1.02303   1.04028
 Alpha virt. eigenvalues --    1.04763   1.06098   1.07371   1.08270   1.10903
 Alpha virt. eigenvalues --    1.11202   1.11761   1.13428   1.15267   1.15880
 Alpha virt. eigenvalues --    1.16683   1.19326   1.20981   1.23517   1.24675
 Alpha virt. eigenvalues --    1.26287   1.27781   1.30159   1.30781   1.31634
 Alpha virt. eigenvalues --    1.34575   1.36238   1.38322   1.39681   1.42402
 Alpha virt. eigenvalues --    1.42819   1.46032   1.48232   1.49166   1.50496
 Alpha virt. eigenvalues --    1.51611   1.56850   1.57844   1.58296   1.59945
 Alpha virt. eigenvalues --    1.63800   1.65315   1.66493   1.68364   1.70412
 Alpha virt. eigenvalues --    1.73298   1.74043   1.76616   1.78439   1.80643
 Alpha virt. eigenvalues --    1.80675   1.82990   1.84734   1.86370   1.87908
 Alpha virt. eigenvalues --    1.88396   1.92562   1.93519   1.94126   1.96514
 Alpha virt. eigenvalues --    1.98252   2.00731   2.01117   2.01619   2.03190
 Alpha virt. eigenvalues --    2.06141   2.06369   2.07729   2.09380   2.10458
 Alpha virt. eigenvalues --    2.11681   2.14765   2.15012   2.16295   2.18939
 Alpha virt. eigenvalues --    2.20364   2.22830   2.23180   2.26200   2.27405
 Alpha virt. eigenvalues --    2.31064   2.31545   2.34137   2.38463   2.39708
 Alpha virt. eigenvalues --    2.42344   2.44164   2.45741   2.46774   2.47573
 Alpha virt. eigenvalues --    2.49761   2.50893   2.51822   2.52349   2.55171
 Alpha virt. eigenvalues --    2.56999   2.57483   2.60897   2.62055   2.63531
 Alpha virt. eigenvalues --    2.65375   2.66293   2.67197   2.67995   2.68744
 Alpha virt. eigenvalues --    2.70844   2.71179   2.72999   2.76357   2.77575
 Alpha virt. eigenvalues --    2.79422   2.79995   2.81441   2.83671   2.85858
 Alpha virt. eigenvalues --    2.87189   2.88695   2.92399   2.92700   2.95290
 Alpha virt. eigenvalues --    2.96764   2.99405   3.00956   3.01949   3.04311
 Alpha virt. eigenvalues --    3.05528   3.08561   3.13688   3.14400   3.32424
 Alpha virt. eigenvalues --    3.35903   3.36440   3.37510   3.43620   3.45289
 Alpha virt. eigenvalues --    3.46802   3.50834   3.52172   3.53971   3.55819
 Alpha virt. eigenvalues --    3.57351   3.58264   3.58882   3.60576   4.31118
 Alpha virt. eigenvalues --    4.35125   4.36870   4.44306   4.50895   4.56340
 Alpha virt. eigenvalues --    4.59311   4.72691   4.76902   4.79687   4.88771
 Alpha virt. eigenvalues --    4.96773
          Condensed to atoms (all electrons):
              1          2          3          4          5          6
     1  C    6.373012  -1.185807   0.163221  -0.270057   0.277776   0.194443
     2  C   -1.185807   8.827857  -0.297485  -0.209336   0.130215  -0.669480
     3  N    0.163221  -0.297485   7.530460   0.224773  -0.162964  -0.267577
     4  C   -0.270057  -0.209336   0.224773   5.648780   0.035975  -0.085889
     5  C    0.277776   0.130215  -0.162964   0.035975   5.709352  -0.066674
     6  C    0.194443  -0.669480  -0.267577  -0.085889  -0.066674  10.301657
     7  C   -0.446023   0.962791  -0.087435  -0.006978  -0.062460  -2.575063
     8  C    0.368405  -1.169998  -0.041698   0.134700  -0.026112   0.975690
     9  H    0.380063  -0.067247   0.011834   0.024458  -0.025060   0.006456
    10  H    0.519093  -0.223871   0.028366   0.024095  -0.079601   0.010294
    11  H    0.077062   0.152557  -0.015273   0.021597  -0.037475   0.014374
    12  H    0.034360   0.008894  -0.051872   0.380708  -0.035550  -0.007507
    13  H   -0.005023  -0.004567  -0.090986   0.437214  -0.022537  -0.005333
    14  H   -0.018216  -0.056618   0.017419  -0.031105   0.395996   0.007837
    15  H   -0.079083   0.060260   0.005363  -0.018031   0.377990  -0.004342
    16  H   -0.013970   0.034180  -0.047934   0.025817   0.004168   0.245307
    17  H    0.011595  -0.004357   0.021971  -0.001119   0.003277  -0.018013
    18  H   -0.012255  -0.030064   0.013077   0.000375  -0.002060   0.010714
    19  O    0.067269  -0.231163   0.037692   0.019712  -0.042381  -0.102454
    20  H   -0.007463   0.038286  -0.002599  -0.000819   0.004078  -0.008829
    21  O    0.018117   0.002692   0.048279   0.005543   0.000699  -0.256314
    22  H    0.010975   0.015349   0.025029   0.003013   0.002660  -0.056831
    23  C    0.067012  -0.155623   0.096084  -0.153679  -0.023831  -1.438174
    24  H    0.000007  -0.009220   0.020823   0.006994  -0.003697  -0.123185
    25  H   -0.000045   0.006346  -0.010885  -0.001582   0.007423  -0.044977
    26  O    0.002813   0.012594   0.004260   0.008661  -0.000616   0.180699
    27  H   -0.000112  -0.000729  -0.000148  -0.000287   0.000142   0.016621
              7          8          9         10         11         12
     1  C   -0.446023   0.368405   0.380063   0.519093   0.077062   0.034360
     2  C    0.962791  -1.169998  -0.067247  -0.223871   0.152557   0.008894
     3  N   -0.087435  -0.041698   0.011834   0.028366  -0.015273  -0.051872
     4  C   -0.006978   0.134700   0.024458   0.024095   0.021597   0.380708
     5  C   -0.062460  -0.026112  -0.025060  -0.079601  -0.037475  -0.035550
     6  C   -2.575063   0.975690   0.006456   0.010294   0.014374  -0.007507
     7  C    8.831652  -1.695049  -0.009474  -0.012721  -0.029309  -0.000772
     8  C   -1.695049   7.123688   0.019831   0.057422   0.060912  -0.009157
     9  H   -0.009474   0.019831   0.520231  -0.024715  -0.005314  -0.000110
    10  H   -0.012721   0.057422  -0.024715   0.506549   0.003914  -0.000046
    11  H   -0.029309   0.060912  -0.005314   0.003914   0.563028   0.000131
    12  H   -0.000772  -0.009157  -0.000110  -0.000046   0.000131   0.545456
    13  H    0.006088   0.010444  -0.000140   0.001051  -0.000531  -0.043306
    14  H   -0.003286   0.016231  -0.005394   0.003997   0.000710  -0.005815
    15  H    0.003025  -0.004713   0.000701  -0.005568  -0.000111   0.000553
    16  H    0.085482  -0.028161  -0.000006  -0.000064  -0.000604  -0.001222
    17  H    0.305116   0.032957   0.000002  -0.000015  -0.000095   0.000004
    18  H    0.044526   0.279330   0.000246   0.000098  -0.002281   0.000005
    19  O    0.139320   0.113766  -0.000346   0.000897   0.006981   0.000060
    20  H   -0.065506   0.066285  -0.000010   0.000024  -0.000270  -0.000001
    21  O    0.425387  -0.132176  -0.000009   0.000063   0.001307   0.000053
    22  H    0.025411  -0.028122   0.000005  -0.000001  -0.000697   0.000002
    23  C    0.516207  -0.255988   0.000782   0.000353   0.019794   0.019439
    24  H    0.025626  -0.002214   0.000000   0.000000  -0.000050   0.000097
    25  H   -0.019951  -0.001531   0.000000   0.000001   0.000013  -0.000176
    26  O   -0.094659   0.023320  -0.000001  -0.000003  -0.000006   0.000026
    27  H   -0.006159  -0.001672   0.000000   0.000000   0.000000   0.000001
             13         14         15         16         17         18
     1  C   -0.005023  -0.018216  -0.079083  -0.013970   0.011595  -0.012255
     2  C   -0.004567  -0.056618   0.060260   0.034180  -0.004357  -0.030064
     3  N   -0.090986   0.017419   0.005363  -0.047934   0.021971   0.013077
     4  C    0.437214  -0.031105  -0.018031   0.025817  -0.001119   0.000375
     5  C   -0.022537   0.395996   0.377990   0.004168   0.003277  -0.002060
     6  C   -0.005333   0.007837  -0.004342   0.245307  -0.018013   0.010714
     7  C    0.006088  -0.003286   0.003025   0.085482   0.305116   0.044526
     8  C    0.010444   0.016231  -0.004713  -0.028161   0.032957   0.279330
     9  H   -0.000140  -0.005394   0.000701  -0.000006   0.000002   0.000246
    10  H    0.001051   0.003997  -0.005568  -0.000064  -0.000015   0.000098
    11  H   -0.000531   0.000710  -0.000111  -0.000604  -0.000095  -0.002281
    12  H   -0.043306  -0.005815   0.000553  -0.001222   0.000004   0.000005
    13  H    0.585118   0.004087  -0.004407   0.013691  -0.000033  -0.000024
    14  H    0.004087   0.523238  -0.025077  -0.000009   0.000000   0.000000
    15  H   -0.004407  -0.025077   0.517329  -0.000008   0.000000   0.000002
    16  H    0.013691  -0.000009  -0.000008   0.571109  -0.003014  -0.000186
    17  H   -0.000033   0.000000   0.000000  -0.003014   0.532678  -0.002956
    18  H   -0.000024   0.000000   0.000002  -0.000186  -0.002956   0.559223
    19  O    0.000909   0.000096   0.000265   0.003926  -0.013545  -0.035539
    20  H    0.000089   0.000000  -0.000001   0.000660   0.004528  -0.006317
    21  O   -0.000016   0.000022   0.000004   0.007586  -0.047357  -0.001688
    22  H   -0.000001  -0.000002   0.000000   0.000033   0.006027  -0.000932
    23  C   -0.029577  -0.000924   0.000073  -0.069228  -0.006614   0.014067
    24  H    0.000006  -0.000001   0.000000   0.004802   0.000175  -0.000010
    25  H    0.000058   0.000004   0.000000  -0.006281  -0.000060   0.000003
    26  O    0.000064  -0.000002  -0.000001   0.008472   0.002120  -0.000012
    27  H   -0.000002   0.000000   0.000000  -0.000222  -0.000041   0.000000
             19         20         21         22         23         24
     1  C    0.067269  -0.007463   0.018117   0.010975   0.067012   0.000007
     2  C   -0.231163   0.038286   0.002692   0.015349  -0.155623  -0.009220
     3  N    0.037692  -0.002599   0.048279   0.025029   0.096084   0.020823
     4  C    0.019712  -0.000819   0.005543   0.003013  -0.153679   0.006994
     5  C   -0.042381   0.004078   0.000699   0.002660  -0.023831  -0.003697
     6  C   -0.102454  -0.008829  -0.256314  -0.056831  -1.438174  -0.123185
     7  C    0.139320  -0.065506   0.425387   0.025411   0.516207   0.025626
     8  C    0.113766   0.066285  -0.132176  -0.028122  -0.255988  -0.002214
     9  H   -0.000346  -0.000010  -0.000009   0.000005   0.000782   0.000000
    10  H    0.000897   0.000024   0.000063  -0.000001   0.000353   0.000000
    11  H    0.006981  -0.000270   0.001307  -0.000697   0.019794  -0.000050
    12  H    0.000060  -0.000001   0.000053   0.000002   0.019439   0.000097
    13  H    0.000909   0.000089  -0.000016  -0.000001  -0.029577   0.000006
    14  H    0.000096   0.000000   0.000022  -0.000002  -0.000924  -0.000001
    15  H    0.000265  -0.000001   0.000004   0.000000   0.000073   0.000000
    16  H    0.003926   0.000660   0.007586   0.000033  -0.069228   0.004802
    17  H   -0.013545   0.004528  -0.047357   0.006027  -0.006614   0.000175
    18  H   -0.035539  -0.006317  -0.001688  -0.000932   0.014067  -0.000010
    19  O    8.314672   0.225604   0.007664  -0.000381   0.055029   0.000055
    20  H    0.225604   0.372341   0.000237   0.000015  -0.008229   0.000001
    21  O    0.007664   0.000237   8.170378   0.265497  -0.001261   0.008541
    22  H   -0.000381   0.000015   0.265497   0.355675  -0.004840   0.000017
    23  C    0.055029  -0.008229  -0.001261  -0.004840   6.461704   0.443413
    24  H    0.000055   0.000001   0.008541   0.000017   0.443413   0.572789
    25  H    0.000050   0.000000  -0.000952   0.000047   0.445489  -0.047229
    26  O    0.001015  -0.000052   0.000030   0.000394  -0.063415  -0.047863
    27  H   -0.000021   0.000000  -0.000169  -0.000005   0.004734  -0.004488
             25         26         27
     1  C   -0.000045   0.002813  -0.000112
     2  C    0.006346   0.012594  -0.000729
     3  N   -0.010885   0.004260  -0.000148
     4  C   -0.001582   0.008661  -0.000287
     5  C    0.007423  -0.000616   0.000142
     6  C   -0.044977   0.180699   0.016621
     7  C   -0.019951  -0.094659  -0.006159
     8  C   -0.001531   0.023320  -0.001672
     9  H    0.000000  -0.000001   0.000000
    10  H    0.000001  -0.000003   0.000000
    11  H    0.000013  -0.000006   0.000000
    12  H   -0.000176   0.000026   0.000001
    13  H    0.000058   0.000064  -0.000002
    14  H    0.000004  -0.000002   0.000000
    15  H    0.000000  -0.000001   0.000000
    16  H   -0.006281   0.008472  -0.000222
    17  H   -0.000060   0.002120  -0.000041
    18  H    0.000003  -0.000012   0.000000
    19  O    0.000050   0.001015  -0.000021
    20  H    0.000000  -0.000052   0.000000
    21  O   -0.000952   0.000030  -0.000169
    22  H    0.000047   0.000394  -0.000005
    23  C    0.445489  -0.063415   0.004734
    24  H   -0.047229  -0.047863  -0.004488
    25  H    0.571605  -0.051410  -0.004860
    26  O   -0.051410   8.360388   0.226447
    27  H   -0.004860   0.226447   0.377754
 Mulliken atomic charges:
              1
     1  C   -0.527169
     2  C    0.063544
     3  N   -0.171795
     4  C   -0.223535
     5  C   -0.358731
     6  C   -0.233451
     7  C   -0.255786
     8  C    0.113613
     9  H    0.173215
    10  H    0.190386
    11  H    0.169636
    12  H    0.165746
    13  H    0.147664
    14  H    0.176811
    15  H    0.175777
    16  H    0.165678
    17  H    0.176770
    18  H    0.172656
    19  O   -0.569152
    20  H    0.387949
    21  O   -0.522155
    22  H    0.381664
    23  C    0.067201
    24  H    0.154612
    25  H    0.158899
    26  O   -0.573263
    27  H    0.393217
 Sum of Mulliken atomic charges =   0.00000
 Mulliken charges with hydrogens summed into heavy atoms:
              1
     1  C   -0.163568
     2  C    0.233180
     3  N   -0.171795
     4  C    0.089876
     5  C   -0.006143
     6  C   -0.067773
     7  C   -0.079016
     8  C    0.286269
    19  O   -0.181203
    21  O   -0.140491
    23  C    0.380711
    26  O   -0.180046
 Sum of Mulliken charges with hydrogens summed into heavy atoms =   0.00000
 Electronic spatial extent (au):  <R**2>=           2060.2513
 Charge=              0.0000 electrons
 Dipole moment (field-independent basis, Debye):
    X=              1.1081    Y=             -1.1767    Z=             -0.7558  Tot=              1.7843
 Quadrupole moment (field-independent basis, Debye-Ang):
   XX=            -73.4626   YY=            -66.8839   ZZ=            -72.8896
   XY=              6.0739   XZ=             -1.1550   YZ=              3.1441
 Traceless Quadrupole moment (field-independent basis, Debye-Ang):
   XX=             -2.3839   YY=              4.1948   ZZ=             -1.8109
   XY=              6.0739   XZ=             -1.1550   YZ=              3.1441
 Octapole moment (field-independent basis, Debye-Ang**2):
  XXX=            -22.1269  YYY=              7.2654  ZZZ=             -5.0561  XYY=            -12.9045
  XXY=            -35.4219  XXZ=             -8.7961  XZZ=             -2.3416  YZZ=             10.3122
  YYZ=             16.1535  XYZ=            -14.4424
 Hexadecapole moment (field-independent basis, Debye-Ang**3):
 XXXX=          -1398.0967 YYYY=           -735.6844 ZZZZ=           -291.3103 XXXY=            123.2897
 XXXZ=             13.3989 YYYX=             38.9175 YYYZ=             41.2828 ZZZX=             10.2882
 ZZZY=             14.5819 XXYY=           -355.1053 XXZZ=           -328.2406 YYZZ=           -175.5643
 XXYZ=             10.9286 YYXZ=            -18.6497 ZZXY=             -2.2836
 N-N= 8.062242344413D+02 E-N=-2.998770260314D+03  KE= 5.886534759341D+02
 1\1\GINC-COMPUTE-3-2\SP\RmPW1PW91\6-31+G(d,p)\C8H15N1O3\MAMICHETTI.IQU
 IR\17-May-2024\0\\# mpw1pw91/6-31+G** nmr scrf=(pcm,solvent=water)\\co
 mment\\0,1\C,0,-2.611601,0.160858,0.211526\C,0,-1.173431,0.482952,0.65
 58\N,0,-0.367912,-0.764757,0.411784\C,0,-1.226433,-1.726071,-0.302572\
 C,0,-2.640934,-1.378227,0.165985\C,0,0.880149,-0.392224,-0.279741\C,0,
 1.044747,1.116306,0.00154\C,0,-0.416033,1.613479,-0.058609\H,0,-3.3561
 8,0.583477,0.892657\H,0,-2.799323,0.567081,-0.786212\H,0,-1.156384,0.7
 11206,1.729883\H,0,-0.944099,-2.759454,-0.070673\H,0,-1.145884,-1.6007
 28,-1.396743\H,0,-2.820891,-1.790947,1.165991\H,0,-3.410912,-1.773299,
 -0.504124\H,0,0.76749,-0.50703,-1.370792\H,0,1.665487,1.607339,-0.7524
 32\H,0,-0.530499,2.579619,0.448802\O,0,-0.851251,1.703007,-1.418738\H,
 0,-0.291388,2.368759,-1.852952\O,0,1.662879,1.417604,1.255474\H,0,1.20
 2901,0.92187,1.953569\C,0,2.051754,-1.261863,0.154316\H,0,2.260264,-1.
 108101,1.221623\H,0,1.789643,-2.320064,0.012921\O,0,3.185641,-0.91176,
 -0.647726\H,0,3.917694,-1.488492,-0.375568\\Version=AM64L-G09RevC.01\S
 tate=1-A\HF=-594.1953437\RMSD=5.317e-09\Dipole=-0.435965,-0.4629313,0.
 2973654\Quadrupole=-1.7723665,3.1187382,-1.3463717,-4.5157935,-0.85868
 9,-2.3375731\PG=C01 [X(C8H15N1O3)]\\@


 THERE'S NOTHING WRONG WITH FOLLOWING A TRAIN OF THOUGHT...
 AS LONG AS IT ULTIMATELY PULLS INTO THE STATION.
 Job cpu time:  0 days  0 hours  8 minutes 54.7 seconds.
 File lengths (MBytes):  RWF=    114 Int=      0 D2E=      0 Chk=      7 Scr=      1
 Normal termination of Gaussian 09 at Fri May 17 12:34:15 2024.
