 Entering Gaussian System, Link 0=g09
 Input=/home/mamichetti.iquir/Linux/03_Cardona_A1A3_R__S_S_R_002_OptB.gjc
 Output=/home/mamichetti.iquir/Linux/03_Cardona_A1A3_R__S_S_R_002_OptB.log
 Initial command:
 /opt/ohpc/pub/apps/software/Gaussian/09/AMD64.SSE4a-enabled/g09/l1.exe /local/mamichetti.iquir/Gau-130269.inp -scrdir=/local/mamichetti.iquir/
 Entering Link 1 = /opt/ohpc/pub/apps/software/Gaussian/09/AMD64.SSE4a-enabled/g09/l1.exe PID=    130270.
  
 Copyright (c) 1988,1990,1992,1993,1995,1998,2003,2009,2011,
            Gaussian, Inc.  All Rights Reserved.
  
 This is part of the Gaussian(R) 09 program.  It is based on
 the Gaussian(R) 03 system (copyright 2003, Gaussian, Inc.),
 the Gaussian(R) 98 system (copyright 1998, Gaussian, Inc.),
 the Gaussian(R) 94 system (copyright 1995, Gaussian, Inc.),
 the Gaussian 92(TM) system (copyright 1992, Gaussian, Inc.),
 the Gaussian 90(TM) system (copyright 1990, Gaussian, Inc.),
 the Gaussian 88(TM) system (copyright 1988, Gaussian, Inc.),
 the Gaussian 86(TM) system (copyright 1986, Carnegie Mellon
 University), and the Gaussian 82(TM) system (copyright 1983,
 Carnegie Mellon University). Gaussian is a federally registered
 trademark of Gaussian, Inc.
  
 This software contains proprietary and confidential information,
 including trade secrets, belonging to Gaussian, Inc.
  
 This software is provided under written license and may be
 used, copied, transmitted, or stored only in accord with that
 written license.
  
 The following legend is applicable only to US Government
 contracts under FAR:
  
                    RESTRICTED RIGHTS LEGEND
  
 Use, reproduction and disclosure by the US Government is
 subject to restrictions as set forth in subparagraphs (a)
 and (c) of the Commercial Computer Software - Restricted
 Rights clause in FAR 52.227-19.
  
 Gaussian, Inc.
 340 Quinnipiac St., Bldg. 40, Wallingford CT 06492
  
  
 ---------------------------------------------------------------
 Warning -- This program may not be used in any manner that
 competes with the business of Gaussian, Inc. or will provide
 assistance to any competitor of Gaussian, Inc.  The licensee
 of this program is prohibited from giving any competitor of
 Gaussian, Inc. access to this program.  By using this program,
 the user acknowledges that Gaussian, Inc. is engaged in the
 business of creating and licensing software in the field of
 computational chemistry and represents and warrants to the
 licensee that it is not a competitor of Gaussian, Inc. and that
 it will not use this program in any manner prohibited above.
 ---------------------------------------------------------------
  

 Cite this work as:
 Gaussian 09, Revision C.01,
 M. J. Frisch, G. W. Trucks, H. B. Schlegel, G. E. Scuseria, 
 M. A. Robb, J. R. Cheeseman, G. Scalmani, V. Barone, B. Mennucci, 
 G. A. Petersson, H. Nakatsuji, M. Caricato, X. Li, H. P. Hratchian, 
 A. F. Izmaylov, J. Bloino, G. Zheng, J. L. Sonnenberg, M. Hada, 
 M. Ehara, K. Toyota, R. Fukuda, J. Hasegawa, M. Ishida, T. Nakajima, 
 Y. Honda, O. Kitao, H. Nakai, T. Vreven, J. A. Montgomery, Jr., 
 J. E. Peralta, F. Ogliaro, M. Bearpark, J. J. Heyd, E. Brothers, 
 K. N. Kudin, V. N. Staroverov, T. Keith, R. Kobayashi, J. Normand, 
 K. Raghavachari, A. Rendell, J. C. Burant, S. S. Iyengar, J. Tomasi, 
 M. Cossi, N. Rega, J. M. Millam, M. Klene, J. E. Knox, J. B. Cross, 
 V. Bakken, C. Adamo, J. Jaramillo, R. Gomperts, R. E. Stratmann, 
 O. Yazyev, A. J. Austin, R. Cammi, C. Pomelli, J. W. Ochterski, 
 R. L. Martin, K. Morokuma, V. G. Zakrzewski, G. A. Voth, 
 P. Salvador, J. J. Dannenberg, S. Dapprich, A. D. Daniels, 
 O. Farkas, J. B. Foresman, J. V. Ortiz, J. Cioslowski, 
 and D. J. Fox, Gaussian, Inc., Wallingford CT, 2010.
 
 ******************************************
 Gaussian 09:  AM64L-G09RevC.01 23-Sep-2011
                17-May-2024 
 ******************************************
 %nprocshared=4
 Will use up to    4 processors via shared memory.
 ------------------------------------------------
 # mpw1pw91/6-31+G** nmr scrf=(pcm,solvent=water)
 ------------------------------------------------
 1/38=1/1;
 2/12=2,17=6,18=5,40=1/2;
 3/5=1,6=6,7=111,11=2,16=1,25=1,30=1,70=2201,72=1,74=-7/1,2,8,3;
 4//1;
 5/5=2,38=5,53=1/2;
 8/6=1,10=90,11=11/1;
 10/13=100,45=16/2;
 6/7=2,8=2,9=2,10=2,28=1/1;
 99/9=1/99;
 -------
 comment
 -------
 Charge =  0 Multiplicity = 1
 Symbolic Z-Matrix:
 6                     2.36746   0.21528  -0.11352 
 6                     0.98431   0.17076  -0.78426 
 7                     0.25545  -0.98704  -0.14486 
 6                     1.20579  -1.66617   0.77568 
 6                     2.5916   -1.25193   0.27827 
 6                    -0.97716  -0.4737    0.50172 
 6                    -0.7465    1.04038   0.65765 
 6                     0.07625   1.3966   -0.58124 
 1                     3.13838   0.61346  -0.77995 
 1                     2.34327   0.84107   0.78562 
 1                     1.1118   -0.0265   -1.85462 
 1                     1.04808  -2.75041   0.76229 
 1                     1.06485  -1.32357   1.81198 
 1                     2.87752  -1.84353  -0.60019 
 1                     3.3644   -1.38428   1.04161 
 1                    -1.10267  -0.96608   1.47196 
 1                    -0.13059   1.22489   1.54815 
 1                    -0.61251   1.49628  -1.43192 
 8                     0.84233   2.593    -0.45267 
 1                     0.20449   3.31839  -0.34186 
 8                    -1.92467   1.84667   0.70285 
 1                    -2.34824   1.69701   1.5648 
 6                    -2.1947   -0.83209  -0.36019 
 1                    -3.1251   -0.62199   0.1754 
 1                    -2.20173  -0.24656  -1.29164 
 8                    -2.17143  -2.23014  -0.65189 
 1                    -1.23218  -2.38991  -0.87868 
 
                          Input orientation:                          
 ---------------------------------------------------------------------
 Center     Atomic      Atomic             Coordinates (Angstroms)
 Number     Number       Type             X           Y           Z
 ---------------------------------------------------------------------
      1          6           0        2.367457    0.215276   -0.113518
      2          6           0        0.984307    0.170757   -0.784263
      3          7           0        0.255452   -0.987043   -0.144855
      4          6           0        1.205785   -1.666171    0.775680
      5          6           0        2.591599   -1.251930    0.278267
      6          6           0       -0.977162   -0.473695    0.501718
      7          6           0       -0.746496    1.040383    0.657651
      8          6           0        0.076249    1.396602   -0.581235
      9          1           0        3.138377    0.613457   -0.779950
     10          1           0        2.343271    0.841071    0.785619
     11          1           0        1.111797   -0.026499   -1.854620
     12          1           0        1.048076   -2.750410    0.762294
     13          1           0        1.064845   -1.323572    1.811982
     14          1           0        2.877518   -1.843527   -0.600188
     15          1           0        3.364399   -1.384280    1.041606
     16          1           0       -1.102666   -0.966077    1.471960
     17          1           0       -0.130592    1.224888    1.548154
     18          1           0       -0.612508    1.496278   -1.431924
     19          8           0        0.842328    2.592997   -0.452666
     20          1           0        0.204486    3.318388   -0.341860
     21          8           0       -1.924671    1.846669    0.702849
     22          1           0       -2.348237    1.697008    1.564802
     23          6           0       -2.194701   -0.832089   -0.360185
     24          1           0       -3.125101   -0.621988    0.175400
     25          1           0       -2.201733   -0.246559   -1.291640
     26          8           0       -2.171425   -2.230137   -0.651890
     27          1           0       -1.232181   -2.389912   -0.878677
 ---------------------------------------------------------------------
                    Distance matrix (angstroms):
                    1          2          3          4          5
     1  C    0.000000
     2  C    1.537851   0.000000
     3  N    2.430456   1.510157   0.000000
     4  C    2.383275   2.420078   1.487189   0.000000
     5  C    1.535066   2.395077   2.388887   1.529541   0.000000
     6  C    3.469823   2.432370   1.483550   2.502461   3.659458
     7  C    3.312432   2.414756   2.399661   3.339276   4.067125
     8  C    2.619909   1.538989   2.429878   3.535201   3.752393
     9  H    1.094074   2.199095   3.358006   3.369214   2.213246
    10  H    1.095743   2.181888   2.926905   2.753223   2.167885
    11  H    2.160225   1.095823   2.139922   3.100941   2.870662
    12  H    3.362009   3.305922   2.135564   1.095731   2.205037
    13  H    2.787903   2.996664   2.144197   1.100527   2.165270
    14  H    2.176162   2.770464   2.795733   2.172363   1.097005
    15  H    2.210607   3.378872   3.351274   2.193124   1.094268
    16  H    3.993881   3.276948   2.111638   2.510754   3.892841
    17  H    3.165552   2.791838   2.812107   3.277322   3.893272
    18  H    3.501336   2.174003   2.928615   4.263894   4.554525
    19  O    2.845101   2.448951   3.640859   4.447634   4.286919
    20  H    3.789444   3.272831   4.310237   5.205509   5.193330
    21  O    4.663718   3.671830   3.674434   4.705858   5.493476
    22  H    5.220159   4.353550   4.111721   4.956285   5.895200
    23  C    4.687334   3.360303   2.464473   3.680922   4.846912
    24  H    5.563513   4.293790   3.415255   4.495245   5.752223
    25  H    4.741177   3.253065   2.810906   4.230873   5.143093
    26  O    5.183757   3.967425   2.773463   3.709658   4.950604
    27  H    4.508865   3.388032   2.172461   3.033872   4.153892
                    6          7          8          9         10
     6  C    0.000000
     7  C    1.539466   0.000000
     8  C    2.404261   1.529261   0.000000
     9  H    4.445473   4.164277   3.166928   0.000000
    10  H    3.582525   3.098832   2.704865   1.770595   0.000000
    11  H    3.180576   3.301968   2.172346   2.381488   3.039748
    12  H    3.058254   4.195420   4.466232   4.250115   3.817959
    13  H    2.570773   3.194013   3.755550   3.843140   2.715414
    14  H    4.236649   4.799226   4.283212   2.477324   3.068053
    15  H    4.468758   4.788097   4.602048   2.712951   2.461792
    16  H    1.095245   2.194502   3.344802   5.054945   3.951118
    17  H    2.167232   1.098351   2.146291   4.059566   2.617016
    18  H    2.784374   2.142922   1.099087   3.908143   3.752789
    19  O    3.691340   2.483501   1.426453   3.049186   2.618287
    20  H    4.060518   2.663212   1.940878   4.014510   3.461605
    21  O    2.514422   1.428368   2.419734   5.417929   4.385591
    22  H    2.778839   1.954393   3.251746   6.064229   4.832184
    23  C    1.534185   2.576711   3.189536   5.541437   4.970465
    24  H    2.177640   2.941735   3.859513   6.455244   5.693505
    25  H    2.183414   2.752030   2.897215   5.433068   5.114196
    26  O    2.417057   3.800213   4.267349   6.024651   5.646347
    27  H    2.375376   3.789870   4.017232   5.303937   5.098332
                   11         12         13         14         15
    11  H    0.000000
    12  H    3.777829   0.000000
    13  H    3.889547   1.771438   0.000000
    14  H    2.827183   2.454720   3.061813   0.000000
    15  H    3.912277   2.703642   2.425925   1.772977   0.000000
    16  H    4.105215   2.883255   2.222953   4.572262   4.507191
    17  H    3.832541   4.220169   2.827247   4.804089   4.390821
    18  H    2.338963   5.060286   4.613891   4.901669   5.498341
    19  O    2.983261   5.483654   4.529642   4.883288   4.940893
    20  H    3.781524   6.225842   5.189128   5.818694   5.832162
    21  O    4.389709   5.474842   4.496422   6.194875   6.207097
    22  H    5.160887   5.653184   4.564442   6.673162   6.511703
    23  C    3.716886   3.931351   3.947722   5.177646   5.759646
    24  H    4.735704   4.721232   4.552611   6.174555   6.591283
    25  H    3.368212   4.587938   4.632813   5.369097   6.141683
    26  O    4.133053   3.554685   4.167250   5.063987   5.850534
    27  H    3.468778   2.832369   3.695004   4.155204   5.082060
                   16         17         18         19         20
    16  H    0.000000
    17  H    2.398137   0.000000
    18  H    3.838748   3.030967   0.000000
    19  O    4.489342   2.611815   2.068402   0.000000
    20  H    4.832725   2.840277   2.275039   0.972272   0.000000
    21  O    3.029648   2.078430   2.530178   3.090065   2.791180
    22  H    2.941443   2.267405   3.468921   3.879778   3.575000
    23  C    2.137112   3.483311   3.012184   4.578571   4.794048
    24  H    2.426872   3.776571   3.658369   5.145006   5.184619
    25  H    3.059925   3.810408   2.362794   4.246559   4.404636
    26  O    2.692737   4.576286   4.113982   5.690784   6.043774
    27  H    2.751286   4.491078   3.973984   5.414283   5.910742
                   21         22         23         24         25
    21  O    0.000000
    22  H    0.971993   0.000000
    23  C    2.894599   3.182056   0.000000
    24  H    2.795264   2.812774   1.093909   0.000000
    25  H    2.904540   3.458060   1.100229   1.773630   0.000000
    26  O    4.303086   4.513032   1.428346   2.044517   2.084414
    27  H    4.574865   4.890714   1.903179   2.796387   2.388416
                   26         27
    26  O    0.000000
    27  H    0.979357   0.000000
 Stoichiometry    C8H15NO3
 Framework group  C1[X(C8H15NO3)]
 Deg. of freedom    75
 Full point group                 C1      NOp   1
 Largest Abelian subgroup         C1      NOp   1
 Largest concise Abelian subgroup C1      NOp   1
                         Standard orientation:                         
 ---------------------------------------------------------------------
 Center     Atomic      Atomic             Coordinates (Angstroms)
 Number     Number       Type             X           Y           Z
 ---------------------------------------------------------------------
      1          6           0        2.367457    0.215276   -0.113518
      2          6           0        0.984307    0.170757   -0.784263
      3          7           0        0.255452   -0.987043   -0.144855
      4          6           0        1.205785   -1.666171    0.775680
      5          6           0        2.591599   -1.251930    0.278267
      6          6           0       -0.977162   -0.473695    0.501718
      7          6           0       -0.746496    1.040383    0.657651
      8          6           0        0.076249    1.396602   -0.581235
      9          1           0        3.138377    0.613457   -0.779950
     10          1           0        2.343271    0.841071    0.785619
     11          1           0        1.111797   -0.026499   -1.854620
     12          1           0        1.048076   -2.750410    0.762294
     13          1           0        1.064845   -1.323572    1.811982
     14          1           0        2.877518   -1.843527   -0.600188
     15          1           0        3.364399   -1.384280    1.041606
     16          1           0       -1.102666   -0.966077    1.471960
     17          1           0       -0.130592    1.224888    1.548154
     18          1           0       -0.612508    1.496278   -1.431924
     19          8           0        0.842328    2.592997   -0.452666
     20          1           0        0.204486    3.318388   -0.341860
     21          8           0       -1.924671    1.846669    0.702849
     22          1           0       -2.348237    1.697008    1.564802
     23          6           0       -2.194701   -0.832089   -0.360185
     24          1           0       -3.125101   -0.621988    0.175400
     25          1           0       -2.201733   -0.246559   -1.291640
     26          8           0       -2.171425   -2.230137   -0.651890
     27          1           0       -1.232181   -2.389912   -0.878677
 ---------------------------------------------------------------------
 Rotational constants (GHZ):      1.0869388      0.9490609      0.5887438
 Standard basis: 6-31+G(d,p) (6D, 7F)
 There are   303 symmetry adapted basis functions of A   symmetry.
 Integral buffers will be    131072 words long.
 Raffenetti 2 integral format.
 Two-electron integral symmetry is turned on.
   303 basis functions,   489 primitive gaussians,   303 cartesian basis functions
    47 alpha electrons       47 beta electrons
       nuclear repulsion energy       805.9340068989 Hartrees.
 NAtoms=   27 NActive=   27 NUniq=   27 SFac= 1.00D+00 NAtFMM=   60 NAOKFM=F Big=F
 ------------------------------------------------------------------------------
 Polarizable Continuum Model (PCM)
 =================================
 Model                : PCM.
 Atomic radii         : UFF (Universal Force Field).
 Polarization charges : Total charges.
 Charge compensation  : None.
 Solution method      : Matrix inversion.
 Cavity type          : Scaled VdW (van der Waals Surface) (Alpha=1.100).
 Cavity algorithm     : GePol (No added spheres)
                        Default sphere list used, NSphG=   27.
                        Lebedev-Laikov grids with approx.  5.0 points / Ang**2.
                        Smoothing algorithm: Karplus/York (Gamma=1.0000).
                        Polarization charges: spherical gaussians, with
                                              point-specific exponents (IZeta= 3).
                        Self-potential: point-specific (ISelfS= 7).
                        Self-field    : sphere-specific E.n sum rule (ISelfD= 2).
 Solvent              : Water, Eps=  78.355300 Eps(inf)=   1.777849
 ------------------------------------------------------------------------------
 One-electron integrals computed using PRISM.
 NBasis=   303 RedAO= T  NBF=   303
 NBsUse=   303 1.00D-06 NBFU=   303
 Harris functional with IExCor=  908 diagonalized for initial guess.
 ExpMin= 4.38D-02 ExpMax= 5.48D+03 ExpMxC= 8.25D+02 IAcc=2 IRadAn=         4 AccDes= 0.00D+00
 HarFok:  IExCor=  908 AccDes= 0.00D+00 IRadAn=         4 IDoV= 1
 ScaDFX=  1.000000  1.000000  1.000000  1.000000
 FoFCou: FMM=F IPFlag=           0 FMFlag=      100000 FMFlg1=           0
         NFxFlg=           0 DoJE=T BraDBF=F KetDBF=T FulRan=T
         Omega=  0.000000  0.000000  1.000000  0.000000  0.000000 ICntrl=     500 IOpCl=  0
         NMat0=    1 NMatS0=    1 NMatT0=    0 NMatD0=    1 NMtDS0=    0 NMtDT0=    0
         I1Cent=           4 NGrid=           0.
 Petite list used in FoFCou.
 Initial guess orbital symmetries:
       Occupied  (A) (A) (A) (A) (A) (A) (A) (A) (A) (A) (A) (A)
                 (A) (A) (A) (A) (A) (A) (A) (A) (A) (A) (A) (A)
                 (A) (A) (A) (A) (A) (A) (A) (A) (A) (A) (A) (A)
                 (A) (A) (A) (A) (A) (A) (A) (A) (A) (A) (A)
       Virtual   (A) (A) (A) (A) (A) (A) (A) (A) (A) (A) (A) (A)
                 (A) (A) (A) (A) (A) (A) (A) (A) (A) (A) (A) (A)
                 (A) (A) (A) (A) (A) (A) (A) (A) (A) (A) (A) (A)
                 (A) (A) (A) (A) (A) (A) (A) (A) (A) (A) (A) (A)
                 (A) (A) (A) (A) (A) (A) (A) (A) (A) (A) (A) (A)
                 (A) (A) (A) (A) (A) (A) (A) (A) (A) (A) (A) (A)
                 (A) (A) (A) (A) (A) (A) (A) (A) (A) (A) (A) (A)
                 (A) (A) (A) (A) (A) (A) (A) (A) (A) (A) (A) (A)
                 (A) (A) (A) (A) (A) (A) (A) (A) (A) (A) (A) (A)
                 (A) (A) (A) (A) (A) (A) (A) (A) (A) (A) (A) (A)
                 (A) (A) (A) (A) (A) (A) (A) (A) (A) (A) (A) (A)
                 (A) (A) (A) (A) (A) (A) (A) (A) (A) (A) (A) (A)
                 (A) (A) (A) (A) (A) (A) (A) (A) (A) (A) (A) (A)
                 (A) (A) (A) (A) (A) (A) (A) (A) (A) (A) (A) (A)
                 (A) (A) (A) (A) (A) (A) (A) (A) (A) (A) (A) (A)
                 (A) (A) (A) (A) (A) (A) (A) (A) (A) (A) (A) (A)
                 (A) (A) (A) (A) (A) (A) (A) (A) (A) (A) (A) (A)
                 (A) (A) (A) (A) (A) (A) (A) (A) (A) (A) (A) (A)
                 (A) (A) (A) (A) (A) (A) (A) (A) (A) (A) (A) (A)
                 (A) (A) (A) (A) (A) (A) (A) (A) (A) (A) (A) (A)
                 (A) (A) (A) (A) (A) (A) (A) (A) (A) (A) (A) (A)
                 (A) (A) (A) (A)
 The electronic state of the initial guess is 1-A.
 Requested convergence on RMS density matrix=1.00D-08 within 128 cycles.
 Requested convergence on MAX density matrix=1.00D-06.
 Requested convergence on             energy=1.00D-06.
 No special actions if energy rises.
 Error on total polarization charges =  0.01408
 SCF Done:  E(RmPW1PW91) =  -594.198184321     A.U. after   13 cycles
             Convg  =    0.3514D-08             -V/T =  2.0094
 Range of M.O.s used for correlation:     1   303
 NBasis=   303 NAE=    47 NBE=    47 NFC=     0 NFV=     0
 NROrb=    303 NOA=    47 NOB=    47 NVA=   256 NVB=   256

 **** Warning!!: The largest alpha MO coefficient is  0.62065188D+02

 NEqPCM:  Using equilibrium solvation (IEInf=0, Eps=  78.3553, EpsInf=   1.7778)
          Differentiating once with respect to magnetic field using GIAOs.
          Electric field/nuclear overlap derivatives assumed to be zero.
 FoFCou: FMM=F IPFlag=           0 FMFlag=    10101102 FMFlg1=           0
         NFxFlg=    40000000 DoJE=F BraDBF=F KetDBF=T FulRan=T
         Omega=  0.000000  0.000000  1.000000  0.000000  0.000000 ICntrl=    6100 IOpCl=  0
         NMat0=    1 NMatS0=    1 NMatT0=    0 NMatD0=    1 NMtDS0=    0 NMtDT0=    0
         I1Cent=           7 NGrid=        1848.
 Symmetry not used in FoFCou.
          There are     3 degrees of freedom in the 1st order CPHF.  IDoFFX=0.
      3 vectors produced by pass  0 Test12= 4.01D-13 3.33D-08 XBig12= 2.88D+01 6.44D-01.
 AX will form     3 AO Fock derivatives at one time.
      3 vectors produced by pass  1 Test12= 4.01D-13 3.33D-08 XBig12= 7.25D-02 3.49D-02.
      3 vectors produced by pass  2 Test12= 4.01D-13 3.33D-08 XBig12= 1.34D-04 2.36D-03.
      3 vectors produced by pass  3 Test12= 4.01D-13 3.33D-08 XBig12= 5.88D-07 1.25D-04.
      3 vectors produced by pass  4 Test12= 4.01D-13 3.33D-08 XBig12= 1.87D-09 6.67D-06.
      3 vectors produced by pass  5 Test12= 4.01D-13 3.33D-08 XBig12= 6.28D-12 3.84D-07.
 Inverted reduced A of dimension    18 with in-core refinement.
 Calculating GIAO nuclear magnetic shielding tensors.
 SCF GIAO Magnetic shielding tensor (ppm):
      1  C    Isotropic =   166.1118   Anisotropy =    18.0024
   XX=   173.1084   YX=    -3.1706   ZX=     4.7613
   XY=     5.4733   YY=   172.7516   ZY=   -14.1777
   XZ=     7.1395   YZ=    -8.0144   ZZ=   152.4755
   Eigenvalues:   146.2792   173.9428   178.1134
      2  C    Isotropic =   130.8225   Anisotropy =    53.1737
   XX=   136.8144   YX=     8.7430   ZX=    -8.2274
   XY=    16.5084   YY=   153.3427   ZY=   -19.6413
   XZ=     0.9463   YZ=   -20.9389   ZZ=   102.3104
   Eigenvalues:    95.2130   130.9828   166.2716
      3  N    Isotropic =   201.7471   Anisotropy =    75.0209
   XX=   230.2695   YX=    -3.4653   ZX=   -24.1923
   XY=    -2.7593   YY=   196.8936   ZY=   -46.5373
   XZ=   -33.8817   YZ=   -48.4689   ZZ=   178.0781
   Eigenvalues:   132.7857   220.6944   251.7610
      4  C    Isotropic =   136.3762   Anisotropy =    59.5895
   XX=   157.4707   YX=    -8.4703   ZX=    15.2668
   XY=   -23.3108   YY=   119.2487   ZY=   -17.5081
   XZ=    14.5550   YZ=   -31.2268   ZZ=   132.4094
   Eigenvalues:   100.3262   132.6999   176.1026
      5  C    Isotropic =   167.2027   Anisotropy =    19.7987
   XX=   178.8270   YX=     1.7239   ZX=     3.1235
   XY=    -3.5230   YY=   171.9836   ZY=   -18.5969
   XZ=    -5.1632   YZ=   -12.8194   ZZ=   150.7976
   Eigenvalues:   142.3964   178.8099   180.4018
      6  C    Isotropic =   125.9335   Anisotropy =    41.1912
   XX=   142.4908   YX=    -0.2833   ZX=   -11.3364
   XY=   -26.6805   YY=   119.3645   ZY=    10.0166
   XZ=    -7.2120   YZ=    12.3548   ZZ=   115.9451
   Eigenvalues:   106.2152   118.1909   153.3943
      7  C    Isotropic =   118.9943   Anisotropy =    45.3525
   XX=   136.2272   YX=    -5.4981   ZX=   -16.3361
   XY=   -18.4346   YY=   124.1577   ZY=    -1.5470
   XZ=   -21.6745   YZ=     3.9473   ZZ=    96.5980
   Eigenvalues:    88.6180   119.1356   149.2293
      8  C    Isotropic =   117.5139   Anisotropy =    37.9520
   XX=   114.5310   YX=     7.4254   ZX=   -16.3616
   XY=    19.7202   YY=   134.0307   ZY=     5.3109
   XZ=   -17.8350   YZ=    -4.9920   ZZ=   103.9801
   Eigenvalues:    89.7334   119.9932   142.8152
      9  H    Isotropic =    29.8275   Anisotropy =    10.8305
   XX=    33.4577   YX=     2.3920   ZX=    -3.8042
   XY=     2.9986   YY=    28.7847   ZY=    -3.0755
   XZ=    -4.0543   YZ=    -2.7487   ZZ=    27.2399
   Eigenvalues:    24.6158    27.8188    37.0478
     10  H    Isotropic =    29.7519   Anisotropy =     7.0981
   XX=    29.0412   YX=    -0.3274   ZX=     2.7757
   XY=    -0.3611   YY=    31.4026   ZY=     3.5512
   XZ=     3.1842   YZ=     3.8578   ZZ=    28.8119
   Eigenvalues:    24.5602    30.2115    34.4840
     11  H    Isotropic =    27.8839   Anisotropy =     8.4782
   XX=    25.5969   YX=     0.7446   ZX=    -1.7283
   XY=     0.4208   YY=    24.7641   ZY=    -0.5288
   XZ=    -0.7134   YZ=    -0.7092   ZZ=    33.2908
   Eigenvalues:    24.4643    25.6514    33.5361
     12  H    Isotropic =    28.2763   Anisotropy =     9.4981
   XX=    27.0860   YX=    -0.9254   ZX=     1.2675
   XY=    -0.2207   YY=    33.5334   ZY=    -2.5968
   XZ=     1.4216   YZ=    -3.6719   ZZ=    24.2094
   Eigenvalues:    22.9456    27.2749    34.6084
     13  H    Isotropic =    28.9873   Anisotropy =     8.7327
   XX=    27.8880   YX=    -1.5364   ZX=     1.9016
   XY=    -1.7787   YY=    25.3327   ZY=    -2.6969
   XZ=     0.5562   YZ=    -2.2694   ZZ=    33.7413
   Eigenvalues:    24.1827    27.9702    34.8091
     14  H    Isotropic =    29.7799   Anisotropy =    11.0868
   XX=    29.6912   YX=    -3.3695   ZX=    -3.6174
   XY=    -3.6287   YY=    31.0915   ZY=     3.4234
   XZ=    -4.0152   YZ=     3.8910   ZZ=    28.5570
   Eigenvalues:    25.1778    26.9908    37.1711
     15  H    Isotropic =    29.6450   Anisotropy =    11.7933
   XX=    33.4053   YX=    -2.1617   ZX=     4.8978
   XY=    -2.9643   YY=    27.1242   ZY=    -2.3816
   XZ=     5.0012   YZ=    -1.9179   ZZ=    28.4056
   Eigenvalues:    25.1289    26.2990    37.5072
     16  H    Isotropic =    28.7651   Anisotropy =     6.0404
   XX=    29.5844   YX=     0.0711   ZX=    -3.0262
   XY=     0.8601   YY=    26.1107   ZY=    -1.1601
   XZ=    -1.6137   YZ=    -1.8537   ZZ=    30.6002
   Eigenvalues:    25.6336    27.8696    32.7920
     17  H    Isotropic =    27.2606   Anisotropy =     3.9562
   XX=    28.2199   YX=    -1.8200   ZX=     1.6457
   XY=    -2.8666   YY=    26.5112   ZY=     1.1439
   XZ=     0.0920   YZ=     2.3323   ZZ=    27.0507
   Eigenvalues:    23.7481    28.1357    29.8981
     18  H    Isotropic =    27.1877   Anisotropy =     3.5195
   XX=    26.3903   YX=     1.2380   ZX=     2.6695
   XY=     2.3373   YY=    28.0588   ZY=    -0.0744
   XZ=     2.5054   YZ=    -2.1382   ZZ=    27.1140
   Eigenvalues:    23.2423    28.7868    29.5340
     19  O    Isotropic =   304.5459   Anisotropy =    37.4013
   XX=   299.5446   YX=   -11.5218   ZX=    -1.6776
   XY=    -8.3439   YY=   325.2741   ZY=     7.1504
   XZ=    19.0712   YZ=    10.4043   ZZ=   288.8191
   Eigenvalues:   280.4146   303.7431   329.4801
     20  H    Isotropic =    29.5747   Anisotropy =    19.3820
   XX=    29.7048   YX=    -5.9186   ZX=    -1.1546
   XY=    -6.6224   YY=    39.3462   ZY=     0.9125
   XZ=    -2.3013   YZ=     0.0120   ZZ=    19.6731
   Eigenvalues:    19.3632    26.8649    42.4960
     21  O    Isotropic =   309.5540   Anisotropy =    67.6223
   XX=   315.9552   YX=   -10.0394   ZX=   -22.6888
   XY=     5.2204   YY=   277.1448   ZY=    -8.3948
   XZ=   -31.2320   YZ=    -4.3043   ZZ=   335.5619
   Eigenvalues:   275.4980   298.5284   354.6355
     22  H    Isotropic =    30.0992   Anisotropy =    20.3206
   XX=    29.9414   YX=    -2.7223   ZX=   -10.1322
   XY=    -3.0603   YY=    23.9171   ZY=    -0.1617
   XZ=    -9.5476   YZ=    -0.6918   ZZ=    36.4391
   Eigenvalues:    20.6909    25.9605    43.6463
     23  C    Isotropic =   133.7357   Anisotropy =    50.1534
   XX=   116.9113   YX=    -6.5521   ZX=     3.7671
   XY=     4.6778   YY=   165.6056   ZY=     7.6669
   XZ=     4.1954   YZ=     9.7523   ZZ=   118.6901
   Eigenvalues:   112.9323   121.1035   167.1713
     24  H    Isotropic =    28.0646   Anisotropy =     6.0186
   XX=    31.5194   YX=     0.3451   ZX=    -0.9900
   XY=    -1.0983   YY=    28.5945   ZY=     2.3477
   XZ=    -2.2343   YZ=     2.0391   ZZ=    24.0800
   Eigenvalues:    22.9723    29.1445    32.0770
     25  H    Isotropic =    28.2831   Anisotropy =     6.0024
   XX=    25.9716   YX=     1.0893   ZX=     3.7597
   XY=     0.7530   YY=    31.6173   ZY=    -2.6143
   XZ=     3.4969   YZ=    -0.9477   ZZ=    27.2605
   Eigenvalues:    22.5503    30.0144    32.2847
     26  O    Isotropic =   317.0358   Anisotropy =    34.4358
   XX=   339.9475   YX=    -0.8017   ZX=    -0.6730
   XY=    -0.7609   YY=   313.9653   ZY=    -0.1002
   XZ=    -1.8571   YZ=   -23.7138   ZZ=   297.1947
   Eigenvalues:   290.9718   320.1426   339.9930
     27  H    Isotropic =    28.5413   Anisotropy =    16.8447
   XX=    39.3164   YX=     0.2910   ZX=    -3.0704
   XY=    -1.1607   YY=    26.2926   ZY=     4.2671
   XZ=    -2.2329   YZ=     5.6397   ZZ=    20.0150
   Eigenvalues:    17.0866    28.7662    39.7711
 End of Minotr Frequency-dependent properties file   721 does not exist.
 End of Minotr Frequency-dependent properties file   722 does not exist.

 **********************************************************************

            Population analysis using the SCF density.

 **********************************************************************

 Orbital symmetries:
       Occupied  (A) (A) (A) (A) (A) (A) (A) (A) (A) (A) (A) (A)
                 (A) (A) (A) (A) (A) (A) (A) (A) (A) (A) (A) (A)
                 (A) (A) (A) (A) (A) (A) (A) (A) (A) (A) (A) (A)
                 (A) (A) (A) (A) (A) (A) (A) (A) (A) (A) (A)
       Virtual   (A) (A) (A) (A) (A) (A) (A) (A) (A) (A) (A) (A)
                 (A) (A) (A) (A) (A) (A) (A) (A) (A) (A) (A) (A)
                 (A) (A) (A) (A) (A) (A) (A) (A) (A) (A) (A) (A)
                 (A) (A) (A) (A) (A) (A) (A) (A) (A) (A) (A) (A)
                 (A) (A) (A) (A) (A) (A) (A) (A) (A) (A) (A) (A)
                 (A) (A) (A) (A) (A) (A) (A) (A) (A) (A) (A) (A)
                 (A) (A) (A) (A) (A) (A) (A) (A) (A) (A) (A) (A)
                 (A) (A) (A) (A) (A) (A) (A) (A) (A) (A) (A) (A)
                 (A) (A) (A) (A) (A) (A) (A) (A) (A) (A) (A) (A)
                 (A) (A) (A) (A) (A) (A) (A) (A) (A) (A) (A) (A)
                 (A) (A) (A) (A) (A) (A) (A) (A) (A) (A) (A) (A)
                 (A) (A) (A) (A) (A) (A) (A) (A) (A) (A) (A) (A)
                 (A) (A) (A) (A) (A) (A) (A) (A) (A) (A) (A) (A)
                 (A) (A) (A) (A) (A) (A) (A) (A) (A) (A) (A) (A)
                 (A) (A) (A) (A) (A) (A) (A) (A) (A) (A) (A) (A)
                 (A) (A) (A) (A) (A) (A) (A) (A) (A) (A) (A) (A)
                 (A) (A) (A) (A) (A) (A) (A) (A) (A) (A) (A) (A)
                 (A) (A) (A) (A) (A) (A) (A) (A) (A) (A) (A) (A)
                 (A) (A) (A) (A) (A) (A) (A) (A) (A) (A) (A) (A)
                 (A) (A) (A) (A) (A) (A) (A) (A) (A) (A) (A) (A)
                 (A) (A) (A) (A) (A) (A) (A) (A) (A) (A) (A) (A)
                 (A) (A) (A) (A)
 The electronic state is 1-A.
 Alpha  occ. eigenvalues --  -19.26359 -19.25974 -19.24646 -14.42061 -10.30604
 Alpha  occ. eigenvalues --  -10.30568 -10.29044 -10.28142 -10.28139 -10.27158
 Alpha  occ. eigenvalues --  -10.24701 -10.24598  -1.07448  -1.05658  -1.05086
 Alpha  occ. eigenvalues --   -0.96664  -0.82939  -0.79399  -0.74914  -0.71779
 Alpha  occ. eigenvalues --   -0.66868  -0.61282  -0.61092  -0.57857  -0.55861
 Alpha  occ. eigenvalues --   -0.53352  -0.51481  -0.49908  -0.49498  -0.47283
 Alpha  occ. eigenvalues --   -0.46566  -0.44443  -0.44104  -0.42275  -0.40113
 Alpha  occ. eigenvalues --   -0.39440  -0.38857  -0.37602  -0.36590  -0.35770
 Alpha  occ. eigenvalues --   -0.34755  -0.34339  -0.33847  -0.31077  -0.29390
 Alpha  occ. eigenvalues --   -0.28963  -0.23803
 Alpha virt. eigenvalues --    0.00739   0.00902   0.01654   0.02085   0.03891
 Alpha virt. eigenvalues --    0.04419   0.04510   0.04843   0.05416   0.07337
 Alpha virt. eigenvalues --    0.07997   0.08302   0.08664   0.09453   0.09739
 Alpha virt. eigenvalues --    0.09867   0.10888   0.11842   0.12439   0.12788
 Alpha virt. eigenvalues --    0.13221   0.13584   0.14242   0.14984   0.15512
 Alpha virt. eigenvalues --    0.16192   0.16490   0.16820   0.17623   0.18202
 Alpha virt. eigenvalues --    0.18545   0.18939   0.19712   0.19840   0.21108
 Alpha virt. eigenvalues --    0.21188   0.21894   0.22271   0.23142   0.23520
 Alpha virt. eigenvalues --    0.23705   0.24209   0.25013   0.25492   0.26197
 Alpha virt. eigenvalues --    0.26806   0.27309   0.27827   0.28729   0.29210
 Alpha virt. eigenvalues --    0.29561   0.29837   0.30534   0.30976   0.31856
 Alpha virt. eigenvalues --    0.32080   0.33599   0.33974   0.34488   0.34879
 Alpha virt. eigenvalues --    0.35687   0.36243   0.36539   0.37959   0.38363
 Alpha virt. eigenvalues --    0.38609   0.39361   0.39713   0.41481   0.42056
 Alpha virt. eigenvalues --    0.42427   0.44109   0.45126   0.46296   0.46505
 Alpha virt. eigenvalues --    0.48306   0.65543   0.66484   0.67824   0.68433
 Alpha virt. eigenvalues --    0.69019   0.70316   0.71395   0.73944   0.74341
 Alpha virt. eigenvalues --    0.76053   0.76609   0.77487   0.79808   0.81054
 Alpha virt. eigenvalues --    0.82165   0.83170   0.84270   0.85605   0.86182
 Alpha virt. eigenvalues --    0.90491   0.92752   0.94988   0.95742   0.97922
 Alpha virt. eigenvalues --    0.98473   0.99739   1.01790   1.03843   1.05472
 Alpha virt. eigenvalues --    1.07479   1.08282   1.09049   1.09832   1.10676
 Alpha virt. eigenvalues --    1.11811   1.12172   1.14752   1.15109   1.15863
 Alpha virt. eigenvalues --    1.16880   1.17930   1.19328   1.22862   1.25141
 Alpha virt. eigenvalues --    1.25443   1.27915   1.29064   1.32121   1.33098
 Alpha virt. eigenvalues --    1.34074   1.35247   1.36886   1.40008   1.42020
 Alpha virt. eigenvalues --    1.45235   1.45668   1.47566   1.50688   1.52452
 Alpha virt. eigenvalues --    1.54340   1.57535   1.58669   1.59376   1.60582
 Alpha virt. eigenvalues --    1.63269   1.64632   1.66012   1.66854   1.71846
 Alpha virt. eigenvalues --    1.72780   1.74953   1.76545   1.78416   1.79487
 Alpha virt. eigenvalues --    1.80404   1.82212   1.84001   1.84938   1.85763
 Alpha virt. eigenvalues --    1.87930   1.90059   1.91292   1.92122   1.94175
 Alpha virt. eigenvalues --    1.95325   1.99020   2.00525   2.02403   2.02991
 Alpha virt. eigenvalues --    2.04753   2.07906   2.08656   2.10231   2.11419
 Alpha virt. eigenvalues --    2.12603   2.14253   2.17479   2.19654   2.20356
 Alpha virt. eigenvalues --    2.20650   2.20986   2.24216   2.27219   2.27522
 Alpha virt. eigenvalues --    2.30111   2.30971   2.33333   2.36842   2.39354
 Alpha virt. eigenvalues --    2.39596   2.41841   2.44434   2.45333   2.46944
 Alpha virt. eigenvalues --    2.48609   2.49975   2.52281   2.53439   2.55825
 Alpha virt. eigenvalues --    2.58341   2.58429   2.59289   2.60207   2.62293
 Alpha virt. eigenvalues --    2.62514   2.65928   2.67088   2.67568   2.70287
 Alpha virt. eigenvalues --    2.71046   2.72199   2.74989   2.76610   2.77710
 Alpha virt. eigenvalues --    2.80118   2.80820   2.82428   2.83627   2.85180
 Alpha virt. eigenvalues --    2.87292   2.89161   2.90966   2.93495   2.96677
 Alpha virt. eigenvalues --    2.97167   2.97711   3.00867   3.01269   3.03617
 Alpha virt. eigenvalues --    3.05872   3.07867   3.15452   3.17913   3.32309
 Alpha virt. eigenvalues --    3.34524   3.36278   3.37708   3.40681   3.46454
 Alpha virt. eigenvalues --    3.49090   3.51804   3.52287   3.53863   3.55040
 Alpha virt. eigenvalues --    3.56746   3.57903   3.58560   3.64395   4.32885
 Alpha virt. eigenvalues --    4.35889   4.41373   4.43070   4.50895   4.53526
 Alpha virt. eigenvalues --    4.62610   4.66054   4.77034   4.81773   4.85191
 Alpha virt. eigenvalues --    4.94128
          Condensed to atoms (all electrons):
              1          2          3          4          5          6
     1  C    5.928276  -0.558819   0.140738  -0.098407   0.040485   0.016311
     2  C   -0.558819   8.209916  -0.294255  -0.412451   0.377413  -0.379636
     3  N    0.140738  -0.294255   7.520066   0.192519  -0.253821  -0.139833
     4  C   -0.098407  -0.412451   0.192519   5.635007   0.009409   0.008284
     5  C    0.040485   0.377413  -0.253821   0.009409   5.697677   0.008097
     6  C    0.016311  -0.379636  -0.139833   0.008284   0.008097   8.048714
     7  C   -0.068766   0.132881  -0.025638  -0.155452   0.111331  -0.976242
     8  C    0.006895  -0.530078  -0.059008   0.213439  -0.153944   0.138742
     9  H    0.371570  -0.055464   0.013728   0.022302  -0.011577  -0.003404
    10  H    0.521380  -0.211585   0.038494   0.030485  -0.098480   0.003651
    11  H    0.061153   0.176829  -0.007664   0.019987  -0.035928   0.008943
    12  H    0.024764   0.011566  -0.051864   0.403589  -0.033176  -0.024351
    13  H    0.006803  -0.007764  -0.076222   0.413661  -0.029495   0.021970
    14  H   -0.000140  -0.051631   0.019750  -0.019581   0.365657   0.004388
    15  H   -0.061505   0.048421   0.004648  -0.019179   0.374986  -0.006350
    16  H   -0.004458   0.029329  -0.057385   0.001356   0.011842   0.323024
    17  H   -0.000574  -0.017642   0.015440   0.017384  -0.011264  -0.021959
    18  H   -0.006489  -0.091252   0.013786   0.005009  -0.003859   0.036402
    19  O    0.012734  -0.206968   0.027957  -0.002447   0.010436   0.002548
    20  H   -0.009789   0.063725  -0.003758  -0.001219   0.000252   0.014785
    21  O    0.004629   0.042867   0.030910  -0.006275   0.003676  -0.141378
    22  H    0.001991  -0.008616   0.002439   0.002903  -0.001391  -0.040881
    23  C    0.046142  -0.167327   0.088205  -0.028768  -0.040663  -0.390611
    24  H    0.001414   0.005795   0.009027  -0.003347  -0.000578  -0.118177
    25  H   -0.003151   0.016273   0.006260  -0.002238   0.003705  -0.154987
    26  O    0.006183  -0.024168   0.001342  -0.022587   0.001500  -0.111327
    27  H    0.000147   0.025661   0.050543  -0.003736  -0.002082  -0.078849
              7          8          9         10         11         12
     1  C   -0.068766   0.006895   0.371570   0.521380   0.061153   0.024764
     2  C    0.132881  -0.530078  -0.055464  -0.211585   0.176829   0.011566
     3  N   -0.025638  -0.059008   0.013728   0.038494  -0.007664  -0.051864
     4  C   -0.155452   0.213439   0.022302   0.030485   0.019987   0.403589
     5  C    0.111331  -0.153944  -0.011577  -0.098480  -0.035928  -0.033176
     6  C   -0.976242   0.138742  -0.003404   0.003651   0.008943  -0.024351
     7  C    6.734440  -0.116259   0.003497  -0.007064  -0.001049   0.002140
     8  C   -0.116259   5.895067  -0.001564   0.044006   0.039665  -0.007416
     9  H    0.003497  -0.001564   0.514502  -0.022819  -0.004257  -0.000098
    10  H   -0.007064   0.044006  -0.022819   0.516144   0.003986  -0.000058
    11  H   -0.001049   0.039665  -0.004257   0.003986   0.551883   0.000193
    12  H    0.002140  -0.007416  -0.000098  -0.000058   0.000193   0.544610
    13  H   -0.011904   0.008579  -0.000119   0.000917  -0.000437  -0.040166
    14  H   -0.003175   0.009972  -0.004602   0.004142   0.001045  -0.006254
    15  H    0.001268  -0.000584   0.000072  -0.005151  -0.000097   0.000969
    16  H    0.039046  -0.003807   0.000003  -0.000030  -0.000191   0.000012
    17  H    0.380827  -0.030183   0.000040   0.000240  -0.000058   0.000029
    18  H   -0.059971   0.430578  -0.000056   0.000019  -0.007246   0.000007
    19  O   -0.046876   0.267500   0.000930   0.000924   0.007683   0.000065
    20  H   -0.076493   0.024121  -0.000002  -0.000163  -0.000278   0.000000
    21  O    0.286728  -0.146346  -0.000004  -0.000165  -0.000007   0.000114
    22  H    0.044707   0.019824   0.000000   0.000004   0.000004   0.000000
    23  C   -0.110475   0.001272   0.000130  -0.001238   0.009692   0.005625
    24  H   -0.005409  -0.005980   0.000000   0.000000  -0.000002  -0.000009
    25  H    0.096319  -0.010977   0.000001  -0.000001  -0.000136   0.000010
    26  O    0.030861   0.003382   0.000014   0.000039   0.001695   0.003381
    27  H    0.012360  -0.013715  -0.000002  -0.000001  -0.000378  -0.001324
             13         14         15         16         17         18
     1  C    0.006803  -0.000140  -0.061505  -0.004458  -0.000574  -0.006489
     2  C   -0.007764  -0.051631   0.048421   0.029329  -0.017642  -0.091252
     3  N   -0.076222   0.019750   0.004648  -0.057385   0.015440   0.013786
     4  C    0.413661  -0.019581  -0.019179   0.001356   0.017384   0.005009
     5  C   -0.029495   0.365657   0.374986   0.011842  -0.011264  -0.003859
     6  C    0.021970   0.004388  -0.006350   0.323024  -0.021959   0.036402
     7  C   -0.011904  -0.003175   0.001268   0.039046   0.380827  -0.059971
     8  C    0.008579   0.009972  -0.000584  -0.003807  -0.030183   0.430578
     9  H   -0.000119  -0.004602   0.000072   0.000003   0.000040  -0.000056
    10  H    0.000917   0.004142  -0.005151  -0.000030   0.000240   0.000019
    11  H   -0.000437   0.001045  -0.000097  -0.000191  -0.000058  -0.007246
    12  H   -0.040166  -0.006254   0.000969   0.000012   0.000029   0.000007
    13  H    0.556597   0.003929  -0.004974   0.003966   0.000070  -0.000005
    14  H    0.003929   0.521494  -0.024137  -0.000012   0.000006   0.000004
    15  H   -0.004974  -0.024137   0.512732  -0.000015   0.000008   0.000002
    16  H    0.003966  -0.000012  -0.000015   0.536075  -0.007698  -0.000252
    17  H    0.000070   0.000006   0.000008  -0.007698   0.546643   0.004430
    18  H   -0.000005   0.000004   0.000002  -0.000252   0.004430   0.558922
    19  O   -0.000114   0.000114   0.000006  -0.000667  -0.003405  -0.043855
    20  H    0.000001   0.000000   0.000000   0.000001  -0.000565  -0.005630
    21  O   -0.000805  -0.000003  -0.000005  -0.001338  -0.046895  -0.003429
    22  H    0.000005   0.000000   0.000000   0.001204  -0.005620   0.000140
    23  C   -0.008475   0.000087   0.000501  -0.052966  -0.000249   0.000728
    24  H    0.000011   0.000000   0.000000  -0.004876  -0.000113   0.000106
    25  H   -0.000010  -0.000001   0.000000   0.004685  -0.000269  -0.001554
    26  O   -0.000925   0.000004  -0.000003   0.004277  -0.000739  -0.000677
    27  H    0.000333   0.000018  -0.000002  -0.000280  -0.000014   0.000033
             19         20         21         22         23         24
     1  C    0.012734  -0.009789   0.004629   0.001991   0.046142   0.001414
     2  C   -0.206968   0.063725   0.042867  -0.008616  -0.167327   0.005795
     3  N    0.027957  -0.003758   0.030910   0.002439   0.088205   0.009027
     4  C   -0.002447  -0.001219  -0.006275   0.002903  -0.028768  -0.003347
     5  C    0.010436   0.000252   0.003676  -0.001391  -0.040663  -0.000578
     6  C    0.002548   0.014785  -0.141378  -0.040881  -0.390611  -0.118177
     7  C   -0.046876  -0.076493   0.286728   0.044707  -0.110475  -0.005409
     8  C    0.267500   0.024121  -0.146346   0.019824   0.001272  -0.005980
     9  H    0.000930  -0.000002  -0.000004   0.000000   0.000130   0.000000
    10  H    0.000924  -0.000163  -0.000165   0.000004  -0.001238   0.000000
    11  H    0.007683  -0.000278  -0.000007   0.000004   0.009692  -0.000002
    12  H    0.000065   0.000000   0.000114   0.000000   0.005625  -0.000009
    13  H   -0.000114   0.000001  -0.000805   0.000005  -0.008475   0.000011
    14  H    0.000114   0.000000  -0.000003   0.000000   0.000087   0.000000
    15  H    0.000006   0.000000  -0.000005   0.000000   0.000501   0.000000
    16  H   -0.000667   0.000001  -0.001338   0.001204  -0.052966  -0.004876
    17  H   -0.003405  -0.000565  -0.046895  -0.005620  -0.000249  -0.000113
    18  H   -0.043855  -0.005630  -0.003429   0.000140   0.000728   0.000106
    19  O    8.285647   0.222001  -0.007425   0.000447   0.008882   0.000080
    20  H    0.222001   0.378893   0.009687  -0.000406  -0.000139  -0.000001
    21  O   -0.007425   0.009687   8.258110   0.244044   0.015499   0.004804
    22  H    0.000447  -0.000406   0.244044   0.362423  -0.015736   0.000022
    23  C    0.008882  -0.000139   0.015499  -0.015736   5.589149   0.499110
    24  H    0.000080  -0.000001   0.004804   0.000022   0.499110   0.542055
    25  H   -0.000502   0.000005  -0.008478   0.000306   0.405168  -0.038579
    26  O    0.000317  -0.000005   0.000201  -0.000006   0.211069  -0.058693
    27  H   -0.000001   0.000000  -0.000051  -0.000002   0.031238   0.006630
             25         26         27
     1  C   -0.003151   0.006183   0.000147
     2  C    0.016273  -0.024168   0.025661
     3  N    0.006260   0.001342   0.050543
     4  C   -0.002238  -0.022587  -0.003736
     5  C    0.003705   0.001500  -0.002082
     6  C   -0.154987  -0.111327  -0.078849
     7  C    0.096319   0.030861   0.012360
     8  C   -0.010977   0.003382  -0.013715
     9  H    0.000001   0.000014  -0.000002
    10  H   -0.000001   0.000039  -0.000001
    11  H   -0.000136   0.001695  -0.000378
    12  H    0.000010   0.003381  -0.001324
    13  H   -0.000010  -0.000925   0.000333
    14  H   -0.000001   0.000004   0.000018
    15  H    0.000000  -0.000003  -0.000002
    16  H    0.004685   0.004277  -0.000280
    17  H   -0.000269  -0.000739  -0.000014
    18  H   -0.001554  -0.000677   0.000033
    19  O   -0.000502   0.000317  -0.000001
    20  H    0.000005  -0.000005   0.000000
    21  O   -0.008478   0.000201  -0.000051
    22  H    0.000306  -0.000006  -0.000002
    23  C    0.405168   0.211069   0.031238
    24  H   -0.038579  -0.058693   0.006630
    25  H    0.590045  -0.048794  -0.003601
    26  O   -0.048794   8.311464   0.227416
    27  H   -0.003601   0.227416   0.366209
 Mulliken atomic charges:
              1
     1  C   -0.379514
     2  C   -0.123020
     3  N   -0.206406
     4  C   -0.199646
     5  C   -0.340210
     6  C   -0.047872
     7  C   -0.211632
     8  C   -0.023180
     9  H    0.177179
    10  H    0.182325
    11  H    0.174968
    12  H    0.167641
    13  H    0.164574
    14  H    0.178925
    15  H    0.178391
    16  H    0.179154
    17  H    0.182130
    18  H    0.174109
    19  O   -0.536010
    20  H    0.384977
    21  O   -0.538666
    22  H    0.392194
    23  C   -0.095851
    24  H    0.166709
    25  H    0.150501
    26  O   -0.535220
    27  H    0.383447
 Sum of Mulliken atomic charges =   0.00000
 Mulliken charges with hydrogens summed into heavy atoms:
              1
     1  C   -0.020010
     2  C    0.051949
     3  N   -0.206406
     4  C    0.132569
     5  C    0.017107
     6  C    0.131282
     7  C   -0.029502
     8  C    0.150929
    19  O   -0.151033
    21  O   -0.146472
    23  C    0.221360
    26  O   -0.151772
 Sum of Mulliken charges with hydrogens summed into heavy atoms =   0.00000
 Electronic spatial extent (au):  <R**2>=           2044.9423
 Charge=              0.0000 electrons
 Dipole moment (field-independent basis, Debye):
    X=              1.5835    Y=              1.2696    Z=              2.8905  Tot=              3.5319
 Quadrupole moment (field-independent basis, Debye-Ang):
   XX=            -77.9828   YY=            -80.8279   ZZ=            -67.5742
   XY=            -12.3943   XZ=             -5.0580   YZ=             -0.1346
 Traceless Quadrupole moment (field-independent basis, Debye-Ang):
   XX=             -2.5212   YY=             -5.3663   ZZ=              7.8874
   XY=            -12.3943   XZ=             -5.0580   YZ=             -0.1346
 Octapole moment (field-independent basis, Debye-Ang**2):
  XXX=              5.5479  YYY=             28.9429  ZZZ=              8.8825  XYY=             14.0142
  XXY=             13.5522  XXZ=             18.8720  XZZ=            -10.2429  YZZ=              8.7898
  YYZ=              7.0963  XYZ=              2.7121
 Hexadecapole moment (field-independent basis, Debye-Ang**3):
 XXXX=          -1297.0994 YYYY=           -998.2619 ZZZZ=           -260.9473 XXXY=            -63.4593
 XXXZ=            -52.8071 YYYX=            -75.5319 YYYZ=              0.8719 ZZZX=            -23.5482
 ZZZY=             17.2237 XXYY=           -481.1407 XXZZ=           -239.1850 YYZZ=           -217.2026
 XXYZ=              0.6065 YYXZ=            -12.7400 ZZXY=            -23.2143
 N-N= 8.059340068989D+02 E-N=-2.997517754754D+03  KE= 5.886534935656D+02
 1\1\GINC-COMPUTE-3-2\SP\RmPW1PW91\6-31+G(d,p)\C8H15N1O3\MAMICHETTI.IQU
 IR\17-May-2024\0\\# mpw1pw91/6-31+G** nmr scrf=(pcm,solvent=water)\\co
 mment\\0,1\C,0,2.367457,0.215276,-0.113518\C,0,0.984307,0.170757,-0.78
 4263\N,0,0.255452,-0.987043,-0.144855\C,0,1.205785,-1.666171,0.77568\C
 ,0,2.591599,-1.25193,0.278267\C,0,-0.977162,-0.473695,0.501718\C,0,-0.
 746496,1.040383,0.657651\C,0,0.076249,1.396602,-0.581235\H,0,3.138377,
 0.613457,-0.77995\H,0,2.343271,0.841071,0.785619\H,0,1.111797,-0.02649
 9,-1.85462\H,0,1.048076,-2.75041,0.762294\H,0,1.064845,-1.323572,1.811
 982\H,0,2.877518,-1.843527,-0.600188\H,0,3.364399,-1.38428,1.041606\H,
 0,-1.102666,-0.966077,1.47196\H,0,-0.130592,1.224888,1.548154\H,0,-0.6
 12508,1.496278,-1.431924\O,0,0.842328,2.592997,-0.452666\H,0,0.204486,
 3.318388,-0.34186\O,0,-1.924671,1.846669,0.702849\H,0,-2.348237,1.6970
 08,1.564802\C,0,-2.194701,-0.832089,-0.360185\H,0,-3.125101,-0.621988,
 0.1754\H,0,-2.201733,-0.246559,-1.29164\O,0,-2.171425,-2.230137,-0.651
 89\H,0,-1.232181,-2.389912,-0.878677\\Version=AM64L-G09RevC.01\State=1
 -A\HF=-594.1981843\RMSD=3.514e-09\Dipole=0.6229976,0.4994885,1.1372197
 \Quadrupole=-1.8744141,-3.9896959,5.86411,-9.2148639,-3.7604856,-0.100
 0851\PG=C01 [X(C8H15N1O3)]\\@


 SI MONUMENTUM REQUIRIS, CIRCUMSPICE
     -- FROM SIR CHRISTOPHER WREN'S TOMBSTONE
 Job cpu time:  0 days  0 hours  8 minutes 36.8 seconds.
 File lengths (MBytes):  RWF=    114 Int=      0 D2E=      0 Chk=      7 Scr=      1
 Normal termination of Gaussian 09 at Fri May 17 12:48:48 2024.
