 Entering Gaussian System, Link 0=g09
 Input=/home/mamichetti.iquir/Linux/03_Cardona_A1A3_R__S_S_R_022_OptB.gjc
 Output=/home/mamichetti.iquir/Linux/03_Cardona_A1A3_R__S_S_R_022_OptB.log
 Initial command:
 /opt/ohpc/pub/apps/software/Gaussian/09/AMD64.SSE4a-enabled/g09/l1.exe /local/mamichetti.iquir/Gau-131643.inp -scrdir=/local/mamichetti.iquir/
 Entering Link 1 = /opt/ohpc/pub/apps/software/Gaussian/09/AMD64.SSE4a-enabled/g09/l1.exe PID=    131644.
  
 Copyright (c) 1988,1990,1992,1993,1995,1998,2003,2009,2011,
            Gaussian, Inc.  All Rights Reserved.
  
 This is part of the Gaussian(R) 09 program.  It is based on
 the Gaussian(R) 03 system (copyright 2003, Gaussian, Inc.),
 the Gaussian(R) 98 system (copyright 1998, Gaussian, Inc.),
 the Gaussian(R) 94 system (copyright 1995, Gaussian, Inc.),
 the Gaussian 92(TM) system (copyright 1992, Gaussian, Inc.),
 the Gaussian 90(TM) system (copyright 1990, Gaussian, Inc.),
 the Gaussian 88(TM) system (copyright 1988, Gaussian, Inc.),
 the Gaussian 86(TM) system (copyright 1986, Carnegie Mellon
 University), and the Gaussian 82(TM) system (copyright 1983,
 Carnegie Mellon University). Gaussian is a federally registered
 trademark of Gaussian, Inc.
  
 This software contains proprietary and confidential information,
 including trade secrets, belonging to Gaussian, Inc.
  
 This software is provided under written license and may be
 used, copied, transmitted, or stored only in accord with that
 written license.
  
 The following legend is applicable only to US Government
 contracts under FAR:
  
                    RESTRICTED RIGHTS LEGEND
  
 Use, reproduction and disclosure by the US Government is
 subject to restrictions as set forth in subparagraphs (a)
 and (c) of the Commercial Computer Software - Restricted
 Rights clause in FAR 52.227-19.
  
 Gaussian, Inc.
 340 Quinnipiac St., Bldg. 40, Wallingford CT 06492
  
  
 ---------------------------------------------------------------
 Warning -- This program may not be used in any manner that
 competes with the business of Gaussian, Inc. or will provide
 assistance to any competitor of Gaussian, Inc.  The licensee
 of this program is prohibited from giving any competitor of
 Gaussian, Inc. access to this program.  By using this program,
 the user acknowledges that Gaussian, Inc. is engaged in the
 business of creating and licensing software in the field of
 computational chemistry and represents and warrants to the
 licensee that it is not a competitor of Gaussian, Inc. and that
 it will not use this program in any manner prohibited above.
 ---------------------------------------------------------------
  

 Cite this work as:
 Gaussian 09, Revision C.01,
 M. J. Frisch, G. W. Trucks, H. B. Schlegel, G. E. Scuseria, 
 M. A. Robb, J. R. Cheeseman, G. Scalmani, V. Barone, B. Mennucci, 
 G. A. Petersson, H. Nakatsuji, M. Caricato, X. Li, H. P. Hratchian, 
 A. F. Izmaylov, J. Bloino, G. Zheng, J. L. Sonnenberg, M. Hada, 
 M. Ehara, K. Toyota, R. Fukuda, J. Hasegawa, M. Ishida, T. Nakajima, 
 Y. Honda, O. Kitao, H. Nakai, T. Vreven, J. A. Montgomery, Jr., 
 J. E. Peralta, F. Ogliaro, M. Bearpark, J. J. Heyd, E. Brothers, 
 K. N. Kudin, V. N. Staroverov, T. Keith, R. Kobayashi, J. Normand, 
 K. Raghavachari, A. Rendell, J. C. Burant, S. S. Iyengar, J. Tomasi, 
 M. Cossi, N. Rega, J. M. Millam, M. Klene, J. E. Knox, J. B. Cross, 
 V. Bakken, C. Adamo, J. Jaramillo, R. Gomperts, R. E. Stratmann, 
 O. Yazyev, A. J. Austin, R. Cammi, C. Pomelli, J. W. Ochterski, 
 R. L. Martin, K. Morokuma, V. G. Zakrzewski, G. A. Voth, 
 P. Salvador, J. J. Dannenberg, S. Dapprich, A. D. Daniels, 
 O. Farkas, J. B. Foresman, J. V. Ortiz, J. Cioslowski, 
 and D. J. Fox, Gaussian, Inc., Wallingford CT, 2010.
 
 ******************************************
 Gaussian 09:  AM64L-G09RevC.01 23-Sep-2011
                17-May-2024 
 ******************************************
 %nprocshared=4
 Will use up to    4 processors via shared memory.
 ------------------------------------------------
 # mpw1pw91/6-31+G** nmr scrf=(pcm,solvent=water)
 ------------------------------------------------
 1/38=1/1;
 2/12=2,17=6,18=5,40=1/2;
 3/5=1,6=6,7=111,11=2,16=1,25=1,30=1,70=2201,72=1,74=-7/1,2,8,3;
 4//1;
 5/5=2,38=5,53=1/2;
 8/6=1,10=90,11=11/1;
 10/13=100,45=16/2;
 6/7=2,8=2,9=2,10=2,28=1/1;
 99/9=1/99;
 -------
 comment
 -------
 Charge =  0 Multiplicity = 1
 Symbolic Z-Matrix:
 6                    -2.4889    0.28568  -0.43816 
 6                    -1.11671  -0.36129  -0.70593 
 7                    -0.08742   0.68033  -0.37197 
 6                    -0.77655   1.779     0.32404 
 6                    -2.16781   1.78716  -0.3092 
 6                     1.01711   0.03415   0.36746 
 6                     0.81318  -1.48344   0.15782 
 6                    -0.72385  -1.60563   0.10511 
 1                    -3.2067    0.07009  -1.23494 
 1                    -2.90755  -0.08811   0.50041 
 1                    -1.02394  -0.62808  -1.76768 
 1                    -0.24138   2.72573   0.19391 
 1                    -0.8508    1.59006   1.40988 
 1                    -2.12559   2.25772  -1.29879 
 1                    -2.90105   2.33196   0.29387 
 1                     0.91124   0.22965   1.44687 
 1                     1.23124  -2.06112   0.98691 
 1                    -1.03552  -2.54067  -0.37735 
 8                    -1.26774  -1.50877   1.42493 
 1                    -0.93065  -2.26887   1.92905 
 8                     1.4429   -2.01044  -1.01476 
 1                     1.12511  -1.51611  -1.78891 
 6                     2.39848   0.51755  -0.0462 
 1                     3.16468  -0.11383   0.42822 
 1                     2.51619   0.43544  -1.13393 
 8                     2.54538   1.88134   0.37317 
 1                     3.39267   2.19762   0.01982 
 
                          Input orientation:                          
 ---------------------------------------------------------------------
 Center     Atomic      Atomic             Coordinates (Angstroms)
 Number     Number       Type             X           Y           Z
 ---------------------------------------------------------------------
      1          6           0       -2.488899    0.285681   -0.438156
      2          6           0       -1.116707   -0.361287   -0.705930
      3          7           0       -0.087421    0.680327   -0.371966
      4          6           0       -0.776553    1.779004    0.324043
      5          6           0       -2.167807    1.787157   -0.309200
      6          6           0        1.017108    0.034152    0.367458
      7          6           0        0.813175   -1.483437    0.157817
      8          6           0       -0.723846   -1.605626    0.105111
      9          1           0       -3.206699    0.070091   -1.234941
     10          1           0       -2.907553   -0.088111    0.500408
     11          1           0       -1.023935   -0.628076   -1.767680
     12          1           0       -0.241376    2.725731    0.193908
     13          1           0       -0.850796    1.590058    1.409879
     14          1           0       -2.125593    2.257724   -1.298791
     15          1           0       -2.901049    2.331955    0.293871
     16          1           0        0.911236    0.229652    1.446867
     17          1           0        1.231239   -2.061123    0.986909
     18          1           0       -1.035521   -2.540669   -0.377353
     19          8           0       -1.267740   -1.508772    1.424934
     20          1           0       -0.930651   -2.268874    1.929045
     21          8           0        1.442895   -2.010443   -1.014756
     22          1           0        1.125106   -1.516107   -1.788905
     23          6           0        2.398483    0.517554   -0.046198
     24          1           0        3.164678   -0.113825    0.428222
     25          1           0        2.516186    0.435444   -1.133927
     26          8           0        2.545379    1.881344    0.373167
     27          1           0        3.392673    2.197618    0.019817
 ---------------------------------------------------------------------
                    Distance matrix (angstroms):
                    1          2          3          4          5
     1  C    0.000000
     2  C    1.540513   0.000000
     3  N    2.434589   1.501972   0.000000
     4  C    2.396474   2.399457   1.471877   0.000000
     5  C    1.540831   2.424462   2.357333   1.528611   0.000000
     6  C    3.606157   2.421095   1.477929   2.502721   3.697915
     7  C    3.793238   2.393684   2.402835   3.632959   4.449848
     8  C    2.643406   1.536394   2.420376   3.392113   3.710479
     9  H    1.093884   2.198637   3.293480   3.355060   2.210115
    10  H    1.093569   2.176466   3.050357   2.838729   2.172399
    11  H    2.179152   1.098679   2.130022   3.198521   3.044496
    12  H    3.377086   3.332506   2.127814   1.095281   2.201176
    13  H    2.792851   2.890520   2.141337   1.104650   2.174534
    14  H    2.182118   2.868546   2.738856   2.163948   1.096588
    15  H    2.212006   3.381868   3.329822   2.195484   1.094597
    16  H    3.888106   3.016007   2.123341   2.551442   3.871705
    17  H    4.623605   3.356784   3.331809   4.383742   5.295533
    18  H    3.178720   2.205507   3.357639   4.383902   4.474013
    19  O    2.860489   2.424895   3.068250   3.501813   3.831513
    20  H    3.815433   3.258312   3.834511   4.357189   4.794964
    21  O    4.589516   3.060499   3.161533   4.591105   5.287414
    22  H    4.258168   2.744480   2.881364   4.351852   4.893297
    23  C    4.908554   3.682956   2.512437   3.436450   4.746795
    24  H    5.733511   4.435966   3.441965   4.373438   5.709021
    25  H    5.055433   3.743778   2.723843   3.843561   4.944400
    26  O    5.343065   4.427722   2.988194   3.323871   4.763257
    27  H    6.201462   5.235381   3.816637   4.201218   5.585308
                    6          7          8          9         10
     6  C    0.000000
     7  C    1.545514   0.000000
     8  C    2.405955   1.542771   0.000000
     9  H    4.517690   4.529085   3.281513   0.000000
    10  H    3.928815   3.988498   2.688436   1.768036   0.000000
    11  H    3.027081   2.795381   2.133777   2.352808   2.997299
    12  H    2.976323   4.339410   4.359050   4.229323   3.888464
    13  H    2.645099   3.712523   3.454118   3.854303   2.806000
    14  H    4.194905   4.975374   4.342961   2.441025   3.058026
    15  H    4.542826   5.326461   4.503375   2.747129   2.428872
    16  H    1.102068   2.146145   2.800366   4.916802   3.947139
    17  H    2.195393   1.093569   2.192579   5.401295   4.610755
    18  H    3.376053   2.195865   1.097369   3.502219   3.207804
    19  O    2.952863   2.436480   1.430781   3.650658   2.358392
    20  H    3.396505   2.606739   1.951769   4.545543   3.271830
    21  O    2.504432   1.431506   2.472397   5.098610   4.991741
    22  H    2.657982   1.971825   2.648383   4.646228   4.852058
    23  C    1.520850   2.561013   3.778852   5.747295   5.368391
    24  H    2.153520   2.734689   4.177378   6.587441   6.072714
    25  H    2.159265   2.872447   4.024797   5.735425   5.688770
    26  O    2.397449   3.790601   4.787342   6.241238   5.799087
    27  H    3.231834   4.497001   5.605147   7.046453   6.719254
                   11         12         13         14         15
    11  H    0.000000
    12  H    3.963363   0.000000
    13  H    3.879043   1.771929   0.000000
    14  H    3.124316   2.448970   3.067210   0.000000
    15  H    4.066366   2.690523   2.449372   1.772968   0.000000
    16  H    3.848883   3.021396   2.226394   4.568812   4.503620
    17  H    3.837603   5.070643   4.224322   5.928337   6.070852
    18  H    2.364562   5.356489   4.504578   5.006184   5.260532
    19  O    3.320821   4.527678   3.126790   4.726635   4.324140
    20  H    4.045577   5.332155   3.894517   5.686554   5.265348
    21  O    2.926275   5.170008   4.909530   5.570640   6.280030
    22  H    2.325387   4.877705   4.876953   5.004903   5.946046
    23  C    3.998614   3.450008   3.718634   5.006440   5.611839
    24  H    4.757197   4.440629   4.471118   6.049280   6.541631
    25  H    3.750357   3.822657   4.375003   4.989388   5.914541
    26  O    4.860084   2.917384   3.562811   4.975448   5.465612
    27  H    5.539505   3.676346   4.506488   5.673940   6.301118
                   16         17         18         19         20
    16  H    0.000000
    17  H    2.358307   0.000000
    18  H    3.846079   2.688750   0.000000
    19  O    2.787568   2.596508   2.089731   0.000000
    20  H    3.141286   2.367393   2.324724   0.972374   0.000000
    21  O    3.370501   2.013462   2.613421   3.681209   3.790313
    22  H    3.682884   2.830804   2.776781   4.006810   4.314620
    23  C    2.126978   3.013195   4.610290   4.439754   4.769581
    24  H    2.496721   2.800408   4.917336   4.752435   4.865021
    25  H    3.046098   3.518790   4.695133   4.964458   5.345635
    26  O    2.559559   4.200796   5.739366   5.209508   5.632748
    27  H    3.473743   4.872775   6.497539   6.118099   6.502756
                   21         22         23         24         25
    21  O    0.000000
    22  H    0.971939   0.000000
    23  C    2.870892   2.965517   0.000000
    24  H    2.940048   3.322936   1.100349   0.000000
    25  H    2.673671   2.484482   1.097156   1.778355   0.000000
    26  O    4.276425   4.270176   1.434353   2.089799   2.088734
    27  H    4.751816   4.712228   1.953302   2.358293   2.281362
                   26         27
    26  O    0.000000
    27  H    0.970975   0.000000
 Stoichiometry    C8H15NO3
 Framework group  C1[X(C8H15NO3)]
 Deg. of freedom    75
 Full point group                 C1      NOp   1
 Largest Abelian subgroup         C1      NOp   1
 Largest concise Abelian subgroup C1      NOp   1
                         Standard orientation:                         
 ---------------------------------------------------------------------
 Center     Atomic      Atomic             Coordinates (Angstroms)
 Number     Number       Type             X           Y           Z
 ---------------------------------------------------------------------
      1          6           0       -2.488899    0.285682   -0.438156
      2          6           0       -1.116707   -0.361287   -0.705930
      3          7           0       -0.087421    0.680327   -0.371966
      4          6           0       -0.776552    1.779004    0.324043
      5          6           0       -2.167806    1.787158   -0.309200
      6          6           0        1.017108    0.034152    0.367458
      7          6           0        0.813175   -1.483437    0.157817
      8          6           0       -0.723846   -1.605626    0.105111
      9          1           0       -3.206699    0.070092   -1.234941
     10          1           0       -2.907553   -0.088110    0.500408
     11          1           0       -1.023935   -0.628076   -1.767680
     12          1           0       -0.241375    2.725731    0.193908
     13          1           0       -0.850795    1.590058    1.409879
     14          1           0       -2.125592    2.257725   -1.298791
     15          1           0       -2.901048    2.331956    0.293871
     16          1           0        0.911236    0.229652    1.446867
     17          1           0        1.231238   -2.061123    0.986909
     18          1           0       -1.035522   -2.540669   -0.377353
     19          8           0       -1.267740   -1.508772    1.424934
     20          1           0       -0.930652   -2.268874    1.929045
     21          8           0        1.442895   -2.010443   -1.014756
     22          1           0        1.125106   -1.516107   -1.788905
     23          6           0        2.398483    0.517553   -0.046198
     24          1           0        3.164678   -0.113826    0.428222
     25          1           0        2.516186    0.435443   -1.133927
     26          8           0        2.545380    1.881343    0.373167
     27          1           0        3.392674    2.197617    0.019817
 ---------------------------------------------------------------------
 Rotational constants (GHZ):      1.1638831      0.8941921      0.6112673
 Standard basis: 6-31+G(d,p) (6D, 7F)
 There are   303 symmetry adapted basis functions of A   symmetry.
 Integral buffers will be    131072 words long.
 Raffenetti 2 integral format.
 Two-electron integral symmetry is turned on.
   303 basis functions,   489 primitive gaussians,   303 cartesian basis functions
    47 alpha electrons       47 beta electrons
       nuclear repulsion energy       807.7980845495 Hartrees.
 NAtoms=   27 NActive=   27 NUniq=   27 SFac= 1.00D+00 NAtFMM=   60 NAOKFM=F Big=F
 ------------------------------------------------------------------------------
 Polarizable Continuum Model (PCM)
 =================================
 Model                : PCM.
 Atomic radii         : UFF (Universal Force Field).
 Polarization charges : Total charges.
 Charge compensation  : None.
 Solution method      : Matrix inversion.
 Cavity type          : Scaled VdW (van der Waals Surface) (Alpha=1.100).
 Cavity algorithm     : GePol (No added spheres)
                        Default sphere list used, NSphG=   27.
                        Lebedev-Laikov grids with approx.  5.0 points / Ang**2.
                        Smoothing algorithm: Karplus/York (Gamma=1.0000).
                        Polarization charges: spherical gaussians, with
                                              point-specific exponents (IZeta= 3).
                        Self-potential: point-specific (ISelfS= 7).
                        Self-field    : sphere-specific E.n sum rule (ISelfD= 2).
 Solvent              : Water, Eps=  78.355300 Eps(inf)=   1.777849
 ------------------------------------------------------------------------------
 One-electron integrals computed using PRISM.
 NBasis=   303 RedAO= T  NBF=   303
 NBsUse=   303 1.00D-06 NBFU=   303
 Harris functional with IExCor=  908 diagonalized for initial guess.
 ExpMin= 4.38D-02 ExpMax= 5.48D+03 ExpMxC= 8.25D+02 IAcc=2 IRadAn=         4 AccDes= 0.00D+00
 HarFok:  IExCor=  908 AccDes= 0.00D+00 IRadAn=         4 IDoV= 1
 ScaDFX=  1.000000  1.000000  1.000000  1.000000
 FoFCou: FMM=F IPFlag=           0 FMFlag=      100000 FMFlg1=           0
         NFxFlg=           0 DoJE=T BraDBF=F KetDBF=T FulRan=T
         Omega=  0.000000  0.000000  1.000000  0.000000  0.000000 ICntrl=     500 IOpCl=  0
         NMat0=    1 NMatS0=    1 NMatT0=    0 NMatD0=    1 NMtDS0=    0 NMtDT0=    0
         I1Cent=           4 NGrid=           0.
 Petite list used in FoFCou.
 Initial guess orbital symmetries:
       Occupied  (A) (A) (A) (A) (A) (A) (A) (A) (A) (A) (A) (A)
                 (A) (A) (A) (A) (A) (A) (A) (A) (A) (A) (A) (A)
                 (A) (A) (A) (A) (A) (A) (A) (A) (A) (A) (A) (A)
                 (A) (A) (A) (A) (A) (A) (A) (A) (A) (A) (A)
       Virtual   (A) (A) (A) (A) (A) (A) (A) (A) (A) (A) (A) (A)
                 (A) (A) (A) (A) (A) (A) (A) (A) (A) (A) (A) (A)
                 (A) (A) (A) (A) (A) (A) (A) (A) (A) (A) (A) (A)
                 (A) (A) (A) (A) (A) (A) (A) (A) (A) (A) (A) (A)
                 (A) (A) (A) (A) (A) (A) (A) (A) (A) (A) (A) (A)
                 (A) (A) (A) (A) (A) (A) (A) (A) (A) (A) (A) (A)
                 (A) (A) (A) (A) (A) (A) (A) (A) (A) (A) (A) (A)
                 (A) (A) (A) (A) (A) (A) (A) (A) (A) (A) (A) (A)
                 (A) (A) (A) (A) (A) (A) (A) (A) (A) (A) (A) (A)
                 (A) (A) (A) (A) (A) (A) (A) (A) (A) (A) (A) (A)
                 (A) (A) (A) (A) (A) (A) (A) (A) (A) (A) (A) (A)
                 (A) (A) (A) (A) (A) (A) (A) (A) (A) (A) (A) (A)
                 (A) (A) (A) (A) (A) (A) (A) (A) (A) (A) (A) (A)
                 (A) (A) (A) (A) (A) (A) (A) (A) (A) (A) (A) (A)
                 (A) (A) (A) (A) (A) (A) (A) (A) (A) (A) (A) (A)
                 (A) (A) (A) (A) (A) (A) (A) (A) (A) (A) (A) (A)
                 (A) (A) (A) (A) (A) (A) (A) (A) (A) (A) (A) (A)
                 (A) (A) (A) (A) (A) (A) (A) (A) (A) (A) (A) (A)
                 (A) (A) (A) (A) (A) (A) (A) (A) (A) (A) (A) (A)
                 (A) (A) (A) (A) (A) (A) (A) (A) (A) (A) (A) (A)
                 (A) (A) (A) (A) (A) (A) (A) (A) (A) (A) (A) (A)
                 (A) (A) (A) (A)
 The electronic state of the initial guess is 1-A.
 Requested convergence on RMS density matrix=1.00D-08 within 128 cycles.
 Requested convergence on MAX density matrix=1.00D-06.
 Requested convergence on             energy=1.00D-06.
 No special actions if energy rises.
 Error on total polarization charges =  0.01407
 SCF Done:  E(RmPW1PW91) =  -594.194331908     A.U. after   13 cycles
             Convg  =    0.5409D-08             -V/T =  2.0094
 Range of M.O.s used for correlation:     1   303
 NBasis=   303 NAE=    47 NBE=    47 NFC=     0 NFV=     0
 NROrb=    303 NOA=    47 NOB=    47 NVA=   256 NVB=   256

 **** Warning!!: The largest alpha MO coefficient is  0.72014483D+02

 NEqPCM:  Using equilibrium solvation (IEInf=0, Eps=  78.3553, EpsInf=   1.7778)
          Differentiating once with respect to magnetic field using GIAOs.
          Electric field/nuclear overlap derivatives assumed to be zero.
 FoFCou: FMM=F IPFlag=           0 FMFlag=    10101102 FMFlg1=           0
         NFxFlg=    40000000 DoJE=F BraDBF=F KetDBF=T FulRan=T
         Omega=  0.000000  0.000000  1.000000  0.000000  0.000000 ICntrl=    6100 IOpCl=  0
         NMat0=    1 NMatS0=    1 NMatT0=    0 NMatD0=    1 NMtDS0=    0 NMtDT0=    0
         I1Cent=           7 NGrid=        1844.
 Symmetry not used in FoFCou.
          There are     3 degrees of freedom in the 1st order CPHF.  IDoFFX=0.
      3 vectors produced by pass  0 Test12= 4.01D-13 3.33D-08 XBig12= 4.26D+01 1.31D+00.
 AX will form     3 AO Fock derivatives at one time.
      3 vectors produced by pass  1 Test12= 4.01D-13 3.33D-08 XBig12= 1.05D-01 4.97D-02.
      3 vectors produced by pass  2 Test12= 4.01D-13 3.33D-08 XBig12= 2.07D-04 3.22D-03.
      3 vectors produced by pass  3 Test12= 4.01D-13 3.33D-08 XBig12= 9.55D-07 1.90D-04.
      3 vectors produced by pass  4 Test12= 4.01D-13 3.33D-08 XBig12= 3.44D-09 9.19D-06.
      3 vectors produced by pass  5 Test12= 4.01D-13 3.33D-08 XBig12= 1.15D-11 6.50D-07.
 Inverted reduced A of dimension    18 with in-core refinement.
 Calculating GIAO nuclear magnetic shielding tensors.
 SCF GIAO Magnetic shielding tensor (ppm):
      1  C    Isotropic =   172.1780   Anisotropy =    21.2147
   XX=   181.4044   YX=    -3.9460   ZX=     3.3755
   XY=     4.8332   YY=   184.4097   ZY=    11.0953
   XZ=     1.3827   YZ=     4.5339   ZZ=   150.7200
   Eigenvalues:   148.8431   181.3699   186.3212
      2  C    Isotropic =   127.1729   Anisotropy =    60.7644
   XX=   146.0622   YX=    18.8161   ZX=    10.0720
   XY=    21.2423   YY=   147.9482   ZY=     2.4525
   XZ=    11.6734   YZ=    -3.8271   ZZ=    87.5083
   Eigenvalues:    85.2401   128.5962   167.6825
      3  N    Isotropic =   186.2334   Anisotropy =    97.5328
   XX=   236.2437   YX=    -6.9056   ZX=    36.9201
   XY=   -17.0669   YY=   195.7235   ZY=     5.6108
   XZ=    45.1689   YZ=    12.3844   ZZ=   126.7331
   Eigenvalues:   111.2480   196.1970   251.2553
      4  C    Isotropic =   136.7234   Anisotropy =    56.2131
   XX=   139.4272   YX=   -21.9629   ZX=    -6.4571
   XY=   -30.4316   YY=   144.9711   ZY=    14.6749
   XZ=    -0.7092   YZ=    22.6384   ZZ=   125.7718
   Eigenvalues:   108.4182   127.5531   174.1988
      5  C    Isotropic =   163.6197   Anisotropy =    26.4648
   XX=   177.7762   YX=    -2.2844   ZX=     8.3355
   XY=    -2.1413   YY=   174.9953   ZY=    11.9868
   XZ=    16.1994   YZ=     4.1089   ZZ=   138.0875
   Eigenvalues:   132.9453   176.6508   181.2629
      6  C    Isotropic =   126.2863   Anisotropy =    38.4466
   XX=   138.2493   YX=   -11.6772   ZX=     8.9753
   XY=   -17.0245   YY=   127.0761   ZY=   -10.7407
   XZ=    10.2783   YZ=    -4.1937   ZZ=   113.5336
   Eigenvalues:   109.6169   117.3247   151.9174
      7  C    Isotropic =   108.7606   Anisotropy =    30.1636
   XX=   121.4784   YX=    -4.0114   ZX=   -13.5151
   XY=     6.2050   YY=   104.4173   ZY=     1.2622
   XZ=   -14.5905   YZ=    16.0052   ZZ=   100.3862
   Eigenvalues:    88.9433   108.4690   128.8697
      8  C    Isotropic =   117.5098   Anisotropy =    32.7683
   XX=   121.9878   YX=     4.4050   ZX=   -16.3345
   XY=    -2.8480   YY=   104.7312   ZY=    11.1615
   XZ=   -14.1039   YZ=    -4.4293   ZZ=   125.8106
   Eigenvalues:   103.1572   110.0170   139.3554
      9  H    Isotropic =    29.9291   Anisotropy =    11.6797
   XX=    33.1103   YX=     1.0358   ZX=     5.8364
   XY=     2.0581   YY=    27.4574   ZY=     2.2871
   XZ=     5.5564   YZ=     1.4013   ZZ=    29.2194
   Eigenvalues:    24.9692    27.1025    37.7155
     10  H    Isotropic =    29.3900   Anisotropy =     7.6192
   XX=    31.1091   YX=    -0.0273   ZX=    -3.3786
   XY=    -0.1513   YY=    28.6622   ZY=    -4.1387
   XZ=    -3.6162   YZ=    -3.5598   ZZ=    28.3988
   Eigenvalues:    23.6976    30.0031    34.4695
     11  H    Isotropic =    27.6875   Anisotropy =     7.7364
   XX=    26.4165   YX=     0.2773   ZX=     1.3359
   XY=    -0.3034   YY=    25.5176   ZY=     3.8173
   XZ=     1.6673   YZ=     2.5165   ZZ=    31.1283
   Eigenvalues:    23.9193    26.2980    32.8451
     12  H    Isotropic =    28.2619   Anisotropy =     8.5428
   XX=    28.3712   YX=     0.9779   ZX=     0.2834
   XY=     1.9258   YY=    33.4316   ZY=     0.8968
   XZ=     0.1054   YZ=     1.5509   ZZ=    22.9828
   Eigenvalues:    22.8412    27.9873    33.9571
     13  H    Isotropic =    29.0644   Anisotropy =     7.6037
   XX=    27.2294   YX=    -1.3112   ZX=    -1.3112
   XY=    -1.2840   YY=    27.9208   ZY=     3.6738
   XZ=    -0.0582   YZ=     3.0179   ZZ=    32.0431
   Eigenvalues:    25.6084    27.4513    34.1335
     14  H    Isotropic =    29.4025   Anisotropy =    10.5458
   XX=    26.8646   YX=    -0.7651   ZX=     2.3715
   XY=    -1.0937   YY=    31.1153   ZY=    -5.2037
   XZ=     2.4808   YZ=    -5.1365   ZZ=    30.2277
   Eigenvalues:    24.6886    27.0860    36.4330
     15  H    Isotropic =    29.5291   Anisotropy =    11.5864
   XX=    31.5895   YX=    -4.5183   ZX=    -2.4217
   XY=    -5.1264   YY=    31.0562   ZY=     2.7231
   XZ=    -2.3748   YZ=     2.4739   ZZ=    25.9416
   Eigenvalues:    24.8103    26.5237    37.2534
     16  H    Isotropic =    28.4741   Anisotropy =     4.9854
   XX=    28.5937   YX=     0.4740   ZX=     1.8953
   XY=     1.9661   YY=    26.5804   ZY=    -1.2295
   XZ=     2.4611   YZ=     0.7122   ZZ=    30.2483
   Eigenvalues:    25.6336    27.9911    31.7977
     17  H    Isotropic =    27.4388   Anisotropy =     4.9011
   XX=    26.1400   YX=    -2.2539   ZX=    -0.3762
   XY=    -2.5655   YY=    28.0573   ZY=    -1.6060
   XZ=    -0.1283   YZ=    -2.4252   ZZ=    28.1191
   Eigenvalues:    24.0184    27.5918    30.7062
     18  H    Isotropic =    27.7005   Anisotropy =     6.7748
   XX=    24.8351   YX=     1.6878   ZX=    -1.4157
   XY=     1.8431   YY=    30.9235   ZY=     1.7437
   XZ=    -1.1104   YZ=     2.8896   ZZ=    27.3429
   Eigenvalues:    23.4069    27.4776    32.2170
     19  O    Isotropic =   288.4970   Anisotropy =    79.8205
   XX=   274.9071   YX=   -19.3446   ZX=    34.4338
   XY=   -14.7280   YY=   289.4332   ZY=   -39.4455
   XZ=     3.6928   YZ=   -32.8898   ZZ=   301.1508
   Eigenvalues:   258.6011   265.1793   341.7107
     20  H    Isotropic =    30.2712   Anisotropy =    19.8755
   XX=    24.4628   YX=    -4.1871   ZX=    -0.4545
   XY=    -3.8641   YY=    33.4422   ZY=    -9.0454
   XZ=     0.4562   YZ=   -10.7479   ZZ=    32.9086
   Eigenvalues:    20.8452    26.4469    43.5215
     21  O    Isotropic =   296.9908   Anisotropy =    30.2211
   XX=   286.2659   YX=    -7.2363   ZX=    27.2665
   XY=    -4.8240   YY=   292.6597   ZY=   -12.3393
   XZ=    -4.1825   YZ=     8.3420   ZZ=   312.0468
   Eigenvalues:   279.8908   293.9433   317.1382
     22  H    Isotropic =    30.4438   Anisotropy =    13.4437
   XX=    25.7128   YX=    -4.7553   ZX=     0.4399
   XY=    -3.5440   YY=    27.2188   ZY=    -3.0000
   XZ=     0.3503   YZ=    -3.3564   ZZ=    38.3998
   Eigenvalues:    22.0546    29.8705    39.4063
     23  C    Isotropic =   127.8570   Anisotropy =    47.0873
   XX=   120.3488   YX=     2.9059   ZX=     0.8210
   XY=    13.6054   YY=   152.7408   ZY=    15.8938
   XZ=     4.2040   YZ=    13.4469   ZZ=   110.4815
   Eigenvalues:   105.8876   118.4349   159.2485
     24  H    Isotropic =    27.5457   Anisotropy =     6.0673
   XX=    30.4537   YX=    -0.2280   ZX=     2.0575
   XY=    -1.9660   YY=    29.8441   ZY=    -0.2974
   XZ=     2.3253   YZ=     0.8074   ZZ=    22.3392
   Eigenvalues:    21.7518    29.2947    31.5905
     25  H    Isotropic =    27.8410   Anisotropy =     5.3704
   XX=    26.6788   YX=     2.2865   ZX=    -2.4809
   XY=     2.0858   YY=    29.1213   ZY=     4.2609
   XZ=    -2.8464   YZ=     1.5687   ZZ=    27.7227
   Eigenvalues:    22.5496    29.5521    31.4212
     26  O    Isotropic =   312.6196   Anisotropy =    84.2771
   XX=   341.7352   YX=    44.8435   ZX=   -14.1667
   XY=    29.6535   YY=   303.5619   ZY=    -4.5796
   XZ=   -20.9263   YZ=    -7.3736   ZZ=   292.5616
   Eigenvalues:   279.0918   289.9626   368.8043
     27  H    Isotropic =    30.1932   Anisotropy =    21.5285
   XX=    37.8397   YX=     7.6363   ZX=    -6.3433
   XY=     9.2247   YY=    29.7093   ZY=    -1.0530
   XZ=    -5.7299   YZ=    -0.2779   ZZ=    23.0305
   Eigenvalues:    20.1069    25.9272    44.5455
 End of Minotr Frequency-dependent properties file   721 does not exist.
 End of Minotr Frequency-dependent properties file   722 does not exist.

 **********************************************************************

            Population analysis using the SCF density.

 **********************************************************************

 Orbital symmetries:
       Occupied  (A) (A) (A) (A) (A) (A) (A) (A) (A) (A) (A) (A)
                 (A) (A) (A) (A) (A) (A) (A) (A) (A) (A) (A) (A)
                 (A) (A) (A) (A) (A) (A) (A) (A) (A) (A) (A) (A)
                 (A) (A) (A) (A) (A) (A) (A) (A) (A) (A) (A)
       Virtual   (A) (A) (A) (A) (A) (A) (A) (A) (A) (A) (A) (A)
                 (A) (A) (A) (A) (A) (A) (A) (A) (A) (A) (A) (A)
                 (A) (A) (A) (A) (A) (A) (A) (A) (A) (A) (A) (A)
                 (A) (A) (A) (A) (A) (A) (A) (A) (A) (A) (A) (A)
                 (A) (A) (A) (A) (A) (A) (A) (A) (A) (A) (A) (A)
                 (A) (A) (A) (A) (A) (A) (A) (A) (A) (A) (A) (A)
                 (A) (A) (A) (A) (A) (A) (A) (A) (A) (A) (A) (A)
                 (A) (A) (A) (A) (A) (A) (A) (A) (A) (A) (A) (A)
                 (A) (A) (A) (A) (A) (A) (A) (A) (A) (A) (A) (A)
                 (A) (A) (A) (A) (A) (A) (A) (A) (A) (A) (A) (A)
                 (A) (A) (A) (A) (A) (A) (A) (A) (A) (A) (A) (A)
                 (A) (A) (A) (A) (A) (A) (A) (A) (A) (A) (A) (A)
                 (A) (A) (A) (A) (A) (A) (A) (A) (A) (A) (A) (A)
                 (A) (A) (A) (A) (A) (A) (A) (A) (A) (A) (A) (A)
                 (A) (A) (A) (A) (A) (A) (A) (A) (A) (A) (A) (A)
                 (A) (A) (A) (A) (A) (A) (A) (A) (A) (A) (A) (A)
                 (A) (A) (A) (A) (A) (A) (A) (A) (A) (A) (A) (A)
                 (A) (A) (A) (A) (A) (A) (A) (A) (A) (A) (A) (A)
                 (A) (A) (A) (A) (A) (A) (A) (A) (A) (A) (A) (A)
                 (A) (A) (A) (A) (A) (A) (A) (A) (A) (A) (A) (A)
                 (A) (A) (A) (A) (A) (A) (A) (A) (A) (A) (A) (A)
                 (A) (A) (A) (A)
 The electronic state is 1-A.
 Alpha  occ. eigenvalues --  -19.26300 -19.25981 -19.25319 -14.40869 -10.30898
 Alpha  occ. eigenvalues --  -10.30391 -10.29361 -10.27895 -10.27883 -10.26442
 Alpha  occ. eigenvalues --  -10.24381 -10.24356  -1.07357  -1.05888  -1.05354
 Alpha  occ. eigenvalues --   -0.96000  -0.82670  -0.79018  -0.75330  -0.71845
 Alpha  occ. eigenvalues --   -0.66372  -0.61748  -0.60584  -0.57099  -0.55112
 Alpha  occ. eigenvalues --   -0.53686  -0.52389  -0.51255  -0.48921  -0.46830
 Alpha  occ. eigenvalues --   -0.45841  -0.43850  -0.42834  -0.41455  -0.41165
 Alpha  occ. eigenvalues --   -0.39389  -0.38503  -0.37806  -0.36943  -0.35427
 Alpha  occ. eigenvalues --   -0.34729  -0.33988  -0.32534  -0.32247  -0.29574
 Alpha  occ. eigenvalues --   -0.28461  -0.22945
 Alpha virt. eigenvalues --    0.00605   0.01419   0.01830   0.02118   0.03318
 Alpha virt. eigenvalues --    0.04324   0.04639   0.05159   0.05385   0.07173
 Alpha virt. eigenvalues --    0.07743   0.07995   0.08604   0.09059   0.09510
 Alpha virt. eigenvalues --    0.10608   0.11497   0.11829   0.12487   0.12930
 Alpha virt. eigenvalues --    0.13102   0.13793   0.14485   0.15231   0.15342
 Alpha virt. eigenvalues --    0.15863   0.17028   0.17693   0.18215   0.18794
 Alpha virt. eigenvalues --    0.19410   0.19872   0.20162   0.20608   0.21315
 Alpha virt. eigenvalues --    0.21649   0.21797   0.22348   0.22995   0.23286
 Alpha virt. eigenvalues --    0.23558   0.24688   0.24919   0.25047   0.25580
 Alpha virt. eigenvalues --    0.26656   0.27565   0.27924   0.28398   0.28440
 Alpha virt. eigenvalues --    0.28717   0.30502   0.30640   0.31769   0.32259
 Alpha virt. eigenvalues --    0.32797   0.33367   0.33966   0.34496   0.35124
 Alpha virt. eigenvalues --    0.35625   0.35778   0.36234   0.37180   0.38756
 Alpha virt. eigenvalues --    0.39233   0.40136   0.40581   0.40618   0.41324
 Alpha virt. eigenvalues --    0.43141   0.43830   0.44727   0.45031   0.45760
 Alpha virt. eigenvalues --    0.49517   0.63392   0.66838   0.67061   0.69200
 Alpha virt. eigenvalues --    0.69582   0.70374   0.71983   0.73947   0.74875
 Alpha virt. eigenvalues --    0.75431   0.76215   0.78360   0.79131   0.81229
 Alpha virt. eigenvalues --    0.83216   0.84518   0.86779   0.88315   0.88998
 Alpha virt. eigenvalues --    0.90151   0.92107   0.94266   0.94919   0.96085
 Alpha virt. eigenvalues --    0.98411   0.99857   1.02017   1.02785   1.04498
 Alpha virt. eigenvalues --    1.05570   1.06385   1.08160   1.08920   1.10716
 Alpha virt. eigenvalues --    1.11253   1.13187   1.14254   1.14972   1.16846
 Alpha virt. eigenvalues --    1.17015   1.19210   1.20764   1.23304   1.25187
 Alpha virt. eigenvalues --    1.26990   1.27937   1.29011   1.30655   1.31804
 Alpha virt. eigenvalues --    1.34739   1.35999   1.37895   1.39701   1.40856
 Alpha virt. eigenvalues --    1.43268   1.46172   1.48897   1.49562   1.52012
 Alpha virt. eigenvalues --    1.53445   1.56955   1.57153   1.58106   1.61476
 Alpha virt. eigenvalues --    1.62813   1.63843   1.66693   1.69444   1.70869
 Alpha virt. eigenvalues --    1.71784   1.75262   1.76216   1.77781   1.79224
 Alpha virt. eigenvalues --    1.80652   1.82414   1.84365   1.86165   1.88860
 Alpha virt. eigenvalues --    1.89677   1.92692   1.93142   1.94766   1.96869
 Alpha virt. eigenvalues --    1.98279   2.00924   2.01133   2.01634   2.03458
 Alpha virt. eigenvalues --    2.04778   2.07709   2.08470   2.09227   2.10790
 Alpha virt. eigenvalues --    2.12885   2.14110   2.15378   2.16212   2.19097
 Alpha virt. eigenvalues --    2.21597   2.22823   2.26356   2.27332   2.29816
 Alpha virt. eigenvalues --    2.30070   2.33115   2.34035   2.37296   2.39407
 Alpha virt. eigenvalues --    2.41092   2.44483   2.46054   2.46846   2.48454
 Alpha virt. eigenvalues --    2.49346   2.50734   2.52027   2.53316   2.54873
 Alpha virt. eigenvalues --    2.56593   2.57835   2.59482   2.62098   2.64424
 Alpha virt. eigenvalues --    2.64949   2.66039   2.66924   2.67269   2.68239
 Alpha virt. eigenvalues --    2.71137   2.71982   2.74255   2.76500   2.77868
 Alpha virt. eigenvalues --    2.78963   2.79864   2.80290   2.84003   2.85154
 Alpha virt. eigenvalues --    2.87265   2.88473   2.91228   2.93035   2.95264
 Alpha virt. eigenvalues --    2.97869   3.00038   3.01449   3.02334   3.04033
 Alpha virt. eigenvalues --    3.05333   3.08587   3.11884   3.13840   3.32632
 Alpha virt. eigenvalues --    3.35943   3.36455   3.37929   3.43594   3.44820
 Alpha virt. eigenvalues --    3.46762   3.49940   3.52269   3.54405   3.55841
 Alpha virt. eigenvalues --    3.57359   3.58069   3.59029   3.60919   4.31283
 Alpha virt. eigenvalues --    4.34507   4.38411   4.43722   4.50041   4.57118
 Alpha virt. eigenvalues --    4.59941   4.70995   4.77254   4.80635   4.90351
 Alpha virt. eigenvalues --    4.95826
          Condensed to atoms (all electrons):
              1          2          3          4          5          6
     1  C    6.565702  -1.479710   0.182607  -0.170761   0.177592   0.236449
     2  C   -1.479710   9.662686  -0.358688  -0.347144   0.248940  -0.883044
     3  N    0.182607  -0.358688   7.581082   0.240431  -0.155056  -0.189286
     4  C   -0.170761  -0.347144   0.240431   5.571790   0.097679  -0.134228
     5  C    0.177592   0.248940  -0.155056   0.097679   5.687543  -0.112069
     6  C    0.236449  -0.883044  -0.189286  -0.134228  -0.112069   9.139821
     7  C   -0.538362   1.401094  -0.304434   0.010304  -0.053251  -1.903517
     8  C    0.577965  -2.055911   0.097007   0.128875  -0.064680   1.060925
     9  H    0.383010  -0.067174   0.011688   0.025656  -0.028160   0.003631
    10  H    0.519212  -0.229419   0.028995   0.025475  -0.076558   0.004567
    11  H    0.101132   0.098500  -0.008108   0.030115  -0.039952   0.011764
    12  H    0.038146  -0.002710  -0.052297   0.392746  -0.040548   0.010592
    13  H   -0.018900   0.019079  -0.103471   0.423913  -0.010500  -0.021653
    14  H   -0.018429  -0.056829   0.016450  -0.037880   0.405629   0.003900
    15  H   -0.085850   0.063936   0.004716  -0.017389   0.380481  -0.003780
    16  H   -0.014886   0.042093  -0.071413   0.030270   0.009796   0.254368
    17  H    0.012470  -0.007556   0.024647   0.000208   0.002472   0.005446
    18  H   -0.011832  -0.021745   0.013866  -0.001202  -0.001822  -0.001616
    19  O    0.061194  -0.226518   0.033645   0.027445  -0.044573  -0.096105
    20  H   -0.007146   0.041521  -0.003828  -0.002360   0.005230  -0.009794
    21  O    0.013954  -0.002667   0.045901   0.010260   0.002361  -0.246048
    22  H    0.015080   0.012475   0.020670   0.004050   0.001426  -0.037199
    23  C   -0.006085  -0.006603   0.102276  -0.061476  -0.020864  -0.915993
    24  H    0.000070   0.005529  -0.002814  -0.011179  -0.000142  -0.138122
    25  H    0.000924   0.012799   0.023789   0.016702   0.000410  -0.134585
    26  O   -0.000047   0.002906  -0.020009  -0.006684  -0.008040   0.040763
    27  H   -0.000537  -0.002338  -0.001048  -0.001519   0.000485   0.041360
              7          8          9         10         11         12
     1  C   -0.538362   0.577965   0.383010   0.519212   0.101132   0.038146
     2  C    1.401094  -2.055911  -0.067174  -0.229419   0.098500  -0.002710
     3  N   -0.304434   0.097007   0.011688   0.028995  -0.008108  -0.052297
     4  C    0.010304   0.128875   0.025656   0.025475   0.030115   0.392746
     5  C   -0.053251  -0.064680  -0.028160  -0.076558  -0.039952  -0.040548
     6  C   -1.903517   1.060925   0.003631   0.004567   0.011764   0.010592
     7  C    8.312023  -1.853927  -0.009347  -0.010815  -0.056780  -0.005706
     8  C   -1.853927   7.912554   0.022344   0.062756   0.120037  -0.003963
     9  H   -0.009347   0.022344   0.521594  -0.025199  -0.005579  -0.000114
    10  H   -0.010815   0.062756  -0.025199   0.508191   0.003826  -0.000050
    11  H   -0.056780   0.120037  -0.005579   0.003826   0.571597   0.000101
    12  H   -0.005706  -0.003963  -0.000114  -0.000050   0.000101   0.542644
    13  H    0.020058  -0.007737  -0.000138   0.001096  -0.000586  -0.043006
    14  H   -0.002249   0.017640  -0.005656   0.003987   0.000592  -0.005861
    15  H    0.003341  -0.006890   0.000842  -0.005748  -0.000128   0.000479
    16  H    0.064469  -0.056872  -0.000003  -0.000010  -0.000603  -0.001419
    17  H    0.267564   0.051412   0.000003  -0.000013  -0.000043   0.000004
    18  H    0.053746   0.270026   0.000211   0.000101  -0.002185   0.000006
    19  O    0.106119   0.152283  -0.000302   0.001418   0.006988   0.000221
    20  H   -0.054638   0.051020  -0.000009  -0.000022  -0.000281  -0.000002
    21  O    0.383360  -0.112933   0.000006   0.000042  -0.000595   0.000032
    22  H   -0.010241  -0.014978   0.000006   0.000000   0.001048   0.000002
    23  C    0.363777  -0.313676   0.000343  -0.000457   0.005512   0.005892
    24  H    0.062194   0.007012   0.000000   0.000000  -0.000014  -0.000039
    25  H   -0.010433  -0.028508   0.000000   0.000000  -0.000066   0.000012
    26  O    0.059446  -0.019725  -0.000004   0.000001  -0.000247  -0.001527
    27  H   -0.006944   0.003240   0.000000   0.000000  -0.000001   0.000038
             13         14         15         16         17         18
     1  C   -0.018900  -0.018429  -0.085850  -0.014886   0.012470  -0.011832
     2  C    0.019079  -0.056829   0.063936   0.042093  -0.007556  -0.021745
     3  N   -0.103471   0.016450   0.004716  -0.071413   0.024647   0.013866
     4  C    0.423913  -0.037880  -0.017389   0.030270   0.000208  -0.001202
     5  C   -0.010500   0.405629   0.380481   0.009796   0.002472  -0.001822
     6  C   -0.021653   0.003900  -0.003780   0.254368   0.005446  -0.001616
     7  C    0.020058  -0.002249   0.003341   0.064469   0.267564   0.053746
     8  C   -0.007737   0.017640  -0.006890  -0.056872   0.051412   0.270026
     9  H   -0.000138  -0.005656   0.000842  -0.000003   0.000003   0.000211
    10  H    0.001096   0.003987  -0.005748  -0.000010  -0.000013   0.000101
    11  H   -0.000586   0.000592  -0.000128  -0.000603  -0.000043  -0.002185
    12  H   -0.043006  -0.005861   0.000479  -0.001419   0.000004   0.000006
    13  H    0.590350   0.004084  -0.003817   0.013194  -0.000062  -0.000036
    14  H    0.004084   0.524983  -0.025370  -0.000007   0.000000  -0.000001
    15  H   -0.003817  -0.025370   0.520658  -0.000001   0.000000   0.000002
    16  H    0.013194  -0.000007  -0.000001   0.569647  -0.003934  -0.000176
    17  H   -0.000062   0.000000   0.000000  -0.003934   0.537052  -0.002807
    18  H   -0.000036  -0.000001   0.000002  -0.000176  -0.002807   0.558555
    19  O    0.000399   0.000088   0.000348   0.003472  -0.013900  -0.035100
    20  H    0.000137   0.000000  -0.000001   0.000634   0.004425  -0.006490
    21  O   -0.000054   0.000008   0.000004   0.009560  -0.048026  -0.001532
    22  H   -0.000005  -0.000001   0.000000  -0.000104   0.006320  -0.000951
    23  C   -0.008713  -0.000646   0.000942  -0.021277  -0.013507   0.016402
    24  H    0.000034   0.000000   0.000000  -0.002881   0.000849  -0.000006
    25  H    0.000000  -0.000001   0.000000   0.004901   0.000132  -0.000003
    26  O    0.001529  -0.000041   0.000018   0.006366  -0.000590   0.000025
    27  H   -0.000002   0.000000   0.000000  -0.000045  -0.000001   0.000000
             19         20         21         22         23         24
     1  C    0.061194  -0.007146   0.013954   0.015080  -0.006085   0.000070
     2  C   -0.226518   0.041521  -0.002667   0.012475  -0.006603   0.005529
     3  N    0.033645  -0.003828   0.045901   0.020670   0.102276  -0.002814
     4  C    0.027445  -0.002360   0.010260   0.004050  -0.061476  -0.011179
     5  C   -0.044573   0.005230   0.002361   0.001426  -0.020864  -0.000142
     6  C   -0.096105  -0.009794  -0.246048  -0.037199  -0.915993  -0.138122
     7  C    0.106119  -0.054638   0.383360  -0.010241   0.363777   0.062194
     8  C    0.152283   0.051020  -0.112933  -0.014978  -0.313676   0.007012
     9  H   -0.000302  -0.000009   0.000006   0.000006   0.000343   0.000000
    10  H    0.001418  -0.000022   0.000042   0.000000  -0.000457   0.000000
    11  H    0.006988  -0.000281  -0.000595   0.001048   0.005512  -0.000014
    12  H    0.000221  -0.000002   0.000032   0.000002   0.005892  -0.000039
    13  H    0.000399   0.000137  -0.000054  -0.000005  -0.008713   0.000034
    14  H    0.000088   0.000000   0.000008  -0.000001  -0.000646   0.000000
    15  H    0.000348  -0.000001   0.000004   0.000000   0.000942   0.000000
    16  H    0.003472   0.000634   0.009560  -0.000104  -0.021277  -0.002881
    17  H   -0.013900   0.004425  -0.048026   0.006320  -0.013507   0.000849
    18  H   -0.035100  -0.006490  -0.001532  -0.000951   0.016402  -0.000006
    19  O    8.313228   0.226052   0.005929  -0.000290   0.051181  -0.000182
    20  H    0.226052   0.372740   0.000198   0.000014  -0.005403   0.000003
    21  O    0.005929   0.000198   8.161567   0.266802   0.021725  -0.006269
    22  H   -0.000290   0.000014   0.266802   0.359722  -0.003553   0.000408
    23  C    0.051181  -0.005403   0.021725  -0.003553   5.947346   0.451693
    24  H   -0.000182   0.000003  -0.006269   0.000408   0.451693   0.581013
    25  H    0.000153   0.000001   0.009936  -0.000255   0.476315  -0.044900
    26  O    0.000947   0.000013  -0.002899  -0.000072   0.026105  -0.056561
    27  H   -0.000014   0.000000   0.000208  -0.000007  -0.025045  -0.003580
             25         26         27
     1  C    0.000924  -0.000047  -0.000537
     2  C    0.012799   0.002906  -0.002338
     3  N    0.023789  -0.020009  -0.001048
     4  C    0.016702  -0.006684  -0.001519
     5  C    0.000410  -0.008040   0.000485
     6  C   -0.134585   0.040763   0.041360
     7  C   -0.010433   0.059446  -0.006944
     8  C   -0.028508  -0.019725   0.003240
     9  H    0.000000  -0.000004   0.000000
    10  H    0.000000   0.000001   0.000000
    11  H   -0.000066  -0.000247  -0.000001
    12  H    0.000012  -0.001527   0.000038
    13  H    0.000000   0.001529  -0.000002
    14  H   -0.000001  -0.000041   0.000000
    15  H    0.000000   0.000018   0.000000
    16  H    0.004901   0.006366  -0.000045
    17  H    0.000132  -0.000590  -0.000001
    18  H   -0.000003   0.000025   0.000000
    19  O    0.000153   0.000947  -0.000014
    20  H    0.000001   0.000013   0.000000
    21  O    0.009936  -0.002899   0.000208
    22  H   -0.000255  -0.000072  -0.000007
    23  C    0.476315   0.026105  -0.025045
    24  H   -0.044900  -0.056561  -0.003580
    25  H    0.569158  -0.048945  -0.005615
    26  O   -0.048945   8.393818   0.228809
    27  H   -0.005615   0.228809   0.380962
 Mulliken atomic charges:
              1
     1  C   -0.532959
     2  C    0.136497
     3  N   -0.157316
     4  C   -0.244099
     5  C   -0.363828
     6  C    0.013452
     7  C   -0.286850
     8  C    0.004702
     9  H    0.172352
    10  H    0.188621
    11  H    0.163958
    12  H    0.166328
    13  H    0.144805
    14  H    0.175609
    15  H    0.173210
    16  H    0.164866
    17  H    0.177435
    18  H    0.174563
    19  O   -0.574126
    20  H    0.387984
    21  O   -0.510830
    22  H    0.379633
    23  C   -0.066210
    24  H    0.157885
    25  H    0.158081
    26  O   -0.595356
    27  H    0.391593
 Sum of Mulliken atomic charges =   0.00000
 Mulliken charges with hydrogens summed into heavy atoms:
              1
     1  C   -0.171986
     2  C    0.300455
     3  N   -0.157316
     4  C    0.067034
     5  C   -0.015008
     6  C    0.178318
     7  C   -0.109415
     8  C    0.179265
    19  O   -0.186142
    21  O   -0.131197
    23  C    0.249756
    26  O   -0.203763
 Sum of Mulliken charges with hydrogens summed into heavy atoms =   0.00000
 Electronic spatial extent (au):  <R**2>=           2021.0565
 Charge=              0.0000 electrons
 Dipole moment (field-independent basis, Debye):
    X=              0.2413    Y=             -1.4677    Z=             -0.5960  Tot=              1.6024
 Quadrupole moment (field-independent basis, Debye-Ang):
   XX=            -67.7151   YY=            -73.8713   ZZ=            -70.4844
   XY=              3.3623   XZ=              1.1349   YZ=             -5.5083
 Traceless Quadrupole moment (field-independent basis, Debye-Ang):
   XX=              2.9751   YY=             -3.1810   ZZ=              0.2059
   XY=              3.3623   XZ=              1.1349   YZ=             -5.5083
 Octapole moment (field-independent basis, Debye-Ang**2):
  XXX=             46.2775  YYY=             -9.2164  ZZZ=             -3.0036  XYY=             -8.4952
  XXY=             26.1245  XXZ=             -9.4680  XZZ=              3.7773  YZZ=            -15.7629
  YYZ=             15.3927  XYZ=            -12.6439
 Hexadecapole moment (field-independent basis, Debye-Ang**3):
 XXXX=          -1175.8574 YYYY=           -950.2851 ZZZZ=           -272.8525 XXXY=            101.9777
 XXXZ=            -12.8702 YYYX=             67.6996 YYYZ=            -64.4489 ZZZX=            -16.9879
 ZZZY=            -12.7592 XXYY=           -364.1494 XXZZ=           -277.9623 YYZZ=           -191.9699
 XXYZ=            -22.1449 YYXZ=             -5.9784 ZZXY=              0.7712
 N-N= 8.077980845495D+02 E-N=-3.002008496956D+03  KE= 5.886537300792D+02
 1\1\GINC-COMPUTE-3-2\SP\RmPW1PW91\6-31+G(d,p)\C8H15N1O3\MAMICHETTI.IQU
 IR\17-May-2024\0\\# mpw1pw91/6-31+G** nmr scrf=(pcm,solvent=water)\\co
 mment\\0,1\C,0,-2.488899,0.285681,-0.438156\C,0,-1.116707,-0.361287,-0
 .70593\N,0,-0.087421,0.680327,-0.371966\C,0,-0.776553,1.779004,0.32404
 3\C,0,-2.167807,1.787157,-0.3092\C,0,1.017108,0.034152,0.367458\C,0,0.
 813175,-1.483437,0.157817\C,0,-0.723846,-1.605626,0.105111\H,0,-3.2066
 99,0.070091,-1.234941\H,0,-2.907553,-0.088111,0.500408\H,0,-1.023935,-
 0.628076,-1.76768\H,0,-0.241376,2.725731,0.193908\H,0,-0.850796,1.5900
 58,1.409879\H,0,-2.125593,2.257724,-1.298791\H,0,-2.901049,2.331955,0.
 293871\H,0,0.911236,0.229652,1.446867\H,0,1.231239,-2.061123,0.986909\
 H,0,-1.035521,-2.540669,-0.377353\O,0,-1.26774,-1.508772,1.424934\H,0,
 -0.930651,-2.268874,1.929045\O,0,1.442895,-2.010443,-1.014756\H,0,1.12
 5106,-1.516107,-1.788905\C,0,2.398483,0.517554,-0.046198\H,0,3.164678,
 -0.113825,0.428222\H,0,2.516186,0.435444,-1.133927\O,0,2.545379,1.8813
 44,0.373167\H,0,3.392673,2.197618,0.019817\\Version=AM64L-G09RevC.01\S
 tate=1-A\HF=-594.1943319\RMSD=5.409e-09\Dipole=0.0949297,-0.5774488,-0
 .2344865\Quadrupole=2.2119457,-2.3649995,0.1530537,2.4997881,0.8437609
 ,-4.0953191\PG=C01 [X(C8H15N1O3)]\\@


 THE 2ND LAW OF THERMODYNAMICS HAS THE SAME
 DEGREE OF TRUTH AS THE STATEMENT THAT IF YOU THROW
 A TUMBLERFULL OF WATER INTO THE SEA, YOU CANNOT GET
 THE SAME TUMBLERFULL OF WATER OUT AGAIN.
          - J.C. MAXWELL, LETTER TO LORD RAYLEIGH, DECEMBER 6,1870
 Job cpu time:  0 days  0 hours  8 minutes 39.8 seconds.
 File lengths (MBytes):  RWF=    114 Int=      0 D2E=      0 Chk=      7 Scr=      1
 Normal termination of Gaussian 09 at Fri May 17 12:55:17 2024.
