 Entering Gaussian System, Link 0=g09
 Input=/home/mamichetti.iquir/Linux/03_Cardona_A1A3_R__S_S_R_035_OptB.gjc
 Output=/home/mamichetti.iquir/Linux/03_Cardona_A1A3_R__S_S_R_035_OptB.log
 Initial command:
 /opt/ohpc/pub/apps/software/Gaussian/09/AMD64.SSE4a-enabled/g09/l1.exe /local/mamichetti.iquir/Gau-129215.inp -scrdir=/local/mamichetti.iquir/
 Entering Link 1 = /opt/ohpc/pub/apps/software/Gaussian/09/AMD64.SSE4a-enabled/g09/l1.exe PID=    129216.
  
 Copyright (c) 1988,1990,1992,1993,1995,1998,2003,2009,2011,
            Gaussian, Inc.  All Rights Reserved.
  
 This is part of the Gaussian(R) 09 program.  It is based on
 the Gaussian(R) 03 system (copyright 2003, Gaussian, Inc.),
 the Gaussian(R) 98 system (copyright 1998, Gaussian, Inc.),
 the Gaussian(R) 94 system (copyright 1995, Gaussian, Inc.),
 the Gaussian 92(TM) system (copyright 1992, Gaussian, Inc.),
 the Gaussian 90(TM) system (copyright 1990, Gaussian, Inc.),
 the Gaussian 88(TM) system (copyright 1988, Gaussian, Inc.),
 the Gaussian 86(TM) system (copyright 1986, Carnegie Mellon
 University), and the Gaussian 82(TM) system (copyright 1983,
 Carnegie Mellon University). Gaussian is a federally registered
 trademark of Gaussian, Inc.
  
 This software contains proprietary and confidential information,
 including trade secrets, belonging to Gaussian, Inc.
  
 This software is provided under written license and may be
 used, copied, transmitted, or stored only in accord with that
 written license.
  
 The following legend is applicable only to US Government
 contracts under FAR:
  
                    RESTRICTED RIGHTS LEGEND
  
 Use, reproduction and disclosure by the US Government is
 subject to restrictions as set forth in subparagraphs (a)
 and (c) of the Commercial Computer Software - Restricted
 Rights clause in FAR 52.227-19.
  
 Gaussian, Inc.
 340 Quinnipiac St., Bldg. 40, Wallingford CT 06492
  
  
 ---------------------------------------------------------------
 Warning -- This program may not be used in any manner that
 competes with the business of Gaussian, Inc. or will provide
 assistance to any competitor of Gaussian, Inc.  The licensee
 of this program is prohibited from giving any competitor of
 Gaussian, Inc. access to this program.  By using this program,
 the user acknowledges that Gaussian, Inc. is engaged in the
 business of creating and licensing software in the field of
 computational chemistry and represents and warrants to the
 licensee that it is not a competitor of Gaussian, Inc. and that
 it will not use this program in any manner prohibited above.
 ---------------------------------------------------------------
  

 Cite this work as:
 Gaussian 09, Revision C.01,
 M. J. Frisch, G. W. Trucks, H. B. Schlegel, G. E. Scuseria, 
 M. A. Robb, J. R. Cheeseman, G. Scalmani, V. Barone, B. Mennucci, 
 G. A. Petersson, H. Nakatsuji, M. Caricato, X. Li, H. P. Hratchian, 
 A. F. Izmaylov, J. Bloino, G. Zheng, J. L. Sonnenberg, M. Hada, 
 M. Ehara, K. Toyota, R. Fukuda, J. Hasegawa, M. Ishida, T. Nakajima, 
 Y. Honda, O. Kitao, H. Nakai, T. Vreven, J. A. Montgomery, Jr., 
 J. E. Peralta, F. Ogliaro, M. Bearpark, J. J. Heyd, E. Brothers, 
 K. N. Kudin, V. N. Staroverov, T. Keith, R. Kobayashi, J. Normand, 
 K. Raghavachari, A. Rendell, J. C. Burant, S. S. Iyengar, J. Tomasi, 
 M. Cossi, N. Rega, J. M. Millam, M. Klene, J. E. Knox, J. B. Cross, 
 V. Bakken, C. Adamo, J. Jaramillo, R. Gomperts, R. E. Stratmann, 
 O. Yazyev, A. J. Austin, R. Cammi, C. Pomelli, J. W. Ochterski, 
 R. L. Martin, K. Morokuma, V. G. Zakrzewski, G. A. Voth, 
 P. Salvador, J. J. Dannenberg, S. Dapprich, A. D. Daniels, 
 O. Farkas, J. B. Foresman, J. V. Ortiz, J. Cioslowski, 
 and D. J. Fox, Gaussian, Inc., Wallingford CT, 2010.
 
 ******************************************
 Gaussian 09:  AM64L-G09RevC.01 23-Sep-2011
                17-May-2024 
 ******************************************
 %nprocshared=4
 Will use up to    4 processors via shared memory.
 ------------------------------------------------
 # mpw1pw91/6-31+G** nmr scrf=(pcm,solvent=water)
 ------------------------------------------------
 1/38=1/1;
 2/12=2,17=6,18=5,40=1/2;
 3/5=1,6=6,7=111,11=2,16=1,25=1,30=1,70=2201,72=1,74=-7/1,2,8,3;
 4//1;
 5/5=2,38=5,53=1/2;
 8/6=1,10=90,11=11/1;
 10/13=100,45=16/2;
 6/7=2,8=2,9=2,10=2,28=1/1;
 99/9=1/99;
 -------
 comment
 -------
 Charge =  0 Multiplicity = 1
 Symbolic Z-Matrix:
 6                    -2.30939   0.6993    0.06305 
 6                    -0.97571   0.36844   0.74849 
 7                    -0.58612  -0.99666   0.25727 
 6                    -1.76779  -1.57086  -0.44118 
 6                    -2.95347  -0.6887   -0.03822 
 6                     0.63477  -0.89887  -0.57849 
 6                     0.87697   0.62041  -0.78735 
 6                     0.21495   1.27652   0.43216 
 1                    -2.90649   1.42021   0.62982 
 1                    -2.13993   1.11062  -0.93927 
 1                    -1.14176   0.33285   1.83285 
 1                    -1.92073  -2.62313  -0.17266 
 1                    -1.62871  -1.5346   -1.53218 
 1                    -3.34734  -0.99592   0.93864 
 1                    -3.77159  -0.74235  -0.76331 
 1                     0.44956  -1.38326  -1.54486 
 1                     0.35168   0.95549  -1.68763 
 1                     0.93209   1.25174   1.26349 
 8                    -0.20853   2.62182   0.20934 
 1                     0.59317   3.13217   0.00362 
 8                     2.23963   1.00455  -0.96786 
 1                     2.70416   0.67035  -0.17473 
 6                     1.8523   -1.61582   0.00059 
 1                     1.57903  -2.63841   0.29023 
 1                     2.62686  -1.68203  -0.775 
 8                     2.35896  -0.88884   1.13404 
 1                     3.16653  -1.33978   1.43161 
 
                          Input orientation:                          
 ---------------------------------------------------------------------
 Center     Atomic      Atomic             Coordinates (Angstroms)
 Number     Number       Type             X           Y           Z
 ---------------------------------------------------------------------
      1          6           0       -2.309385    0.699301    0.063053
      2          6           0       -0.975705    0.368440    0.748486
      3          7           0       -0.586116   -0.996660    0.257271
      4          6           0       -1.767788   -1.570860   -0.441177
      5          6           0       -2.953474   -0.688704   -0.038216
      6          6           0        0.634770   -0.898874   -0.578489
      7          6           0        0.876968    0.620406   -0.787352
      8          6           0        0.214948    1.276516    0.432162
      9          1           0       -2.906488    1.420207    0.629820
     10          1           0       -2.139931    1.110618   -0.939271
     11          1           0       -1.141761    0.332852    1.832850
     12          1           0       -1.920726   -2.623133   -0.172660
     13          1           0       -1.628707   -1.534602   -1.532177
     14          1           0       -3.347342   -0.995921    0.938642
     15          1           0       -3.771591   -0.742345   -0.763307
     16          1           0        0.449561   -1.383259   -1.544861
     17          1           0        0.351675    0.955492   -1.687626
     18          1           0        0.932085    1.251738    1.263494
     19          8           0       -0.208527    2.621820    0.209341
     20          1           0        0.593168    3.132170    0.003624
     21          8           0        2.239625    1.004550   -0.967862
     22          1           0        2.704155    0.670354   -0.174725
     23          6           0        1.852304   -1.615821    0.000586
     24          1           0        1.579030   -2.638407    0.290226
     25          1           0        2.626863   -1.682027   -0.774996
     26          8           0        2.358959   -0.888841    1.134039
     27          1           0        3.166532   -1.339777    1.431609
 ---------------------------------------------------------------------
                    Distance matrix (angstroms):
                    1          2          3          4          5
     1  C    0.000000
     2  C    1.535575   0.000000
     3  N    2.425626   1.502188   0.000000
     4  C    2.387720   2.409062   1.487913   0.000000
     5  C    1.533514   2.376557   2.405521   1.531805   0.000000
     6  C    3.410834   2.441429   1.482774   2.498541   3.634771
     7  C    3.298827   2.419645   2.418006   3.451988   4.116705
     8  C    2.615660   1.530463   2.416530   3.577920   3.757957
     9  H    1.094286   2.201867   3.371078   3.374930   2.212687
    10  H    1.096608   2.180544   2.878658   2.752619   2.170556
    11  H    2.151700   1.097582   2.135133   3.031044   2.797636
    12  H    3.353384   3.269722   2.147426   1.096709   2.196966
    13  H    2.828145   3.041283   2.139743   1.100427   2.168518
    14  H    2.172047   2.742682   2.844053   2.174729   1.097163
    15  H    2.213427   3.366948   3.354625   2.192129   1.094509
    16  H    3.812378   3.218582   2.114182   2.483938   3.785899
    17  H    3.195583   2.835703   2.910837   3.525367   4.043259
    18  H    3.500482   2.164512   2.893564   4.261722   4.534019
    19  O    2.851506   2.440689   3.638443   4.520291   4.307620
    20  H    3.787769   3.264106   4.301428   5.281141   5.213396
    21  O    4.674340   3.699842   3.672956   4.792650   5.540725
    22  H    5.019259   3.805895   3.713683   5.009223   5.820175
    23  C    4.762704   3.534725   2.528861   3.647224   4.894543
    24  H    5.129491   3.972128   2.717403   3.588286   4.944978
    25  H    5.544330   4.416323   3.443623   4.408713   5.715741
    26  O    5.046052   3.584605   3.074705   4.469507   5.443912
    27  H    6.001371   4.532415   3.947045   5.282825   6.327618
                    6          7          8          9         10
     6  C    0.000000
     7  C    1.552577   0.000000
     8  C    2.435157   1.534915   0.000000
     9  H    4.402119   4.118567   3.130987   0.000000
    10  H    3.444878   3.060240   2.730166   1.773556   0.000000
    11  H    3.238482   3.320152   2.166354   2.396640   3.047280
    12  H    3.109393   4.327295   4.487112   4.238431   3.817937
    13  H    2.537124   3.387806   3.893594   3.877867   2.758637
    14  H    4.262431   4.841112   4.255632   2.475358   3.069512
    15  H    4.413012   4.844251   4.625737   2.714008   2.475227
    16  H    1.096725   2.184301   3.322359   4.883823   3.645769
    17  H    2.179220   1.094856   2.148314   4.025188   2.606185
    18  H    2.847179   2.146529   1.098186   3.894171   3.782773
    19  O    3.705012   2.485428   1.427874   2.983231   2.708018
    20  H    4.073070   2.648612   1.941687   3.945951   3.527826
    21  O    2.519959   1.427230   2.476560   5.404428   4.380934
    22  H    2.628280   1.927802   2.632849   5.717420   4.923772
    23  C    1.527000   2.563755   3.351538   5.679745   4.924910
    24  H    2.161543   3.503417   4.148191   6.058675   5.421948
    25  H    2.149506   2.891969   4.003441   6.497333   5.527041
    26  O    2.430161   2.857598   3.127009   5.771557   5.341953
    27  H    3.262623   3.742754   4.068873   6.718776   6.307460
                   11         12         13         14         15
    11  H    0.000000
    12  H    3.656050   0.000000
    13  H    3.879163   1.765917   0.000000
    14  H    2.725772   2.432703   3.057586   0.000000
    15  H    3.848647   2.704058   2.410557   1.772264   0.000000
    16  H    4.109291   3.006407   2.083810   4.553492   4.340475
    17  H    3.874504   4.501720   3.185380   4.938423   4.553937
    18  H    2.338665   5.021523   4.705010   4.844687   5.496258
    19  O    2.957377   5.530559   4.725002   4.844800   4.995906
    20  H    3.767257   6.282854   5.392047   5.782993   5.886525
    21  O    4.441727   5.576823   4.661517   6.233044   6.263242
    22  H    4.351475   5.677727   5.047593   6.374690   6.654129
    23  C    4.014840   3.909021   3.804392   5.319826   5.742359
    24  H    4.314020   3.530268   3.850859   5.233292   5.773572
    25  H    5.006309   4.682847   4.324920   6.252873   6.467098
    26  O    3.773051   4.799056   4.840165   5.710649   6.419114
    27  H    4.638973   5.486426   5.640594   6.541545   7.301516
                   16         17         18         19         20
    16  H    0.000000
    17  H    2.345148   0.000000
    18  H    3.881095   3.022209   0.000000
    19  O    4.421647   2.586302   2.071077   0.000000
    20  H    4.775723   2.767051   2.288703   0.972364   0.000000
    21  O    3.039554   2.021094   2.598021   3.161458   2.860310
    22  H    3.343321   2.811465   2.355146   3.526959   3.247863
    23  C    2.100043   3.422513   3.265675   4.716800   4.912113
    24  H    2.493720   4.281870   4.061898   5.556248   5.861196
    25  H    2.328647   3.600817   3.954073   5.247042   5.283811
    26  O    3.326673   3.923334   2.575812   4.446548   4.534797
    27  H    4.030285   4.787620   3.425926   5.345953   5.353471
                   21         22         23         24         25
    21  O    0.000000
    22  H    0.978029   0.000000
    23  C    2.820329   2.446013   0.000000
    24  H    3.910282   3.525618   1.097384   0.000000
    25  H    2.721185   2.428991   1.098113   1.774067   0.000000
    26  O    2.831459   2.064731   1.438720   2.093153   2.084546
    27  H    3.480300   2.614331   1.962453   2.347202   2.297277
                   26         27
    26  O    0.000000
    27  H    0.971630   0.000000
 Stoichiometry    C8H15NO3
 Framework group  C1[X(C8H15NO3)]
 Deg. of freedom    75
 Full point group                 C1      NOp   1
 Largest Abelian subgroup         C1      NOp   1
 Largest concise Abelian subgroup C1      NOp   1
                         Standard orientation:                         
 ---------------------------------------------------------------------
 Center     Atomic      Atomic             Coordinates (Angstroms)
 Number     Number       Type             X           Y           Z
 ---------------------------------------------------------------------
      1          6           0       -2.309385    0.699301    0.063053
      2          6           0       -0.975705    0.368440    0.748486
      3          7           0       -0.586116   -0.996660    0.257271
      4          6           0       -1.767788   -1.570860   -0.441177
      5          6           0       -2.953474   -0.688704   -0.038216
      6          6           0        0.634770   -0.898874   -0.578489
      7          6           0        0.876968    0.620406   -0.787352
      8          6           0        0.214948    1.276516    0.432162
      9          1           0       -2.906488    1.420207    0.629820
     10          1           0       -2.139931    1.110618   -0.939271
     11          1           0       -1.141761    0.332852    1.832850
     12          1           0       -1.920726   -2.623133   -0.172660
     13          1           0       -1.628707   -1.534602   -1.532177
     14          1           0       -3.347342   -0.995921    0.938642
     15          1           0       -3.771591   -0.742345   -0.763307
     16          1           0        0.449561   -1.383259   -1.544861
     17          1           0        0.351675    0.955492   -1.687626
     18          1           0        0.932085    1.251738    1.263494
     19          8           0       -0.208527    2.621820    0.209341
     20          1           0        0.593168    3.132170    0.003624
     21          8           0        2.239625    1.004550   -0.967862
     22          1           0        2.704155    0.670354   -0.174725
     23          6           0        1.852304   -1.615821    0.000586
     24          1           0        1.579030   -2.638407    0.290226
     25          1           0        2.626863   -1.682027   -0.774996
     26          8           0        2.358959   -0.888841    1.134039
     27          1           0        3.166532   -1.339777    1.431609
 ---------------------------------------------------------------------
 Rotational constants (GHZ):      1.3319932      0.8406891      0.6131036
 Standard basis: 6-31+G(d,p) (6D, 7F)
 There are   303 symmetry adapted basis functions of A   symmetry.
 Integral buffers will be    131072 words long.
 Raffenetti 2 integral format.
 Two-electron integral symmetry is turned on.
   303 basis functions,   489 primitive gaussians,   303 cartesian basis functions
    47 alpha electrons       47 beta electrons
       nuclear repulsion energy       810.7934464353 Hartrees.
 NAtoms=   27 NActive=   27 NUniq=   27 SFac= 1.00D+00 NAtFMM=   60 NAOKFM=F Big=F
 ------------------------------------------------------------------------------
 Polarizable Continuum Model (PCM)
 =================================
 Model                : PCM.
 Atomic radii         : UFF (Universal Force Field).
 Polarization charges : Total charges.
 Charge compensation  : None.
 Solution method      : Matrix inversion.
 Cavity type          : Scaled VdW (van der Waals Surface) (Alpha=1.100).
 Cavity algorithm     : GePol (No added spheres)
                        Default sphere list used, NSphG=   27.
                        Lebedev-Laikov grids with approx.  5.0 points / Ang**2.
                        Smoothing algorithm: Karplus/York (Gamma=1.0000).
                        Polarization charges: spherical gaussians, with
                                              point-specific exponents (IZeta= 3).
                        Self-potential: point-specific (ISelfS= 7).
                        Self-field    : sphere-specific E.n sum rule (ISelfD= 2).
 Solvent              : Water, Eps=  78.355300 Eps(inf)=   1.777849
 ------------------------------------------------------------------------------
 One-electron integrals computed using PRISM.
 NBasis=   303 RedAO= T  NBF=   303
 NBsUse=   303 1.00D-06 NBFU=   303
 Harris functional with IExCor=  908 diagonalized for initial guess.
 ExpMin= 4.38D-02 ExpMax= 5.48D+03 ExpMxC= 8.25D+02 IAcc=2 IRadAn=         4 AccDes= 0.00D+00
 HarFok:  IExCor=  908 AccDes= 0.00D+00 IRadAn=         4 IDoV= 1
 ScaDFX=  1.000000  1.000000  1.000000  1.000000
 FoFCou: FMM=F IPFlag=           0 FMFlag=      100000 FMFlg1=           0
         NFxFlg=           0 DoJE=T BraDBF=F KetDBF=T FulRan=T
         Omega=  0.000000  0.000000  1.000000  0.000000  0.000000 ICntrl=     500 IOpCl=  0
         NMat0=    1 NMatS0=    1 NMatT0=    0 NMatD0=    1 NMtDS0=    0 NMtDT0=    0
         I1Cent=           4 NGrid=           0.
 Petite list used in FoFCou.
 Initial guess orbital symmetries:
       Occupied  (A) (A) (A) (A) (A) (A) (A) (A) (A) (A) (A) (A)
                 (A) (A) (A) (A) (A) (A) (A) (A) (A) (A) (A) (A)
                 (A) (A) (A) (A) (A) (A) (A) (A) (A) (A) (A) (A)
                 (A) (A) (A) (A) (A) (A) (A) (A) (A) (A) (A)
       Virtual   (A) (A) (A) (A) (A) (A) (A) (A) (A) (A) (A) (A)
                 (A) (A) (A) (A) (A) (A) (A) (A) (A) (A) (A) (A)
                 (A) (A) (A) (A) (A) (A) (A) (A) (A) (A) (A) (A)
                 (A) (A) (A) (A) (A) (A) (A) (A) (A) (A) (A) (A)
                 (A) (A) (A) (A) (A) (A) (A) (A) (A) (A) (A) (A)
                 (A) (A) (A) (A) (A) (A) (A) (A) (A) (A) (A) (A)
                 (A) (A) (A) (A) (A) (A) (A) (A) (A) (A) (A) (A)
                 (A) (A) (A) (A) (A) (A) (A) (A) (A) (A) (A) (A)
                 (A) (A) (A) (A) (A) (A) (A) (A) (A) (A) (A) (A)
                 (A) (A) (A) (A) (A) (A) (A) (A) (A) (A) (A) (A)
                 (A) (A) (A) (A) (A) (A) (A) (A) (A) (A) (A) (A)
                 (A) (A) (A) (A) (A) (A) (A) (A) (A) (A) (A) (A)
                 (A) (A) (A) (A) (A) (A) (A) (A) (A) (A) (A) (A)
                 (A) (A) (A) (A) (A) (A) (A) (A) (A) (A) (A) (A)
                 (A) (A) (A) (A) (A) (A) (A) (A) (A) (A) (A) (A)
                 (A) (A) (A) (A) (A) (A) (A) (A) (A) (A) (A) (A)
                 (A) (A) (A) (A) (A) (A) (A) (A) (A) (A) (A) (A)
                 (A) (A) (A) (A) (A) (A) (A) (A) (A) (A) (A) (A)
                 (A) (A) (A) (A) (A) (A) (A) (A) (A) (A) (A) (A)
                 (A) (A) (A) (A) (A) (A) (A) (A) (A) (A) (A) (A)
                 (A) (A) (A) (A) (A) (A) (A) (A) (A) (A) (A) (A)
                 (A) (A) (A) (A)
 The electronic state of the initial guess is 1-A.
 Requested convergence on RMS density matrix=1.00D-08 within 128 cycles.
 Requested convergence on MAX density matrix=1.00D-06.
 Requested convergence on             energy=1.00D-06.
 No special actions if energy rises.
 Error on total polarization charges =  0.01415
 SCF Done:  E(RmPW1PW91) =  -594.195353849     A.U. after   13 cycles
             Convg  =    0.6439D-08             -V/T =  2.0094
 Range of M.O.s used for correlation:     1   303
 NBasis=   303 NAE=    47 NBE=    47 NFC=     0 NFV=     0
 NROrb=    303 NOA=    47 NOB=    47 NVA=   256 NVB=   256

 **** Warning!!: The largest alpha MO coefficient is  0.75781527D+02

 NEqPCM:  Using equilibrium solvation (IEInf=0, Eps=  78.3553, EpsInf=   1.7778)
          Differentiating once with respect to magnetic field using GIAOs.
          Electric field/nuclear overlap derivatives assumed to be zero.
 FoFCou: FMM=F IPFlag=           0 FMFlag=    10101102 FMFlg1=           0
         NFxFlg=    40000000 DoJE=F BraDBF=F KetDBF=T FulRan=T
         Omega=  0.000000  0.000000  1.000000  0.000000  0.000000 ICntrl=    6100 IOpCl=  0
         NMat0=    1 NMatS0=    1 NMatT0=    0 NMatD0=    1 NMtDS0=    0 NMtDT0=    0
         I1Cent=           7 NGrid=        1835.
 Symmetry not used in FoFCou.
          There are     3 degrees of freedom in the 1st order CPHF.  IDoFFX=0.
      3 vectors produced by pass  0 Test12= 4.01D-13 3.33D-08 XBig12= 3.00D+01 9.35D-01.
 AX will form     3 AO Fock derivatives at one time.
      3 vectors produced by pass  1 Test12= 4.01D-13 3.33D-08 XBig12= 7.95D-02 3.84D-02.
      3 vectors produced by pass  2 Test12= 4.01D-13 3.33D-08 XBig12= 1.59D-04 2.18D-03.
      3 vectors produced by pass  3 Test12= 4.01D-13 3.33D-08 XBig12= 7.33D-07 1.64D-04.
      3 vectors produced by pass  4 Test12= 4.01D-13 3.33D-08 XBig12= 2.55D-09 1.28D-05.
      3 vectors produced by pass  5 Test12= 4.01D-13 3.33D-08 XBig12= 9.73D-12 7.04D-07.
 Inverted reduced A of dimension    18 with in-core refinement.
 Calculating GIAO nuclear magnetic shielding tensors.
 SCF GIAO Magnetic shielding tensor (ppm):
      1  C    Isotropic =   165.8450   Anisotropy =    15.1369
   XX=   171.9453   YX=     3.3177   ZX=     6.9474
   XY=    -3.4083   YY=   173.8780   ZY=     8.9382
   XZ=     8.5874   YZ=    -0.1039   ZZ=   151.7115
   Eigenvalues:   148.3808   173.2178   175.9362
      2  C    Isotropic =   129.6781   Anisotropy =    49.7626
   XX=   130.5641   YX=    -2.0390   ZX=    -2.6750
   XY=   -12.7433   YY=   158.7052   ZY=    13.2103
   XZ=    10.2706   YZ=    13.3357   ZZ=    99.7650
   Eigenvalues:    96.0946   130.0866   162.8532
      3  N    Isotropic =   198.6107   Anisotropy =    68.4343
   XX=   226.9182   YX=    -2.2287   ZX=   -24.1136
   XY=     2.8453   YY=   213.7370   ZY=    35.6329
   XZ=   -35.8263   YZ=    32.7775   ZZ=   155.1769
   Eigenvalues:   131.4651   220.1333   244.2336
      4  C    Isotropic =   135.3772   Anisotropy =    64.1962
   XX=   166.2718   YX=     6.2777   ZX=    17.7459
   XY=    18.0375   YY=   115.6737   ZY=    14.8883
   XZ=    16.9912   YZ=    25.3841   ZZ=   124.1861
   Eigenvalues:    99.3090   128.6479   178.1747
      5  C    Isotropic =   166.9075   Anisotropy =    22.0791
   XX=   178.2802   YX=    -1.0038   ZX=     5.7962
   XY=     4.4657   YY=   177.0687   ZY=    12.3772
   XZ=    -2.9145   YZ=     8.9815   ZZ=   145.3735
   Eigenvalues:   142.0900   177.0056   181.6269
      6  C    Isotropic =   124.7164   Anisotropy =    51.0303
   XX=   148.6793   YX=     1.0122   ZX=   -18.5573
   XY=    14.8151   YY=   102.9686   ZY=    -0.5783
   XZ=   -16.4749   YZ=    -5.5493   ZZ=   122.5014
   Eigenvalues:   101.6364   113.7763   158.7366
      7  C    Isotropic =   116.4473   Anisotropy =    44.3976
   XX=   136.0955   YX=    -0.6968   ZX=   -16.6007
   XY=    11.4173   YY=   115.5738   ZY=     9.1600
   XZ=   -27.0076   YZ=     6.2435   ZZ=    97.6724
   Eigenvalues:    85.0325   118.2636   146.0457
      8  C    Isotropic =   114.0471   Anisotropy =    36.7458
   XX=   107.2856   YX=    -5.1514   ZX=   -14.8435
   XY=   -16.6283   YY=   132.1666   ZY=    -0.7255
   XZ=   -12.0596   YZ=     8.9814   ZZ=   102.6892
   Eigenvalues:    90.9355   112.6616   138.5443
      9  H    Isotropic =    29.8918   Anisotropy =    10.4865
   XX=    31.5524   YX=    -3.3584   ZX=    -2.2907
   XY=    -3.8989   YY=    32.0092   ZY=     3.2817
   XZ=    -2.4815   YZ=     3.1267   ZZ=    26.1138
   Eigenvalues:    24.5993    28.1934    36.8828
     10  H    Isotropic =    29.9890   Anisotropy =     7.0386
   XX=    29.7213   YX=     0.8806   ZX=     1.5934
   XY=     0.9694   YY=    29.4836   ZY=    -4.0956
   XZ=     1.7900   YZ=    -4.7321   ZZ=    30.7620
   Eigenvalues:    24.9693    30.3163    34.6814
     11  H    Isotropic =    27.9987   Anisotropy =     8.2655
   XX=    25.6843   YX=    -0.9813   ZX=    -1.1003
   XY=    -0.2594   YY=    25.2445   ZY=     1.9066
   XZ=    -0.0581   YZ=     1.6223   ZZ=    33.0672
   Eigenvalues:    24.6299    25.8571    33.5090
     12  H    Isotropic =    28.1541   Anisotropy =     9.6897
   XX=    27.8137   YX=     3.2358   ZX=     0.4495
   XY=     2.3393   YY=    33.4510   ZY=    -0.1120
   XZ=     0.9376   YZ=     0.5011   ZZ=    23.1975
   Eigenvalues:    23.0904    26.7580    34.6139
     13  H    Isotropic =    29.1367   Anisotropy =     8.3867
   XX=    28.9486   YX=     1.2988   ZX=     2.5566
   XY=     1.1916   YY=    26.4607   ZY=     3.7481
   XZ=     0.9396   YZ=     3.8852   ZZ=    32.0009
   Eigenvalues:    24.4899    28.1924    34.7279
     14  H    Isotropic =    29.8452   Anisotropy =    11.1117
   XX=    31.1497   YX=     2.2560   ZX=    -5.1022
   XY=     2.2665   YY=    28.2171   ZY=    -2.2011
   XZ=    -5.7169   YZ=    -2.4554   ZZ=    30.1688
   Eigenvalues:    25.2091    27.0735    37.2530
     15  H    Isotropic =    29.6239   Anisotropy =    11.6618
   XX=    34.7097   YX=     1.0533   ZX=     4.7862
   XY=     1.8698   YY=    26.5289   ZY=     1.2995
   XZ=     4.7351   YZ=     0.8623   ZZ=    27.6330
   Eigenvalues:    25.1533    26.3199    37.3984
     16  H    Isotropic =    28.8456   Anisotropy =     4.5830
   XX=    29.3276   YX=    -0.4278   ZX=    -1.3041
   XY=    -0.3415   YY=    26.9412   ZY=     2.9367
   XZ=     0.7284   YZ=     2.5798   ZZ=    30.2680
   Eigenvalues:    25.3740    29.2618    31.9009
     17  H    Isotropic =    27.3661   Anisotropy =     2.7816
   XX=    28.9834   YX=     0.5216   ZX=     1.3774
   XY=     1.3260   YY=    25.2846   ZY=    -0.8588
   XZ=    -0.4079   YZ=    -2.1852   ZZ=    27.8303
   Eigenvalues:    24.3395    28.5383    29.2205
     18  H    Isotropic =    27.1627   Anisotropy =     4.7648
   XX=    26.4069   YX=    -1.4562   ZX=     2.3251
   XY=    -2.2764   YY=    28.8942   ZY=    -1.0507
   XZ=     2.7079   YZ=     1.0547   ZZ=    26.1870
   Eigenvalues:    23.4511    27.6978    30.3392
     19  O    Isotropic =   300.8265   Anisotropy =    32.5194
   XX=   297.5233   YX=     9.4384   ZX=    -5.0830
   XY=     8.8092   YY=   314.5085   ZY=    -8.3031
   XZ=    16.8482   YZ=   -19.9191   ZZ=   290.4477
   Eigenvalues:   279.1524   300.8210   322.5061
     20  H    Isotropic =    29.4045   Anisotropy =    18.7125
   XX=    33.1916   YX=     6.8657   ZX=    -2.4873
   XY=     7.6132   YY=    34.9617   ZY=    -2.4636
   XZ=    -3.5104   YZ=    -1.1183   ZZ=    20.0602
   Eigenvalues:    19.4040    26.9300    41.8795
     21  O    Isotropic =   298.0087   Anisotropy =    64.9340
   XX=   312.1632   YX=    -3.1774   ZX=    16.0560
   XY=    -8.1608   YY=   271.1815   ZY=   -11.4400
   XZ=    41.1805   YZ=    -3.7238   ZZ=   310.6814
   Eigenvalues:   269.7704   282.9577   341.2980
     22  H    Isotropic =    28.5932   Anisotropy =    17.2233
   XX=    30.4665   YX=    -0.5698   ZX=     7.2252
   XY=    -0.5119   YY=    24.6957   ZY=    -7.6750
   XZ=     6.1883   YZ=    -8.6956   ZZ=    30.6174
   Eigenvalues:    17.8731    27.8310    40.0754
     23  C    Isotropic =   128.2331   Anisotropy =    46.9179
   XX=   123.9457   YX=     2.5302   ZX=    15.4731
   XY=     7.5935   YY=   122.4789   ZY=    12.8785
   XZ=    24.0226   YZ=    20.1270   ZZ=   138.2746
   Eigenvalues:   107.0855   118.1021   159.5116
     24  H    Isotropic =    27.7125   Anisotropy =     7.4739
   XX=    25.9892   YX=    -0.2854   ZX=     2.1427
   XY=    -0.0232   YY=    32.4489   ZY=     0.1683
   XZ=     2.7730   YZ=     2.5690   ZZ=    24.6993
   Eigenvalues:    22.6600    27.7823    32.6951
     25  H    Isotropic =    27.5602   Anisotropy =     6.7536
   XX=    28.2956   YX=    -2.4455   ZX=    -0.6890
   XY=    -2.2566   YY=    26.3839   ZY=     3.0649
   XZ=    -2.4302   YZ=     2.5741   ZZ=    28.0010
   Eigenvalues:    23.9805    26.6374    32.0626
     26  O    Isotropic =   311.1929   Anisotropy =    90.9395
   XX=   338.1312   YX=   -21.7790   ZX=    41.9615
   XY=   -39.1952   YY=   301.9558   ZY=   -20.9735
   XZ=    23.7411   YZ=    -8.0410   ZZ=   293.4918
   Eigenvalues:   275.9170   285.8425   371.8192
     27  H    Isotropic =    30.1588   Anisotropy =    22.4571
   XX=    36.8468   YX=    -8.1906   ZX=     8.4363
   XY=    -7.2384   YY=    26.6885   ZY=    -1.0555
   XZ=     9.4219   YZ=    -1.9502   ZZ=    26.9411
   Eigenvalues:    20.0356    25.3105    45.1302
 End of Minotr Frequency-dependent properties file   721 does not exist.
 End of Minotr Frequency-dependent properties file   722 does not exist.

 **********************************************************************

            Population analysis using the SCF density.

 **********************************************************************

 Orbital symmetries:
       Occupied  (A) (A) (A) (A) (A) (A) (A) (A) (A) (A) (A) (A)
                 (A) (A) (A) (A) (A) (A) (A) (A) (A) (A) (A) (A)
                 (A) (A) (A) (A) (A) (A) (A) (A) (A) (A) (A) (A)
                 (A) (A) (A) (A) (A) (A) (A) (A) (A) (A) (A)
       Virtual   (A) (A) (A) (A) (A) (A) (A) (A) (A) (A) (A) (A)
                 (A) (A) (A) (A) (A) (A) (A) (A) (A) (A) (A) (A)
                 (A) (A) (A) (A) (A) (A) (A) (A) (A) (A) (A) (A)
                 (A) (A) (A) (A) (A) (A) (A) (A) (A) (A) (A) (A)
                 (A) (A) (A) (A) (A) (A) (A) (A) (A) (A) (A) (A)
                 (A) (A) (A) (A) (A) (A) (A) (A) (A) (A) (A) (A)
                 (A) (A) (A) (A) (A) (A) (A) (A) (A) (A) (A) (A)
                 (A) (A) (A) (A) (A) (A) (A) (A) (A) (A) (A) (A)
                 (A) (A) (A) (A) (A) (A) (A) (A) (A) (A) (A) (A)
                 (A) (A) (A) (A) (A) (A) (A) (A) (A) (A) (A) (A)
                 (A) (A) (A) (A) (A) (A) (A) (A) (A) (A) (A) (A)
                 (A) (A) (A) (A) (A) (A) (A) (A) (A) (A) (A) (A)
                 (A) (A) (A) (A) (A) (A) (A) (A) (A) (A) (A) (A)
                 (A) (A) (A) (A) (A) (A) (A) (A) (A) (A) (A) (A)
                 (A) (A) (A) (A) (A) (A) (A) (A) (A) (A) (A) (A)
                 (A) (A) (A) (A) (A) (A) (A) (A) (A) (A) (A) (A)
                 (A) (A) (A) (A) (A) (A) (A) (A) (A) (A) (A) (A)
                 (A) (A) (A) (A) (A) (A) (A) (A) (A) (A) (A) (A)
                 (A) (A) (A) (A) (A) (A) (A) (A) (A) (A) (A) (A)
                 (A) (A) (A) (A) (A) (A) (A) (A) (A) (A) (A) (A)
                 (A) (A) (A) (A) (A) (A) (A) (A) (A) (A) (A) (A)
                 (A) (A) (A) (A)
 The electronic state is 1-A.
 Alpha  occ. eigenvalues --  -19.26449 -19.25695 -19.25344 -14.41178 -10.30130
 Alpha  occ. eigenvalues --  -10.29919 -10.29718 -10.28274 -10.27609 -10.26848
 Alpha  occ. eigenvalues --  -10.24489 -10.24322  -1.07321  -1.06146  -1.04823
 Alpha  occ. eigenvalues --   -0.96185  -0.82580  -0.79017  -0.75361  -0.71583
 Alpha  occ. eigenvalues --   -0.66788  -0.61269  -0.60510  -0.57303  -0.55677
 Alpha  occ. eigenvalues --   -0.53086  -0.52881  -0.50838  -0.48436  -0.47156
 Alpha  occ. eigenvalues --   -0.46073  -0.43549  -0.43061  -0.42126  -0.41214
 Alpha  occ. eigenvalues --   -0.39634  -0.38089  -0.37746  -0.37073  -0.35482
 Alpha  occ. eigenvalues --   -0.34689  -0.34105  -0.33408  -0.31533  -0.30358
 Alpha  occ. eigenvalues --   -0.27865  -0.22855
 Alpha virt. eigenvalues --    0.00548   0.01539   0.01729   0.02066   0.03491
 Alpha virt. eigenvalues --    0.04333   0.04672   0.04866   0.05237   0.07054
 Alpha virt. eigenvalues --    0.07553   0.08304   0.08656   0.09365   0.09625
 Alpha virt. eigenvalues --    0.10195   0.10952   0.11961   0.12299   0.12907
 Alpha virt. eigenvalues --    0.13386   0.13605   0.14399   0.15073   0.15701
 Alpha virt. eigenvalues --    0.16393   0.16609   0.17098   0.17861   0.18264
 Alpha virt. eigenvalues --    0.19007   0.19610   0.19724   0.20314   0.20884
 Alpha virt. eigenvalues --    0.21514   0.22106   0.22679   0.23104   0.23409
 Alpha virt. eigenvalues --    0.23769   0.24027   0.24684   0.25509   0.26037
 Alpha virt. eigenvalues --    0.26530   0.27143   0.27318   0.28021   0.28605
 Alpha virt. eigenvalues --    0.29054   0.30094   0.30559   0.31766   0.32464
 Alpha virt. eigenvalues --    0.32847   0.33279   0.33831   0.34196   0.35452
 Alpha virt. eigenvalues --    0.36266   0.37279   0.37552   0.37807   0.38399
 Alpha virt. eigenvalues --    0.39067   0.39671   0.40692   0.41318   0.42658
 Alpha virt. eigenvalues --    0.43517   0.44302   0.45590   0.46202   0.47454
 Alpha virt. eigenvalues --    0.48228   0.64426   0.66277   0.68197   0.68346
 Alpha virt. eigenvalues --    0.70047   0.70926   0.72459   0.72684   0.74151
 Alpha virt. eigenvalues --    0.75078   0.76544   0.78451   0.80666   0.81238
 Alpha virt. eigenvalues --    0.82922   0.83581   0.84492   0.85750   0.87244
 Alpha virt. eigenvalues --    0.89767   0.91000   0.93673   0.94902   0.98287
 Alpha virt. eigenvalues --    0.98911   0.99492   1.01891   1.04455   1.04737
 Alpha virt. eigenvalues --    1.06797   1.07437   1.08319   1.09820   1.10767
 Alpha virt. eigenvalues --    1.12297   1.13147   1.14244   1.14722   1.15213
 Alpha virt. eigenvalues --    1.16549   1.18072   1.18477   1.21945   1.23748
 Alpha virt. eigenvalues --    1.25150   1.27525   1.29157   1.30706   1.32496
 Alpha virt. eigenvalues --    1.33268   1.36967   1.40011   1.40843   1.42529
 Alpha virt. eigenvalues --    1.43592   1.45117   1.48319   1.51215   1.52914
 Alpha virt. eigenvalues --    1.54173   1.56830   1.58939   1.61075   1.62312
 Alpha virt. eigenvalues --    1.63691   1.65095   1.66253   1.68625   1.70679
 Alpha virt. eigenvalues --    1.72693   1.75065   1.76768   1.79109   1.79911
 Alpha virt. eigenvalues --    1.80730   1.82457   1.83898   1.84556   1.86546
 Alpha virt. eigenvalues --    1.88140   1.89112   1.92528   1.92745   1.95019
 Alpha virt. eigenvalues --    1.96896   1.99714   2.01008   2.02024   2.02961
 Alpha virt. eigenvalues --    2.03932   2.05532   2.08771   2.10306   2.11436
 Alpha virt. eigenvalues --    2.12036   2.14454   2.16311   2.18407   2.19326
 Alpha virt. eigenvalues --    2.20867   2.23286   2.25326   2.27173   2.28184
 Alpha virt. eigenvalues --    2.30520   2.33711   2.34594   2.38796   2.40955
 Alpha virt. eigenvalues --    2.41973   2.42490   2.44832   2.45518   2.47328
 Alpha virt. eigenvalues --    2.49627   2.51059   2.52659   2.53474   2.55171
 Alpha virt. eigenvalues --    2.57054   2.58137   2.59882   2.61524   2.62853
 Alpha virt. eigenvalues --    2.64962   2.66672   2.67742   2.69327   2.70531
 Alpha virt. eigenvalues --    2.71700   2.71788   2.73552   2.75582   2.77795
 Alpha virt. eigenvalues --    2.78760   2.79939   2.81246   2.82822   2.84991
 Alpha virt. eigenvalues --    2.86150   2.87500   2.88710   2.92704   2.93351
 Alpha virt. eigenvalues --    2.95538   2.98368   2.99665   3.01696   3.04286
 Alpha virt. eigenvalues --    3.06102   3.08532   3.12716   3.16337   3.32325
 Alpha virt. eigenvalues --    3.36515   3.36686   3.37585   3.41013   3.48559
 Alpha virt. eigenvalues --    3.48947   3.51687   3.52473   3.54713   3.55961
 Alpha virt. eigenvalues --    3.56609   3.58289   3.58571   3.64638   4.33647
 Alpha virt. eigenvalues --    4.36963   4.42141   4.45265   4.50315   4.53486
 Alpha virt. eigenvalues --    4.63675   4.66009   4.78647   4.82676   4.86955
 Alpha virt. eigenvalues --    4.92674
          Condensed to atoms (all electrons):
              1          2          3          4          5          6
     1  C    5.867956  -0.495869   0.172800  -0.187961   0.060992  -0.073341
     2  C   -0.495869   8.611747  -0.572223  -0.271170   0.310315  -0.023704
     3  N    0.172800  -0.572223   7.528295   0.215484  -0.283355  -0.150880
     4  C   -0.187961  -0.271170   0.215484   5.661817   0.036493  -0.249378
     5  C    0.060992   0.310315  -0.283355   0.036493   5.708843   0.184736
     6  C   -0.073341  -0.023704  -0.150880  -0.249378   0.184736   7.942633
     7  C   -0.048733   0.275940  -0.164043   0.060690  -0.043674  -0.572370
     8  C    0.031788  -1.014598   0.127216   0.123097  -0.099105   0.014230
     9  H    0.378962  -0.068560   0.017692   0.023436  -0.013424  -0.004526
    10  H    0.505028  -0.195826   0.036891   0.022375  -0.093488   0.008059
    11  H    0.046698   0.150383   0.006220   0.015188  -0.038092   0.004920
    12  H    0.029533  -0.015234  -0.046232   0.409274  -0.055733  -0.005095
    13  H    0.000498   0.025825  -0.085927   0.399887  -0.014851   0.005988
    14  H   -0.007907  -0.041031   0.016883  -0.028838   0.373849   0.002947
    15  H   -0.046111   0.034947   0.006847  -0.017587   0.366413  -0.005038
    16  H   -0.006441   0.037492  -0.078531  -0.001564   0.008667   0.305067
    17  H   -0.000655   0.013337   0.020578   0.009615  -0.007989  -0.104752
    18  H   -0.001658  -0.099776   0.016799   0.004514  -0.004374   0.010558
    19  O    0.010350  -0.230950   0.029839  -0.005655   0.014804   0.023432
    20  H   -0.010003   0.061561  -0.003804  -0.001203  -0.000022   0.018730
    21  O    0.010255  -0.032218   0.040110  -0.002831   0.000815  -0.112710
    22  H    0.000179   0.012792   0.002424  -0.000202  -0.000727  -0.110013
    23  C    0.101591  -0.370842   0.186052  -0.029116  -0.045064  -0.696848
    24  H   -0.000449   0.015045  -0.014290  -0.005496   0.004597  -0.083943
    25  H    0.001067  -0.003070   0.012171   0.000625  -0.000473  -0.083672
    26  O    0.007210   0.039732   0.040809   0.001595   0.000702  -0.319258
    27  H   -0.000479  -0.006814  -0.000798   0.000320  -0.000176   0.061781
              7          8          9         10         11         12
     1  C   -0.048733   0.031788   0.378962   0.505028   0.046698   0.029533
     2  C    0.275940  -1.014598  -0.068560  -0.195826   0.150383  -0.015234
     3  N   -0.164043   0.127216   0.017692   0.036891   0.006220  -0.046232
     4  C    0.060690   0.123097   0.023436   0.022375   0.015188   0.409274
     5  C   -0.043674  -0.099105  -0.013424  -0.093488  -0.038092  -0.055733
     6  C   -0.572370   0.014230  -0.004526   0.008059   0.004920  -0.005095
     7  C    6.719252  -0.426950   0.003744  -0.011756  -0.010474  -0.006193
     8  C   -0.426950   6.377271  -0.001765   0.043773   0.063908   0.005204
     9  H    0.003744  -0.001765   0.517714  -0.022614  -0.003042  -0.000081
    10  H   -0.011756   0.043773  -0.022614   0.523144   0.004345  -0.000045
    11  H   -0.010474   0.063908  -0.003042   0.004345   0.569301   0.000445
    12  H   -0.006193   0.005204  -0.000081  -0.000045   0.000445   0.558043
    13  H    0.001781  -0.007138  -0.000166   0.001010  -0.000459  -0.042616
    14  H   -0.003078   0.009288  -0.004561   0.004249   0.001379  -0.006641
    15  H    0.000827   0.001351   0.000045  -0.004875  -0.000052   0.001584
    16  H    0.048791   0.012711   0.000000  -0.000133  -0.000244  -0.000805
    17  H    0.480161  -0.067896   0.000046  -0.000010  -0.000079   0.000020
    18  H   -0.052123   0.462155  -0.000049  -0.000001  -0.007083   0.000008
    19  O   -0.086557   0.291283   0.001640   0.001578   0.008728   0.000066
    20  H   -0.077650   0.025045  -0.000003  -0.000176  -0.000290   0.000000
    21  O    0.261004  -0.060629  -0.000004   0.000024   0.000352   0.000109
    22  H    0.079168  -0.041259   0.000000  -0.000004  -0.000027   0.000000
    23  C   -0.312263   0.195244   0.000795   0.001809   0.019632   0.013808
    24  H    0.011729  -0.013834   0.000000   0.000000  -0.000001  -0.000028
    25  H   -0.001604   0.005500   0.000000   0.000000  -0.000005  -0.000015
    26  O    0.031662  -0.015847  -0.000013   0.000006  -0.000120  -0.000221
    27  H   -0.001525   0.004858   0.000000   0.000000   0.000004   0.000000
             13         14         15         16         17         18
     1  C    0.000498  -0.007907  -0.046111  -0.006441  -0.000655  -0.001658
     2  C    0.025825  -0.041031   0.034947   0.037492   0.013337  -0.099776
     3  N   -0.085927   0.016883   0.006847  -0.078531   0.020578   0.016799
     4  C    0.399887  -0.028838  -0.017587  -0.001564   0.009615   0.004514
     5  C   -0.014851   0.373849   0.366413   0.008667  -0.007989  -0.004374
     6  C    0.005988   0.002947  -0.005038   0.305067  -0.104752   0.010558
     7  C    0.001781  -0.003078   0.000827   0.048791   0.480161  -0.052123
     8  C   -0.007138   0.009288   0.001351   0.012711  -0.067896   0.462155
     9  H   -0.000166  -0.004561   0.000045   0.000000   0.000046  -0.000049
    10  H    0.001010   0.004249  -0.004875  -0.000133  -0.000010  -0.000001
    11  H   -0.000459   0.001379  -0.000052  -0.000244  -0.000079  -0.007083
    12  H   -0.042616  -0.006641   0.001584  -0.000805   0.000020   0.000008
    13  H    0.567168   0.004017  -0.005841   0.008926   0.000084  -0.000002
    14  H    0.004017   0.525631  -0.024427  -0.000015   0.000005   0.000005
    15  H   -0.005841  -0.024427   0.514671  -0.000030   0.000001   0.000002
    16  H    0.008926  -0.000015  -0.000030   0.551032  -0.008691  -0.000250
    17  H    0.000084   0.000005   0.000001  -0.008691   0.524076   0.004190
    18  H   -0.000002   0.000005   0.000002  -0.000250   0.004190   0.550924
    19  O   -0.000061   0.000106   0.000019  -0.000868  -0.005238  -0.047998
    20  H    0.000000   0.000000   0.000000   0.000002  -0.000545  -0.005558
    21  O   -0.000554   0.000000  -0.000004   0.002363  -0.056986  -0.011863
    22  H   -0.000002   0.000000   0.000000  -0.000257   0.006606   0.004359
    23  C   -0.011701   0.001260   0.000122  -0.051291   0.009155   0.004756
    24  H    0.000066   0.000001   0.000000  -0.000339  -0.000090  -0.000022
    25  H    0.000022   0.000000   0.000000  -0.001058   0.000027   0.000032
    26  O    0.000176   0.000000  -0.000003   0.012332  -0.000820  -0.004273
    27  H    0.000000   0.000000   0.000000  -0.000250   0.000008   0.000246
             19         20         21         22         23         24
     1  C    0.010350  -0.010003   0.010255   0.000179   0.101591  -0.000449
     2  C   -0.230950   0.061561  -0.032218   0.012792  -0.370842   0.015045
     3  N    0.029839  -0.003804   0.040110   0.002424   0.186052  -0.014290
     4  C   -0.005655  -0.001203  -0.002831  -0.000202  -0.029116  -0.005496
     5  C    0.014804  -0.000022   0.000815  -0.000727  -0.045064   0.004597
     6  C    0.023432   0.018730  -0.112710  -0.110013  -0.696848  -0.083943
     7  C   -0.086557  -0.077650   0.261004   0.079168  -0.312263   0.011729
     8  C    0.291283   0.025045  -0.060629  -0.041259   0.195244  -0.013834
     9  H    0.001640  -0.000003  -0.000004   0.000000   0.000795   0.000000
    10  H    0.001578  -0.000176   0.000024  -0.000004   0.001809   0.000000
    11  H    0.008728  -0.000290   0.000352  -0.000027   0.019632  -0.000001
    12  H    0.000066   0.000000   0.000109   0.000000   0.013808  -0.000028
    13  H   -0.000061   0.000000  -0.000554  -0.000002  -0.011701   0.000066
    14  H    0.000106   0.000000   0.000000   0.000000   0.001260   0.000001
    15  H    0.000019   0.000000  -0.000004   0.000000   0.000122   0.000000
    16  H   -0.000868   0.000002   0.002363  -0.000257  -0.051291  -0.000339
    17  H   -0.005238  -0.000545  -0.056986   0.006606   0.009155  -0.000090
    18  H   -0.047998  -0.005558  -0.011863   0.004359   0.004756  -0.000022
    19  O    8.304927   0.219444  -0.009530  -0.001142   0.013020   0.000047
    20  H    0.219444   0.383279   0.009275  -0.000042  -0.000711   0.000000
    21  O   -0.009530   0.009275   8.236690   0.247099   0.034107  -0.001101
    22  H   -0.001142  -0.000042   0.247099   0.358499   0.037064   0.000279
    23  C    0.013020  -0.000711   0.034107   0.037064   6.033681   0.456241
    24  H    0.000047   0.000000  -0.001101   0.000279   0.456241   0.548025
    25  H   -0.000029   0.000001   0.002050  -0.000863   0.434362  -0.041225
    26  O    0.001469   0.000000  -0.015046   0.017382   0.217418  -0.040120
    27  H   -0.000040   0.000000   0.000184  -0.000806  -0.044174  -0.004200
             25         26         27
     1  C    0.001067   0.007210  -0.000479
     2  C   -0.003070   0.039732  -0.006814
     3  N    0.012171   0.040809  -0.000798
     4  C    0.000625   0.001595   0.000320
     5  C   -0.000473   0.000702  -0.000176
     6  C   -0.083672  -0.319258   0.061781
     7  C   -0.001604   0.031662  -0.001525
     8  C    0.005500  -0.015847   0.004858
     9  H    0.000000  -0.000013   0.000000
    10  H    0.000000   0.000006   0.000000
    11  H   -0.000005  -0.000120   0.000004
    12  H   -0.000015  -0.000221   0.000000
    13  H    0.000022   0.000176   0.000000
    14  H    0.000000   0.000000   0.000000
    15  H    0.000000  -0.000003   0.000000
    16  H   -0.001058   0.012332  -0.000250
    17  H    0.000027  -0.000820   0.000008
    18  H    0.000032  -0.004273   0.000246
    19  O   -0.000029   0.001469  -0.000040
    20  H    0.000001   0.000000   0.000000
    21  O    0.002050  -0.015046   0.000184
    22  H   -0.000863   0.017382  -0.000806
    23  C    0.434362   0.217418  -0.044174
    24  H   -0.041225  -0.040120  -0.004200
    25  H    0.569385  -0.057367  -0.004983
    26  O   -0.057367   8.517226   0.225926
    27  H   -0.004983   0.225926   0.351424
 Mulliken atomic charges:
              1
     1  C   -0.345297
     2  C   -0.147231
     3  N   -0.077027
     4  C   -0.183408
     5  C   -0.370681
     6  C    0.012446
     7  C   -0.155755
     8  C   -0.044901
     9  H    0.174729
    10  H    0.176637
    11  H    0.168467
    12  H    0.160845
    13  H    0.153870
    14  H    0.176877
    15  H    0.177141
    16  H    0.163386
    17  H    0.185840
    18  H    0.176483
    19  O   -0.532686
    20  H    0.382672
    21  O   -0.540959
    22  H    0.389490
    23  C   -0.198107
    24  H    0.169108
    25  H    0.169125
    26  O   -0.660556
    27  H    0.419494
 Sum of Mulliken atomic charges =   0.00000
 Mulliken charges with hydrogens summed into heavy atoms:
              1
     1  C    0.006069
     2  C    0.021235
     3  N   -0.077027
     4  C    0.131307
     5  C   -0.016663
     6  C    0.175832
     7  C    0.030085
     8  C    0.131582
    19  O   -0.150014
    21  O   -0.151469
    23  C    0.140125
    26  O   -0.241062
 Sum of Mulliken charges with hydrogens summed into heavy atoms =   0.00000
 Electronic spatial extent (au):  <R**2>=           2004.3225
 Charge=              0.0000 electrons
 Dipole moment (field-independent basis, Debye):
    X=              1.2566    Y=             -2.9909    Z=             -0.3321  Tot=              3.2611
 Quadrupole moment (field-independent basis, Debye-Ang):
   XX=            -63.6457   YY=            -72.8128   ZZ=            -74.8596
   XY=             -3.1326   XZ=              6.5697   YZ=              2.5114
 Traceless Quadrupole moment (field-independent basis, Debye-Ang):
   XX=              6.7937   YY=             -2.3734   ZZ=             -4.4202
   XY=             -3.1326   XZ=              6.5697   YZ=              2.5114
 Octapole moment (field-independent basis, Debye-Ang**2):
  XXX=             40.8138  YYY=             -2.6365  ZZZ=              1.9973  XYY=             28.5448
  XXY=            -25.1212  XXZ=             23.9425  XZZ=              0.3037  YZZ=             -1.1877
  YYZ=             -0.8562  XYZ=              0.4536
 Hexadecapole moment (field-independent basis, Debye-Ang**3):
 XXXX=          -1292.0570 YYYY=           -800.8012 ZZZZ=           -289.8725 XXXY=            -78.6785
 XXXZ=             86.5694 YYYX=             24.3547 YYYZ=            -18.1037 ZZZX=             20.0124
 ZZZY=             -2.2731 XXYY=           -352.2186 XXZZ=           -283.1763 YYZZ=           -193.7790
 XXYZ=             -5.7412 YYXZ=             21.2270 ZZXY=            -16.9530
 N-N= 8.107934464353D+02 E-N=-3.007969718964D+03  KE= 5.886551159990D+02
 1\1\GINC-COMPUTE-3-2\SP\RmPW1PW91\6-31+G(d,p)\C8H15N1O3\MAMICHETTI.IQU
 IR\17-May-2024\0\\# mpw1pw91/6-31+G** nmr scrf=(pcm,solvent=water)\\co
 mment\\0,1\C,0,-2.309385,0.699301,0.063053\C,0,-0.975705,0.36844,0.748
 486\N,0,-0.586116,-0.99666,0.257271\C,0,-1.767788,-1.57086,-0.441177\C
 ,0,-2.953474,-0.688704,-0.038216\C,0,0.63477,-0.898874,-0.578489\C,0,0
 .876968,0.620406,-0.787352\C,0,0.214948,1.276516,0.432162\H,0,-2.90648
 8,1.420207,0.62982\H,0,-2.139931,1.110618,-0.939271\H,0,-1.141761,0.33
 2852,1.83285\H,0,-1.920726,-2.623133,-0.17266\H,0,-1.628707,-1.534602,
 -1.532177\H,0,-3.347342,-0.995921,0.938642\H,0,-3.771591,-0.742345,-0.
 763307\H,0,0.449561,-1.383259,-1.544861\H,0,0.351675,0.955492,-1.68762
 6\H,0,0.932085,1.251738,1.263494\O,0,-0.208527,2.62182,0.209341\H,0,0.
 593168,3.13217,0.003624\O,0,2.239625,1.00455,-0.967862\H,0,2.704155,0.
 670354,-0.174725\C,0,1.852304,-1.615821,0.000586\H,0,1.57903,-2.638407
 ,0.290226\H,0,2.626863,-1.682027,-0.774996\O,0,2.358959,-0.888841,1.13
 4039\H,0,3.166532,-1.339777,1.431609\\Version=AM64L-G09RevC.01\State=1
 -A\HF=-594.1953538\RMSD=6.439e-09\Dipole=0.4943886,-1.1766911,-0.13066
 72\Quadrupole=5.050925,-1.7645899,-3.2863351,-2.3289926,4.884396,1.867
 1507\PG=C01 [X(C8H15N1O3)]\\@


 TERRY FORSTER, PORTLY ATLANTA BRAVES RELIEVER,
 ANNOUNCING THAT HE WAS GOING TO A FAT FARM:
 "A WAIST IS A TERRIBLE THING TO MIND."
 Job cpu time:  0 days  0 hours  8 minutes 21.3 seconds.
 File lengths (MBytes):  RWF=    113 Int=      0 D2E=      0 Chk=      7 Scr=      1
 Normal termination of Gaussian 09 at Fri May 17 12:42:54 2024.
