 Entering Gaussian System, Link 0=g09
 Input=/home/mamichetti.iquir/Linux/04_Cardona_A1A3_R__S_R_S_050_OptB.gjc
 Output=/home/mamichetti.iquir/Linux/04_Cardona_A1A3_R__S_R_S_050_OptB.log
 Initial command:
 /opt/ohpc/pub/apps/software/Gaussian/09/AMD64.SSE4a-enabled/g09/l1.exe /local/mamichetti.iquir/Gau-715724.inp -scrdir=/local/mamichetti.iquir/
 Entering Link 1 = /opt/ohpc/pub/apps/software/Gaussian/09/AMD64.SSE4a-enabled/g09/l1.exe PID=    715725.
  
 Copyright (c) 1988,1990,1992,1993,1995,1998,2003,2009,2011,
            Gaussian, Inc.  All Rights Reserved.
  
 This is part of the Gaussian(R) 09 program.  It is based on
 the Gaussian(R) 03 system (copyright 2003, Gaussian, Inc.),
 the Gaussian(R) 98 system (copyright 1998, Gaussian, Inc.),
 the Gaussian(R) 94 system (copyright 1995, Gaussian, Inc.),
 the Gaussian 92(TM) system (copyright 1992, Gaussian, Inc.),
 the Gaussian 90(TM) system (copyright 1990, Gaussian, Inc.),
 the Gaussian 88(TM) system (copyright 1988, Gaussian, Inc.),
 the Gaussian 86(TM) system (copyright 1986, Carnegie Mellon
 University), and the Gaussian 82(TM) system (copyright 1983,
 Carnegie Mellon University). Gaussian is a federally registered
 trademark of Gaussian, Inc.
  
 This software contains proprietary and confidential information,
 including trade secrets, belonging to Gaussian, Inc.
  
 This software is provided under written license and may be
 used, copied, transmitted, or stored only in accord with that
 written license.
  
 The following legend is applicable only to US Government
 contracts under FAR:
  
                    RESTRICTED RIGHTS LEGEND
  
 Use, reproduction and disclosure by the US Government is
 subject to restrictions as set forth in subparagraphs (a)
 and (c) of the Commercial Computer Software - Restricted
 Rights clause in FAR 52.227-19.
  
 Gaussian, Inc.
 340 Quinnipiac St., Bldg. 40, Wallingford CT 06492
  
  
 ---------------------------------------------------------------
 Warning -- This program may not be used in any manner that
 competes with the business of Gaussian, Inc. or will provide
 assistance to any competitor of Gaussian, Inc.  The licensee
 of this program is prohibited from giving any competitor of
 Gaussian, Inc. access to this program.  By using this program,
 the user acknowledges that Gaussian, Inc. is engaged in the
 business of creating and licensing software in the field of
 computational chemistry and represents and warrants to the
 licensee that it is not a competitor of Gaussian, Inc. and that
 it will not use this program in any manner prohibited above.
 ---------------------------------------------------------------
  

 Cite this work as:
 Gaussian 09, Revision C.01,
 M. J. Frisch, G. W. Trucks, H. B. Schlegel, G. E. Scuseria, 
 M. A. Robb, J. R. Cheeseman, G. Scalmani, V. Barone, B. Mennucci, 
 G. A. Petersson, H. Nakatsuji, M. Caricato, X. Li, H. P. Hratchian, 
 A. F. Izmaylov, J. Bloino, G. Zheng, J. L. Sonnenberg, M. Hada, 
 M. Ehara, K. Toyota, R. Fukuda, J. Hasegawa, M. Ishida, T. Nakajima, 
 Y. Honda, O. Kitao, H. Nakai, T. Vreven, J. A. Montgomery, Jr., 
 J. E. Peralta, F. Ogliaro, M. Bearpark, J. J. Heyd, E. Brothers, 
 K. N. Kudin, V. N. Staroverov, T. Keith, R. Kobayashi, J. Normand, 
 K. Raghavachari, A. Rendell, J. C. Burant, S. S. Iyengar, J. Tomasi, 
 M. Cossi, N. Rega, J. M. Millam, M. Klene, J. E. Knox, J. B. Cross, 
 V. Bakken, C. Adamo, J. Jaramillo, R. Gomperts, R. E. Stratmann, 
 O. Yazyev, A. J. Austin, R. Cammi, C. Pomelli, J. W. Ochterski, 
 R. L. Martin, K. Morokuma, V. G. Zakrzewski, G. A. Voth, 
 P. Salvador, J. J. Dannenberg, S. Dapprich, A. D. Daniels, 
 O. Farkas, J. B. Foresman, J. V. Ortiz, J. Cioslowski, 
 and D. J. Fox, Gaussian, Inc., Wallingford CT, 2010.
 
 ******************************************
 Gaussian 09:  AM64L-G09RevC.01 23-Sep-2011
                17-May-2024 
 ******************************************
 %nprocshared=4
 Will use up to    4 processors via shared memory.
 ------------------------------------------------
 # mpw1pw91/6-31+G** nmr scrf=(pcm,solvent=water)
 ------------------------------------------------
 1/38=1/1;
 2/12=2,17=6,18=5,40=1/2;
 3/5=1,6=6,7=111,11=2,16=1,25=1,30=1,70=2201,72=1,74=-7/1,2,8,3;
 4//1;
 5/5=2,38=5,53=1/2;
 8/6=1,10=90,11=11/1;
 10/13=100,45=16/2;
 6/7=2,8=2,9=2,10=2,28=1/1;
 99/9=1/99;
 -------
 comment
 -------
 Charge =  0 Multiplicity = 1
 Symbolic Z-Matrix:
 6                     2.35032  -0.40304   0.1506 
 6                     1.28607   0.03146  -0.8709 
 7                     0.15758  -0.95384  -0.73353 
 6                     0.50225  -1.88756   0.36843 
 6                     2.03024  -1.88765   0.37434 
 6                    -1.09484  -0.16795  -0.60344 
 6                    -0.70769   1.19957  -0.0208 
 6                     0.66783   1.45397  -0.68033 
 1                     3.36889  -0.22272  -0.20589 
 1                     2.22616   0.14739   1.09059 
 1                     1.69907  -0.03801  -1.88432 
 1                     0.07482  -2.8789    0.18178 
 1                     0.13748  -1.56123   1.35489 
 1                     2.41358  -2.49399  -0.45535 
 1                     2.44354  -2.28579   1.3063 
 1                    -1.45598   0.04344  -1.62287 
 1                    -1.43258   1.9752   -0.27606 
 1                     0.50735   1.90597  -1.66428 
 8                     1.45972   2.37064   0.06544 
 1                     1.1673    2.25835   0.99064 
 8                    -0.60332   1.25686   1.41199 
 1                    -0.10048   0.48863   1.73068 
 6                    -2.23684  -0.89323   0.10735 
 1                    -2.34309  -1.90751  -0.30072 
 1                    -2.05     -0.97831   1.18028 
 8                    -3.4632   -0.16583  -0.01293 
 1                    -3.6889   -0.14244  -0.9584 
 
                          Input orientation:                          
 ---------------------------------------------------------------------
 Center     Atomic      Atomic             Coordinates (Angstroms)
 Number     Number       Type             X           Y           Z
 ---------------------------------------------------------------------
      1          6           0        2.350324   -0.403044    0.150602
      2          6           0        1.286070    0.031459   -0.870904
      3          7           0        0.157584   -0.953837   -0.733532
      4          6           0        0.502250   -1.887556    0.368434
      5          6           0        2.030240   -1.887651    0.374339
      6          6           0       -1.094837   -0.167946   -0.603435
      7          6           0       -0.707687    1.199568   -0.020800
      8          6           0        0.667834    1.453970   -0.680331
      9          1           0        3.368887   -0.222722   -0.205889
     10          1           0        2.226162    0.147393    1.090590
     11          1           0        1.699068   -0.038010   -1.884316
     12          1           0        0.074820   -2.878903    0.181777
     13          1           0        0.137483   -1.561228    1.354886
     14          1           0        2.413583   -2.493987   -0.455345
     15          1           0        2.443535   -2.285791    1.306302
     16          1           0       -1.455977    0.043441   -1.622874
     17          1           0       -1.432581    1.975197   -0.276062
     18          1           0        0.507351    1.905968   -1.664279
     19          8           0        1.459722    2.370639    0.065437
     20          1           0        1.167298    2.258347    0.990640
     21          8           0       -0.603318    1.256856    1.411987
     22          1           0       -0.100480    0.488634    1.730676
     23          6           0       -2.236838   -0.893230    0.107345
     24          1           0       -2.343092   -1.907508   -0.300717
     25          1           0       -2.049996   -0.978314    1.180284
     26          8           0       -3.463202   -0.165825   -0.012932
     27          1           0       -3.688899   -0.142436   -0.958402
 ---------------------------------------------------------------------
                    Distance matrix (angstroms):
                    1          2          3          4          5
     1  C    0.000000
     2  C    1.537824   0.000000
     3  N    2.427586   1.504380   0.000000
     4  C    2.380463   2.415150   1.484909   0.000000
     5  C    1.535112   2.405702   2.367747   1.528001   0.000000
     6  C    3.534541   2.404167   1.484287   2.540133   3.698585
     7  C    3.456758   2.462158   2.427722   3.338530   4.145274
     8  C    2.640023   1.562713   2.461853   3.506155   3.759642
     9  H    1.094108   2.201131   3.335476   3.364391   2.213736
    10  H    1.096346   2.178227   2.969704   2.763042   2.166288
    11  H    2.167551   1.096539   2.130544   3.150885   2.938089
    12  H    3.362851   3.323473   2.133195   1.095585   2.200756
    13  H    2.772788   2.968172   2.175044   1.101196   2.156514
    14  H    2.177893   2.796757   2.745721   2.167848   1.096800
    15  H    2.211123   3.383726   3.340748   2.192436   1.094479
    16  H    4.222854   2.843312   2.095011   3.395395   4.457767
    17  H    4.488702   3.394557   3.364096   4.368044   5.228360
    18  H    3.467258   2.179365   3.027724   4.303809   4.568008
    19  O    2.914403   2.525599   3.658696   4.375018   4.307429
    20  H    3.031207   2.904907   3.782911   4.244755   4.279462
    21  O    3.615295   3.206708   3.173230   3.492651   4.230871
    22  H    3.049289   2.983245   2.866992   2.804508   3.467903
    23  C    4.613481   3.771326   2.538504   2.925655   4.389546
    24  H    4.949268   4.153977   2.711125   2.923035   4.425170
    25  H    4.555655   4.044298   2.921763   2.828388   4.257319
    26  O    5.820662   4.830178   3.774959   4.339886   5.769971
    27  H    6.145732   4.978776   3.937559   4.729870   6.126216
                    6          7          8          9         10
     6  C    0.000000
     7  C    1.536048   0.000000
     8  C    2.396567   1.546531   0.000000
     9  H    4.481727   4.321530   3.214355   0.000000
    10  H    3.741416   3.309038   2.696607   1.767389   0.000000
    11  H    3.076271   3.285842   2.176931   2.374770   3.026924
    12  H    3.055150   4.157798   4.457430   4.249289   3.822654
    13  H    2.700901   3.198252   3.676248   3.830090   2.711424
    14  H    4.212055   4.855255   4.322571   2.476586   3.066257
    15  H    4.544495   4.882533   4.591910   2.720157   2.452380
    16  H    1.101981   2.112631   2.718189   5.035673   4.575133
    17  H    2.194153   1.091893   2.201557   5.281086   4.312193
    18  H    2.827281   2.162485   1.094628   3.853130   3.692723
    19  O    3.663001   2.465057   1.422511   3.231726   2.565383
    20  H    3.680384   2.378990   1.920581   3.526242   2.363749
    21  O    2.516660   1.437725   2.456110   4.537079   3.056168
    22  H    2.620671   1.985396   2.708345   4.036436   2.437092
    23  C    1.528205   2.595097   3.816661   5.654366   4.687007
    24  H    2.162372   3.522332   4.528721   5.956022   5.199657
    25  H    2.179605   2.826228   4.094447   5.644173   4.422758
    26  O    2.440871   3.075260   4.487161   6.835050   5.803855
    27  H    2.618360   3.401132   4.648329   7.098244   6.266603
                   11         12         13         14         15
    11  H    0.000000
    12  H    3.870090   0.000000
    13  H    3.905275   1.765327   0.000000
    14  H    2.929900   2.454363   3.054113   0.000000
    15  H    3.973260   2.688336   2.417691   1.774160   0.000000
    16  H    3.166906   3.760346   3.739135   4.772333   5.404775
    17  H    4.055454   5.103348   4.198975   5.899044   5.973623
    18  H    2.290776   5.146843   4.612332   4.945184   5.490355
    19  O    3.108121   5.430394   4.344027   4.984541   4.918330
    20  H    3.717715   5.314048   3.972700   5.121404   4.730498
    21  O    4.224130   4.367813   2.914386   5.163085   4.673845
    22  H    4.072333   3.710812   2.097565   4.471602   3.788079
    23  C    4.493270   3.048311   2.764051   4.950299   5.028182
    24  H    4.726718   2.650039   3.002363   4.795188   5.063339
    25  H    4.932689   3.020612   2.270537   4.989598   4.681581
    26  O    5.492490   4.462769   4.096707   6.336613   6.412813
    27  H    5.467944   4.791017   4.690999   6.559203   6.879651
                   16         17         18         19         20
    16  H    0.000000
    17  H    2.355023   0.000000
    18  H    2.706544   2.386478   0.000000
    19  O    4.094819   2.939118   2.028509   0.000000
    20  H    4.314839   2.905870   2.758314   0.976792   0.000000
    21  O    3.377837   2.013256   3.334418   2.703672   2.077402
    22  H    3.644430   2.830435   3.728809   2.957904   2.299304
    23  C    2.116779   3.003615   4.301713   4.931445   4.722371
    24  H    2.518189   3.988112   4.952467   5.735678   5.598642
    25  H    3.042127   3.350429   4.790683   4.977599   4.567595
    26  O    2.581600   2.962538   4.773318   5.538499   5.322152
    27  H    2.337095   3.168742   4.722577   5.819973   5.757184
                   21         22         23         24         25
    21  O    0.000000
    22  H    0.971892   0.000000
    23  C    2.998891   3.018075   0.000000
    24  H    3.996670   3.859710   1.098437   0.000000
    25  H    2.672555   2.501096   1.092404   1.772758   0.000000
    26  O    3.497621   3.844006   1.430927   2.090676   2.020162
    27  H    4.134921   4.528371   1.951407   2.315000   2.821112
                   26         27
    26  O    0.000000
    27  H    0.972317   0.000000
 Stoichiometry    C8H15NO3
 Framework group  C1[X(C8H15NO3)]
 Deg. of freedom    75
 Full point group                 C1      NOp   1
 Largest Abelian subgroup         C1      NOp   1
 Largest concise Abelian subgroup C1      NOp   1
                         Standard orientation:                         
 ---------------------------------------------------------------------
 Center     Atomic      Atomic             Coordinates (Angstroms)
 Number     Number       Type             X           Y           Z
 ---------------------------------------------------------------------
      1          6           0        2.350324   -0.403044    0.150602
      2          6           0        1.286070    0.031459   -0.870904
      3          7           0        0.157584   -0.953837   -0.733532
      4          6           0        0.502250   -1.887556    0.368434
      5          6           0        2.030240   -1.887651    0.374339
      6          6           0       -1.094837   -0.167946   -0.603435
      7          6           0       -0.707687    1.199568   -0.020800
      8          6           0        0.667834    1.453970   -0.680331
      9          1           0        3.368887   -0.222723   -0.205889
     10          1           0        2.226162    0.147393    1.090590
     11          1           0        1.699068   -0.038010   -1.884316
     12          1           0        0.074819   -2.878903    0.181777
     13          1           0        0.137483   -1.561228    1.354886
     14          1           0        2.413582   -2.493987   -0.455345
     15          1           0        2.443535   -2.285792    1.306302
     16          1           0       -1.455977    0.043441   -1.622874
     17          1           0       -1.432581    1.975197   -0.276062
     18          1           0        0.507351    1.905968   -1.664279
     19          8           0        1.459722    2.370639    0.065437
     20          1           0        1.167298    2.258347    0.990640
     21          8           0       -0.603318    1.256856    1.411987
     22          1           0       -0.100480    0.488634    1.730676
     23          6           0       -2.236838   -0.893230    0.107345
     24          1           0       -2.343092   -1.907508   -0.300717
     25          1           0       -2.049996   -0.978314    1.180284
     26          8           0       -3.463202   -0.165824   -0.012932
     27          1           0       -3.688899   -0.142435   -0.958402
 ---------------------------------------------------------------------
 Rotational constants (GHZ):      1.2929619      0.8425069      0.6122387
 Standard basis: 6-31+G(d,p) (6D, 7F)
 There are   303 symmetry adapted basis functions of A   symmetry.
 Integral buffers will be    131072 words long.
 Raffenetti 2 integral format.
 Two-electron integral symmetry is turned on.
   303 basis functions,   489 primitive gaussians,   303 cartesian basis functions
    47 alpha electrons       47 beta electrons
       nuclear repulsion energy       811.4929407122 Hartrees.
 NAtoms=   27 NActive=   27 NUniq=   27 SFac= 1.00D+00 NAtFMM=   60 NAOKFM=F Big=F
 ------------------------------------------------------------------------------
 Polarizable Continuum Model (PCM)
 =================================
 Model                : PCM.
 Atomic radii         : UFF (Universal Force Field).
 Polarization charges : Total charges.
 Charge compensation  : None.
 Solution method      : Matrix inversion.
 Cavity type          : Scaled VdW (van der Waals Surface) (Alpha=1.100).
 Cavity algorithm     : GePol (No added spheres)
                        Default sphere list used, NSphG=   27.
                        Lebedev-Laikov grids with approx.  5.0 points / Ang**2.
                        Smoothing algorithm: Karplus/York (Gamma=1.0000).
                        Polarization charges: spherical gaussians, with
                                              point-specific exponents (IZeta= 3).
                        Self-potential: point-specific (ISelfS= 7).
                        Self-field    : sphere-specific E.n sum rule (ISelfD= 2).
 Solvent              : Water, Eps=  78.355300 Eps(inf)=   1.777849
 ------------------------------------------------------------------------------
 One-electron integrals computed using PRISM.
 NBasis=   303 RedAO= T  NBF=   303
 NBsUse=   303 1.00D-06 NBFU=   303
 Harris functional with IExCor=  908 diagonalized for initial guess.
 ExpMin= 4.38D-02 ExpMax= 5.48D+03 ExpMxC= 8.25D+02 IAcc=2 IRadAn=         4 AccDes= 0.00D+00
 HarFok:  IExCor=  908 AccDes= 0.00D+00 IRadAn=         4 IDoV= 1
 ScaDFX=  1.000000  1.000000  1.000000  1.000000
 FoFCou: FMM=F IPFlag=           0 FMFlag=      100000 FMFlg1=           0
         NFxFlg=           0 DoJE=T BraDBF=F KetDBF=T FulRan=T
         Omega=  0.000000  0.000000  1.000000  0.000000  0.000000 ICntrl=     500 IOpCl=  0
         NMat0=    1 NMatS0=    1 NMatT0=    0 NMatD0=    1 NMtDS0=    0 NMtDT0=    0
         I1Cent=           4 NGrid=           0.
 Petite list used in FoFCou.
 Initial guess orbital symmetries:
       Occupied  (A) (A) (A) (A) (A) (A) (A) (A) (A) (A) (A) (A)
                 (A) (A) (A) (A) (A) (A) (A) (A) (A) (A) (A) (A)
                 (A) (A) (A) (A) (A) (A) (A) (A) (A) (A) (A) (A)
                 (A) (A) (A) (A) (A) (A) (A) (A) (A) (A) (A)
       Virtual   (A) (A) (A) (A) (A) (A) (A) (A) (A) (A) (A) (A)
                 (A) (A) (A) (A) (A) (A) (A) (A) (A) (A) (A) (A)
                 (A) (A) (A) (A) (A) (A) (A) (A) (A) (A) (A) (A)
                 (A) (A) (A) (A) (A) (A) (A) (A) (A) (A) (A) (A)
                 (A) (A) (A) (A) (A) (A) (A) (A) (A) (A) (A) (A)
                 (A) (A) (A) (A) (A) (A) (A) (A) (A) (A) (A) (A)
                 (A) (A) (A) (A) (A) (A) (A) (A) (A) (A) (A) (A)
                 (A) (A) (A) (A) (A) (A) (A) (A) (A) (A) (A) (A)
                 (A) (A) (A) (A) (A) (A) (A) (A) (A) (A) (A) (A)
                 (A) (A) (A) (A) (A) (A) (A) (A) (A) (A) (A) (A)
                 (A) (A) (A) (A) (A) (A) (A) (A) (A) (A) (A) (A)
                 (A) (A) (A) (A) (A) (A) (A) (A) (A) (A) (A) (A)
                 (A) (A) (A) (A) (A) (A) (A) (A) (A) (A) (A) (A)
                 (A) (A) (A) (A) (A) (A) (A) (A) (A) (A) (A) (A)
                 (A) (A) (A) (A) (A) (A) (A) (A) (A) (A) (A) (A)
                 (A) (A) (A) (A) (A) (A) (A) (A) (A) (A) (A) (A)
                 (A) (A) (A) (A) (A) (A) (A) (A) (A) (A) (A) (A)
                 (A) (A) (A) (A) (A) (A) (A) (A) (A) (A) (A) (A)
                 (A) (A) (A) (A) (A) (A) (A) (A) (A) (A) (A) (A)
                 (A) (A) (A) (A) (A) (A) (A) (A) (A) (A) (A) (A)
                 (A) (A) (A) (A) (A) (A) (A) (A) (A) (A) (A) (A)
                 (A) (A) (A) (A)
 The electronic state of the initial guess is 1-A.
 Requested convergence on RMS density matrix=1.00D-08 within 128 cycles.
 Requested convergence on MAX density matrix=1.00D-06.
 Requested convergence on             energy=1.00D-06.
 No special actions if energy rises.
 Error on total polarization charges =  0.01407
 SCF Done:  E(RmPW1PW91) =  -594.187838130     A.U. after   13 cycles
             Convg  =    0.6878D-08             -V/T =  2.0094
 Range of M.O.s used for correlation:     1   303
 NBasis=   303 NAE=    47 NBE=    47 NFC=     0 NFV=     0
 NROrb=    303 NOA=    47 NOB=    47 NVA=   256 NVB=   256

 **** Warning!!: The largest alpha MO coefficient is  0.71504376D+02

 NEqPCM:  Using equilibrium solvation (IEInf=0, Eps=  78.3553, EpsInf=   1.7778)
          Differentiating once with respect to magnetic field using GIAOs.
          Electric field/nuclear overlap derivatives assumed to be zero.
 FoFCou: FMM=F IPFlag=           0 FMFlag=    10101102 FMFlg1=           0
         NFxFlg=    40000000 DoJE=F BraDBF=F KetDBF=T FulRan=T
         Omega=  0.000000  0.000000  1.000000  0.000000  0.000000 ICntrl=    6100 IOpCl=  0
         NMat0=    1 NMatS0=    1 NMatT0=    0 NMatD0=    1 NMtDS0=    0 NMtDT0=    0
         I1Cent=           7 NGrid=        1779.
 Symmetry not used in FoFCou.
          There are     3 degrees of freedom in the 1st order CPHF.  IDoFFX=0.
      3 vectors produced by pass  0 Test12= 4.01D-13 3.33D-08 XBig12= 3.28D+01 1.16D+00.
 AX will form     3 AO Fock derivatives at one time.
      3 vectors produced by pass  1 Test12= 4.01D-13 3.33D-08 XBig12= 8.39D-02 6.47D-02.
      3 vectors produced by pass  2 Test12= 4.01D-13 3.33D-08 XBig12= 1.91D-04 2.95D-03.
      3 vectors produced by pass  3 Test12= 4.01D-13 3.33D-08 XBig12= 8.17D-07 1.92D-04.
      3 vectors produced by pass  4 Test12= 4.01D-13 3.33D-08 XBig12= 2.29D-09 8.27D-06.
      3 vectors produced by pass  5 Test12= 4.01D-13 3.33D-08 XBig12= 7.41D-12 5.09D-07.
      1 vectors produced by pass  6 Test12= 4.01D-13 3.33D-08 XBig12= 3.06D-14 3.54D-08.
 Inverted reduced A of dimension    19 with in-core refinement.
 Calculating GIAO nuclear magnetic shielding tensors.
 SCF GIAO Magnetic shielding tensor (ppm):
      1  C    Isotropic =   166.2377   Anisotropy =    20.6904
   XX=   167.7206   YX=    -0.4079   ZX=     6.4985
   XY=     9.3215   YY=   175.3444   ZY=   -11.1801
   XZ=     8.0806   YZ=    -9.8044   ZZ=   155.6480
   Eigenvalues:   147.5500   171.1318   180.0313
      2  C    Isotropic =   128.0019   Anisotropy =    53.9928
   XX=   143.6082   YX=    16.6121   ZX=     3.1077
   XY=    19.3936   YY=   147.9713   ZY=    -4.2819
   XZ=    15.0132   YZ=    -5.7963   ZZ=    92.4263
   Eigenvalues:    89.6616   130.3470   163.9971
      3  N    Isotropic =   194.7947   Anisotropy =    89.2762
   XX=   253.4200   YX=     0.4763   ZX=    -0.4893
   XY=     8.5797   YY=   195.0876   ZY=   -27.5370
   XZ=    -9.7106   YZ=   -34.4721   ZZ=   135.8766
   Eigenvalues:   122.5481   207.5239   254.3122
      4  C    Isotropic =   143.5809   Anisotropy =    44.5414
   XX=   145.3926   YX=    -1.3132   ZX=    12.6009
   XY=   -12.2707   YY=   144.1066   ZY=   -22.8695
   XZ=    10.4093   YZ=   -26.3233   ZZ=   141.2436
   Eigenvalues:   117.4785   139.9891   173.2752
      5  C    Isotropic =   166.8731   Anisotropy =    19.7076
   XX=   179.2047   YX=     2.2541   ZX=     8.8092
   XY=     1.6394   YY=   173.0458   ZY=   -17.3175
   XZ=     1.2459   YZ=    -8.6335   ZZ=   148.3689
   Eigenvalues:   142.0213   178.5866   180.0115
      6  C    Isotropic =   129.7878   Anisotropy =    40.7885
   XX=   152.7145   YX=   -14.3847   ZX=   -12.8048
   XY=    -4.0899   YY=   128.8495   ZY=     0.7641
   XZ=     0.5074   YZ=     8.8089   ZZ=   107.7994
   Eigenvalues:   106.3693   126.0140   156.9801
      7  C    Isotropic =   117.4473   Anisotropy =    34.6146
   XX=   106.2458   YX=     8.2754   ZX=     9.0826
   XY=     9.6337   YY=   106.1041   ZY=     4.0512
   XZ=    -4.3686   YZ=     1.6050   ZZ=   139.9919
   Eigenvalues:    97.2173   114.6009   140.5236
      8  C    Isotropic =   121.8082   Anisotropy =    49.7170
   XX=   132.4416   YX=    12.3431   ZX=    10.9338
   XY=    12.7867   YY=   134.8305   ZY=    22.8455
   XZ=     7.9685   YZ=    19.2381   ZZ=    98.1526
   Eigenvalues:    88.2904   122.1814   154.9529
      9  H    Isotropic =    29.7858   Anisotropy =    11.0865
   XX=    36.5713   YX=     1.2012   ZX=    -1.8411
   XY=     1.8090   YY=    27.5835   ZY=    -1.0933
   XZ=    -2.0379   YZ=    -0.8787   ZZ=    25.2026
   Eigenvalues:    24.6838    27.4968    37.1768
     10  H    Isotropic =    30.0351   Anisotropy =     6.1535
   XX=    27.9297   YX=    -0.9915   ZX=     2.4480
   XY=    -1.6182   YY=    31.2460   ZY=     2.7450
   XZ=     3.0806   YZ=     2.9664   ZZ=    30.9294
   Eigenvalues:    25.1157    30.8521    34.1374
     11  H    Isotropic =    27.8468   Anisotropy =     9.0598
   XX=    26.4774   YX=     1.2764   ZX=    -4.1217
   XY=     0.1611   YY=    25.3308   ZY=    -0.6979
   XZ=    -3.4922   YZ=    -1.1593   ZZ=    31.7322
   Eigenvalues:    24.4242    25.2295    33.8867
     12  H    Isotropic =    28.5830   Anisotropy =     9.4058
   XX=    27.8391   YX=     1.3159   ZX=     0.7858
   XY=     2.6733   YY=    34.1505   ZY=    -1.0382
   XZ=     0.9055   YZ=    -1.8870   ZZ=    23.7594
   Eigenvalues:    23.2679    27.6275    34.8535
     13  H    Isotropic =    28.9002   Anisotropy =     7.2949
   XX=    27.8266   YX=    -1.9965   ZX=    -0.7250
   XY=    -2.4371   YY=    26.9358   ZY=    -3.8419
   XZ=    -2.7923   YZ=    -3.0664   ZZ=    31.9382
   Eigenvalues:    23.4157    29.5214    33.7635
     14  H    Isotropic =    29.8017   Anisotropy =    11.2715
   XX=    29.4619   YX=    -3.4831   ZX=    -2.5412
   XY=    -3.9060   YY=    32.7087   ZY=     3.6198
   XZ=    -2.7800   YZ=     4.1422   ZZ=    27.2345
   Eigenvalues:    25.0348    27.0542    37.3161
     15  H    Isotropic =    29.7178   Anisotropy =    11.8211
   XX=    28.9271   YX=    -2.5641   ZX=     4.0060
   XY=    -3.1439   YY=    29.6045   ZY=    -4.8777
   XZ=     4.1994   YZ=    -4.3422   ZZ=    30.6219
   Eigenvalues:    25.1632    26.3918    37.5986
     16  H    Isotropic =    28.6576   Anisotropy =     8.0643
   XX=    30.2848   YX=    -0.4817   ZX=     3.4513
   XY=    -1.4340   YY=    25.2590   ZY=    -0.5327
   XZ=     3.8364   YZ=     0.9258   ZZ=    30.4291
   Eigenvalues:    24.8632    27.0758    34.0339
     17  H    Isotropic =    27.4885   Anisotropy =     7.4455
   XX=    27.9832   YX=    -3.2565   ZX=     1.5710
   XY=    -2.6197   YY=    27.8342   ZY=    -1.7400
   XZ=     2.7302   YZ=    -2.5908   ZZ=    26.6480
   Eigenvalues:    24.9495    25.0638    32.4521
     18  H    Isotropic =    27.2989   Anisotropy =     7.2697
   XX=    23.5786   YX=    -0.1714   ZX=     2.7626
   XY=     0.5366   YY=    28.5519   ZY=    -2.0058
   XZ=    -0.1200   YZ=    -3.6394   ZZ=    29.7661
   Eigenvalues:    23.1789    26.5723    32.1453
     19  O    Isotropic =   312.1465   Anisotropy =    31.1212
   XX=   295.6181   YX=    -3.4401   ZX=   -15.9583
   XY=    16.7941   YY=   326.5138   ZY=    10.7224
   XZ=   -28.5357   YZ=   -13.2448   ZZ=   314.3075
   Eigenvalues:   280.3159   323.2296   332.8940
     20  H    Isotropic =    28.5058   Anisotropy =    14.8613
   XX=    25.3763   YX=     4.6789   ZX=    -4.4021
   XY=     2.9801   YY=    22.9470   ZY=     0.7545
   XZ=    -3.5712   YZ=     1.5456   ZZ=    37.1942
   Eigenvalues:    19.5081    27.5960    38.4133
     21  O    Isotropic =   308.2043   Anisotropy =    93.9095
   XX=   299.9143   YX=   -35.3516   ZX=    26.6629
   XY=   -39.9162   YY=   341.3450   ZY=   -41.5745
   XZ=     2.2492   YZ=     0.2875   ZZ=   283.3537
   Eigenvalues:   274.8840   278.9183   370.8106
     22  H    Isotropic =    31.0701   Anisotropy =    15.8361
   XX=    27.3939   YX=    -7.7039   ZX=     3.2406
   XY=    -7.7727   YY=    34.1172   ZY=    -4.8567
   XZ=     2.1213   YZ=    -3.3867   ZZ=    31.6994
   Eigenvalues:    22.3185    29.2644    41.6275
     23  C    Isotropic =   136.1249   Anisotropy =    69.5303
   XX=   168.1360   YX=   -25.4402   ZX=     4.2729
   XY=   -25.7137   YY=   134.2970   ZY=    -8.2684
   XZ=     3.0876   YZ=    -6.4817   ZZ=   105.9418
   Eigenvalues:   103.9946   121.9017   182.4784
     24  H    Isotropic =    27.4690   Anisotropy =     5.6750
   XX=    29.8134   YX=    -1.5171   ZX=    -0.1406
   XY=     0.9325   YY=    31.0783   ZY=     1.3972
   XZ=     0.6018   YZ=     0.8055   ZZ=    21.5153
   Eigenvalues:    21.3819    29.7727    31.2523
     25  H    Isotropic =    27.4384   Anisotropy =     4.1133
   XX=    29.9735   YX=    -0.4210   ZX=     1.3460
   XY=    -0.1614   YY=    25.0967   ZY=    -3.0858
   XZ=    -0.5186   YZ=    -2.0308   ZZ=    27.2450
   Eigenvalues:    23.3962    28.7385    30.1806
     26  O    Isotropic =   306.8726   Anisotropy =    57.4753
   XX=   305.0825   YX=     2.4504   ZX=     1.5060
   XY=    -7.5858   YY=   277.1076   ZY=    -6.6788
   XZ=    22.8326   YZ=   -20.6400   ZZ=   338.4276
   Eigenvalues:   274.2025   301.2257   345.1895
     27  H    Isotropic =    30.5849   Anisotropy =    17.5804
   XX=    30.9514   YX=    -2.3713   ZX=     6.7092
   XY=    -2.4479   YY=    22.5211   ZY=    -1.5440
   XZ=     6.3716   YZ=    -0.1164   ZZ=    38.2822
   Eigenvalues:    21.8174    27.6321    42.3052
 End of Minotr Frequency-dependent properties file   721 does not exist.
 End of Minotr Frequency-dependent properties file   722 does not exist.

 **********************************************************************

            Population analysis using the SCF density.

 **********************************************************************

 Orbital symmetries:
       Occupied  (A) (A) (A) (A) (A) (A) (A) (A) (A) (A) (A) (A)
                 (A) (A) (A) (A) (A) (A) (A) (A) (A) (A) (A) (A)
                 (A) (A) (A) (A) (A) (A) (A) (A) (A) (A) (A) (A)
                 (A) (A) (A) (A) (A) (A) (A) (A) (A) (A) (A)
       Virtual   (A) (A) (A) (A) (A) (A) (A) (A) (A) (A) (A) (A)
                 (A) (A) (A) (A) (A) (A) (A) (A) (A) (A) (A) (A)
                 (A) (A) (A) (A) (A) (A) (A) (A) (A) (A) (A) (A)
                 (A) (A) (A) (A) (A) (A) (A) (A) (A) (A) (A) (A)
                 (A) (A) (A) (A) (A) (A) (A) (A) (A) (A) (A) (A)
                 (A) (A) (A) (A) (A) (A) (A) (A) (A) (A) (A) (A)
                 (A) (A) (A) (A) (A) (A) (A) (A) (A) (A) (A) (A)
                 (A) (A) (A) (A) (A) (A) (A) (A) (A) (A) (A) (A)
                 (A) (A) (A) (A) (A) (A) (A) (A) (A) (A) (A) (A)
                 (A) (A) (A) (A) (A) (A) (A) (A) (A) (A) (A) (A)
                 (A) (A) (A) (A) (A) (A) (A) (A) (A) (A) (A) (A)
                 (A) (A) (A) (A) (A) (A) (A) (A) (A) (A) (A) (A)
                 (A) (A) (A) (A) (A) (A) (A) (A) (A) (A) (A) (A)
                 (A) (A) (A) (A) (A) (A) (A) (A) (A) (A) (A) (A)
                 (A) (A) (A) (A) (A) (A) (A) (A) (A) (A) (A) (A)
                 (A) (A) (A) (A) (A) (A) (A) (A) (A) (A) (A) (A)
                 (A) (A) (A) (A) (A) (A) (A) (A) (A) (A) (A) (A)
                 (A) (A) (A) (A) (A) (A) (A) (A) (A) (A) (A) (A)
                 (A) (A) (A) (A) (A) (A) (A) (A) (A) (A) (A) (A)
                 (A) (A) (A) (A) (A) (A) (A) (A) (A) (A) (A) (A)
                 (A) (A) (A) (A) (A) (A) (A) (A) (A) (A) (A) (A)
                 (A) (A) (A) (A)
 The electronic state is 1-A.
 Alpha  occ. eigenvalues --  -19.27334 -19.26043 -19.25539 -14.41646 -10.30774
 Alpha  occ. eigenvalues --  -10.30376 -10.30261 -10.28674 -10.27749 -10.27573
 Alpha  occ. eigenvalues --  -10.24917 -10.24885  -1.08466  -1.06161  -1.05079
 Alpha  occ. eigenvalues --   -0.96587  -0.83287  -0.79025  -0.75539  -0.72223
 Alpha  occ. eigenvalues --   -0.67486  -0.62944  -0.60388  -0.57857  -0.56358
 Alpha  occ. eigenvalues --   -0.53390  -0.51889  -0.51101  -0.49201  -0.48572
 Alpha  occ. eigenvalues --   -0.45632  -0.44375  -0.43921  -0.42791  -0.41469
 Alpha  occ. eigenvalues --   -0.40354  -0.38246  -0.37062  -0.36522  -0.35904
 Alpha  occ. eigenvalues --   -0.35521  -0.35348  -0.34130  -0.31830  -0.30014
 Alpha  occ. eigenvalues --   -0.29495  -0.22953
 Alpha virt. eigenvalues --   -0.00413   0.01159   0.01889   0.02362   0.03792
 Alpha virt. eigenvalues --    0.04053   0.04624   0.05217   0.05418   0.06728
 Alpha virt. eigenvalues --    0.07916   0.08454   0.08721   0.09044   0.09166
 Alpha virt. eigenvalues --    0.10418   0.10979   0.11943   0.12568   0.12770
 Alpha virt. eigenvalues --    0.13234   0.13757   0.13971   0.14374   0.14587
 Alpha virt. eigenvalues --    0.15612   0.16686   0.16986   0.17570   0.17801
 Alpha virt. eigenvalues --    0.18289   0.19255   0.19607   0.20285   0.21124
 Alpha virt. eigenvalues --    0.21288   0.21619   0.21985   0.22947   0.23034
 Alpha virt. eigenvalues --    0.24103   0.24578   0.24923   0.25018   0.25747
 Alpha virt. eigenvalues --    0.26532   0.27168   0.28002   0.28308   0.28833
 Alpha virt. eigenvalues --    0.29116   0.29873   0.30462   0.31298   0.32017
 Alpha virt. eigenvalues --    0.32766   0.33060   0.33408   0.34173   0.34606
 Alpha virt. eigenvalues --    0.34817   0.35376   0.36301   0.36527   0.37882
 Alpha virt. eigenvalues --    0.38713   0.39388   0.39765   0.40291   0.42049
 Alpha virt. eigenvalues --    0.42649   0.43450   0.44332   0.45201   0.48726
 Alpha virt. eigenvalues --    0.49502   0.63209   0.67052   0.67562   0.67661
 Alpha virt. eigenvalues --    0.69365   0.70353   0.70986   0.72247   0.72774
 Alpha virt. eigenvalues --    0.74925   0.75460   0.78733   0.80102   0.80601
 Alpha virt. eigenvalues --    0.82346   0.83349   0.85272   0.86494   0.91094
 Alpha virt. eigenvalues --    0.91780   0.92929   0.93704   0.94814   0.96192
 Alpha virt. eigenvalues --    0.98606   1.00325   1.00608   1.03071   1.04771
 Alpha virt. eigenvalues --    1.05935   1.07273   1.07614   1.08263   1.09386
 Alpha virt. eigenvalues --    1.10845   1.12319   1.14182   1.15081   1.16119
 Alpha virt. eigenvalues --    1.17207   1.18897   1.19915   1.24135   1.26429
 Alpha virt. eigenvalues --    1.27097   1.27818   1.29749   1.31837   1.32861
 Alpha virt. eigenvalues --    1.33995   1.35617   1.36274   1.39934   1.40963
 Alpha virt. eigenvalues --    1.41997   1.44413   1.45672   1.48687   1.50968
 Alpha virt. eigenvalues --    1.53452   1.55291   1.56678   1.59324   1.60299
 Alpha virt. eigenvalues --    1.60780   1.65650   1.66532   1.67167   1.70688
 Alpha virt. eigenvalues --    1.73103   1.74543   1.75198   1.77383   1.79052
 Alpha virt. eigenvalues --    1.79511   1.80959   1.82911   1.83385   1.85992
 Alpha virt. eigenvalues --    1.87460   1.89039   1.90234   1.92448   1.93075
 Alpha virt. eigenvalues --    1.94992   2.00199   2.01102   2.02907   2.03662
 Alpha virt. eigenvalues --    2.05117   2.06490   2.07535   2.08361   2.10149
 Alpha virt. eigenvalues --    2.13189   2.14121   2.17234   2.19123   2.19505
 Alpha virt. eigenvalues --    2.20944   2.22722   2.25483   2.27689   2.28304
 Alpha virt. eigenvalues --    2.30022   2.31408   2.32335   2.36134   2.39683
 Alpha virt. eigenvalues --    2.40974   2.42647   2.45139   2.45408   2.46113
 Alpha virt. eigenvalues --    2.49045   2.49783   2.51343   2.52595   2.55235
 Alpha virt. eigenvalues --    2.57233   2.58086   2.59539   2.60287   2.62312
 Alpha virt. eigenvalues --    2.63644   2.65815   2.66111   2.68129   2.68867
 Alpha virt. eigenvalues --    2.71798   2.72429   2.74110   2.76405   2.77635
 Alpha virt. eigenvalues --    2.78833   2.80774   2.82409   2.82575   2.85153
 Alpha virt. eigenvalues --    2.86951   2.89218   2.89553   2.92565   2.95236
 Alpha virt. eigenvalues --    2.97454   2.98384   3.00147   3.00313   3.04088
 Alpha virt. eigenvalues --    3.06322   3.08811   3.12583   3.14206   3.31695
 Alpha virt. eigenvalues --    3.35209   3.36213   3.38217   3.43275   3.44643
 Alpha virt. eigenvalues --    3.46388   3.50177   3.52286   3.53026   3.56098
 Alpha virt. eigenvalues --    3.57327   3.59864   3.60862   3.62722   4.27850
 Alpha virt. eigenvalues --    4.33069   4.37829   4.44495   4.50269   4.54628
 Alpha virt. eigenvalues --    4.56946   4.73026   4.73769   4.82109   4.87434
 Alpha virt. eigenvalues --    4.95371
          Condensed to atoms (all electrons):
              1          2          3          4          5          6
     1  C    5.804921  -0.599597   0.164971  -0.118484   0.180449  -0.015380
     2  C   -0.599597   8.607682  -0.584031  -0.442112   0.198879   0.047115
     3  N    0.164971  -0.584031   7.773311   0.494406  -0.379314  -0.667337
     4  C   -0.118484  -0.442112   0.494406   5.928389  -0.191500  -0.641925
     5  C    0.180449   0.198879  -0.379314  -0.191500   5.835517   0.483444
     6  C   -0.015380   0.047115  -0.667337  -0.641925   0.483444   9.531030
     7  C   -0.118849   0.249241   0.061008   0.039319  -0.102480  -1.717104
     8  C    0.212990  -1.192442   0.153849   0.223504  -0.103342   0.003795
     9  H    0.399783  -0.093007   0.013710   0.043491  -0.038386   0.008056
    10  H    0.436284  -0.103007   0.035019   0.020868  -0.076782  -0.033691
    11  H    0.037878   0.212937   0.005756   0.021127  -0.014994  -0.005417
    12  H    0.036440  -0.010124  -0.056246   0.395085  -0.012621  -0.000572
    13  H   -0.025683   0.037660  -0.081542   0.322241   0.002163   0.066739
    14  H   -0.037173  -0.013403   0.017209  -0.042258   0.401434  -0.002322
    15  H   -0.058505   0.037662   0.007064  -0.041366   0.401136  -0.009871
    16  H    0.006228  -0.051314   0.002595   0.032736  -0.006700   0.294083
    17  H    0.001619   0.018765   0.025371   0.005359  -0.002736  -0.104899
    18  H    0.002533  -0.080239   0.024153   0.006868  -0.006494  -0.053268
    19  O    0.036543  -0.282905   0.045319   0.001320  -0.004352   0.040154
    20  H   -0.007859  -0.003515  -0.002158  -0.000040  -0.000495   0.012353
    21  O   -0.011651   0.045863   0.086631   0.045434  -0.042459  -0.191565
    22  H   -0.005951   0.043289   0.017255   0.013964  -0.012526  -0.082500
    23  C   -0.035892   0.072682   0.026904  -0.029708  -0.049934  -0.495862
    24  H    0.002150   0.005780  -0.000573  -0.002008   0.001248  -0.053051
    25  H   -0.001000  -0.008458   0.011227   0.014377  -0.000928  -0.038994
    26  O    0.005812  -0.006134   0.026103   0.003696  -0.007301  -0.136287
    27  H    0.000208  -0.001772   0.002261   0.005823   0.000196   0.008334
              7          8          9         10         11         12
     1  C   -0.118849   0.212990   0.399783   0.436284   0.037878   0.036440
     2  C    0.249241  -1.192442  -0.093007  -0.103007   0.212937  -0.010124
     3  N    0.061008   0.153849   0.013710   0.035019   0.005756  -0.056246
     4  C    0.039319   0.223504   0.043491   0.020868   0.021127   0.395085
     5  C   -0.102480  -0.103342  -0.038386  -0.076782  -0.014994  -0.012621
     6  C   -1.717104   0.003795   0.008056  -0.033691  -0.005417  -0.000572
     7  C    7.504695  -0.710198  -0.020479   0.041087   0.024334  -0.010797
     8  C   -0.710198   6.887233   0.031111  -0.011237  -0.011538  -0.000057
     9  H   -0.020479   0.031111   0.507175  -0.022437  -0.004405  -0.000094
    10  H    0.041087  -0.011237  -0.022437   0.538066   0.004186  -0.000069
    11  H    0.024334  -0.011538  -0.004405   0.004186   0.559569   0.000169
    12  H   -0.010797  -0.000057  -0.000094  -0.000069   0.000169   0.536016
    13  H    0.029696  -0.015881  -0.000132   0.000620  -0.000516  -0.045263
    14  H    0.009049  -0.002752  -0.004513   0.004145   0.000704  -0.006439
    15  H    0.004731  -0.001467   0.000145  -0.005156  -0.000115   0.000523
    16  H   -0.017233   0.009855   0.000004   0.000020   0.001792   0.000213
    17  H    0.424190  -0.027503   0.000004  -0.000065  -0.000078   0.000009
    18  H   -0.020554   0.452185  -0.000063   0.000156  -0.007032   0.000003
    19  O   -0.114538   0.389854  -0.000793   0.009088   0.009179   0.000094
    20  H   -0.096224   0.066352   0.000192  -0.001069  -0.000200  -0.000001
    21  O    0.234972  -0.093454   0.000335  -0.000312  -0.000012   0.000380
    22  H    0.095669  -0.048370   0.000004  -0.000917  -0.000052  -0.000044
    23  C    0.148320  -0.071049  -0.000204   0.001570  -0.000597   0.000526
    24  H    0.018002  -0.001089   0.000000   0.000000  -0.000008  -0.000966
    25  H   -0.042214   0.002398   0.000000   0.000005   0.000003  -0.000156
    26  O    0.014700   0.036877  -0.000002   0.000006   0.000014  -0.000046
    27  H   -0.027395   0.001217   0.000000   0.000000   0.000001   0.000001
             13         14         15         16         17         18
     1  C   -0.025683  -0.037173  -0.058505   0.006228   0.001619   0.002533
     2  C    0.037660  -0.013403   0.037662  -0.051314   0.018765  -0.080239
     3  N   -0.081542   0.017209   0.007064   0.002595   0.025371   0.024153
     4  C    0.322241  -0.042258  -0.041366   0.032736   0.005359   0.006868
     5  C    0.002163   0.401434   0.401136  -0.006700  -0.002736  -0.006494
     6  C    0.066739  -0.002322  -0.009871   0.294083  -0.104899  -0.053268
     7  C    0.029696   0.009049   0.004731  -0.017233   0.424190  -0.020554
     8  C   -0.015881  -0.002752  -0.001467   0.009855  -0.027503   0.452185
     9  H   -0.000132  -0.004513   0.000145   0.000004   0.000004  -0.000063
    10  H    0.000620   0.004145  -0.005156   0.000020  -0.000065   0.000156
    11  H   -0.000516   0.000704  -0.000115   0.001792  -0.000078  -0.007032
    12  H   -0.045263  -0.006439   0.000523   0.000213   0.000009   0.000003
    13  H    0.603664   0.004123  -0.004686  -0.000556  -0.000165   0.000001
    14  H    0.004123   0.514737  -0.023722   0.000007   0.000000   0.000004
    15  H   -0.004686  -0.023722   0.511359   0.000002   0.000000   0.000003
    16  H   -0.000556   0.000007   0.000002   0.561169  -0.000792   0.000825
    17  H   -0.000165   0.000000   0.000000  -0.000792   0.521908  -0.004931
    18  H    0.000001   0.000004   0.000003   0.000825  -0.004931   0.538919
    19  O   -0.000396   0.000109   0.000070   0.000497   0.000943  -0.057676
    20  H    0.000025  -0.000001   0.000002  -0.000047  -0.000233   0.005766
    21  O   -0.009343  -0.000011   0.000161   0.009896  -0.046100   0.010912
    22  H    0.002253   0.000002  -0.000099  -0.000049   0.005309  -0.000314
    23  C   -0.027356  -0.001335   0.001131  -0.013159   0.000140   0.009048
    24  H    0.000376   0.000003   0.000001  -0.006570  -0.000084   0.000004
    25  H   -0.001339   0.000000   0.000003   0.004634   0.000292  -0.000002
    26  O   -0.000100   0.000003   0.000001  -0.006371   0.003525   0.000029
    27  H   -0.000014   0.000000   0.000000   0.005831   0.000228   0.000005
             19         20         21         22         23         24
     1  C    0.036543  -0.007859  -0.011651  -0.005951  -0.035892   0.002150
     2  C   -0.282905  -0.003515   0.045863   0.043289   0.072682   0.005780
     3  N    0.045319  -0.002158   0.086631   0.017255   0.026904  -0.000573
     4  C    0.001320  -0.000040   0.045434   0.013964  -0.029708  -0.002008
     5  C   -0.004352  -0.000495  -0.042459  -0.012526  -0.049934   0.001248
     6  C    0.040154   0.012353  -0.191565  -0.082500  -0.495862  -0.053051
     7  C   -0.114538  -0.096224   0.234972   0.095669   0.148320   0.018002
     8  C    0.389854   0.066352  -0.093454  -0.048370  -0.071049  -0.001089
     9  H   -0.000793   0.000192   0.000335   0.000004  -0.000204   0.000000
    10  H    0.009088  -0.001069  -0.000312  -0.000917   0.001570   0.000000
    11  H    0.009179  -0.000200  -0.000012  -0.000052  -0.000597  -0.000008
    12  H    0.000094  -0.000001   0.000380  -0.000044   0.000526  -0.000966
    13  H   -0.000396   0.000025  -0.009343   0.002253  -0.027356   0.000376
    14  H    0.000109  -0.000001  -0.000011   0.000002  -0.001335   0.000003
    15  H    0.000070   0.000002   0.000161  -0.000099   0.001131   0.000001
    16  H    0.000497  -0.000047   0.009896  -0.000049  -0.013159  -0.006570
    17  H    0.000943  -0.000233  -0.046100   0.005309   0.000140  -0.000084
    18  H   -0.057676   0.005766   0.010912  -0.000314   0.009048   0.000004
    19  O    8.243894   0.243129  -0.031391  -0.002675  -0.007896   0.000021
    20  H    0.243129   0.352378   0.046098  -0.004852   0.001859   0.000000
    21  O   -0.031391   0.046098   8.277413   0.250255   0.011706  -0.001689
    22  H   -0.002675  -0.004852   0.250255   0.341450  -0.013140   0.000029
    23  C   -0.007896   0.001859   0.011706  -0.013140   5.553458   0.389614
    24  H    0.000021   0.000000  -0.001689   0.000029   0.389614   0.556708
    25  H    0.000068  -0.000011   0.010713  -0.000128   0.427405  -0.037707
    26  O   -0.000061  -0.000011  -0.003402   0.000072   0.177267  -0.037079
    27  H    0.000009   0.000000   0.000594  -0.000003  -0.000699  -0.007257
             25         26         27
     1  C   -0.001000   0.005812   0.000208
     2  C   -0.008458  -0.006134  -0.001772
     3  N    0.011227   0.026103   0.002261
     4  C    0.014377   0.003696   0.005823
     5  C   -0.000928  -0.007301   0.000196
     6  C   -0.038994  -0.136287   0.008334
     7  C   -0.042214   0.014700  -0.027395
     8  C    0.002398   0.036877   0.001217
     9  H    0.000000  -0.000002   0.000000
    10  H    0.000005   0.000006   0.000000
    11  H    0.000003   0.000014   0.000001
    12  H   -0.000156  -0.000046   0.000001
    13  H   -0.001339  -0.000100  -0.000014
    14  H    0.000000   0.000003   0.000000
    15  H    0.000003   0.000001   0.000000
    16  H    0.004634  -0.006371   0.005831
    17  H    0.000292   0.003525   0.000228
    18  H   -0.000002   0.000029   0.000005
    19  O    0.000068  -0.000061   0.000009
    20  H   -0.000011  -0.000011   0.000000
    21  O    0.010713  -0.003402   0.000594
    22  H   -0.000128   0.000072  -0.000003
    23  C    0.427405   0.177267  -0.000699
    24  H   -0.037707  -0.037079  -0.007257
    25  H    0.537717  -0.056546   0.006481
    26  O   -0.056546   8.263001   0.258689
    27  H    0.006481   0.258689   0.371348
 Mulliken atomic charges:
              1
     1  C   -0.292785
     2  C   -0.105493
     3  N   -0.222924
     4  C   -0.108607
     5  C   -0.451122
     6  C   -0.245059
     7  C    0.099052
     8  C   -0.180840
     9  H    0.180505
    10  H    0.163621
    11  H    0.167315
    12  H    0.174037
    13  H    0.143409
    14  H    0.182400
    15  H    0.180994
    16  H    0.172403
    17  H    0.179928
    18  H    0.179159
    19  O   -0.517610
    20  H    0.388562
    21  O   -0.599974
    22  H    0.402068
    23  C   -0.074800
    24  H    0.174146
    25  H    0.172159
    26  O   -0.536458
    27  H    0.375913
 Sum of Mulliken atomic charges =   0.00000
 Mulliken charges with hydrogens summed into heavy atoms:
              1
     1  C    0.051341
     2  C    0.061822
     3  N   -0.222924
     4  C    0.208839
     5  C   -0.087728
     6  C   -0.072655
     7  C    0.278979
     8  C   -0.001680
    19  O   -0.129047
    21  O   -0.197907
    23  C    0.271505
    26  O   -0.160545
 Sum of Mulliken charges with hydrogens summed into heavy atoms =   0.00000
 Electronic spatial extent (au):  <R**2>=           2005.2185
 Charge=              0.0000 electrons
 Dipole moment (field-independent basis, Debye):
    X=              0.7714    Y=             -3.4083    Z=             -0.9465  Tot=              3.6204
 Quadrupole moment (field-independent basis, Debye-Ang):
   XX=            -79.5364   YY=            -79.8566   ZZ=            -69.3946
   XY=             -3.1795   XZ=             10.3034   YZ=             -4.7305
 Traceless Quadrupole moment (field-independent basis, Debye-Ang):
   XX=             -3.2739   YY=             -3.5941   ZZ=              6.8680
   XY=             -3.1795   XZ=             10.3034   YZ=             -4.7305
 Octapole moment (field-independent basis, Debye-Ang**2):
  XXX=             14.4445  YYY=            -18.6458  ZZZ=              5.0401  XYY=            -17.0093
  XXY=            -14.0368  XXZ=            -28.1295  XZZ=             -2.9671  YZZ=              6.0772
  YYZ=              3.1349  XYZ=              5.1640
 Hexadecapole moment (field-independent basis, Debye-Ang**3):
 XXXX=          -1489.3631 YYYY=           -930.0700 ZZZZ=           -290.7773 XXXY=            -13.9097
 XXXZ=            104.4767 YYYX=            -31.1204 YYYZ=              5.8945 ZZZX=             18.7176
 ZZZY=            -10.1140 XXYY=           -397.8969 XXZZ=           -249.0604 YYZZ=           -197.0772
 XXYZ=              5.5969 YYXZ=             15.8989 ZZXY=             15.3910
 N-N= 8.114929407122D+02 E-N=-3.008329302515D+03  KE= 5.886529870697D+02
 1\1\GINC-COMPUTE-3-0\SP\RmPW1PW91\6-31+G(d,p)\C8H15N1O3\MAMICHETTI.IQU
 IR\17-May-2024\0\\# mpw1pw91/6-31+G** nmr scrf=(pcm,solvent=water)\\co
 mment\\0,1\C,0,2.350324,-0.403044,0.150602\C,0,1.28607,0.031459,-0.870
 904\N,0,0.157584,-0.953837,-0.733532\C,0,0.50225,-1.887556,0.368434\C,
 0,2.03024,-1.887651,0.374339\C,0,-1.094837,-0.167946,-0.603435\C,0,-0.
 707687,1.199568,-0.0208\C,0,0.667834,1.45397,-0.680331\H,0,3.368887,-0
 .222722,-0.205889\H,0,2.226162,0.147393,1.09059\H,0,1.699068,-0.03801,
 -1.884316\H,0,0.07482,-2.878903,0.181777\H,0,0.137483,-1.561228,1.3548
 86\H,0,2.413583,-2.493987,-0.455345\H,0,2.443535,-2.285791,1.306302\H,
 0,-1.455977,0.043441,-1.622874\H,0,-1.432581,1.975197,-0.276062\H,0,0.
 507351,1.905968,-1.664279\O,0,1.459722,2.370639,0.065437\H,0,1.167298,
 2.258347,0.99064\O,0,-0.603318,1.256856,1.411987\H,0,-0.10048,0.488634
 ,1.730676\C,0,-2.236838,-0.89323,0.107345\H,0,-2.343092,-1.907508,-0.3
 00717\H,0,-2.049996,-0.978314,1.180284\O,0,-3.463202,-0.165825,-0.0129
 32\H,0,-3.688899,-0.142436,-0.958402\\Version=AM64L-G09RevC.01\State=1
 -A\HF=-594.1878381\RMSD=6.878e-09\Dipole=0.3034889,-1.3409094,-0.37236
 31\Quadrupole=-2.4340612,-2.6720983,5.1061595,-2.3638557,7.6603437,-3.
 5170152\PG=C01 [X(C8H15N1O3)]\\@


 ONE BIG VICE IN A MAN IS APT TO KEEP OUT MANY SMALLER ONES.

                           -- BRET HARTE
 Job cpu time:  0 days  0 hours  9 minutes 15.8 seconds.
 File lengths (MBytes):  RWF=    110 Int=      0 D2E=      0 Chk=      7 Scr=      1
 Normal termination of Gaussian 09 at Fri May 17 12:57:54 2024.
