 Entering Gaussian System, Link 0=g09
 Input=/home/mamichetti.iquir/Linux/04_Cardona_A1A3_R__S_R_S_019_OptB.gjc
 Output=/home/mamichetti.iquir/Linux/04_Cardona_A1A3_R__S_R_S_019_OptB.log
 Initial command:
 /opt/ohpc/pub/apps/software/Gaussian/09/AMD64.SSE4a-enabled/g09/l1.exe /local/mamichetti.iquir/Gau-407681.inp -scrdir=/local/mamichetti.iquir/
 Entering Link 1 = /opt/ohpc/pub/apps/software/Gaussian/09/AMD64.SSE4a-enabled/g09/l1.exe PID=    407682.
  
 Copyright (c) 1988,1990,1992,1993,1995,1998,2003,2009,2011,
            Gaussian, Inc.  All Rights Reserved.
  
 This is part of the Gaussian(R) 09 program.  It is based on
 the Gaussian(R) 03 system (copyright 2003, Gaussian, Inc.),
 the Gaussian(R) 98 system (copyright 1998, Gaussian, Inc.),
 the Gaussian(R) 94 system (copyright 1995, Gaussian, Inc.),
 the Gaussian 92(TM) system (copyright 1992, Gaussian, Inc.),
 the Gaussian 90(TM) system (copyright 1990, Gaussian, Inc.),
 the Gaussian 88(TM) system (copyright 1988, Gaussian, Inc.),
 the Gaussian 86(TM) system (copyright 1986, Carnegie Mellon
 University), and the Gaussian 82(TM) system (copyright 1983,
 Carnegie Mellon University). Gaussian is a federally registered
 trademark of Gaussian, Inc.
  
 This software contains proprietary and confidential information,
 including trade secrets, belonging to Gaussian, Inc.
  
 This software is provided under written license and may be
 used, copied, transmitted, or stored only in accord with that
 written license.
  
 The following legend is applicable only to US Government
 contracts under FAR:
  
                    RESTRICTED RIGHTS LEGEND
  
 Use, reproduction and disclosure by the US Government is
 subject to restrictions as set forth in subparagraphs (a)
 and (c) of the Commercial Computer Software - Restricted
 Rights clause in FAR 52.227-19.
  
 Gaussian, Inc.
 340 Quinnipiac St., Bldg. 40, Wallingford CT 06492
  
  
 ---------------------------------------------------------------
 Warning -- This program may not be used in any manner that
 competes with the business of Gaussian, Inc. or will provide
 assistance to any competitor of Gaussian, Inc.  The licensee
 of this program is prohibited from giving any competitor of
 Gaussian, Inc. access to this program.  By using this program,
 the user acknowledges that Gaussian, Inc. is engaged in the
 business of creating and licensing software in the field of
 computational chemistry and represents and warrants to the
 licensee that it is not a competitor of Gaussian, Inc. and that
 it will not use this program in any manner prohibited above.
 ---------------------------------------------------------------
  

 Cite this work as:
 Gaussian 09, Revision C.01,
 M. J. Frisch, G. W. Trucks, H. B. Schlegel, G. E. Scuseria, 
 M. A. Robb, J. R. Cheeseman, G. Scalmani, V. Barone, B. Mennucci, 
 G. A. Petersson, H. Nakatsuji, M. Caricato, X. Li, H. P. Hratchian, 
 A. F. Izmaylov, J. Bloino, G. Zheng, J. L. Sonnenberg, M. Hada, 
 M. Ehara, K. Toyota, R. Fukuda, J. Hasegawa, M. Ishida, T. Nakajima, 
 Y. Honda, O. Kitao, H. Nakai, T. Vreven, J. A. Montgomery, Jr., 
 J. E. Peralta, F. Ogliaro, M. Bearpark, J. J. Heyd, E. Brothers, 
 K. N. Kudin, V. N. Staroverov, T. Keith, R. Kobayashi, J. Normand, 
 K. Raghavachari, A. Rendell, J. C. Burant, S. S. Iyengar, J. Tomasi, 
 M. Cossi, N. Rega, J. M. Millam, M. Klene, J. E. Knox, J. B. Cross, 
 V. Bakken, C. Adamo, J. Jaramillo, R. Gomperts, R. E. Stratmann, 
 O. Yazyev, A. J. Austin, R. Cammi, C. Pomelli, J. W. Ochterski, 
 R. L. Martin, K. Morokuma, V. G. Zakrzewski, G. A. Voth, 
 P. Salvador, J. J. Dannenberg, S. Dapprich, A. D. Daniels, 
 O. Farkas, J. B. Foresman, J. V. Ortiz, J. Cioslowski, 
 and D. J. Fox, Gaussian, Inc., Wallingford CT, 2010.
 
 ******************************************
 Gaussian 09:  AM64L-G09RevC.01 23-Sep-2011
                17-May-2024 
 ******************************************
 %nprocshared=4
 Will use up to    4 processors via shared memory.
 ------------------------------------------------
 # mpw1pw91/6-31+G** nmr scrf=(pcm,solvent=water)
 ------------------------------------------------
 1/38=1/1;
 2/12=2,17=6,18=5,40=1/2;
 3/5=1,6=6,7=111,11=2,16=1,25=1,30=1,70=2201,72=1,74=-7/1,2,8,3;
 4//1;
 5/5=2,38=5,53=1/2;
 8/6=1,10=90,11=11/1;
 10/13=100,45=16/2;
 6/7=2,8=2,9=2,10=2,28=1/1;
 99/9=1/99;
 -------
 comment
 -------
 Charge =  0 Multiplicity = 1
 Symbolic Z-Matrix:
 6                    -2.47042  -0.66389   0.35619 
 6                    -1.25842  -0.78152  -0.58042 
 7                    -0.76774   0.61922  -0.79847 
 6                    -1.56536   1.52961   0.04649 
 6                    -2.90495   0.80157   0.18366 
 6                     0.70824   0.6546   -0.73154 
 6                     1.11103  -0.85025  -0.81066 
 6                    -0.04612  -1.59231  -0.1198 
 1                    -3.25881  -1.38065   0.1079 
 1                    -2.16633  -0.83919   1.39268 
 1                    -1.57361  -1.20167  -1.546 
 1                    -1.66639   2.51665  -0.42076 
 1                    -1.13608   1.68381   1.04756 
 1                    -3.50033   0.92283  -0.72918 
 1                    -3.4959    1.17649   1.02513 
 1                     1.11291   1.17543  -1.61084 
 1                     1.13946  -1.15059  -1.86628 
 1                    -0.10949  -2.63937  -0.44612 
 8                     0.13766  -1.53902   1.29684 
 1                     1.1091   -1.56382   1.40867 
 8                     2.34926  -1.18971  -0.18691 
 1                     2.80515  -0.34203   0.02019 
 6                     1.3006    1.38119   0.48493 
 1                     0.91924   2.40684   0.54355 
 1                     1.06068   0.86355   1.41838 
 8                     2.73138   1.41699   0.28262 
 1                     3.14058   1.65698   1.13095 
 
                          Input orientation:                          
 ---------------------------------------------------------------------
 Center     Atomic      Atomic             Coordinates (Angstroms)
 Number     Number       Type             X           Y           Z
 ---------------------------------------------------------------------
      1          6           0       -2.470415   -0.663886    0.356189
      2          6           0       -1.258417   -0.781519   -0.580417
      3          7           0       -0.767743    0.619220   -0.798473
      4          6           0       -1.565360    1.529610    0.046486
      5          6           0       -2.904948    0.801567    0.183664
      6          6           0        0.708236    0.654604   -0.731540
      7          6           0        1.111028   -0.850250   -0.810663
      8          6           0       -0.046120   -1.592308   -0.119796
      9          1           0       -3.258808   -1.380646    0.107895
     10          1           0       -2.166331   -0.839186    1.392684
     11          1           0       -1.573605   -1.201667   -1.546003
     12          1           0       -1.666392    2.516650   -0.420761
     13          1           0       -1.136081    1.683808    1.047559
     14          1           0       -3.500328    0.922833   -0.729181
     15          1           0       -3.495902    1.176493    1.025130
     16          1           0        1.112910    1.175428   -1.610837
     17          1           0        1.139463   -1.150588   -1.866281
     18          1           0       -0.109491   -2.639370   -0.446118
     19          8           0        0.137657   -1.539019    1.296841
     20          1           0        1.109101   -1.563816    1.408669
     21          8           0        2.349264   -1.189706   -0.186914
     22          1           0        2.805153   -0.342026    0.020187
     23          6           0        1.300596    1.381190    0.484929
     24          1           0        0.919239    2.406842    0.543545
     25          1           0        1.060684    0.863553    1.418382
     26          8           0        2.731380    1.416990    0.282619
     27          1           0        3.140575    1.656984    1.130954
 ---------------------------------------------------------------------
                    Distance matrix (angstroms):
                    1          2          3          4          5
     1  C    0.000000
     2  C    1.536232   0.000000
     3  N    2.424602   1.500126   0.000000
     4  C    2.393003   2.414237   1.476130   0.000000
     5  C    1.538225   2.408536   2.359129   1.530804   0.000000
     6  C    3.609071   2.439879   1.477920   2.557381   3.730187
     7  C    3.771340   2.381598   2.385219   3.682593   4.454801
     8  C    2.639268   1.529449   2.423262   3.475933   3.741072
     9  H    1.094056   2.198702   3.320598   3.367659   2.212015
    10  H    1.094312   2.172731   2.980632   2.790091   2.167800
    11  H    2.170671   1.099192   2.126933   3.161639   2.962629
    12  H    3.371337   3.327139   2.133185   1.096711   2.200196
    13  H    2.787491   2.956875   2.162604   1.100093   2.157210
    14  H    2.180923   2.820126   2.750273   2.171161   1.096571
    15  H    2.210453   3.379043   3.328503   2.193041   1.094468
    16  H    4.482464   3.242622   2.122771   3.169431   4.416241
    17  H    4.267021   2.745813   2.812449   4.261245   4.936643
    18  H    3.181226   2.188533   3.343031   4.443265   4.477863
    19  O    2.907357   2.459050   3.141351   3.725606   3.996868
    20  H    3.838036   3.189607   3.627625   4.310170   4.817496
    21  O    4.878602   3.651962   3.655400   4.772152   5.631096
    22  H    5.296047   4.131160   3.789431   4.754482   5.825786
    23  C    4.291787   3.515796   2.550636   2.903096   4.255975
    24  H    4.577579   4.021333   2.800449   2.681387   4.163031
    25  H    3.991238   3.475585   2.883971   3.036748   4.153867
    26  O    5.603046   4.636459   3.748207   4.304697   5.670691
    27  H    6.121267   5.312835   4.480468   4.830954   6.178790
                    6          7          8          9         10
     6  C    0.000000
     7  C    1.559836   0.000000
     8  C    2.447835   1.538486   0.000000
     9  H    4.536996   4.496725   3.227694   0.000000
    10  H    3.873870   3.949170   2.711104   1.771262   0.000000
    11  H    3.052194   2.805615   2.126000   2.367978   3.019702
    12  H    3.033588   4.382020   4.427121   4.243134   3.847097
    13  H    2.761514   3.863151   3.644677   3.844453   2.747003
    14  H    4.217104   4.941160   4.316114   2.462731   3.063751
    15  H    4.586179   5.357390   4.569257   2.726993   2.442502
    16  H    1.099173   2.177993   3.350659   5.347847   4.881929
    17  H    2.175388   1.097880   2.156602   4.826498   4.652537
    18  H    3.405937   2.196249   1.098563   3.436497   3.294305
    19  O    3.041689   2.421451   1.429501   3.602034   2.409837
    20  H    3.108468   2.331226   1.916130   4.561161   3.354668
    21  O    2.528057   1.427418   2.429909   5.619061   4.796727
    22  H    2.440374   1.954140   3.116498   6.152889   5.181368
    23  C    1.535778   2.587242   3.319793   5.343974   4.215883
    24  H    2.177315   3.532607   4.167150   5.656053   4.558341
    25  H    2.188617   2.812169   3.101977   5.041013   3.648781
    26  O    2.388067   2.993524   4.114890   6.613596   5.505465
    27  H    3.223340   3.764991   4.719883   7.157231   5.870487
                   11         12         13         14         15
    11  H    0.000000
    12  H    3.885957   0.000000
    13  H    3.904351   1.769412   0.000000
    14  H    2.982107   2.449224   3.053777   0.000000
    15  H    3.995197   2.689559   2.413841   1.772560   0.000000
    16  H    3.587777   3.307518   3.519017   4.703519   5.309376
    17  H    2.732384   4.838490   4.658580   5.207661   5.938196
    18  H    2.328168   5.386012   4.687731   4.926174   5.309723
    19  O    3.335264   4.759538   3.474358   4.837398   4.544291
    20  H    4.007262   5.263115   3.964632   5.656913   5.372378
    21  O    4.151646   5.469667   4.682802   6.242964   6.421364
    22  H    4.729213   5.325521   4.548936   6.474605   6.558895
    23  C    4.365417   3.303417   2.519033   4.973231   4.831160
    24  H    4.858170   2.761780   2.236325   4.832669   4.608596
    25  H    4.471263   3.681320   2.374048   5.041664   4.584218
    26  O    5.360422   4.587417   3.951402   6.332623   6.276002
    27  H    6.128742   5.123844   4.277553   6.935465   6.654690
                   16         17         18         19         20
    16  H    0.000000
    17  H    2.340151   0.000000
    18  H    4.171752   2.406911   0.000000
    19  O    4.095599   3.340634   2.075996   0.000000
    20  H    4.076872   3.301057   2.466175   0.978174   0.000000
    21  O    3.024895   2.070126   2.866041   2.686029   2.055200
    22  H    2.797605   2.643304   3.740372   3.190325   2.509431
    23  C    2.114190   3.458909   4.361204   3.246421   3.092414
    24  H    2.489026   4.302449   5.244232   4.092450   4.068244
    25  H    3.045679   3.853827   4.137166   2.576646   2.427871
    26  O    2.502593   3.707348   5.005563   4.061285   3.575609
    27  H    3.443942   4.568405   5.613265   4.388561   3.818058
                   21         22         23         24         25
    21  O    0.000000
    22  H    0.984524   0.000000
    23  C    2.856674   2.334342   0.000000
    24  H    3.938743   3.374441   1.095824   0.000000
    25  H    2.907454   2.539989   1.094002   1.779631   0.000000
    26  O    2.676068   1.780014   1.445460   2.081284   2.094630
    27  H    3.235211   2.311353   1.969501   2.416955   2.244570
                   26         27
    26  O    0.000000
    27  H    0.971962   0.000000
 Stoichiometry    C8H15NO3
 Framework group  C1[X(C8H15NO3)]
 Deg. of freedom    75
 Full point group                 C1      NOp   1
 Largest Abelian subgroup         C1      NOp   1
 Largest concise Abelian subgroup C1      NOp   1
                         Standard orientation:                         
 ---------------------------------------------------------------------
 Center     Atomic      Atomic             Coordinates (Angstroms)
 Number     Number       Type             X           Y           Z
 ---------------------------------------------------------------------
      1          6           0       -2.470415   -0.663886    0.356189
      2          6           0       -1.258417   -0.781519   -0.580417
      3          7           0       -0.767743    0.619220   -0.798473
      4          6           0       -1.565360    1.529610    0.046486
      5          6           0       -2.904948    0.801567    0.183664
      6          6           0        0.708236    0.654604   -0.731540
      7          6           0        1.111028   -0.850250   -0.810663
      8          6           0       -0.046120   -1.592308   -0.119796
      9          1           0       -3.258808   -1.380646    0.107895
     10          1           0       -2.166331   -0.839186    1.392684
     11          1           0       -1.573605   -1.201667   -1.546003
     12          1           0       -1.666392    2.516650   -0.420761
     13          1           0       -1.136081    1.683808    1.047559
     14          1           0       -3.500328    0.922833   -0.729181
     15          1           0       -3.495902    1.176493    1.025130
     16          1           0        1.112910    1.175428   -1.610837
     17          1           0        1.139463   -1.150588   -1.866281
     18          1           0       -0.109491   -2.639370   -0.446118
     19          8           0        0.137657   -1.539019    1.296841
     20          1           0        1.109101   -1.563816    1.408669
     21          8           0        2.349264   -1.189706   -0.186914
     22          1           0        2.805153   -0.342026    0.020187
     23          6           0        1.300596    1.381190    0.484929
     24          1           0        0.919239    2.406842    0.543545
     25          1           0        1.060684    0.863553    1.418382
     26          8           0        2.731380    1.416990    0.282619
     27          1           0        3.140575    1.656984    1.130954
 ---------------------------------------------------------------------
 Rotational constants (GHZ):      1.5273006      0.8017028      0.6306738
 Standard basis: 6-31+G(d,p) (6D, 7F)
 There are   303 symmetry adapted basis functions of A   symmetry.
 Integral buffers will be    131072 words long.
 Raffenetti 2 integral format.
 Two-electron integral symmetry is turned on.
   303 basis functions,   489 primitive gaussians,   303 cartesian basis functions
    47 alpha electrons       47 beta electrons
       nuclear repulsion energy       818.6878268757 Hartrees.
 NAtoms=   27 NActive=   27 NUniq=   27 SFac= 1.00D+00 NAtFMM=   60 NAOKFM=F Big=F
 ------------------------------------------------------------------------------
 Polarizable Continuum Model (PCM)
 =================================
 Model                : PCM.
 Atomic radii         : UFF (Universal Force Field).
 Polarization charges : Total charges.
 Charge compensation  : None.
 Solution method      : Matrix inversion.
 Cavity type          : Scaled VdW (van der Waals Surface) (Alpha=1.100).
 Cavity algorithm     : GePol (No added spheres)
                        Default sphere list used, NSphG=   27.
                        Lebedev-Laikov grids with approx.  5.0 points / Ang**2.
                        Smoothing algorithm: Karplus/York (Gamma=1.0000).
                        Polarization charges: spherical gaussians, with
                                              point-specific exponents (IZeta= 3).
                        Self-potential: point-specific (ISelfS= 7).
                        Self-field    : sphere-specific E.n sum rule (ISelfD= 2).
 Solvent              : Water, Eps=  78.355300 Eps(inf)=   1.777849
 ------------------------------------------------------------------------------
 One-electron integrals computed using PRISM.
 NBasis=   303 RedAO= T  NBF=   303
 NBsUse=   303 1.00D-06 NBFU=   303
 Harris functional with IExCor=  908 diagonalized for initial guess.
 ExpMin= 4.38D-02 ExpMax= 5.48D+03 ExpMxC= 8.25D+02 IAcc=2 IRadAn=         4 AccDes= 0.00D+00
 HarFok:  IExCor=  908 AccDes= 0.00D+00 IRadAn=         4 IDoV= 1
 ScaDFX=  1.000000  1.000000  1.000000  1.000000
 FoFCou: FMM=F IPFlag=           0 FMFlag=      100000 FMFlg1=           0
         NFxFlg=           0 DoJE=T BraDBF=F KetDBF=T FulRan=T
         Omega=  0.000000  0.000000  1.000000  0.000000  0.000000 ICntrl=     500 IOpCl=  0
         NMat0=    1 NMatS0=    1 NMatT0=    0 NMatD0=    1 NMtDS0=    0 NMtDT0=    0
         I1Cent=           4 NGrid=           0.
 Petite list used in FoFCou.
 Initial guess orbital symmetries:
       Occupied  (A) (A) (A) (A) (A) (A) (A) (A) (A) (A) (A) (A)
                 (A) (A) (A) (A) (A) (A) (A) (A) (A) (A) (A) (A)
                 (A) (A) (A) (A) (A) (A) (A) (A) (A) (A) (A) (A)
                 (A) (A) (A) (A) (A) (A) (A) (A) (A) (A) (A)
       Virtual   (A) (A) (A) (A) (A) (A) (A) (A) (A) (A) (A) (A)
                 (A) (A) (A) (A) (A) (A) (A) (A) (A) (A) (A) (A)
                 (A) (A) (A) (A) (A) (A) (A) (A) (A) (A) (A) (A)
                 (A) (A) (A) (A) (A) (A) (A) (A) (A) (A) (A) (A)
                 (A) (A) (A) (A) (A) (A) (A) (A) (A) (A) (A) (A)
                 (A) (A) (A) (A) (A) (A) (A) (A) (A) (A) (A) (A)
                 (A) (A) (A) (A) (A) (A) (A) (A) (A) (A) (A) (A)
                 (A) (A) (A) (A) (A) (A) (A) (A) (A) (A) (A) (A)
                 (A) (A) (A) (A) (A) (A) (A) (A) (A) (A) (A) (A)
                 (A) (A) (A) (A) (A) (A) (A) (A) (A) (A) (A) (A)
                 (A) (A) (A) (A) (A) (A) (A) (A) (A) (A) (A) (A)
                 (A) (A) (A) (A) (A) (A) (A) (A) (A) (A) (A) (A)
                 (A) (A) (A) (A) (A) (A) (A) (A) (A) (A) (A) (A)
                 (A) (A) (A) (A) (A) (A) (A) (A) (A) (A) (A) (A)
                 (A) (A) (A) (A) (A) (A) (A) (A) (A) (A) (A) (A)
                 (A) (A) (A) (A) (A) (A) (A) (A) (A) (A) (A) (A)
                 (A) (A) (A) (A) (A) (A) (A) (A) (A) (A) (A) (A)
                 (A) (A) (A) (A) (A) (A) (A) (A) (A) (A) (A) (A)
                 (A) (A) (A) (A) (A) (A) (A) (A) (A) (A) (A) (A)
                 (A) (A) (A) (A) (A) (A) (A) (A) (A) (A) (A) (A)
                 (A) (A) (A) (A) (A) (A) (A) (A) (A) (A) (A) (A)
                 (A) (A) (A) (A)
 The electronic state of the initial guess is 1-A.
 Requested convergence on RMS density matrix=1.00D-08 within 128 cycles.
 Requested convergence on MAX density matrix=1.00D-06.
 Requested convergence on             energy=1.00D-06.
 No special actions if energy rises.
 Error on total polarization charges =  0.01416
 SCF Done:  E(RmPW1PW91) =  -594.193261791     A.U. after   13 cycles
             Convg  =    0.8132D-08             -V/T =  2.0094
 Range of M.O.s used for correlation:     1   303
 NBasis=   303 NAE=    47 NBE=    47 NFC=     0 NFV=     0
 NROrb=    303 NOA=    47 NOB=    47 NVA=   256 NVB=   256

 **** Warning!!: The largest alpha MO coefficient is  0.78730508D+02

 NEqPCM:  Using equilibrium solvation (IEInf=0, Eps=  78.3553, EpsInf=   1.7778)
          Differentiating once with respect to magnetic field using GIAOs.
          Electric field/nuclear overlap derivatives assumed to be zero.
 FoFCou: FMM=F IPFlag=           0 FMFlag=    10101102 FMFlg1=           0
         NFxFlg=    40000000 DoJE=F BraDBF=F KetDBF=T FulRan=T
         Omega=  0.000000  0.000000  1.000000  0.000000  0.000000 ICntrl=    6100 IOpCl=  0
         NMat0=    1 NMatS0=    1 NMatT0=    0 NMatD0=    1 NMtDS0=    0 NMtDT0=    0
         I1Cent=           7 NGrid=        1813.
 Symmetry not used in FoFCou.
          There are     3 degrees of freedom in the 1st order CPHF.  IDoFFX=0.
      3 vectors produced by pass  0 Test12= 4.01D-13 3.33D-08 XBig12= 3.51D+01 1.15D+00.
 AX will form     3 AO Fock derivatives at one time.
      3 vectors produced by pass  1 Test12= 4.01D-13 3.33D-08 XBig12= 8.14D-02 3.38D-02.
      3 vectors produced by pass  2 Test12= 4.01D-13 3.33D-08 XBig12= 1.73D-04 2.12D-03.
      3 vectors produced by pass  3 Test12= 4.01D-13 3.33D-08 XBig12= 8.04D-07 2.15D-04.
      3 vectors produced by pass  4 Test12= 4.01D-13 3.33D-08 XBig12= 2.45D-09 9.57D-06.
      3 vectors produced by pass  5 Test12= 4.01D-13 3.33D-08 XBig12= 6.86D-12 3.58D-07.
 Inverted reduced A of dimension    18 with in-core refinement.
 Calculating GIAO nuclear magnetic shielding tensors.
 SCF GIAO Magnetic shielding tensor (ppm):
      1  C    Isotropic =   170.1238   Anisotropy =    18.5421
   XX=   173.2150   YX=    -6.8578   ZX=   -11.5542
   XY=     2.9848   YY=   182.0687   ZY=    -0.7320
   XZ=   -13.2160   YZ=    -3.7229   ZZ=   155.0876
   Eigenvalues:   148.5593   179.3269   182.4852
      2  C    Isotropic =   127.7545   Anisotropy =    50.9358
   XX=   130.8007   YX=     3.2494   ZX=   -11.2254
   XY=     5.6128   YY=   156.9782   ZY=   -13.9434
   XZ=    -6.9370   YZ=   -15.7321   ZZ=    95.4845
   Eigenvalues:    90.5331   131.0186   161.7117
      3  N    Isotropic =   202.2198   Anisotropy =    87.1462
   XX=   249.6753   YX=    17.2176   ZX=   -31.0269
   XY=     3.1072   YY=   240.4201   ZY=     9.6865
   XZ=   -29.1051   YZ=    -1.2313   ZZ=   116.5639
   Eigenvalues:   109.7855   236.5566   260.3173
      4  C    Isotropic =   146.8839   Anisotropy =    40.0892
   XX=   154.1874   YX=    -5.2698   ZX=   -19.4937
   XY=   -12.8336   YY=   153.1304   ZY=    10.6715
   XZ=   -14.0397   YZ=    14.6678   ZZ=   133.3340
   Eigenvalues:   122.3030   144.7386   173.6101
      5  C    Isotropic =   164.8328   Anisotropy =    23.0766
   XX=   176.3567   YX=     0.0684   ZX=   -15.6408
   XY=     2.9744   YY=   178.1107   ZY=     1.7902
   XZ=    -5.3762   YZ=    -1.8626   ZZ=   140.0309
   Eigenvalues:   137.2069   177.0742   180.2172
      6  C    Isotropic =   136.7722   Anisotropy =    48.2421
   XX=   168.8930   YX=    -4.3621   ZX=     1.4515
   XY=     3.7827   YY=   121.2894   ZY=    -2.3750
   XZ=     1.3150   YZ=     4.4153   ZZ=   120.1343
   Eigenvalues:   119.5031   121.8800   168.9336
      7  C    Isotropic =   114.7432   Anisotropy =    57.1199
   XX=   150.0110   YX=    -9.0745   ZX=    11.4608
   XY=    -8.9319   YY=   111.4379   ZY=   -10.5857
   XZ=    -0.4142   YZ=    -8.5844   ZZ=    82.7806
   Eigenvalues:    79.7643   111.6421   152.8231
      8  C    Isotropic =   122.8836   Anisotropy =    30.5239
   XX=   113.2283   YX=     0.2475   ZX=     7.7344
   XY=    -3.7917   YY=   112.8538   ZY=    -1.0698
   XZ=     0.3676   YZ=    -2.2212   ZZ=   142.5686
   Eigenvalues:   111.1765   114.2414   143.2329
      9  H    Isotropic =    29.9051   Anisotropy =    11.5834
   XX=    33.0296   YX=     4.6593   ZX=     0.2610
   XY=     5.7145   YY=    31.7118   ZY=     0.6765
   XZ=     0.3446   YZ=     0.4393   ZZ=    24.9739
   Eigenvalues:    24.9243    27.1635    37.6274
     10  H    Isotropic =    29.4307   Anisotropy =     7.0328
   XX=    29.4152   YX=    -1.5716   ZX=    -0.6088
   XY=    -2.3114   YY=    26.3958   ZY=    -3.5828
   XZ=    -0.8422   YZ=    -3.5168   ZZ=    32.4812
   Eigenvalues:    23.9771    30.1958    34.1193
     11  H    Isotropic =    27.9705   Anisotropy =     9.2293
   XX=    26.6547   YX=     2.6303   ZX=     2.0247
   XY=     2.3448   YY=    28.0776   ZY=     4.4450
   XZ=     2.7140   YZ=     3.3305   ZZ=    29.1791
   Eigenvalues:    24.5406    25.2475    34.1233
     12  H    Isotropic =    28.7821   Anisotropy =    10.3882
   XX=    26.9998   YX=    -2.6723   ZX=    -0.0901
   XY=    -1.7251   YY=    34.8320   ZY=    -2.2391
   XZ=    -0.9431   YZ=    -1.8036   ZZ=    24.5144
   Eigenvalues:    23.8323    26.8065    35.7075
     13  H    Isotropic =    28.8732   Anisotropy =     7.4913
   XX=    29.7788   YX=    -0.4925   ZX=    -0.6165
   XY=    -0.3518   YY=    27.0593   ZY=     5.2372
   XZ=     0.9077   YZ=     5.3008   ZZ=    29.7815
   Eigenvalues:    22.9522    29.8000    33.8674
     14  H    Isotropic =    29.6286   Anisotropy =    11.0563
   XX=    32.7983   YX=    -1.8791   ZX=     4.7836
   XY=    -2.1963   YY=    27.6849   ZY=    -2.1453
   XZ=     5.2335   YZ=    -2.3478   ZZ=    28.4027
   Eigenvalues:    24.8473    27.0391    36.9995
     15  H    Isotropic =    29.6146   Anisotropy =    11.5482
   XX=    31.8505   YX=    -2.9719   ZX=    -5.1734
   XY=    -3.4412   YY=    28.2781   ZY=     2.6334
   XZ=    -4.8505   YZ=     2.1809   ZZ=    28.7154
   Eigenvalues:    25.0306    26.4999    37.3134
     16  H    Isotropic =    28.0081   Anisotropy =     7.4546
   XX=    28.1710   YX=     1.8520   ZX=    -1.8423
   XY=     1.5823   YY=    26.1364   ZY=    -3.1898
   XZ=    -1.7421   YZ=    -3.5668   ZZ=    29.7168
   Eigenvalues:    24.0152    27.0312    32.9778
     17  H    Isotropic =    26.8943   Anisotropy =     6.3502
   XX=    26.4181   YX=    -1.4964   ZX=     0.7645
   XY=    -1.8373   YY=    24.3829   ZY=     2.5371
   XZ=    -2.2380   YZ=     2.2173   ZZ=    29.8818
   Eigenvalues:    22.9719    26.5832    31.1277
     18  H    Isotropic =    27.7872   Anisotropy =     9.3581
   XX=    23.6195   YX=     1.1419   ZX=     0.6523
   XY=    -0.0041   YY=    31.8133   ZY=     2.8234
   XZ=     1.0960   YZ=     4.3312   ZZ=    27.9287
   Eigenvalues:    23.4460    25.8895    34.0259
     19  O    Isotropic =   306.4579   Anisotropy =    39.7652
   XX=   329.3365   YX=    -1.0922   ZX=     8.0326
   XY=     4.0471   YY=   306.5352   ZY=    33.7999
   XZ=    13.8039   YZ=    -1.2172   ZZ=   283.5021
   Eigenvalues:   273.5838   312.8220   332.9681
     20  H    Isotropic =    28.1869   Anisotropy =    17.4872
   XX=    39.5488   YX=    -0.5300   ZX=     1.2346
   XY=     0.0959   YY=    18.7421   ZY=    -4.0431
   XZ=     2.6112   YZ=    -2.7156   ZZ=    26.2699
   Eigenvalues:    17.4368    27.2789    39.8451
     21  O    Isotropic =   309.9104   Anisotropy =    41.2612
   XX=   313.2006   YX=     3.2846   ZX=     5.4473
   XY=     5.9610   YY=   336.3954   ZY=    -2.2571
   XZ=   -16.6986   YZ=    -1.1935   ZZ=   280.1353
   Eigenvalues:   279.1884   313.1249   337.4179
     22  H    Isotropic =    25.2484   Anisotropy =    27.2180
   XX=    24.5801   YX=     6.9143   ZX=     4.1767
   XY=     7.8796   YY=    38.8345   ZY=     5.6706
   XZ=     4.4433   YZ=     5.0331   ZZ=    12.3304
   Eigenvalues:    10.6129    21.7386    43.3937
     23  C    Isotropic =   130.3112   Anisotropy =    60.9623
   XX=   170.3407   YX=     3.5167   ZX=    -2.4883
   XY=     5.8864   YY=   112.6647   ZY=     4.7122
   XZ=    -5.7773   YZ=     2.9898   ZZ=   107.9280
   Eigenvalues:   105.2367   114.7441   170.9527
     24  H    Isotropic =    27.3546   Anisotropy =     5.9850
   XX=    30.9679   YX=    -1.7803   ZX=     0.4664
   XY=     0.1498   YY=    29.0150   ZY=     2.5083
   XZ=    -0.0066   YZ=     3.0279   ZZ=    22.0807
   Eigenvalues:    21.0872    29.6319    31.3446
     25  H    Isotropic =    27.1330   Anisotropy =     4.3435
   XX=    28.7556   YX=     2.9746   ZX=    -1.0379
   XY=     1.7090   YY=    25.7204   ZY=     0.6949
   XZ=     0.2704   YZ=     0.7835   ZZ=    26.9230
   Eigenvalues:    24.1934    27.1770    30.0286
     26  O    Isotropic =   312.8902   Anisotropy =    74.0024
   XX=   301.2388   YX=    13.8920   ZX=    10.5968
   XY=    23.3596   YY=   295.3918   ZY=     8.7765
   XZ=    43.2214   YZ=    19.8750   ZZ=   342.0400
   Eigenvalues:   278.3929   298.0526   362.2252
     27  H    Isotropic =    29.8232   Anisotropy =    20.7627
   XX=    31.6965   YX=     4.2541   ZX=     8.4243
   XY=     3.8095   YY=    22.4851   ZY=     5.4173
   XZ=     7.2551   YZ=     5.3328   ZZ=    35.2882
   Eigenvalues:    20.3484    25.4562    43.6650
 End of Minotr Frequency-dependent properties file   721 does not exist.
 End of Minotr Frequency-dependent properties file   722 does not exist.

 **********************************************************************

            Population analysis using the SCF density.

 **********************************************************************

 Orbital symmetries:
       Occupied  (A) (A) (A) (A) (A) (A) (A) (A) (A) (A) (A) (A)
                 (A) (A) (A) (A) (A) (A) (A) (A) (A) (A) (A) (A)
                 (A) (A) (A) (A) (A) (A) (A) (A) (A) (A) (A) (A)
                 (A) (A) (A) (A) (A) (A) (A) (A) (A) (A) (A)
       Virtual   (A) (A) (A) (A) (A) (A) (A) (A) (A) (A) (A) (A)
                 (A) (A) (A) (A) (A) (A) (A) (A) (A) (A) (A) (A)
                 (A) (A) (A) (A) (A) (A) (A) (A) (A) (A) (A) (A)
                 (A) (A) (A) (A) (A) (A) (A) (A) (A) (A) (A) (A)
                 (A) (A) (A) (A) (A) (A) (A) (A) (A) (A) (A) (A)
                 (A) (A) (A) (A) (A) (A) (A) (A) (A) (A) (A) (A)
                 (A) (A) (A) (A) (A) (A) (A) (A) (A) (A) (A) (A)
                 (A) (A) (A) (A) (A) (A) (A) (A) (A) (A) (A) (A)
                 (A) (A) (A) (A) (A) (A) (A) (A) (A) (A) (A) (A)
                 (A) (A) (A) (A) (A) (A) (A) (A) (A) (A) (A) (A)
                 (A) (A) (A) (A) (A) (A) (A) (A) (A) (A) (A) (A)
                 (A) (A) (A) (A) (A) (A) (A) (A) (A) (A) (A) (A)
                 (A) (A) (A) (A) (A) (A) (A) (A) (A) (A) (A) (A)
                 (A) (A) (A) (A) (A) (A) (A) (A) (A) (A) (A) (A)
                 (A) (A) (A) (A) (A) (A) (A) (A) (A) (A) (A) (A)
                 (A) (A) (A) (A) (A) (A) (A) (A) (A) (A) (A) (A)
                 (A) (A) (A) (A) (A) (A) (A) (A) (A) (A) (A) (A)
                 (A) (A) (A) (A) (A) (A) (A) (A) (A) (A) (A) (A)
                 (A) (A) (A) (A) (A) (A) (A) (A) (A) (A) (A) (A)
                 (A) (A) (A) (A) (A) (A) (A) (A) (A) (A) (A) (A)
                 (A) (A) (A) (A) (A) (A) (A) (A) (A) (A) (A) (A)
                 (A) (A) (A) (A)
 The electronic state is 1-A.
 Alpha  occ. eigenvalues --  -19.27594 -19.25409 -19.24885 -14.41091 -10.30628
 Alpha  occ. eigenvalues --  -10.30317 -10.29765 -10.28724 -10.27652 -10.26942
 Alpha  occ. eigenvalues --  -10.24551 -10.24342  -1.08293  -1.06589  -1.04011
 Alpha  occ. eigenvalues --   -0.96162  -0.82816  -0.79277  -0.75207  -0.71505
 Alpha  occ. eigenvalues --   -0.67427  -0.61046  -0.60063  -0.57939  -0.55257
 Alpha  occ. eigenvalues --   -0.54424  -0.52004  -0.50360  -0.49842  -0.48168
 Alpha  occ. eigenvalues --   -0.46217  -0.44445  -0.43304  -0.41867  -0.40456
 Alpha  occ. eigenvalues --   -0.39591  -0.38643  -0.37594  -0.36821  -0.35769
 Alpha  occ. eigenvalues --   -0.34905  -0.34636  -0.33686  -0.31594  -0.29633
 Alpha  occ. eigenvalues --   -0.28653  -0.22369
 Alpha virt. eigenvalues --    0.00119   0.01128   0.02086   0.02588   0.03789
 Alpha virt. eigenvalues --    0.04414   0.04664   0.05086   0.05562   0.07274
 Alpha virt. eigenvalues --    0.07913   0.08686   0.09029   0.09312   0.09672
 Alpha virt. eigenvalues --    0.10386   0.11859   0.11934   0.12983   0.13184
 Alpha virt. eigenvalues --    0.13436   0.14007   0.14106   0.14564   0.15305
 Alpha virt. eigenvalues --    0.15931   0.16395   0.17153   0.17452   0.18297
 Alpha virt. eigenvalues --    0.18657   0.19560   0.19874   0.20414   0.20738
 Alpha virt. eigenvalues --    0.21256   0.22307   0.22444   0.22852   0.22926
 Alpha virt. eigenvalues --    0.24358   0.24545   0.24771   0.25775   0.26311
 Alpha virt. eigenvalues --    0.26859   0.27641   0.27798   0.28582   0.28719
 Alpha virt. eigenvalues --    0.28984   0.29830   0.30501   0.31115   0.31969
 Alpha virt. eigenvalues --    0.32302   0.33327   0.33615   0.34583   0.34639
 Alpha virt. eigenvalues --    0.34784   0.35977   0.36282   0.37225   0.37994
 Alpha virt. eigenvalues --    0.38678   0.39712   0.40019   0.40698   0.41375
 Alpha virt. eigenvalues --    0.42774   0.44293   0.45413   0.47590   0.48567
 Alpha virt. eigenvalues --    0.49879   0.64145   0.66167   0.67621   0.68605
 Alpha virt. eigenvalues --    0.69053   0.69704   0.71517   0.72177   0.74637
 Alpha virt. eigenvalues --    0.75234   0.76303   0.77894   0.78444   0.79151
 Alpha virt. eigenvalues --    0.82529   0.83339   0.83926   0.88250   0.89424
 Alpha virt. eigenvalues --    0.91120   0.91156   0.93903   0.96092   0.97517
 Alpha virt. eigenvalues --    0.99015   1.00000   1.01239   1.02207   1.04885
 Alpha virt. eigenvalues --    1.05695   1.07399   1.08781   1.09378   1.11501
 Alpha virt. eigenvalues --    1.12941   1.14368   1.14890   1.15604   1.16431
 Alpha virt. eigenvalues --    1.18320   1.19876   1.22041   1.22976   1.24409
 Alpha virt. eigenvalues --    1.26892   1.27499   1.29089   1.31099   1.33797
 Alpha virt. eigenvalues --    1.35188   1.36845   1.38371   1.39190   1.40647
 Alpha virt. eigenvalues --    1.42528   1.45126   1.47029   1.50351   1.52557
 Alpha virt. eigenvalues --    1.53748   1.55144   1.57989   1.59593   1.61138
 Alpha virt. eigenvalues --    1.64043   1.65698   1.66998   1.69088   1.69457
 Alpha virt. eigenvalues --    1.73238   1.73518   1.74912   1.77618   1.80524
 Alpha virt. eigenvalues --    1.82152   1.82399   1.84482   1.85420   1.87076
 Alpha virt. eigenvalues --    1.89194   1.90865   1.91700   1.94309   1.94895
 Alpha virt. eigenvalues --    1.97929   1.98045   2.00227   2.02905   2.03515
 Alpha virt. eigenvalues --    2.05352   2.07054   2.08209   2.09272   2.11389
 Alpha virt. eigenvalues --    2.12407   2.14231   2.15715   2.18360   2.19533
 Alpha virt. eigenvalues --    2.21270   2.24740   2.25836   2.27108   2.28640
 Alpha virt. eigenvalues --    2.32306   2.33380   2.35301   2.35986   2.39473
 Alpha virt. eigenvalues --    2.42454   2.43867   2.45052   2.46428   2.48532
 Alpha virt. eigenvalues --    2.50029   2.52274   2.52772   2.54096   2.54739
 Alpha virt. eigenvalues --    2.56910   2.58609   2.60825   2.63604   2.64073
 Alpha virt. eigenvalues --    2.65572   2.67155   2.68392   2.69674   2.70798
 Alpha virt. eigenvalues --    2.73070   2.73500   2.74742   2.76048   2.77414
 Alpha virt. eigenvalues --    2.78013   2.81088   2.82152   2.82934   2.85982
 Alpha virt. eigenvalues --    2.88613   2.89042   2.90253   2.91732   2.93198
 Alpha virt. eigenvalues --    2.96707   2.97448   3.00030   3.03652   3.06025
 Alpha virt. eigenvalues --    3.07248   3.10417   3.12088   3.17251   3.32495
 Alpha virt. eigenvalues --    3.36210   3.37024   3.37870   3.43149   3.45721
 Alpha virt. eigenvalues --    3.48343   3.49933   3.51866   3.53838   3.55164
 Alpha virt. eigenvalues --    3.56518   3.58240   3.61168   3.66569   4.30906
 Alpha virt. eigenvalues --    4.35655   4.43957   4.46716   4.50000   4.53612
 Alpha virt. eigenvalues --    4.63227   4.67848   4.77881   4.82163   4.91438
 Alpha virt. eigenvalues --    5.00784
          Condensed to atoms (all electrons):
              1          2          3          4          5          6
     1  C    6.102118  -0.977000   0.181013  -0.112031   0.036141   0.029414
     2  C   -0.977000  10.561644  -0.589908  -0.489480   0.379791  -0.919245
     3  N    0.181013  -0.589908   7.430020   0.262314  -0.246956  -0.198842
     4  C   -0.112031  -0.489480   0.262314   5.631652  -0.020460  -0.129740
     5  C    0.036141   0.379791  -0.246956  -0.020460   5.774909   0.209690
     6  C    0.029414  -0.919245  -0.198842  -0.129740   0.209690   8.780725
     7  C   -0.154284   1.162555  -0.260513  -0.004497  -0.134133  -1.063879
     8  C    0.339137  -2.492446   0.300777   0.297828  -0.192375  -0.069047
     9  H    0.378373  -0.066685   0.015947   0.029344  -0.033344  -0.000331
    10  H    0.510421  -0.217507   0.026283   0.021810  -0.072544   0.012954
    11  H    0.094280   0.057202   0.010380   0.035539  -0.043131   0.023933
    12  H    0.037556  -0.003344  -0.046042   0.402376  -0.036320  -0.025561
    13  H   -0.019835   0.036528  -0.089646   0.382714  -0.004360   0.034761
    14  H   -0.025318  -0.049431   0.018017  -0.031595   0.400281   0.002469
    15  H   -0.066928   0.047614   0.003383  -0.019363   0.378542  -0.002962
    16  H    0.007213  -0.047965  -0.000234   0.019344  -0.010129   0.209498
    17  H    0.008900  -0.039015   0.017535  -0.001690   0.007052   0.076977
    18  H    0.015919  -0.129223   0.018583   0.000268  -0.000880   0.062217
    19  O    0.111136  -0.427870   0.059499   0.013603  -0.038703   0.144514
    20  H   -0.018493   0.095105  -0.006167  -0.006149   0.008545  -0.003324
    21  O   -0.004982   0.054875   0.015708  -0.011895   0.012470  -0.003229
    22  H    0.001551  -0.009714   0.004544   0.001001  -0.000991  -0.094622
    23  C    0.079958  -0.120682   0.151134  -0.039997  -0.038305  -0.394117
    24  H   -0.003491   0.033885  -0.019767  -0.004271   0.007290  -0.053854
    25  H    0.006181  -0.026794   0.022189  -0.001810  -0.009779  -0.108482
    26  O    0.000592   0.030147   0.027366   0.000101  -0.000568  -0.221354
    27  H   -0.000500  -0.002397  -0.002836   0.002309   0.000253   0.058992
              7          8          9         10         11         12
     1  C   -0.154284   0.339137   0.378373   0.510421   0.094280   0.037556
     2  C    1.162555  -2.492446  -0.066685  -0.217507   0.057202  -0.003344
     3  N   -0.260513   0.300777   0.015947   0.026283   0.010380  -0.046042
     4  C   -0.004497   0.297828   0.029344   0.021810   0.035539   0.402376
     5  C   -0.134133  -0.192375  -0.033344  -0.072544  -0.043131  -0.036320
     6  C   -1.063879  -0.069047  -0.000331   0.012954   0.023933  -0.025561
     7  C    7.013163  -0.623969  -0.002336  -0.011278  -0.059980  -0.004276
     8  C   -0.623969   7.530087   0.017103   0.056121   0.128520  -0.001429
     9  H   -0.002336   0.017103   0.520965  -0.024821  -0.004394  -0.000099
    10  H   -0.011278   0.056121  -0.024821   0.508737   0.003855  -0.000050
    11  H   -0.059980   0.128520  -0.004394   0.003855   0.572123   0.000211
    12  H   -0.004276  -0.001429  -0.000099  -0.000050   0.000211   0.550446
    13  H    0.010248  -0.013795  -0.000167   0.001153  -0.000549  -0.046549
    14  H   -0.001143   0.014858  -0.005073   0.004037   0.000771  -0.006023
    15  H    0.003472  -0.001511   0.000437  -0.005363  -0.000130   0.000498
    16  H   -0.017818   0.066309   0.000004   0.000004   0.000636   0.001305
    17  H    0.213367  -0.001811   0.000005  -0.000010   0.000695   0.000006
    18  H   -0.014346   0.368219   0.000371   0.000097  -0.001050   0.000005
    19  O   -0.160252   0.423076   0.000292   0.001671   0.007993   0.000308
    20  H   -0.050803  -0.055524  -0.000003   0.000010  -0.000259  -0.000002
    21  O    0.175445  -0.194756   0.000042  -0.000204  -0.000467   0.000060
    22  H    0.041855   0.029767   0.000000   0.000001   0.000001   0.000000
    23  C   -0.123212   0.038899   0.002091  -0.002694   0.010065   0.012498
    24  H    0.034187  -0.035573   0.000000  -0.000002  -0.000008  -0.000806
    25  H   -0.012028   0.041872   0.000002  -0.000046  -0.000005   0.000259
    26  O    0.097124  -0.047401  -0.000001   0.000006   0.000081  -0.000012
    27  H   -0.018923   0.006590   0.000000   0.000000   0.000000  -0.000002
             13         14         15         16         17         18
     1  C   -0.019835  -0.025318  -0.066928   0.007213   0.008900   0.015919
     2  C    0.036528  -0.049431   0.047614  -0.047965  -0.039015  -0.129223
     3  N   -0.089646   0.018017   0.003383  -0.000234   0.017535   0.018583
     4  C    0.382714  -0.031595  -0.019363   0.019344  -0.001690   0.000268
     5  C   -0.004360   0.400281   0.378542  -0.010129   0.007052  -0.000880
     6  C    0.034761   0.002469  -0.002962   0.209498   0.076977   0.062217
     7  C    0.010248  -0.001143   0.003472  -0.017818   0.213367  -0.014346
     8  C   -0.013795   0.014858  -0.001511   0.066309  -0.001811   0.368219
     9  H   -0.000167  -0.005073   0.000437   0.000004   0.000005   0.000371
    10  H    0.001153   0.004037  -0.005363   0.000004  -0.000010   0.000097
    11  H   -0.000549   0.000771  -0.000130   0.000636   0.000695  -0.001050
    12  H   -0.046549  -0.006023   0.000498   0.001305   0.000006   0.000005
    13  H    0.589948   0.004132  -0.004329  -0.000814  -0.000015  -0.000017
    14  H    0.004132   0.521625  -0.024903   0.000008  -0.000001  -0.000001
    15  H   -0.004329  -0.024903   0.517820   0.000000   0.000000   0.000001
    16  H   -0.000814   0.000008   0.000000   0.569290  -0.007986  -0.000117
    17  H   -0.000015  -0.000001   0.000000  -0.007986   0.566305  -0.003349
    18  H   -0.000017  -0.000001   0.000001  -0.000117  -0.003349   0.575938
    19  O   -0.001160   0.000053   0.000115  -0.000693   0.006169  -0.047275
    20  H    0.000073   0.000000  -0.000001  -0.000034   0.000887  -0.000422
    21  O   -0.000062  -0.000007  -0.000013   0.003431  -0.034290  -0.000835
    22  H   -0.000003   0.000000   0.000000   0.000531  -0.000340  -0.000186
    23  C   -0.028895  -0.000081  -0.001479   0.024365   0.017152  -0.000688
    24  H   -0.000842  -0.000005   0.000008  -0.006451  -0.000094   0.000006
    25  H   -0.001145  -0.000001   0.000002   0.005051  -0.000178  -0.000062
    26  O    0.000143   0.000006  -0.000002   0.011599  -0.001906  -0.000141
    27  H    0.000030   0.000000   0.000000  -0.000097  -0.000016   0.000000
             19         20         21         22         23         24
     1  C    0.111136  -0.018493  -0.004982   0.001551   0.079958  -0.003491
     2  C   -0.427870   0.095105   0.054875  -0.009714  -0.120682   0.033885
     3  N    0.059499  -0.006167   0.015708   0.004544   0.151134  -0.019767
     4  C    0.013603  -0.006149  -0.011895   0.001001  -0.039997  -0.004271
     5  C   -0.038703   0.008545   0.012470  -0.000991  -0.038305   0.007290
     6  C    0.144514  -0.003324  -0.003229  -0.094622  -0.394117  -0.053854
     7  C   -0.160252  -0.050803   0.175445   0.041855  -0.123212   0.034187
     8  C    0.423076  -0.055524  -0.194756   0.029767   0.038899  -0.035573
     9  H    0.000292  -0.000003   0.000042   0.000000   0.002091   0.000000
    10  H    0.001671   0.000010  -0.000204   0.000001  -0.002694  -0.000002
    11  H    0.007993  -0.000259  -0.000467   0.000001   0.010065  -0.000008
    12  H    0.000308  -0.000002   0.000060   0.000000   0.012498  -0.000806
    13  H   -0.001160   0.000073  -0.000062  -0.000003  -0.028895  -0.000842
    14  H    0.000053   0.000000  -0.000007   0.000000  -0.000081  -0.000005
    15  H    0.000115  -0.000001  -0.000013   0.000000  -0.001479   0.000008
    16  H   -0.000693  -0.000034   0.003431   0.000531   0.024365  -0.006451
    17  H    0.006169   0.000887  -0.034290  -0.000340   0.017152  -0.000094
    18  H   -0.047275  -0.000422  -0.000835  -0.000186  -0.000688   0.000006
    19  O    8.278327   0.238645  -0.014497  -0.000037  -0.007173   0.000212
    20  H    0.238645   0.358721   0.042372  -0.003625   0.008902   0.000041
    21  O   -0.014497   0.042372   8.367186   0.236957   0.023945  -0.002281
    22  H   -0.000037  -0.003625   0.236957   0.322353   0.005519   0.000560
    23  C   -0.007173   0.008902   0.023945   0.005519   5.472169   0.415354
    24  H    0.000212   0.000041  -0.002281   0.000560   0.415354   0.544422
    25  H   -0.002524  -0.000806  -0.000129  -0.000365   0.454433  -0.041104
    26  O   -0.004285   0.000483  -0.038197   0.039002   0.166358  -0.043200
    27  H    0.000089  -0.000025  -0.000658  -0.002955  -0.039186  -0.002656
             25         26         27
     1  C    0.006181   0.000592  -0.000500
     2  C   -0.026794   0.030147  -0.002397
     3  N    0.022189   0.027366  -0.002836
     4  C   -0.001810   0.000101   0.002309
     5  C   -0.009779  -0.000568   0.000253
     6  C   -0.108482  -0.221354   0.058992
     7  C   -0.012028   0.097124  -0.018923
     8  C    0.041872  -0.047401   0.006590
     9  H    0.000002  -0.000001   0.000000
    10  H   -0.000046   0.000006   0.000000
    11  H   -0.000005   0.000081   0.000000
    12  H    0.000259  -0.000012  -0.000002
    13  H   -0.001145   0.000143   0.000030
    14  H   -0.000001   0.000006   0.000000
    15  H    0.000002  -0.000002   0.000000
    16  H    0.005051   0.011599  -0.000097
    17  H   -0.000178  -0.001906  -0.000016
    18  H   -0.000062  -0.000141   0.000000
    19  O   -0.002524  -0.004285   0.000089
    20  H   -0.000806   0.000483  -0.000025
    21  O   -0.000129  -0.038197  -0.000658
    22  H   -0.000365   0.039002  -0.002955
    23  C    0.454433   0.166358  -0.039186
    24  H   -0.041104  -0.043200  -0.002656
    25  H    0.536866  -0.052346  -0.004877
    26  O   -0.052346   8.410267   0.248938
    27  H   -0.004877   0.248938   0.344722
 Mulliken atomic charges:
              1
     1  C   -0.557041
     2  C    0.149360
     3  N   -0.103784
     4  C   -0.227228
     5  C   -0.331987
     6  C   -0.357559
     7  C   -0.033745
     8  C    0.070474
     9  H    0.172279
    10  H    0.187359
    11  H    0.163686
    12  H    0.164988
    13  H    0.152452
    14  H    0.177326
    15  H    0.175089
    16  H    0.173747
    17  H    0.175651
    18  H    0.156970
    19  O   -0.581230
    20  H    0.391853
    21  O   -0.625991
    22  H    0.429194
    23  C   -0.086333
    24  H    0.178440
    25  H    0.195627
    26  O   -0.622800
    27  H    0.413203
 Sum of Mulliken atomic charges =   0.00000
 Mulliken charges with hydrogens summed into heavy atoms:
              1
     1  C   -0.197403
     2  C    0.313047
     3  N   -0.103784
     4  C    0.090212
     5  C    0.020428
     6  C   -0.183811
     7  C    0.141905
     8  C    0.227444
    19  O   -0.189378
    21  O   -0.196797
    23  C    0.287734
    26  O   -0.209597
 Sum of Mulliken charges with hydrogens summed into heavy atoms =   0.00000
 Electronic spatial extent (au):  <R**2>=           1958.8200
 Charge=              0.0000 electrons
 Dipole moment (field-independent basis, Debye):
    X=             -0.2001    Y=              2.6922    Z=              1.4552  Tot=              3.0668
 Quadrupole moment (field-independent basis, Debye-Ang):
   XX=            -70.9232   YY=            -73.5325   ZZ=            -72.9953
   XY=              5.1059   XZ=              6.9429   YZ=              7.8438
 Traceless Quadrupole moment (field-independent basis, Debye-Ang):
   XX=              1.5604   YY=             -1.0488   ZZ=             -0.5116
   XY=              5.1059   XZ=              6.9429   YZ=              7.8438
 Octapole moment (field-independent basis, Debye-Ang**2):
  XXX=             11.8544  YYY=              9.6733  ZZZ=              8.0519  XYY=              0.9368
  XXY=             14.8298  XXZ=             27.2839  XZZ=             20.7278  YZZ=              4.5459
  YYZ=              2.7811  XYZ=              3.8762
 Hexadecapole moment (field-independent basis, Debye-Ang**3):
 XXXX=          -1443.6224 YYYY=           -726.2303 ZZZZ=           -297.8619 XXXY=             58.1383
 XXXZ=             83.3357 YYYX=             20.2656 YYYZ=             19.7229 ZZZX=             15.8315
 ZZZY=             15.7030 XXYY=           -380.4297 XXZZ=           -266.5075 YYZZ=           -171.3919
 XXYZ=             28.0639 YYXZ=             28.2038 ZZXY=             11.4707
 N-N= 8.186878268757D+02 E-N=-3.023358688369D+03  KE= 5.886615258348D+02
 1\1\GINC-COMPUTE-3-1\SP\RmPW1PW91\6-31+G(d,p)\C8H15N1O3\MAMICHETTI.IQU
 IR\17-May-2024\0\\# mpw1pw91/6-31+G** nmr scrf=(pcm,solvent=water)\\co
 mment\\0,1\C,0,-2.470415,-0.663886,0.356189\C,0,-1.258417,-0.781519,-0
 .580417\N,0,-0.767743,0.61922,-0.798473\C,0,-1.56536,1.52961,0.046486\
 C,0,-2.904948,0.801567,0.183664\C,0,0.708236,0.654604,-0.73154\C,0,1.1
 11028,-0.85025,-0.810663\C,0,-0.04612,-1.592308,-0.119796\H,0,-3.25880
 8,-1.380646,0.107895\H,0,-2.166331,-0.839186,1.392684\H,0,-1.573605,-1
 .201667,-1.546003\H,0,-1.666392,2.51665,-0.420761\H,0,-1.136081,1.6838
 08,1.047559\H,0,-3.500328,0.922833,-0.729181\H,0,-3.495902,1.176493,1.
 02513\H,0,1.11291,1.175428,-1.610837\H,0,1.139463,-1.150588,-1.866281\
 H,0,-0.109491,-2.63937,-0.446118\O,0,0.137657,-1.539019,1.296841\H,0,1
 .109101,-1.563816,1.408669\O,0,2.349264,-1.189706,-0.186914\H,0,2.8051
 53,-0.342026,0.020187\C,0,1.300596,1.38119,0.484929\H,0,0.919239,2.406
 842,0.543545\H,0,1.060684,0.863553,1.418382\O,0,2.73138,1.41699,0.2826
 19\H,0,3.140575,1.656984,1.130954\\Version=AM64L-G09RevC.01\State=1-A\
 HF=-594.1932618\RMSD=8.132e-09\Dipole=-0.0787191,1.0591907,0.5725145\Q
 uadrupole=1.1601331,-0.7797774,-0.3803557,3.7961317,5.1618862,5.831661
 \PG=C01 [X(C8H15N1O3)]\\@


 THE MEEK SHALL INHERIT THE EARTH.
 (THE REST OF US WILL ESCAPE TO THE STARS)
 Job cpu time:  0 days  0 hours  8 minutes 56.6 seconds.
 File lengths (MBytes):  RWF=    112 Int=      0 D2E=      0 Chk=      7 Scr=      1
 Normal termination of Gaussian 09 at Fri May 17 12:48:12 2024.
