 Entering Gaussian System, Link 0=g09
 Input=/home/mamichetti.iquir/Linux/04_Cardona_A1A3_R__S_R_S_048_OptB.gjc
 Output=/home/mamichetti.iquir/Linux/04_Cardona_A1A3_R__S_R_S_048_OptB.log
 Initial command:
 /opt/ohpc/pub/apps/software/Gaussian/09/AMD64.SSE4a-enabled/g09/l1.exe /local/mamichetti.iquir/Gau-714934.inp -scrdir=/local/mamichetti.iquir/
 Entering Link 1 = /opt/ohpc/pub/apps/software/Gaussian/09/AMD64.SSE4a-enabled/g09/l1.exe PID=    714935.
  
 Copyright (c) 1988,1990,1992,1993,1995,1998,2003,2009,2011,
            Gaussian, Inc.  All Rights Reserved.
  
 This is part of the Gaussian(R) 09 program.  It is based on
 the Gaussian(R) 03 system (copyright 2003, Gaussian, Inc.),
 the Gaussian(R) 98 system (copyright 1998, Gaussian, Inc.),
 the Gaussian(R) 94 system (copyright 1995, Gaussian, Inc.),
 the Gaussian 92(TM) system (copyright 1992, Gaussian, Inc.),
 the Gaussian 90(TM) system (copyright 1990, Gaussian, Inc.),
 the Gaussian 88(TM) system (copyright 1988, Gaussian, Inc.),
 the Gaussian 86(TM) system (copyright 1986, Carnegie Mellon
 University), and the Gaussian 82(TM) system (copyright 1983,
 Carnegie Mellon University). Gaussian is a federally registered
 trademark of Gaussian, Inc.
  
 This software contains proprietary and confidential information,
 including trade secrets, belonging to Gaussian, Inc.
  
 This software is provided under written license and may be
 used, copied, transmitted, or stored only in accord with that
 written license.
  
 The following legend is applicable only to US Government
 contracts under FAR:
  
                    RESTRICTED RIGHTS LEGEND
  
 Use, reproduction and disclosure by the US Government is
 subject to restrictions as set forth in subparagraphs (a)
 and (c) of the Commercial Computer Software - Restricted
 Rights clause in FAR 52.227-19.
  
 Gaussian, Inc.
 340 Quinnipiac St., Bldg. 40, Wallingford CT 06492
  
  
 ---------------------------------------------------------------
 Warning -- This program may not be used in any manner that
 competes with the business of Gaussian, Inc. or will provide
 assistance to any competitor of Gaussian, Inc.  The licensee
 of this program is prohibited from giving any competitor of
 Gaussian, Inc. access to this program.  By using this program,
 the user acknowledges that Gaussian, Inc. is engaged in the
 business of creating and licensing software in the field of
 computational chemistry and represents and warrants to the
 licensee that it is not a competitor of Gaussian, Inc. and that
 it will not use this program in any manner prohibited above.
 ---------------------------------------------------------------
  

 Cite this work as:
 Gaussian 09, Revision C.01,
 M. J. Frisch, G. W. Trucks, H. B. Schlegel, G. E. Scuseria, 
 M. A. Robb, J. R. Cheeseman, G. Scalmani, V. Barone, B. Mennucci, 
 G. A. Petersson, H. Nakatsuji, M. Caricato, X. Li, H. P. Hratchian, 
 A. F. Izmaylov, J. Bloino, G. Zheng, J. L. Sonnenberg, M. Hada, 
 M. Ehara, K. Toyota, R. Fukuda, J. Hasegawa, M. Ishida, T. Nakajima, 
 Y. Honda, O. Kitao, H. Nakai, T. Vreven, J. A. Montgomery, Jr., 
 J. E. Peralta, F. Ogliaro, M. Bearpark, J. J. Heyd, E. Brothers, 
 K. N. Kudin, V. N. Staroverov, T. Keith, R. Kobayashi, J. Normand, 
 K. Raghavachari, A. Rendell, J. C. Burant, S. S. Iyengar, J. Tomasi, 
 M. Cossi, N. Rega, J. M. Millam, M. Klene, J. E. Knox, J. B. Cross, 
 V. Bakken, C. Adamo, J. Jaramillo, R. Gomperts, R. E. Stratmann, 
 O. Yazyev, A. J. Austin, R. Cammi, C. Pomelli, J. W. Ochterski, 
 R. L. Martin, K. Morokuma, V. G. Zakrzewski, G. A. Voth, 
 P. Salvador, J. J. Dannenberg, S. Dapprich, A. D. Daniels, 
 O. Farkas, J. B. Foresman, J. V. Ortiz, J. Cioslowski, 
 and D. J. Fox, Gaussian, Inc., Wallingford CT, 2010.
 
 ******************************************
 Gaussian 09:  AM64L-G09RevC.01 23-Sep-2011
                17-May-2024 
 ******************************************
 %nprocshared=4
 Will use up to    4 processors via shared memory.
 ------------------------------------------------
 # mpw1pw91/6-31+G** nmr scrf=(pcm,solvent=water)
 ------------------------------------------------
 1/38=1/1;
 2/12=2,17=6,18=5,40=1/2;
 3/5=1,6=6,7=111,11=2,16=1,25=1,30=1,70=2201,72=1,74=-7/1,2,8,3;
 4//1;
 5/5=2,38=5,53=1/2;
 8/6=1,10=90,11=11/1;
 10/13=100,45=16/2;
 6/7=2,8=2,9=2,10=2,28=1/1;
 99/9=1/99;
 -------
 comment
 -------
 Charge =  0 Multiplicity = 1
 Symbolic Z-Matrix:
 6                    -2.36444  -0.67048   0.46025 
 6                    -1.249    -0.88316  -0.5997 
 7                    -0.80749   0.47745  -1.0513 
 6                    -1.77471   1.44571  -0.50683 
 6                    -2.30222   0.83097   0.79794 
 6                     0.63248   0.65608  -0.78021 
 6                     1.14509  -0.80534  -0.83545 
 6                     0.02372  -1.62058  -0.15962 
 1                    -3.33681  -0.9182    0.02116 
 1                    -2.22603  -1.3067    1.33771 
 1                    -1.66507  -1.42358  -1.45835 
 1                    -2.60563   1.55632  -1.21787 
 1                    -1.32554   2.43455  -0.38865 
 1                    -3.2752    1.23792   1.0937 
 1                    -1.59785   1.01396   1.6172 
 1                     1.08934   1.23576  -1.59359 
 1                     1.21613  -1.11205  -1.88638 
 1                     0.01966  -2.66211  -0.50741 
 8                     0.20528  -1.60238   1.25882 
 1                     1.17702  -1.57218   1.36962 
 8                     2.3952   -1.04467  -0.1899 
 1                     2.72678  -0.17054   0.11877 
 6                     1.03059   1.38283   0.51751 
 1                     0.5449    2.36267   0.58018 
 1                     0.76803   0.80231   1.40501 
 8                     2.46492   1.56713   0.45125 
 1                     2.77049   1.80292   1.34327 
 
                          Input orientation:                          
 ---------------------------------------------------------------------
 Center     Atomic      Atomic             Coordinates (Angstroms)
 Number     Number       Type             X           Y           Z
 ---------------------------------------------------------------------
      1          6           0       -2.364442   -0.670479    0.460249
      2          6           0       -1.249000   -0.883159   -0.599695
      3          7           0       -0.807494    0.477448   -1.051297
      4          6           0       -1.774705    1.445705   -0.506827
      5          6           0       -2.302225    0.830973    0.797938
      6          6           0        0.632477    0.656077   -0.780212
      7          6           0        1.145092   -0.805340   -0.835450
      8          6           0        0.023721   -1.620583   -0.159624
      9          1           0       -3.336811   -0.918195    0.021160
     10          1           0       -2.226028   -1.306700    1.337705
     11          1           0       -1.665073   -1.423575   -1.458351
     12          1           0       -2.605630    1.556317   -1.217871
     13          1           0       -1.325538    2.434547   -0.388653
     14          1           0       -3.275197    1.237915    1.093704
     15          1           0       -1.597849    1.013959    1.617202
     16          1           0        1.089336    1.235756   -1.593589
     17          1           0        1.216125   -1.112049   -1.886381
     18          1           0        0.019657   -2.662105   -0.507408
     19          8           0        0.205276   -1.602378    1.258822
     20          1           0        1.177019   -1.572183    1.369624
     21          8           0        2.395201   -1.044667   -0.189899
     22          1           0        2.726777   -0.170537    0.118766
     23          6           0        1.030590    1.382828    0.517510
     24          1           0        0.544899    2.362674    0.580180
     25          1           0        0.768032    0.802314    1.405009
     26          8           0        2.464922    1.567130    0.451248
     27          1           0        2.770494    1.802918    1.343272
 ---------------------------------------------------------------------
                    Distance matrix (angstroms):
                    1          2          3          4          5
     1  C    0.000000
     2  C    1.553359   0.000000
     3  N    2.454912   1.500041   0.000000
     4  C    2.400263   2.389267   1.472911   0.000000
     5  C    1.540215   2.449675   2.403928   1.535768   0.000000
     6  C    3.504286   2.437579   1.476114   2.548093   3.336708
     7  C    3.743508   2.406930   2.346215   3.701407   4.150840
     8  C    2.643910   1.535342   2.426465   3.571695   3.512417
     9  H    1.095292   2.178450   3.081465   2.882181   2.175624
    10  H    1.092641   2.210767   3.301932   3.343908   2.206083
    11  H    2.176533   1.096566   2.124858   3.024927   3.252659
    12  H    2.798728   2.858956   2.103568   1.099207   2.163715
    13  H    3.382476   3.325292   2.130189   1.092486   2.221118
    14  H    2.207421   3.387038   3.356918   2.203713   1.095333
    15  H    2.182553   2.938602   2.834324   2.174668   1.095821
    16  H    4.447535   3.308390   2.113546   3.070482   4.169645
    17  H    4.303733   2.790124   2.705347   4.170173   4.833186
    18  H    3.253746   2.186929   3.291928   4.482615   4.392796
    19  O    2.847737   2.467039   3.269255   4.040873   3.524368
    20  H    3.765897   3.199772   3.741676   4.619674   4.266980
    21  O    4.818393   3.670725   3.649123   4.867290   5.153606
    22  H    5.127091   4.102538   3.778889   4.823582   5.172539
    23  C    3.968071   3.402848   2.580585   2.987122   3.389814
    24  H    4.204601   3.891736   2.836329   2.720842   3.240315
    25  H    3.588047   3.305764   2.936198   3.245702   3.129830
    26  O    5.322568   4.571828   3.762148   4.348228   4.836095
    27  H    5.767581   5.210227   4.504756   4.920295   5.193702
                    6          7          8          9         10
     6  C    0.000000
     7  C    1.549698   0.000000
     8  C    2.436985   1.542347   0.000000
     9  H    4.344626   4.564425   3.437907   0.000000
    10  H    4.063141   4.042080   2.720641   1.765805   0.000000
    11  H    3.172312   2.944019   2.139516   2.288901   2.854165
    12  H    3.389294   4.448773   4.257472   2.862347   3.856414
    13  H    2.673966   4.098842   4.279840   3.931163   4.217597
    14  H    4.372644   5.237889   4.541443   2.408933   2.763215
    15  H    3.293938   4.104763   3.567550   3.050337   2.420369
    16  H    1.098331   2.178063   3.369045   5.180511   5.103744
    17  H    2.165762   1.097074   2.159195   4.940194   4.720279
    18  H    3.385307   2.195858   1.098061   3.819226   3.206971
    19  O    3.072585   2.429917   1.430134   3.813960   2.450487
    20  H    3.143798   2.334827   1.915995   4.756124   3.413536
    21  O    2.519563   1.427160   2.440597   5.737291   4.874217
    22  H    2.424365   1.953261   3.080040   6.110288   5.225606
    23  C    1.539722   2.575207   3.239255   4.961377   4.302539
    24  H    2.184218   3.521442   4.084761   5.113147   4.660063
    25  H    2.194300   2.783232   2.978675   4.661000   3.662904
    26  O    2.388381   3.004356   4.061298   6.326288   5.572227
    27  H    3.224212   3.767197   4.639377   6.815542   5.885150
                   11         12         13         14         15
    11  H    0.000000
    12  H    3.134044   0.000000
    13  H    4.018040   1.759979   0.000000
    14  H    4.023557   2.427566   2.725891   0.000000
    15  H    3.924935   3.057354   2.472990   1.771356   0.000000
    16  H    3.831070   3.727827   2.953064   5.125495   4.192772
    17  H    2.929430   4.708810   4.613197   5.880069   4.971263
    18  H    2.297077   5.019161   5.272524   5.350680   4.543538
    19  O    3.303514   4.900261   4.621074   4.495355   3.197642
    20  H    4.012108   5.548971   5.040656   5.272097   3.801226
    21  O    4.270640   5.729760   5.097875   6.245897   4.842314
    22  H    4.831744   5.762221   4.844089   6.241629   4.727656
    23  C    4.364232   4.032833   2.734700   4.346585   2.872991
    24  H    4.834797   3.716051   2.107685   4.015211   2.736022
    25  H    4.367312   4.339310   3.203817   4.078524   2.384788
    26  O    5.444974   5.338218   3.978119   5.785335   4.262811
    27  H    6.159026   5.960115   4.491770   6.077162   4.447462
                   16         17         18         19         20
    16  H    0.000000
    17  H    2.369386   0.000000
    18  H    4.185370   2.394948   0.000000
    19  O    4.119808   3.339841   2.068102   0.000000
    20  H    4.083239   3.288590   2.459810   0.978506   0.000000
    21  O    2.979255   2.067078   2.891388   2.684326   2.048012
    22  H    2.755183   2.681255   3.732091   3.115744   2.435366
    23  C    2.117031   3.469514   4.293475   3.184673   3.078901
    24  H    2.508312   4.313719   5.167894   4.037021   4.062745
    25  H    3.046752   3.833904   4.027357   2.473986   2.409722
    26  O    2.486645   3.768555   4.978431   3.975419   3.515309
    27  H    3.431198   4.619930   5.561344   4.264213   3.732447
                   21         22         23         24         25
    21  O    0.000000
    22  H    0.984540   0.000000
    23  C    2.873208   2.334307   0.000000
    24  H    3.953051   3.375004   1.095409   0.000000
    25  H    2.933044   2.537231   1.092514   1.779004   0.000000
    26  O    2.690244   1.788463   1.447642   2.082307   2.091420
    27  H    3.255795   2.322897   1.971199   2.418452   2.239391
                   26         27
    26  O    0.000000
    27  H    0.971945   0.000000
 Stoichiometry    C8H15NO3
 Framework group  C1[X(C8H15NO3)]
 Deg. of freedom    75
 Full point group                 C1      NOp   1
 Largest Abelian subgroup         C1      NOp   1
 Largest concise Abelian subgroup C1      NOp   1
                         Standard orientation:                         
 ---------------------------------------------------------------------
 Center     Atomic      Atomic             Coordinates (Angstroms)
 Number     Number       Type             X           Y           Z
 ---------------------------------------------------------------------
      1          6           0       -2.364442   -0.670479    0.460249
      2          6           0       -1.249000   -0.883159   -0.599695
      3          7           0       -0.807494    0.477448   -1.051297
      4          6           0       -1.774705    1.445705   -0.506827
      5          6           0       -2.302225    0.830973    0.797938
      6          6           0        0.632477    0.656077   -0.780212
      7          6           0        1.145092   -0.805340   -0.835450
      8          6           0        0.023721   -1.620583   -0.159624
      9          1           0       -3.336811   -0.918195    0.021160
     10          1           0       -2.226028   -1.306700    1.337705
     11          1           0       -1.665073   -1.423575   -1.458351
     12          1           0       -2.605630    1.556317   -1.217871
     13          1           0       -1.325538    2.434547   -0.388653
     14          1           0       -3.275197    1.237915    1.093704
     15          1           0       -1.597849    1.013959    1.617202
     16          1           0        1.089336    1.235756   -1.593589
     17          1           0        1.216125   -1.112049   -1.886381
     18          1           0        0.019657   -2.662105   -0.507408
     19          8           0        0.205276   -1.602378    1.258822
     20          1           0        1.177019   -1.572183    1.369624
     21          8           0        2.395201   -1.044667   -0.189899
     22          1           0        2.726777   -0.170537    0.118766
     23          6           0        1.030590    1.382828    0.517510
     24          1           0        0.544899    2.362674    0.580180
     25          1           0        0.768032    0.802314    1.405009
     26          8           0        2.464922    1.567130    0.451248
     27          1           0        2.770494    1.802918    1.343272
 ---------------------------------------------------------------------
 Rotational constants (GHZ):      1.4141000      0.8662115      0.6880669
 Standard basis: 6-31+G(d,p) (6D, 7F)
 There are   303 symmetry adapted basis functions of A   symmetry.
 Integral buffers will be    131072 words long.
 Raffenetti 2 integral format.
 Two-electron integral symmetry is turned on.
   303 basis functions,   489 primitive gaussians,   303 cartesian basis functions
    47 alpha electrons       47 beta electrons
       nuclear repulsion energy       824.6759198545 Hartrees.
 NAtoms=   27 NActive=   27 NUniq=   27 SFac= 1.00D+00 NAtFMM=   60 NAOKFM=F Big=F
 ------------------------------------------------------------------------------
 Polarizable Continuum Model (PCM)
 =================================
 Model                : PCM.
 Atomic radii         : UFF (Universal Force Field).
 Polarization charges : Total charges.
 Charge compensation  : None.
 Solution method      : Matrix inversion.
 Cavity type          : Scaled VdW (van der Waals Surface) (Alpha=1.100).
 Cavity algorithm     : GePol (No added spheres)
                        Default sphere list used, NSphG=   27.
                        Lebedev-Laikov grids with approx.  5.0 points / Ang**2.
                        Smoothing algorithm: Karplus/York (Gamma=1.0000).
                        Polarization charges: spherical gaussians, with
                                              point-specific exponents (IZeta= 3).
                        Self-potential: point-specific (ISelfS= 7).
                        Self-field    : sphere-specific E.n sum rule (ISelfD= 2).
 Solvent              : Water, Eps=  78.355300 Eps(inf)=   1.777849
 ------------------------------------------------------------------------------
 One-electron integrals computed using PRISM.
 NBasis=   303 RedAO= T  NBF=   303
 NBsUse=   303 1.00D-06 NBFU=   303
 Harris functional with IExCor=  908 diagonalized for initial guess.
 ExpMin= 4.38D-02 ExpMax= 5.48D+03 ExpMxC= 8.25D+02 IAcc=2 IRadAn=         4 AccDes= 0.00D+00
 HarFok:  IExCor=  908 AccDes= 0.00D+00 IRadAn=         4 IDoV= 1
 ScaDFX=  1.000000  1.000000  1.000000  1.000000
 FoFCou: FMM=F IPFlag=           0 FMFlag=      100000 FMFlg1=           0
         NFxFlg=           0 DoJE=T BraDBF=F KetDBF=T FulRan=T
         Omega=  0.000000  0.000000  1.000000  0.000000  0.000000 ICntrl=     500 IOpCl=  0
         NMat0=    1 NMatS0=    1 NMatT0=    0 NMatD0=    1 NMtDS0=    0 NMtDT0=    0
         I1Cent=           4 NGrid=           0.
 Petite list used in FoFCou.
 Initial guess orbital symmetries:
       Occupied  (A) (A) (A) (A) (A) (A) (A) (A) (A) (A) (A) (A)
                 (A) (A) (A) (A) (A) (A) (A) (A) (A) (A) (A) (A)
                 (A) (A) (A) (A) (A) (A) (A) (A) (A) (A) (A) (A)
                 (A) (A) (A) (A) (A) (A) (A) (A) (A) (A) (A)
       Virtual   (A) (A) (A) (A) (A) (A) (A) (A) (A) (A) (A) (A)
                 (A) (A) (A) (A) (A) (A) (A) (A) (A) (A) (A) (A)
                 (A) (A) (A) (A) (A) (A) (A) (A) (A) (A) (A) (A)
                 (A) (A) (A) (A) (A) (A) (A) (A) (A) (A) (A) (A)
                 (A) (A) (A) (A) (A) (A) (A) (A) (A) (A) (A) (A)
                 (A) (A) (A) (A) (A) (A) (A) (A) (A) (A) (A) (A)
                 (A) (A) (A) (A) (A) (A) (A) (A) (A) (A) (A) (A)
                 (A) (A) (A) (A) (A) (A) (A) (A) (A) (A) (A) (A)
                 (A) (A) (A) (A) (A) (A) (A) (A) (A) (A) (A) (A)
                 (A) (A) (A) (A) (A) (A) (A) (A) (A) (A) (A) (A)
                 (A) (A) (A) (A) (A) (A) (A) (A) (A) (A) (A) (A)
                 (A) (A) (A) (A) (A) (A) (A) (A) (A) (A) (A) (A)
                 (A) (A) (A) (A) (A) (A) (A) (A) (A) (A) (A) (A)
                 (A) (A) (A) (A) (A) (A) (A) (A) (A) (A) (A) (A)
                 (A) (A) (A) (A) (A) (A) (A) (A) (A) (A) (A) (A)
                 (A) (A) (A) (A) (A) (A) (A) (A) (A) (A) (A) (A)
                 (A) (A) (A) (A) (A) (A) (A) (A) (A) (A) (A) (A)
                 (A) (A) (A) (A) (A) (A) (A) (A) (A) (A) (A) (A)
                 (A) (A) (A) (A) (A) (A) (A) (A) (A) (A) (A) (A)
                 (A) (A) (A) (A) (A) (A) (A) (A) (A) (A) (A) (A)
                 (A) (A) (A) (A) (A) (A) (A) (A) (A) (A) (A) (A)
                 (A) (A) (A) (A)
 The electronic state of the initial guess is 1-A.
 Requested convergence on RMS density matrix=1.00D-08 within 128 cycles.
 Requested convergence on MAX density matrix=1.00D-06.
 Requested convergence on             energy=1.00D-06.
 No special actions if energy rises.
 Error on total polarization charges =  0.01434
 SCF Done:  E(RmPW1PW91) =  -594.191938812     A.U. after   13 cycles
             Convg  =    0.5972D-08             -V/T =  2.0094
 Range of M.O.s used for correlation:     1   303
 NBasis=   303 NAE=    47 NBE=    47 NFC=     0 NFV=     0
 NROrb=    303 NOA=    47 NOB=    47 NVA=   256 NVB=   256

 **** Warning!!: The largest alpha MO coefficient is  0.79671332D+02

 NEqPCM:  Using equilibrium solvation (IEInf=0, Eps=  78.3553, EpsInf=   1.7778)
          Differentiating once with respect to magnetic field using GIAOs.
          Electric field/nuclear overlap derivatives assumed to be zero.
 FoFCou: FMM=F IPFlag=           0 FMFlag=    10101102 FMFlg1=           0
         NFxFlg=    40000000 DoJE=F BraDBF=F KetDBF=T FulRan=T
         Omega=  0.000000  0.000000  1.000000  0.000000  0.000000 ICntrl=    6100 IOpCl=  0
         NMat0=    1 NMatS0=    1 NMatT0=    0 NMatD0=    1 NMtDS0=    0 NMtDT0=    0
         I1Cent=           7 NGrid=        1789.
 Symmetry not used in FoFCou.
          There are     3 degrees of freedom in the 1st order CPHF.  IDoFFX=0.
      3 vectors produced by pass  0 Test12= 4.01D-13 3.33D-08 XBig12= 2.86D+01 1.07D+00.
 AX will form     3 AO Fock derivatives at one time.
      3 vectors produced by pass  1 Test12= 4.01D-13 3.33D-08 XBig12= 6.67D-02 3.29D-02.
      3 vectors produced by pass  2 Test12= 4.01D-13 3.33D-08 XBig12= 1.70D-04 2.03D-03.
      3 vectors produced by pass  3 Test12= 4.01D-13 3.33D-08 XBig12= 7.52D-07 1.57D-04.
      3 vectors produced by pass  4 Test12= 4.01D-13 3.33D-08 XBig12= 2.41D-09 6.65D-06.
      3 vectors produced by pass  5 Test12= 4.01D-13 3.33D-08 XBig12= 7.21D-12 4.83D-07.
 Inverted reduced A of dimension    18 with in-core refinement.
 Calculating GIAO nuclear magnetic shielding tensors.
 SCF GIAO Magnetic shielding tensor (ppm):
      1  C    Isotropic =   169.0252   Anisotropy =    23.5947
   XX=   164.4706   YX=     2.9802   ZX=   -19.9261
   XY=     0.8087   YY=   182.4332   ZY=     3.9324
   XZ=   -18.1690   YZ=     7.2055   ZZ=   160.1717
   Eigenvalues:   142.4175   179.9031   184.7550
      2  C    Isotropic =   127.9731   Anisotropy =    56.0139
   XX=   119.3654   YX=    -0.1497   ZX=   -18.5634
   XY=     1.0945   YY=   156.5686   ZY=   -19.7716
   XZ=   -14.0353   YZ=   -22.3502   ZZ=   107.9851
   Eigenvalues:    91.7160   126.8876   165.3157
      3  N    Isotropic =   199.8234   Anisotropy =    73.7128
   XX=   222.2216   YX=     7.4792   ZX=   -28.0187
   XY=    -8.1150   YY=   247.2062   ZY=    -7.8766
   XZ=   -15.7508   YZ=   -19.2751   ZZ=   130.0424
   Eigenvalues:   123.6748   226.8301   248.9652
      4  C    Isotropic =   146.9085   Anisotropy =    44.8790
   XX=   141.8828   YX=   -26.9667   ZX=   -17.4300
   XY=   -19.4515   YY=   152.7371   ZY=     3.9993
   XZ=   -23.2665   YZ=    -5.4352   ZZ=   146.1056
   Eigenvalues:   114.2912   149.6064   176.8278
      5  C    Isotropic =   165.8816   Anisotropy =    23.4383
   XX=   158.0130   YX=    -4.9228   ZX=   -13.0460
   XY=    -4.6035   YY=   170.8405   ZY=    -6.0650
   XZ=   -21.2031   YZ=     2.1358   ZZ=   168.7912
   Eigenvalues:   144.4981   171.6395   181.5071
      6  C    Isotropic =   134.2836   Anisotropy =    49.9991
   XX=   167.4130   YX=    -3.5388   ZX=     0.7776
   XY=     7.9262   YY=   119.5277   ZY=    -1.6301
   XZ=     3.7015   YZ=     4.7464   ZZ=   115.9102
   Eigenvalues:   115.2962   119.9382   167.6164
      7  C    Isotropic =   117.0087   Anisotropy =    57.5752
   XX=   151.1980   YX=    -6.2812   ZX=    16.0792
   XY=    -9.8893   YY=   110.7295   ZY=   -12.2369
   XZ=     6.2125   YZ=   -10.1012   ZZ=    89.0986
   Eigenvalues:    83.5679   112.0660   155.3922
      8  C    Isotropic =   122.3383   Anisotropy =    27.3003
   XX=   115.6317   YX=     0.6349   ZX=     4.0632
   XY=    -4.2589   YY=   111.7029   ZY=    -3.9691
   XZ=     0.8594   YZ=    -4.0752   ZZ=   139.6804
   Eigenvalues:   110.6881   115.7883   140.5386
      9  H    Isotropic =    29.9858   Anisotropy =    12.7318
   XX=    36.5894   YX=     4.3469   ZX=     0.9652
   XY=     3.8573   YY=    27.6434   ZY=     2.1404
   XZ=     1.3759   YZ=     2.3224   ZZ=    25.7247
   Eigenvalues:    24.0779    27.4059    38.4737
     10  H    Isotropic =    29.3523   Anisotropy =     8.2648
   XX=    28.6699   YX=    -0.0675   ZX=    -1.8251
   XY=     0.0097   YY=    29.7132   ZY=    -5.1060
   XZ=    -1.7476   YZ=    -4.7210   ZZ=    29.6740
   Eigenvalues:    24.3805    28.8143    34.8622
     11  H    Isotropic =    27.9392   Anisotropy =     9.7808
   XX=    26.8651   YX=     3.1437   ZX=     1.9416
   XY=     2.9738   YY=    28.0600   ZY=     4.4427
   XZ=     2.5979   YZ=     3.7819   ZZ=    28.8924
   Eigenvalues:    23.9245    25.4333    34.4597
     12  H    Isotropic =    28.9454   Anisotropy =    12.7355
   XX=    31.3743   YX=    -5.3300   ZX=     3.9790
   XY=    -5.3293   YY=    26.0510   ZY=    -3.2603
   XZ=     3.1644   YZ=    -3.0533   ZZ=    29.4108
   Eigenvalues:    22.6241    26.7763    37.4357
     13  H    Isotropic =    28.5267   Anisotropy =     8.5781
   XX=    27.4572   YX=    -1.3104   ZX=    -0.6721
   XY=    -0.0275   YY=    34.1429   ZY=    -0.6059
   XZ=    -0.5812   YZ=    -0.7398   ZZ=    23.9800
   Eigenvalues:    23.8115    27.5233    34.2454
     14  H    Isotropic =    29.9958   Anisotropy =    12.5850
   XX=    34.0150   YX=    -3.9643   ZX=    -4.5595
   XY=    -4.0325   YY=    28.6820   ZY=     2.0039
   XZ=    -4.6335   YZ=     1.8918   ZZ=    27.2904
   Eigenvalues:    24.9550    26.6466    38.3857
     15  H    Isotropic =    30.4449   Anisotropy =     7.7031
   XX=    29.1956   YX=     1.8206   ZX=     2.1424
   XY=     0.6111   YY=    28.6842   ZY=     2.6337
   XZ=     1.7567   YZ=     3.0106   ZZ=    33.4549
   Eigenvalues:    27.3075    28.4469    35.5803
     16  H    Isotropic =    28.0952   Anisotropy =     7.4466
   XX=    28.5607   YX=     2.5187   ZX=    -1.9194
   XY=     2.0381   YY=    26.4151   ZY=    -3.1722
   XZ=    -1.4692   YZ=    -3.3788   ZZ=    29.3097
   Eigenvalues:    24.0118    27.2141    33.0596
     17  H    Isotropic =    27.0265   Anisotropy =     6.7792
   XX=    26.9122   YX=    -1.4650   ZX=     0.2449
   XY=    -1.5802   YY=    23.9899   ZY=     2.4027
   XZ=    -2.6694   YZ=     2.2485   ZZ=    30.1772
   Eigenvalues:    22.9074    26.6260    31.5459
     18  H    Isotropic =    27.6247   Anisotropy =     9.5720
   XX=    23.2627   YX=     0.3542   ZX=     0.5329
   XY=    -0.4774   YY=    31.7276   ZY=     3.0079
   XZ=     1.0257   YZ=     4.4356   ZZ=    27.8838
   Eigenvalues:    23.0609    25.8071    34.0060
     19  O    Isotropic =   307.8384   Anisotropy =    43.8453
   XX=   334.2552   YX=    -1.4652   ZX=     2.8067
   XY=     3.6907   YY=   303.0903   ZY=    37.5556
   XZ=    17.7096   YZ=    -3.1217   ZZ=   286.1696
   Eigenvalues:   274.3274   312.1191   337.0686
     20  H    Isotropic =    28.3216   Anisotropy =    17.4775
   XX=    39.6293   YX=     0.4430   ZX=     1.4414
   XY=     1.0370   YY=    19.1954   ZY=    -4.2873
   XZ=     2.9108   YZ=    -2.8934   ZZ=    26.1400
   Eigenvalues:    17.5653    27.4262    39.9732
     21  O    Isotropic =   311.0343   Anisotropy =    38.6457
   XX=   311.9306   YX=    -0.9725   ZX=     7.2261
   XY=    -1.7012   YY=   336.5607   ZY=     4.2713
   XZ=   -12.5314   YZ=     1.3055   ZZ=   284.6116
   Eigenvalues:   284.2222   312.0826   336.7981
     22  H    Isotropic =    25.3758   Anisotropy =    26.7245
   XX=    22.8749   YX=     4.1228   ZX=     4.4891
   XY=     5.4526   YY=    39.1832   ZY=     8.1032
   XZ=     4.9350   YZ=     7.6477   ZZ=    14.0692
   Eigenvalues:    10.8595    22.0758    43.1921
     23  C    Isotropic =   132.3927   Anisotropy =    65.9614
   XX=   173.3639   YX=    10.0415   ZX=     1.6232
   XY=    16.8518   YY=   114.5417   ZY=     7.5339
   XZ=     0.4510   YZ=     3.9620   ZZ=   109.2727
   Eigenvalues:   104.8794   115.9317   176.3670
     24  H    Isotropic =    27.5080   Anisotropy =     6.2567
   XX=    31.5173   YX=    -1.4990   ZX=     1.2921
   XY=     0.2205   YY=    28.6756   ZY=     2.2442
   XZ=     0.6557   YZ=     2.8607   ZZ=    22.3311
   Eigenvalues:    21.3064    29.5385    31.6792
     25  H    Isotropic =    27.2554   Anisotropy =     5.3363
   XX=    29.0504   YX=     3.6678   ZX=    -0.7922
   XY=     1.8215   YY=    26.5380   ZY=     0.1455
   XZ=     0.3015   YZ=     0.7611   ZZ=    26.1779
   Eigenvalues:    24.6075    26.3458    30.8130
     26  O    Isotropic =   315.0993   Anisotropy =    82.0456
   XX=   294.7176   YX=    10.2606   ZX=     2.0044
   XY=    25.8552   YY=   294.7082   ZY=    14.7808
   XZ=    38.1707   YZ=    24.7439   ZZ=   355.8720
   Eigenvalues:   276.6541   298.8474   369.7963
     27  H    Isotropic =    29.9690   Anisotropy =    20.9078
   XX=    29.7839   YX=     4.2307   ZX=     7.4670
   XY=     3.9008   YY=    22.7858   ZY=     6.1101
   XZ=     6.3596   YZ=     5.8562   ZZ=    37.3372
   Eigenvalues:    20.2848    25.7146    43.9076
 End of Minotr Frequency-dependent properties file   721 does not exist.
 End of Minotr Frequency-dependent properties file   722 does not exist.

 **********************************************************************

            Population analysis using the SCF density.

 **********************************************************************

 Orbital symmetries:
       Occupied  (A) (A) (A) (A) (A) (A) (A) (A) (A) (A) (A) (A)
                 (A) (A) (A) (A) (A) (A) (A) (A) (A) (A) (A) (A)
                 (A) (A) (A) (A) (A) (A) (A) (A) (A) (A) (A) (A)
                 (A) (A) (A) (A) (A) (A) (A) (A) (A) (A) (A)
       Virtual   (A) (A) (A) (A) (A) (A) (A) (A) (A) (A) (A) (A)
                 (A) (A) (A) (A) (A) (A) (A) (A) (A) (A) (A) (A)
                 (A) (A) (A) (A) (A) (A) (A) (A) (A) (A) (A) (A)
                 (A) (A) (A) (A) (A) (A) (A) (A) (A) (A) (A) (A)
                 (A) (A) (A) (A) (A) (A) (A) (A) (A) (A) (A) (A)
                 (A) (A) (A) (A) (A) (A) (A) (A) (A) (A) (A) (A)
                 (A) (A) (A) (A) (A) (A) (A) (A) (A) (A) (A) (A)
                 (A) (A) (A) (A) (A) (A) (A) (A) (A) (A) (A) (A)
                 (A) (A) (A) (A) (A) (A) (A) (A) (A) (A) (A) (A)
                 (A) (A) (A) (A) (A) (A) (A) (A) (A) (A) (A) (A)
                 (A) (A) (A) (A) (A) (A) (A) (A) (A) (A) (A) (A)
                 (A) (A) (A) (A) (A) (A) (A) (A) (A) (A) (A) (A)
                 (A) (A) (A) (A) (A) (A) (A) (A) (A) (A) (A) (A)
                 (A) (A) (A) (A) (A) (A) (A) (A) (A) (A) (A) (A)
                 (A) (A) (A) (A) (A) (A) (A) (A) (A) (A) (A) (A)
                 (A) (A) (A) (A) (A) (A) (A) (A) (A) (A) (A) (A)
                 (A) (A) (A) (A) (A) (A) (A) (A) (A) (A) (A) (A)
                 (A) (A) (A) (A) (A) (A) (A) (A) (A) (A) (A) (A)
                 (A) (A) (A) (A) (A) (A) (A) (A) (A) (A) (A) (A)
                 (A) (A) (A) (A) (A) (A) (A) (A) (A) (A) (A) (A)
                 (A) (A) (A) (A) (A) (A) (A) (A) (A) (A) (A) (A)
                 (A) (A) (A) (A)
 The electronic state is 1-A.
 Alpha  occ. eigenvalues --  -19.27545 -19.25488 -19.24878 -14.41294 -10.30643
 Alpha  occ. eigenvalues --  -10.30152 -10.29888 -10.28765 -10.27673 -10.26967
 Alpha  occ. eigenvalues --  -10.24294 -10.24248  -1.08262  -1.06553  -1.04043
 Alpha  occ. eigenvalues --   -0.96377  -0.82440  -0.79027  -0.75554  -0.71353
 Alpha  occ. eigenvalues --   -0.67455  -0.61496  -0.60053  -0.58196  -0.54650
 Alpha  occ. eigenvalues --   -0.54050  -0.52377  -0.50371  -0.49137  -0.48188
 Alpha  occ. eigenvalues --   -0.46874  -0.43750  -0.43205  -0.42677  -0.41206
 Alpha  occ. eigenvalues --   -0.39700  -0.38361  -0.37303  -0.36626  -0.35554
 Alpha  occ. eigenvalues --   -0.35010  -0.34561  -0.33492  -0.31377  -0.29762
 Alpha  occ. eigenvalues --   -0.28527  -0.22847
 Alpha virt. eigenvalues --    0.00112   0.00902   0.02032   0.02430   0.03868
 Alpha virt. eigenvalues --    0.04299   0.04512   0.04739   0.05543   0.07275
 Alpha virt. eigenvalues --    0.08094   0.08340   0.08944   0.09479   0.09776
 Alpha virt. eigenvalues --    0.10244   0.11173   0.12400   0.12553   0.13112
 Alpha virt. eigenvalues --    0.13640   0.14019   0.14247   0.14957   0.15432
 Alpha virt. eigenvalues --    0.15711   0.16141   0.16577   0.17043   0.17597
 Alpha virt. eigenvalues --    0.18449   0.19097   0.19943   0.19948   0.20386
 Alpha virt. eigenvalues --    0.21244   0.21664   0.21940   0.22817   0.23330
 Alpha virt. eigenvalues --    0.23461   0.24198   0.25038   0.25457   0.26174
 Alpha virt. eigenvalues --    0.26284   0.27046   0.27528   0.28052   0.28700
 Alpha virt. eigenvalues --    0.29551   0.29871   0.30069   0.31701   0.32253
 Alpha virt. eigenvalues --    0.32754   0.33946   0.34142   0.34745   0.35027
 Alpha virt. eigenvalues --    0.35570   0.36439   0.37105   0.37493   0.38547
 Alpha virt. eigenvalues --    0.38762   0.40400   0.41091   0.41595   0.41963
 Alpha virt. eigenvalues --    0.43393   0.44528   0.46435   0.47209   0.48340
 Alpha virt. eigenvalues --    0.49749   0.64991   0.65864   0.67479   0.69005
 Alpha virt. eigenvalues --    0.70263   0.70522   0.70745   0.72531   0.74718
 Alpha virt. eigenvalues --    0.77394   0.78710   0.79575   0.80235   0.81566
 Alpha virt. eigenvalues --    0.82314   0.83426   0.83872   0.86310   0.87828
 Alpha virt. eigenvalues --    0.89454   0.92532   0.94151   0.94861   0.97881
 Alpha virt. eigenvalues --    1.00246   1.00611   1.02098   1.02811   1.04190
 Alpha virt. eigenvalues --    1.05232   1.07054   1.08259   1.09716   1.10278
 Alpha virt. eigenvalues --    1.13118   1.13952   1.14550   1.14576   1.17096
 Alpha virt. eigenvalues --    1.18722   1.19608   1.22005   1.23775   1.25146
 Alpha virt. eigenvalues --    1.28271   1.29015   1.29699   1.31196   1.33192
 Alpha virt. eigenvalues --    1.34745   1.36729   1.37328   1.39760   1.41193
 Alpha virt. eigenvalues --    1.42126   1.45624   1.47048   1.49106   1.53260
 Alpha virt. eigenvalues --    1.55240   1.55529   1.58870   1.61078   1.63343
 Alpha virt. eigenvalues --    1.63943   1.65135   1.67385   1.68947   1.71754
 Alpha virt. eigenvalues --    1.73707   1.75575   1.77425   1.78497   1.80061
 Alpha virt. eigenvalues --    1.81605   1.82699   1.83907   1.84820   1.88320
 Alpha virt. eigenvalues --    1.88825   1.90180   1.90981   1.91852   1.94081
 Alpha virt. eigenvalues --    1.97562   1.99273   2.00659   2.03098   2.03544
 Alpha virt. eigenvalues --    2.05117   2.05384   2.07492   2.10912   2.12017
 Alpha virt. eigenvalues --    2.12319   2.15624   2.17447   2.19151   2.19965
 Alpha virt. eigenvalues --    2.21497   2.22992   2.24279   2.28126   2.29599
 Alpha virt. eigenvalues --    2.31798   2.35241   2.36611   2.37330   2.38877
 Alpha virt. eigenvalues --    2.41385   2.43210   2.45605   2.46977   2.47695
 Alpha virt. eigenvalues --    2.50829   2.52754   2.53663   2.54317   2.57801
 Alpha virt. eigenvalues --    2.58365   2.60713   2.61340   2.62122   2.63447
 Alpha virt. eigenvalues --    2.64819   2.67641   2.68569   2.69095   2.70004
 Alpha virt. eigenvalues --    2.71652   2.73065   2.73562   2.75877   2.76371
 Alpha virt. eigenvalues --    2.77708   2.78730   2.81977   2.84149   2.86356
 Alpha virt. eigenvalues --    2.86999   2.88571   2.90099   2.92385   2.93075
 Alpha virt. eigenvalues --    2.95124   2.97675   2.99139   3.01833   3.06203
 Alpha virt. eigenvalues --    3.09939   3.10941   3.11644   3.15992   3.32955
 Alpha virt. eigenvalues --    3.37263   3.38177   3.40443   3.42929   3.44765
 Alpha virt. eigenvalues --    3.47372   3.50968   3.53854   3.54006   3.54909
 Alpha virt. eigenvalues --    3.56988   3.58907   3.61540   3.66414   4.31499
 Alpha virt. eigenvalues --    4.39007   4.44369   4.48584   4.52136   4.55696
 Alpha virt. eigenvalues --    4.62492   4.69928   4.77987   4.83766   4.91727
 Alpha virt. eigenvalues --    5.06154
          Condensed to atoms (all electrons):
              1          2          3          4          5          6
     1  C    6.099629  -0.858009   0.183548   0.016178  -0.028165   0.376318
     2  C   -0.858009   9.596227  -0.604700  -0.283365   0.225662  -1.323392
     3  N    0.183548  -0.604700   7.617806   0.141743  -0.282733  -0.336921
     4  C    0.016178  -0.283365   0.141743   5.619700   0.139770   0.096496
     5  C   -0.028165   0.225662  -0.282733   0.139770   5.521041  -0.002331
     6  C    0.376318  -1.323392  -0.336921   0.096496  -0.002331   9.566994
     7  C   -0.292569   1.218655  -0.144074  -0.199634   0.030150  -1.795467
     8  C    0.038411  -1.476464   0.113004   0.001888   0.131187   0.246538
     9  H    0.423090  -0.083107   0.015433   0.005027  -0.050776   0.005092
    10  H    0.435515  -0.139404   0.019525   0.022772  -0.029326  -0.000688
    11  H    0.021544   0.174898   0.004322  -0.004980   0.011396   0.007163
    12  H    0.018356  -0.030114  -0.016168   0.412084  -0.068987  -0.029270
    13  H    0.017961   0.036030  -0.059594   0.358243  -0.019963   0.038757
    14  H   -0.017903   0.010676   0.017939  -0.036977   0.362305  -0.010168
    15  H   -0.054209  -0.008401   0.022267  -0.061201   0.419123  -0.008048
    16  H   -0.006631  -0.009791   0.005754  -0.004568   0.001847   0.187022
    17  H    0.021552  -0.061454   0.029864   0.011240  -0.005831   0.075792
    18  H    0.037501  -0.128408   0.020757   0.001074  -0.009946   0.059928
    19  O    0.072205  -0.421172   0.084688  -0.010612  -0.010237   0.134265
    20  H    0.001833   0.070260  -0.001961   0.006486  -0.008871  -0.018113
    21  O    0.012304   0.026483   0.019158   0.006808  -0.006694   0.007470
    22  H   -0.002033  -0.002378   0.002538  -0.002724   0.002163  -0.082664
    23  C    0.025488  -0.041515   0.196153  -0.020589  -0.057912  -0.457560
    24  H   -0.007405   0.039670  -0.020605  -0.021656   0.006443  -0.069494
    25  H    0.000220  -0.018420   0.021414   0.004069  -0.001298  -0.087924
    26  O    0.001663   0.021178   0.036784  -0.000395  -0.005154  -0.276397
    27  H   -0.000762  -0.002227  -0.003015   0.001119   0.000781   0.060219
              7          8          9         10         11         12
     1  C   -0.292569   0.038411   0.423090   0.435515   0.021544   0.018356
     2  C    1.218655  -1.476464  -0.083107  -0.139404   0.174898  -0.030114
     3  N   -0.144074   0.113004   0.015433   0.019525   0.004322  -0.016168
     4  C   -0.199634   0.001888   0.005027   0.022772  -0.004980   0.412084
     5  C    0.030150   0.131187  -0.050776  -0.029326   0.011396  -0.068987
     6  C   -1.795467   0.246538   0.005092  -0.000688   0.007163  -0.029270
     7  C    7.779350  -0.644235  -0.006320  -0.004808  -0.030875   0.003538
     8  C   -0.644235   6.926181   0.019029   0.033916   0.075129   0.005589
     9  H   -0.006320   0.019029   0.529468  -0.025920  -0.007656   0.001340
    10  H   -0.004808   0.033916  -0.025920   0.505738   0.003331  -0.000013
    11  H   -0.030875   0.075129  -0.007656   0.003331   0.566541   0.001714
    12  H    0.003538   0.005589   0.001340  -0.000013   0.001714   0.546699
    13  H    0.011515  -0.015626  -0.000127  -0.000138  -0.000152  -0.027566
    14  H    0.006253  -0.000322  -0.005696   0.001228  -0.000005  -0.002526
    15  H   -0.007775   0.008846   0.004087  -0.006322  -0.000103   0.004153
    16  H    0.043973   0.035910   0.000005   0.000007   0.000222   0.000369
    17  H    0.204011  -0.005363   0.000005  -0.000008   0.000377   0.000011
    18  H    0.009901   0.329178   0.000043   0.000142  -0.002507   0.000007
    19  O   -0.168434   0.408436   0.000368   0.000198   0.009323   0.000272
    20  H   -0.049468  -0.046316  -0.000005   0.000054  -0.000254  -0.000001
    21  O    0.147741  -0.192184   0.000044  -0.000061  -0.000540   0.000012
    22  H    0.036158   0.024937   0.000000   0.000000   0.000001   0.000000
    23  C   -0.157648  -0.076238   0.003583   0.000004   0.006480   0.014544
    24  H    0.062022  -0.034213  -0.000003  -0.000003  -0.000009   0.000005
    25  H   -0.027993   0.033478  -0.000003   0.000072   0.000003  -0.000013
    26  O    0.163496  -0.056087  -0.000002   0.000013   0.000091   0.000089
    27  H   -0.021933   0.008523   0.000000   0.000000   0.000000   0.000000
             13         14         15         16         17         18
     1  C    0.017961  -0.017903  -0.054209  -0.006631   0.021552   0.037501
     2  C    0.036030   0.010676  -0.008401  -0.009791  -0.061454  -0.128408
     3  N   -0.059594   0.017939   0.022267   0.005754   0.029864   0.020757
     4  C    0.358243  -0.036977  -0.061201  -0.004568   0.011240   0.001074
     5  C   -0.019963   0.362305   0.419123   0.001847  -0.005831  -0.009946
     6  C    0.038757  -0.010168  -0.008048   0.187022   0.075792   0.059928
     7  C    0.011515   0.006253  -0.007775   0.043973   0.204011   0.009901
     8  C   -0.015626  -0.000322   0.008846   0.035910  -0.005363   0.329178
     9  H   -0.000127  -0.005696   0.004087   0.000005   0.000005   0.000043
    10  H   -0.000138   0.001228  -0.006322   0.000007  -0.000008   0.000142
    11  H   -0.000152  -0.000005  -0.000103   0.000222   0.000377  -0.002507
    12  H   -0.027566  -0.002526   0.004153   0.000369   0.000011   0.000007
    13  H    0.537535   0.001155  -0.005674  -0.000146  -0.000014   0.000004
    14  H    0.001155   0.524795  -0.023886   0.000008   0.000000   0.000003
    15  H   -0.005674  -0.023886   0.526879   0.000046   0.000002   0.000017
    16  H   -0.000146   0.000008   0.000046   0.561863  -0.007762  -0.000134
    17  H   -0.000014   0.000000   0.000002  -0.007762   0.561686  -0.003749
    18  H    0.000004   0.000003   0.000017  -0.000134  -0.003749   0.578374
    19  O    0.000181   0.000450   0.000343  -0.000682   0.007417  -0.046001
    20  H   -0.000003   0.000001  -0.000007  -0.000020   0.000841  -0.000571
    21  O   -0.000089  -0.000015   0.000081   0.001984  -0.032237   0.000077
    22  H    0.000000   0.000000   0.000001   0.000209   0.000496  -0.000227
    23  C   -0.033596   0.003137   0.021107  -0.001062   0.026671  -0.001538
    24  H    0.004492   0.000017  -0.000366  -0.005713  -0.000114   0.000007
    25  H    0.000006   0.000074  -0.000875   0.005091  -0.000170  -0.000057
    26  O   -0.000521   0.000002  -0.000005   0.013286  -0.001836  -0.000116
    27  H    0.000013   0.000000   0.000001  -0.000099  -0.000011   0.000000
             19         20         21         22         23         24
     1  C    0.072205   0.001833   0.012304  -0.002033   0.025488  -0.007405
     2  C   -0.421172   0.070260   0.026483  -0.002378  -0.041515   0.039670
     3  N    0.084688  -0.001961   0.019158   0.002538   0.196153  -0.020605
     4  C   -0.010612   0.006486   0.006808  -0.002724  -0.020589  -0.021656
     5  C   -0.010237  -0.008871  -0.006694   0.002163  -0.057912   0.006443
     6  C    0.134265  -0.018113   0.007470  -0.082664  -0.457560  -0.069494
     7  C   -0.168434  -0.049468   0.147741   0.036158  -0.157648   0.062022
     8  C    0.408436  -0.046316  -0.192184   0.024937  -0.076238  -0.034213
     9  H    0.000368  -0.000005   0.000044   0.000000   0.003583  -0.000003
    10  H    0.000198   0.000054  -0.000061   0.000000   0.000004  -0.000003
    11  H    0.009323  -0.000254  -0.000540   0.000001   0.006480  -0.000009
    12  H    0.000272  -0.000001   0.000012   0.000000   0.014544   0.000005
    13  H    0.000181  -0.000003  -0.000089   0.000000  -0.033596   0.004492
    14  H    0.000450   0.000001  -0.000015   0.000000   0.003137   0.000017
    15  H    0.000343  -0.000007   0.000081   0.000001   0.021107  -0.000366
    16  H   -0.000682  -0.000020   0.001984   0.000209  -0.001062  -0.005713
    17  H    0.007417   0.000841  -0.032237   0.000496   0.026671  -0.000114
    18  H   -0.046001  -0.000571   0.000077  -0.000227  -0.001538   0.000007
    19  O    8.300591   0.237713  -0.009044  -0.001166  -0.006543  -0.000117
    20  H    0.237713   0.357037   0.044793  -0.004060   0.017654   0.000043
    21  O   -0.009044   0.044793   8.360275   0.239475   0.039524  -0.002718
    22  H   -0.001166  -0.004060   0.239475   0.319453   0.002394   0.000567
    23  C   -0.006543   0.017654   0.039524   0.002394   5.551479   0.412251
    24  H   -0.000117   0.000043  -0.002718   0.000567   0.412251   0.557483
    25  H   -0.003209  -0.001152  -0.000023  -0.000530   0.447209  -0.040666
    26  O   -0.001821   0.000588  -0.042821   0.039491   0.165149  -0.043392
    27  H    0.000020  -0.000038  -0.000453  -0.002990  -0.037713  -0.002419
             25         26         27
     1  C    0.000220   0.001663  -0.000762
     2  C   -0.018420   0.021178  -0.002227
     3  N    0.021414   0.036784  -0.003015
     4  C    0.004069  -0.000395   0.001119
     5  C   -0.001298  -0.005154   0.000781
     6  C   -0.087924  -0.276397   0.060219
     7  C   -0.027993   0.163496  -0.021933
     8  C    0.033478  -0.056087   0.008523
     9  H   -0.000003  -0.000002   0.000000
    10  H    0.000072   0.000013   0.000000
    11  H    0.000003   0.000091   0.000000
    12  H   -0.000013   0.000089   0.000000
    13  H    0.000006  -0.000521   0.000013
    14  H    0.000074   0.000002   0.000000
    15  H   -0.000875  -0.000005   0.000001
    16  H    0.005091   0.013286  -0.000099
    17  H   -0.000170  -0.001836  -0.000011
    18  H   -0.000057  -0.000116   0.000000
    19  O   -0.003209  -0.001821   0.000020
    20  H   -0.001152   0.000588  -0.000038
    21  O   -0.000023  -0.042821  -0.000453
    22  H   -0.000530   0.039491  -0.002990
    23  C    0.447209   0.165149  -0.037713
    24  H   -0.040666  -0.043392  -0.002419
    25  H    0.534967  -0.052572  -0.005067
    26  O   -0.052572   8.417503   0.247886
    27  H   -0.005067   0.247886   0.346272
 Mulliken atomic charges:
              1
     1  C   -0.535631
     2  C    0.072580
     3  N   -0.082925
     4  C   -0.197995
     5  C   -0.263644
     6  C   -0.363616
     7  C   -0.165530
     8  C    0.106868
     9  H    0.173000
    10  H    0.184175
    11  H    0.164545
    12  H    0.165875
    13  H    0.157316
    14  H    0.169456
    15  H    0.169916
    16  H    0.179011
    17  H    0.178580
    18  H    0.156242
    19  O   -0.577435
    20  H    0.393537
    21  O   -0.619350
    22  H    0.430890
    23  C   -0.040913
    24  H    0.165890
    25  H    0.193370
    26  O   -0.626103
    27  H    0.411892
 Sum of Mulliken atomic charges =   0.00000
 Mulliken charges with hydrogens summed into heavy atoms:
              1
     1  C   -0.178456
     2  C    0.237124
     3  N   -0.082925
     4  C    0.125195
     5  C    0.075728
     6  C   -0.184605
     7  C    0.013050
     8  C    0.263110
    19  O   -0.183898
    21  O   -0.188460
    23  C    0.318347
    26  O   -0.214210
 Sum of Mulliken charges with hydrogens summed into heavy atoms =   0.00000
 Electronic spatial extent (au):  <R**2>=           1871.6301
 Charge=              0.0000 electrons
 Dipole moment (field-independent basis, Debye):
    X=             -0.7719    Y=              2.8615    Z=              1.6301  Tot=              3.3825
 Quadrupole moment (field-independent basis, Debye-Ang):
   XX=            -73.2665   YY=            -72.7841   ZZ=            -73.3749
   XY=              3.6710   XZ=              6.7531   YZ=              7.5683
 Traceless Quadrupole moment (field-independent basis, Debye-Ang):
   XX=             -0.1247   YY=              0.3577   ZZ=             -0.2331
   XY=              3.6710   XZ=              6.7531   YZ=              7.5683
 Octapole moment (field-independent basis, Debye-Ang**2):
  XXX=              0.0242  YYY=              9.6067  ZZZ=             12.8417  XYY=              0.4754
  XXY=             13.3409  XXZ=             22.2889  XZZ=             23.2344  YZZ=              6.1726
  YYZ=              1.9972  XYZ=              5.0635
 Hexadecapole moment (field-independent basis, Debye-Ang**3):
 XXXX=          -1298.7043 YYYY=           -731.6796 ZZZZ=           -366.3318 XXXY=             42.3032
 XXXZ=             75.1995 YYYX=             11.0421 YYYZ=             25.8068 ZZZX=             20.9613
 ZZZY=             19.6265 XXYY=           -354.2033 XXZZ=           -248.5711 YYZZ=           -177.6431
 XXYZ=             20.8250 YYXZ=             27.9410 ZZXY=             17.3818
 N-N= 8.246759198545D+02 E-N=-3.035248330690D+03  KE= 5.886664694925D+02
 1\1\GINC-COMPUTE-3-0\SP\RmPW1PW91\6-31+G(d,p)\C8H15N1O3\MAMICHETTI.IQU
 IR\17-May-2024\0\\# mpw1pw91/6-31+G** nmr scrf=(pcm,solvent=water)\\co
 mment\\0,1\C,0,-2.364442,-0.670479,0.460249\C,0,-1.249,-0.883159,-0.59
 9695\N,0,-0.807494,0.477448,-1.051297\C,0,-1.774705,1.445705,-0.506827
 \C,0,-2.302225,0.830973,0.797938\C,0,0.632477,0.656077,-0.780212\C,0,1
 .145092,-0.80534,-0.83545\C,0,0.023721,-1.620583,-0.159624\H,0,-3.3368
 11,-0.918195,0.02116\H,0,-2.226028,-1.3067,1.337705\H,0,-1.665073,-1.4
 23575,-1.458351\H,0,-2.60563,1.556317,-1.217871\H,0,-1.325538,2.434547
 ,-0.388653\H,0,-3.275197,1.237915,1.093704\H,0,-1.597849,1.013959,1.61
 7202\H,0,1.089336,1.235756,-1.593589\H,0,1.216125,-1.112049,-1.886381\
 H,0,0.019657,-2.662105,-0.507408\O,0,0.205276,-1.602378,1.258822\H,0,1
 .177019,-1.572183,1.369624\O,0,2.395201,-1.044667,-0.189899\H,0,2.7267
 77,-0.170537,0.118766\C,0,1.03059,1.382828,0.51751\H,0,0.544899,2.3626
 74,0.58018\H,0,0.768032,0.802314,1.405009\O,0,2.464922,1.56713,0.45124
 8\H,0,2.770494,1.802918,1.343272\\Version=AM64L-G09RevC.01\State=1-A\H
 F=-594.1919388\RMSD=5.972e-09\Dipole=-0.303685,1.1257839,0.641335\Quad
 rupole=-0.0926763,0.2659625,-0.1732862,2.7292689,5.0207896,5.6268182\P
 G=C01 [X(C8H15N1O3)]\\@


 GOD GAVE US TWO ENDS... ONE TO SIT ON...    
 AND THE OTHER TO THINK WITH...              
 YOUR SUCCESS DEPENDS UPON WHICH END YOU     
 USE THE MOST...                             
                                             
 IT'S A CASE OF HEADS YOU WIN TAILS YOU LOSE.
          SOURCE UNKNOWN(IT'S JUST AS WELL.) 
 Job cpu time:  0 days  0 hours  9 minutes  7.1 seconds.
 File lengths (MBytes):  RWF=    110 Int=      0 D2E=      0 Chk=      7 Scr=      1
 Normal termination of Gaussian 09 at Fri May 17 12:52:31 2024.
