 Entering Gaussian System, Link 0=g09
 Input=/home/mamichetti.iquir/Linux/04_Cardona_A1A3_R__S_R_S_046_OptB.gjc
 Output=/home/mamichetti.iquir/Linux/04_Cardona_A1A3_R__S_R_S_046_OptB.log
 Initial command:
 /opt/ohpc/pub/apps/software/Gaussian/09/AMD64.SSE4a-enabled/g09/l1.exe /local/mamichetti.iquir/Gau-411965.inp -scrdir=/local/mamichetti.iquir/
 Entering Link 1 = /opt/ohpc/pub/apps/software/Gaussian/09/AMD64.SSE4a-enabled/g09/l1.exe PID=    411966.
  
 Copyright (c) 1988,1990,1992,1993,1995,1998,2003,2009,2011,
            Gaussian, Inc.  All Rights Reserved.
  
 This is part of the Gaussian(R) 09 program.  It is based on
 the Gaussian(R) 03 system (copyright 2003, Gaussian, Inc.),
 the Gaussian(R) 98 system (copyright 1998, Gaussian, Inc.),
 the Gaussian(R) 94 system (copyright 1995, Gaussian, Inc.),
 the Gaussian 92(TM) system (copyright 1992, Gaussian, Inc.),
 the Gaussian 90(TM) system (copyright 1990, Gaussian, Inc.),
 the Gaussian 88(TM) system (copyright 1988, Gaussian, Inc.),
 the Gaussian 86(TM) system (copyright 1986, Carnegie Mellon
 University), and the Gaussian 82(TM) system (copyright 1983,
 Carnegie Mellon University). Gaussian is a federally registered
 trademark of Gaussian, Inc.
  
 This software contains proprietary and confidential information,
 including trade secrets, belonging to Gaussian, Inc.
  
 This software is provided under written license and may be
 used, copied, transmitted, or stored only in accord with that
 written license.
  
 The following legend is applicable only to US Government
 contracts under FAR:
  
                    RESTRICTED RIGHTS LEGEND
  
 Use, reproduction and disclosure by the US Government is
 subject to restrictions as set forth in subparagraphs (a)
 and (c) of the Commercial Computer Software - Restricted
 Rights clause in FAR 52.227-19.
  
 Gaussian, Inc.
 340 Quinnipiac St., Bldg. 40, Wallingford CT 06492
  
  
 ---------------------------------------------------------------
 Warning -- This program may not be used in any manner that
 competes with the business of Gaussian, Inc. or will provide
 assistance to any competitor of Gaussian, Inc.  The licensee
 of this program is prohibited from giving any competitor of
 Gaussian, Inc. access to this program.  By using this program,
 the user acknowledges that Gaussian, Inc. is engaged in the
 business of creating and licensing software in the field of
 computational chemistry and represents and warrants to the
 licensee that it is not a competitor of Gaussian, Inc. and that
 it will not use this program in any manner prohibited above.
 ---------------------------------------------------------------
  

 Cite this work as:
 Gaussian 09, Revision C.01,
 M. J. Frisch, G. W. Trucks, H. B. Schlegel, G. E. Scuseria, 
 M. A. Robb, J. R. Cheeseman, G. Scalmani, V. Barone, B. Mennucci, 
 G. A. Petersson, H. Nakatsuji, M. Caricato, X. Li, H. P. Hratchian, 
 A. F. Izmaylov, J. Bloino, G. Zheng, J. L. Sonnenberg, M. Hada, 
 M. Ehara, K. Toyota, R. Fukuda, J. Hasegawa, M. Ishida, T. Nakajima, 
 Y. Honda, O. Kitao, H. Nakai, T. Vreven, J. A. Montgomery, Jr., 
 J. E. Peralta, F. Ogliaro, M. Bearpark, J. J. Heyd, E. Brothers, 
 K. N. Kudin, V. N. Staroverov, T. Keith, R. Kobayashi, J. Normand, 
 K. Raghavachari, A. Rendell, J. C. Burant, S. S. Iyengar, J. Tomasi, 
 M. Cossi, N. Rega, J. M. Millam, M. Klene, J. E. Knox, J. B. Cross, 
 V. Bakken, C. Adamo, J. Jaramillo, R. Gomperts, R. E. Stratmann, 
 O. Yazyev, A. J. Austin, R. Cammi, C. Pomelli, J. W. Ochterski, 
 R. L. Martin, K. Morokuma, V. G. Zakrzewski, G. A. Voth, 
 P. Salvador, J. J. Dannenberg, S. Dapprich, A. D. Daniels, 
 O. Farkas, J. B. Foresman, J. V. Ortiz, J. Cioslowski, 
 and D. J. Fox, Gaussian, Inc., Wallingford CT, 2010.
 
 ******************************************
 Gaussian 09:  AM64L-G09RevC.01 23-Sep-2011
                17-May-2024 
 ******************************************
 %nprocshared=4
 Will use up to    4 processors via shared memory.
 ------------------------------------------------
 # mpw1pw91/6-31+G** nmr scrf=(pcm,solvent=water)
 ------------------------------------------------
 1/38=1/1;
 2/12=2,17=6,18=5,40=1/2;
 3/5=1,6=6,7=111,11=2,16=1,25=1,30=1,70=2201,72=1,74=-7/1,2,8,3;
 4//1;
 5/5=2,38=5,53=1/2;
 8/6=1,10=90,11=11/1;
 10/13=100,45=16/2;
 6/7=2,8=2,9=2,10=2,28=1/1;
 99/9=1/99;
 -------
 comment
 -------
 Charge =  0 Multiplicity = 1
 Symbolic Z-Matrix:
 6                    -2.50101  -0.63025   0.10141 
 6                    -1.11807  -0.6847   -0.53995 
 7                    -0.44732   0.49304   0.03541 
 6                    -1.40697   1.58216  -0.1513 
 6                    -2.7708    0.90613   0.17059 
 6                     0.89168   0.51355  -0.5664 
 6                     1.22503  -1.02071  -0.73758 
 6                    -0.07512  -1.76162  -0.28548 
 1                    -3.25568  -1.1664   -0.48039 
 1                    -2.46882  -1.0654    1.10525 
 1                    -1.22336  -0.57874  -1.63871 
 1                    -1.38832   1.94929  -1.19302 
 1                    -1.19736   2.43222   0.50469 
 1                    -3.53047   1.21538  -0.55308 
 1                    -3.13051   1.19417   1.1627 
 1                     0.85094   0.97687  -1.56909 
 1                     1.42189  -1.22409  -1.79341 
 1                    -0.23562  -2.693    -0.83082 
 8                     0.02508  -2.11441   1.10061 
 1                    -0.07927  -1.27646   1.59079 
 8                     2.35641  -1.4863   -0.01288 
 1                     1.99321  -1.7853    0.84501 
 6                     1.92706   1.27159   0.2581 
 1                     1.97721   0.86145   1.27423 
 1                     2.91205   1.15167  -0.20268 
 8                     1.68009   2.68417   0.29967 
 1                     0.96188   2.83232   0.93495 
 
                          Input orientation:                          
 ---------------------------------------------------------------------
 Center     Atomic      Atomic             Coordinates (Angstroms)
 Number     Number       Type             X           Y           Z
 ---------------------------------------------------------------------
      1          6           0       -2.501005   -0.630249    0.101412
      2          6           0       -1.118066   -0.684700   -0.539945
      3          7           0       -0.447318    0.493035    0.035413
      4          6           0       -1.406970    1.582163   -0.151299
      5          6           0       -2.770800    0.906132    0.170586
      6          6           0        0.891684    0.513552   -0.566395
      7          6           0        1.225034   -1.020706   -0.737575
      8          6           0       -0.075123   -1.761619   -0.285477
      9          1           0       -3.255680   -1.166402   -0.480387
     10          1           0       -2.468818   -1.065395    1.105246
     11          1           0       -1.223363   -0.578741   -1.638710
     12          1           0       -1.388317    1.949292   -1.193018
     13          1           0       -1.197361    2.432222    0.504692
     14          1           0       -3.530465    1.215381   -0.553076
     15          1           0       -3.130511    1.194171    1.162699
     16          1           0        0.850943    0.976869   -1.569093
     17          1           0        1.421887   -1.224085   -1.793412
     18          1           0       -0.235623   -2.692998   -0.830824
     19          8           0        0.025077   -2.114406    1.100611
     20          1           0       -0.079269   -1.276462    1.590791
     21          8           0        2.356407   -1.486295   -0.012878
     22          1           0        1.993212   -1.785295    0.845014
     23          6           0        1.927057    1.271593    0.258104
     24          1           0        1.977206    0.861446    1.274228
     25          1           0        2.912047    1.151667   -0.202681
     26          8           0        1.680091    2.684173    0.299670
     27          1           0        0.961877    2.832323    0.934946
 ---------------------------------------------------------------------
                    Distance matrix (angstroms):
                    1          2          3          4          5
     1  C    0.000000
     2  C    1.525393   0.000000
     3  N    2.341741   1.472413   0.000000
     4  C    2.481037   2.318012   1.463555   0.000000
     5  C    1.561423   2.401485   2.363787   1.555847   0.000000
     6  C    3.642058   2.340001   1.468169   2.568666   3.756468
     7  C    3.839235   2.375305   2.384467   3.747812   4.528151
     8  C    2.704549   1.520605   2.307588   3.601763   3.819890
     9  H    1.093382   2.192026   3.302526   3.328759   2.225819
    10  H    1.094564   2.162432   2.767618   3.117048   2.202658
    11  H    2.159409   1.108873   2.133925   2.629755   2.805880
    12  H    3.093163   2.727170   2.124901   1.104676   2.204282
    13  H    3.352738   3.288276   2.131486   1.094011   2.217270
    14  H    2.212350   3.070855   3.220854   2.192073   1.093806
    15  H    2.202525   3.237142   2.993642   2.201754   1.093913
    16  H    4.075410   2.774338   2.119910   2.733988   4.018521
    17  H    4.396826   2.883310   3.128423   4.309756   5.096444
    18  H    3.202492   2.212821   3.308472   4.484508   4.514829
    19  O    3.095515   2.458101   2.855968   4.157242   4.219659
    20  H    2.915587   2.443219   2.384487   3.601306   3.745002
    21  O    4.933592   3.604486   3.432339   4.857736   5.660885
    22  H    4.699475   3.579032   3.435466   4.888113   5.513116
    23  C    4.821752   3.706311   2.508665   3.373396   4.712863
    24  H    4.863643   3.906725   2.747491   3.742220   4.874791
    25  H    5.706911   4.441599   3.431591   4.340723   5.700383
    26  O    5.339126   4.459141   3.065418   3.308738   4.794635
    27  H    4.967468   4.344067   2.875284   2.890374   4.269348
                    6          7          8          9         10
     6  C    0.000000
     7  C    1.579358   0.000000
     8  C    2.487978   1.563251   0.000000
     9  H    4.475519   4.490453   3.241638   0.000000
    10  H    4.071908   4.128260   2.854578   1.773016   0.000000
    11  H    2.610821   2.646134   2.132814   2.411922   3.052423
    12  H    2.766299   3.982200   4.039674   3.701680   3.941806
    13  H    3.031935   4.397037   4.412719   4.261121   3.769694
    14  H    4.477515   5.258222   4.568755   2.398683   3.013149
    15  H    4.430695   5.242852   4.491025   2.878837   2.355160
    16  H    1.105317   2.195831   3.163002   4.758492   4.726917
    17  H    2.192275   1.093118   2.191769   4.858703   4.854378
    18  H    3.409209   2.222335   1.091160   3.402065   3.374110
    19  O    3.230492   2.452551   1.433785   3.763194   2.705542
    20  H    2.966539   2.681027   1.937982   3.793610   2.447498
    21  O    2.539918   1.421958   2.462205   5.640604   4.970931
    22  H    2.913784   1.918145   2.357240   5.448907   4.527216
    23  C    1.525261   2.595929   3.674858   5.774942   5.050038
    24  H    2.165013   2.855803   3.677663   5.879961   4.848546
    25  H    2.149731   2.802022   4.173401   6.594803   5.964876
    26  O    2.466424   3.874156   4.815417   6.308506   5.649926
    27  H    2.763268   4.208611   4.865090   5.981702   5.195274
                   11         12         13         14         15
    11  H    0.000000
    12  H    2.572315   0.000000
    13  H    3.696045   1.775360   0.000000
    14  H    3.117723   2.353072   2.836009   0.000000
    15  H    3.824699   3.025698   2.388056   1.761902   0.000000
    16  H    2.593745   2.470086   3.257942   4.503989   4.833413
    17  H    2.727224   4.281126   5.050774   5.658199   5.942296
    18  H    2.469492   4.796952   5.382975   5.119429   5.240667
    19  O    3.379460   4.875660   4.745661   5.144321   4.572556
    20  H    3.496490   4.457431   4.022944   4.766152   3.949350
    21  O    4.035063   5.217178   5.315254   6.499702   6.218774
    22  H    4.239223   5.434653   5.299342   6.439699   5.935544
    23  C    4.116647   3.681947   3.342133   5.517764   5.138412
    24  H    4.561029   4.312477   3.624555   5.813669   5.119758
    25  H    4.707240   4.484429   4.362044   6.452348   6.195044
    26  O    4.778490   3.490458   2.895728   5.480367   5.109483
    27  H    4.799410   3.291107   2.237746   5.000985   4.413961
                   16         17         18         19         20
    16  H    0.000000
    17  H    2.284840   0.000000
    18  H    3.897896   2.414875   0.000000
    19  O    4.167176   3.334534   2.033021   0.000000
    20  H    3.990947   3.702572   2.809847   0.976378   0.000000
    21  O    3.279543   2.027901   2.973851   2.658850   2.923748
    22  H    3.842166   2.757292   2.932586   2.011765   2.260591
    23  C    2.140919   3.269912   4.645528   3.973957   3.506278
    24  H    3.060435   3.750764   4.686356   3.563235   2.983279
    25  H    2.479070   3.224159   5.008377   4.549769   4.249744
    26  O    2.663578   4.440962   5.819102   5.138768   4.522054
    27  H    3.118530   4.910193   5.922932   5.037377   4.289083
                   21         22         23         24         25
    21  O    0.000000
    22  H    0.978412   0.000000
    23  C    2.804232   3.113423   0.000000
    24  H    2.704131   2.681365   1.096925   0.000000
    25  H    2.702518   3.250795   1.094034   1.771840   0.000000
    26  O    4.236495   4.513490   1.434609   2.088151   2.029445
    27  H    4.636113   4.732244   1.955905   2.242847   2.814598
                   26         27
    26  O    0.000000
    27  H    0.970235   0.000000
 Stoichiometry    C8H15NO3
 Framework group  C1[X(C8H15NO3)]
 Deg. of freedom    75
 Full point group                 C1      NOp   1
 Largest Abelian subgroup         C1      NOp   1
 Largest concise Abelian subgroup C1      NOp   1
                         Standard orientation:                         
 ---------------------------------------------------------------------
 Center     Atomic      Atomic             Coordinates (Angstroms)
 Number     Number       Type             X           Y           Z
 ---------------------------------------------------------------------
      1          6           0       -2.501005   -0.630250    0.101412
      2          6           0       -1.118066   -0.684700   -0.539945
      3          7           0       -0.447318    0.493035    0.035413
      4          6           0       -1.406970    1.582163   -0.151299
      5          6           0       -2.770800    0.906131    0.170586
      6          6           0        0.891684    0.513552   -0.566395
      7          6           0        1.225034   -1.020706   -0.737575
      8          6           0       -0.075123   -1.761619   -0.285477
      9          1           0       -3.255680   -1.166403   -0.480387
     10          1           0       -2.468818   -1.065396    1.105246
     11          1           0       -1.223363   -0.578741   -1.638710
     12          1           0       -1.388318    1.949292   -1.193018
     13          1           0       -1.197362    2.432222    0.504692
     14          1           0       -3.530465    1.215380   -0.553076
     15          1           0       -3.130511    1.194170    1.162699
     16          1           0        0.850943    0.976869   -1.569093
     17          1           0        1.421887   -1.224085   -1.793412
     18          1           0       -0.235622   -2.692998   -0.830824
     19          8           0        0.025077   -2.114406    1.100611
     20          1           0       -0.079269   -1.276462    1.590791
     21          8           0        2.356407   -1.486295   -0.012878
     22          1           0        1.993212   -1.785295    0.845014
     23          6           0        1.927057    1.271593    0.258104
     24          1           0        1.977206    0.861446    1.274228
     25          1           0        2.912047    1.151668   -0.202681
     26          8           0        1.680090    2.684173    0.299670
     27          1           0        0.961876    2.832323    0.934946
 ---------------------------------------------------------------------
 Rotational constants (GHZ):      1.1348043      0.9426312      0.5825592
 Standard basis: 6-31+G(d,p) (6D, 7F)
 There are   303 symmetry adapted basis functions of A   symmetry.
 Integral buffers will be    131072 words long.
 Raffenetti 2 integral format.
 Two-electron integral symmetry is turned on.
   303 basis functions,   489 primitive gaussians,   303 cartesian basis functions
    47 alpha electrons       47 beta electrons
       nuclear repulsion energy       808.2732101310 Hartrees.
 NAtoms=   27 NActive=   27 NUniq=   27 SFac= 1.00D+00 NAtFMM=   60 NAOKFM=F Big=F
 ------------------------------------------------------------------------------
 Polarizable Continuum Model (PCM)
 =================================
 Model                : PCM.
 Atomic radii         : UFF (Universal Force Field).
 Polarization charges : Total charges.
 Charge compensation  : None.
 Solution method      : Matrix inversion.
 Cavity type          : Scaled VdW (van der Waals Surface) (Alpha=1.100).
 Cavity algorithm     : GePol (No added spheres)
                        Default sphere list used, NSphG=   27.
                        Lebedev-Laikov grids with approx.  5.0 points / Ang**2.
                        Smoothing algorithm: Karplus/York (Gamma=1.0000).
                        Polarization charges: spherical gaussians, with
                                              point-specific exponents (IZeta= 3).
                        Self-potential: point-specific (ISelfS= 7).
                        Self-field    : sphere-specific E.n sum rule (ISelfD= 2).
 Solvent              : Water, Eps=  78.355300 Eps(inf)=   1.777849
 ------------------------------------------------------------------------------
 One-electron integrals computed using PRISM.
 NBasis=   303 RedAO= T  NBF=   303
 NBsUse=   303 1.00D-06 NBFU=   303
 Harris functional with IExCor=  908 diagonalized for initial guess.
 ExpMin= 4.38D-02 ExpMax= 5.48D+03 ExpMxC= 8.25D+02 IAcc=2 IRadAn=         4 AccDes= 0.00D+00
 HarFok:  IExCor=  908 AccDes= 0.00D+00 IRadAn=         4 IDoV= 1
 ScaDFX=  1.000000  1.000000  1.000000  1.000000
 FoFCou: FMM=F IPFlag=           0 FMFlag=      100000 FMFlg1=           0
         NFxFlg=           0 DoJE=T BraDBF=F KetDBF=T FulRan=T
         Omega=  0.000000  0.000000  1.000000  0.000000  0.000000 ICntrl=     500 IOpCl=  0
         NMat0=    1 NMatS0=    1 NMatT0=    0 NMatD0=    1 NMtDS0=    0 NMtDT0=    0
         I1Cent=           4 NGrid=           0.
 Petite list used in FoFCou.
 Initial guess orbital symmetries:
       Occupied  (A) (A) (A) (A) (A) (A) (A) (A) (A) (A) (A) (A)
                 (A) (A) (A) (A) (A) (A) (A) (A) (A) (A) (A) (A)
                 (A) (A) (A) (A) (A) (A) (A) (A) (A) (A) (A) (A)
                 (A) (A) (A) (A) (A) (A) (A) (A) (A) (A) (A)
       Virtual   (A) (A) (A) (A) (A) (A) (A) (A) (A) (A) (A) (A)
                 (A) (A) (A) (A) (A) (A) (A) (A) (A) (A) (A) (A)
                 (A) (A) (A) (A) (A) (A) (A) (A) (A) (A) (A) (A)
                 (A) (A) (A) (A) (A) (A) (A) (A) (A) (A) (A) (A)
                 (A) (A) (A) (A) (A) (A) (A) (A) (A) (A) (A) (A)
                 (A) (A) (A) (A) (A) (A) (A) (A) (A) (A) (A) (A)
                 (A) (A) (A) (A) (A) (A) (A) (A) (A) (A) (A) (A)
                 (A) (A) (A) (A) (A) (A) (A) (A) (A) (A) (A) (A)
                 (A) (A) (A) (A) (A) (A) (A) (A) (A) (A) (A) (A)
                 (A) (A) (A) (A) (A) (A) (A) (A) (A) (A) (A) (A)
                 (A) (A) (A) (A) (A) (A) (A) (A) (A) (A) (A) (A)
                 (A) (A) (A) (A) (A) (A) (A) (A) (A) (A) (A) (A)
                 (A) (A) (A) (A) (A) (A) (A) (A) (A) (A) (A) (A)
                 (A) (A) (A) (A) (A) (A) (A) (A) (A) (A) (A) (A)
                 (A) (A) (A) (A) (A) (A) (A) (A) (A) (A) (A) (A)
                 (A) (A) (A) (A) (A) (A) (A) (A) (A) (A) (A) (A)
                 (A) (A) (A) (A) (A) (A) (A) (A) (A) (A) (A) (A)
                 (A) (A) (A) (A) (A) (A) (A) (A) (A) (A) (A) (A)
                 (A) (A) (A) (A) (A) (A) (A) (A) (A) (A) (A) (A)
                 (A) (A) (A) (A) (A) (A) (A) (A) (A) (A) (A) (A)
                 (A) (A) (A) (A) (A) (A) (A) (A) (A) (A) (A) (A)
                 (A) (A) (A) (A)
 The electronic state of the initial guess is 1-A.
 Requested convergence on RMS density matrix=1.00D-08 within 128 cycles.
 Requested convergence on MAX density matrix=1.00D-06.
 Requested convergence on             energy=1.00D-06.
 No special actions if energy rises.
 Error on total polarization charges =  0.01438
 SCF Done:  E(RmPW1PW91) =  -594.194295121     A.U. after   13 cycles
             Convg  =    0.6338D-08             -V/T =  2.0094
 Range of M.O.s used for correlation:     1   303
 NBasis=   303 NAE=    47 NBE=    47 NFC=     0 NFV=     0
 NROrb=    303 NOA=    47 NOB=    47 NVA=   256 NVB=   256

 **** Warning!!: The largest alpha MO coefficient is  0.59196658D+02

 NEqPCM:  Using equilibrium solvation (IEInf=0, Eps=  78.3553, EpsInf=   1.7778)
          Differentiating once with respect to magnetic field using GIAOs.
          Electric field/nuclear overlap derivatives assumed to be zero.
 FoFCou: FMM=F IPFlag=           0 FMFlag=    10101102 FMFlg1=           0
         NFxFlg=    40000000 DoJE=F BraDBF=F KetDBF=T FulRan=T
         Omega=  0.000000  0.000000  1.000000  0.000000  0.000000 ICntrl=    6100 IOpCl=  0
         NMat0=    1 NMatS0=    1 NMatT0=    0 NMatD0=    1 NMtDS0=    0 NMtDT0=    0
         I1Cent=           7 NGrid=        1838.
 Symmetry not used in FoFCou.
          There are     3 degrees of freedom in the 1st order CPHF.  IDoFFX=0.
      3 vectors produced by pass  0 Test12= 4.01D-13 3.33D-08 XBig12= 4.03D+01 1.43D+00.
 AX will form     3 AO Fock derivatives at one time.
      3 vectors produced by pass  1 Test12= 4.01D-13 3.33D-08 XBig12= 9.20D-02 4.70D-02.
      3 vectors produced by pass  2 Test12= 4.01D-13 3.33D-08 XBig12= 1.66D-04 2.38D-03.
      3 vectors produced by pass  3 Test12= 4.01D-13 3.33D-08 XBig12= 6.55D-07 1.56D-04.
      3 vectors produced by pass  4 Test12= 4.01D-13 3.33D-08 XBig12= 2.21D-09 7.26D-06.
      3 vectors produced by pass  5 Test12= 4.01D-13 3.33D-08 XBig12= 5.83D-12 4.97D-07.
 Inverted reduced A of dimension    18 with in-core refinement.
 Calculating GIAO nuclear magnetic shielding tensors.
 SCF GIAO Magnetic shielding tensor (ppm):
      1  C    Isotropic =   173.5466   Anisotropy =    18.2472
   XX=   183.4215   YX=     3.5065   ZX=    -7.1085
   XY=    -2.4481   YY=   177.6450   ZY=     6.0183
   XZ=    -8.2056   YZ=     1.6423   ZZ=   159.5734
   Eigenvalues:   156.6302   178.2982   185.7114
      2  C    Isotropic =   125.1529   Anisotropy =    50.3618
   XX=   130.7382   YX=    14.8298   ZX=    -4.6054
   XY=     7.4982   YY=   153.6529   ZY=     3.1316
   XZ=    -1.5138   YZ=    12.2467   ZZ=    91.0675
   Eigenvalues:    89.6490   127.0822   158.7274
      3  N    Isotropic =   175.9270   Anisotropy =    94.1539
   XX=   227.7696   YX=    20.3762   ZX=   -17.1255
   XY=    24.2662   YY=   185.6122   ZY=     0.3928
   XZ=   -17.1930   YZ=    15.7220   ZZ=   114.3991
   Eigenvalues:   110.1014   178.9832   238.6963
      4  C    Isotropic =   144.4487   Anisotropy =    53.0459
   XX=   156.1403   YX=   -31.6622   ZX=    -2.4505
   XY=   -19.8370   YY=   151.4572   ZY=    -6.5606
   XZ=    -1.0075   YZ=    -5.8446   ZZ=   125.7487
   Eigenvalues:   120.9101   132.6234   179.8127
      5  C    Isotropic =   167.5395   Anisotropy =    29.9347
   XX=   183.2642   YX=     1.6220   ZX=    -8.3902
   XY=     3.6688   YY=   185.5421   ZY=     3.4881
   XZ=    -8.8154   YZ=     0.6748   ZZ=   133.8123
   Eigenvalues:   132.2417   182.8809   187.4960
      6  C    Isotropic =   129.2173   Anisotropy =    23.6685
   XX=   144.7161   YX=     5.6744   ZX=    -2.4546
   XY=   -10.7163   YY=   120.3378   ZY=     2.6621
   XZ=     1.1791   YZ=    -1.2605   ZZ=   122.5982
   Eigenvalues:   119.9289   122.7268   144.9963
      7  C    Isotropic =   116.6184   Anisotropy =    44.5504
   XX=   139.8970   YX=   -10.1283   ZX=    15.5699
   XY=    -7.4229   YY=   125.6260   ZY=     0.8043
   XZ=     9.8530   YZ=    -1.8610   ZZ=    84.3321
   Eigenvalues:    81.5196   122.0169   146.3186
      8  C    Isotropic =   124.5292   Anisotropy =    36.1455
   XX=   120.5518   YX=    -1.6249   ZX=     6.8118
   XY=    -0.7064   YY=   107.5145   ZY=   -10.5693
   XZ=    -1.8838   YZ=   -11.0085   ZZ=   145.5212
   Eigenvalues:   104.6497   120.3116   148.6261
      9  H    Isotropic =    30.0171   Anisotropy =    11.7198
   XX=    33.5884   YX=     4.1881   ZX=     3.0966
   XY=     4.0915   YY=    29.9038   ZY=     2.6673
   XZ=     3.5462   YZ=     2.4598   ZZ=    26.5592
   Eigenvalues:    24.9622    27.2589    37.8303
     10  H    Isotropic =    29.9594   Anisotropy =     8.6061
   XX=    28.7335   YX=    -0.3489   ZX=    -2.6139
   XY=    -0.5358   YY=    29.7359   ZY=    -4.6678
   XZ=    -2.3919   YZ=    -4.6173   ZZ=    31.4089
   Eigenvalues:    24.8209    29.3605    35.6968
     11  H    Isotropic =    29.0725   Anisotropy =     5.7865
   XX=    29.5525   YX=    -0.2973   ZX=     0.8122
   XY=    -0.2047   YY=    25.5928   ZY=     1.9732
   XZ=     1.6125   YZ=     1.7256   ZZ=    32.0721
   Eigenvalues:    25.0318    29.2555    32.9301
     12  H    Isotropic =    29.4359   Anisotropy =     8.5142
   XX=    29.1081   YX=    -0.8029   ZX=     1.5397
   XY=    -0.8844   YY=    29.7431   ZY=    -5.6147
   XZ=    -0.0933   YZ=    -4.9962   ZZ=    29.4565
   Eigenvalues:    24.2913    28.9043    35.1121
     13  H    Isotropic =    28.5916   Anisotropy =     8.7139
   XX=    28.4467   YX=    -0.7895   ZX=    -0.5767
   XY=     0.0072   YY=    32.7213   ZY=     4.1866
   XZ=     0.3966   YZ=     3.8503   ZZ=    24.6069
   Eigenvalues:    22.9529    28.4212    34.4009
     14  H    Isotropic =    29.5898   Anisotropy =    11.2374
   XX=    34.2599   YX=    -2.7366   ZX=     3.9785
   XY=    -2.8671   YY=    28.1772   ZY=    -2.2305
   XZ=     3.5799   YZ=    -2.0646   ZZ=    26.3323
   Eigenvalues:    24.4801    27.2078    37.0814
     15  H    Isotropic =    29.4029   Anisotropy =    10.9754
   XX=    29.0897   YX=    -1.8296   ZX=    -5.6108
   XY=    -2.0366   YY=    28.7428   ZY=     3.4903
   XZ=    -4.8500   YZ=     2.9483   ZZ=    30.3760
   Eigenvalues:    24.3143    27.1745    36.7198
     16  H    Isotropic =    29.1282   Anisotropy =     6.4519
   XX=    28.3484   YX=     0.1571   ZX=    -2.7387
   XY=     1.6731   YY=    28.2006   ZY=    -1.2555
   XZ=    -2.5647   YZ=    -2.7400   ZZ=    30.8358
   Eigenvalues:    26.5577    27.3975    33.4295
     17  H    Isotropic =    27.1843   Anisotropy =     6.3262
   XX=    25.5604   YX=    -2.5261   ZX=     0.1867
   XY=    -2.5855   YY=    26.0525   ZY=     2.4765
   XZ=    -2.3460   YZ=     1.2008   ZZ=    29.9399
   Eigenvalues:    23.2064    26.9447    31.4018
     18  H    Isotropic =    27.8071   Anisotropy =     8.8371
   XX=    24.2395   YX=     1.5971   ZX=     0.8501
   XY=     0.9000   YY=    29.9433   ZY=     2.9960
   XZ=     0.7834   YZ=     4.7283   ZZ=    29.2385
   Eigenvalues:    23.9782    25.7446    33.6985
     19  O    Isotropic =   313.2580   Anisotropy =    80.5108
   XX=   284.9861   YX=     3.4739   ZX=   -37.2193
   XY=    -4.9603   YY=   341.2126   ZY=    49.2179
   XZ=   -15.4058   YZ=    18.2663   ZZ=   313.5754
   Eigenvalues:   264.9455   307.8966   366.9319
     20  H    Isotropic =    29.7638   Anisotropy =    14.6702
   XX=    21.4897   YX=    -3.7512   ZX=     1.4448
   XY=    -3.1777   YY=    34.9771   ZY=     5.5232
   XZ=    -0.1368   YZ=     4.9506   ZZ=    32.8247
   Eigenvalues:    20.3326    29.4148    39.5440
     21  O    Isotropic =   309.0957   Anisotropy =    34.5658
   XX=   308.8181   YX=     2.8267   ZX=   -17.5942
   XY=   -10.4565   YY=   323.1984   ZY=   -23.0263
   XZ=   -22.0109   YZ=    -9.2820   ZZ=   295.2706
   Eigenvalues:   276.0231   319.1246   332.1396
     22  H    Isotropic =    28.3715   Anisotropy =    14.9417
   XX=    29.9004   YX=    -0.0203   ZX=    -3.7531
   XY=     2.3113   YY=    21.8029   ZY=    -7.3779
   XZ=    -2.9706   YZ=    -7.0234   ZZ=    33.4113
   Eigenvalues:    18.3424    28.4396    38.3326
     23  C    Isotropic =   127.2223   Anisotropy =    52.2842
   XX=   117.5062   YX=   -11.6589   ZX=     9.2824
   XY=    -1.1927   YY=   161.0322   ZY=     4.0660
   XZ=     9.4857   YZ=     3.8680   ZZ=   103.1286
   Eigenvalues:    97.8410   121.7476   162.0785
     24  H    Isotropic =    27.9068   Anisotropy =     5.7986
   XX=    25.0537   YX=    -0.2343   ZX=     4.2092
   XY=    -0.3963   YY=    31.6825   ZY=    -1.4184
   XZ=     2.8059   YZ=     0.8041   ZZ=    26.9843
   Eigenvalues:    22.3806    29.5674    31.7725
     25  H    Isotropic =    27.7395   Anisotropy =     5.7094
   XX=    31.4562   YX=     0.8924   ZX=    -0.9846
   XY=    -0.7719   YY=    29.6158   ZY=     1.7156
   XZ=    -0.8184   YZ=     1.0552   ZZ=    22.1465
   Eigenvalues:    21.8142    29.8586    31.5458
     26  O    Isotropic =   311.5939   Anisotropy =    42.9941
   XX=   317.6966   YX=   -20.2193   ZX=   -15.6613
   XY=     6.8540   YY=   301.0467   ZY=     1.0136
   XZ=   -28.7046   YZ=     4.7734   ZZ=   316.0383
   Eigenvalues:   293.6472   300.8779   340.2566
     27  H    Isotropic =    30.4059   Anisotropy =    15.4179
   XX=    32.3268   YX=    -1.2466   ZX=    -8.4300
   XY=    -2.0655   YY=    30.1096   ZY=     4.5883
   XZ=    -8.0426   YZ=     4.6057   ZZ=    28.7811
   Eigenvalues:    21.3064    29.2267    40.6845
 End of Minotr Frequency-dependent properties file   721 does not exist.
 End of Minotr Frequency-dependent properties file   722 does not exist.

 **********************************************************************

            Population analysis using the SCF density.

 **********************************************************************

 Orbital symmetries:
       Occupied  (A) (A) (A) (A) (A) (A) (A) (A) (A) (A) (A) (A)
                 (A) (A) (A) (A) (A) (A) (A) (A) (A) (A) (A) (A)
                 (A) (A) (A) (A) (A) (A) (A) (A) (A) (A) (A) (A)
                 (A) (A) (A) (A) (A) (A) (A) (A) (A) (A) (A)
       Virtual   (A) (A) (A) (A) (A) (A) (A) (A) (A) (A) (A) (A)
                 (A) (A) (A) (A) (A) (A) (A) (A) (A) (A) (A) (A)
                 (A) (A) (A) (A) (A) (A) (A) (A) (A) (A) (A) (A)
                 (A) (A) (A) (A) (A) (A) (A) (A) (A) (A) (A) (A)
                 (A) (A) (A) (A) (A) (A) (A) (A) (A) (A) (A) (A)
                 (A) (A) (A) (A) (A) (A) (A) (A) (A) (A) (A) (A)
                 (A) (A) (A) (A) (A) (A) (A) (A) (A) (A) (A) (A)
                 (A) (A) (A) (A) (A) (A) (A) (A) (A) (A) (A) (A)
                 (A) (A) (A) (A) (A) (A) (A) (A) (A) (A) (A) (A)
                 (A) (A) (A) (A) (A) (A) (A) (A) (A) (A) (A) (A)
                 (A) (A) (A) (A) (A) (A) (A) (A) (A) (A) (A) (A)
                 (A) (A) (A) (A) (A) (A) (A) (A) (A) (A) (A) (A)
                 (A) (A) (A) (A) (A) (A) (A) (A) (A) (A) (A) (A)
                 (A) (A) (A) (A) (A) (A) (A) (A) (A) (A) (A) (A)
                 (A) (A) (A) (A) (A) (A) (A) (A) (A) (A) (A) (A)
                 (A) (A) (A) (A) (A) (A) (A) (A) (A) (A) (A) (A)
                 (A) (A) (A) (A) (A) (A) (A) (A) (A) (A) (A) (A)
                 (A) (A) (A) (A) (A) (A) (A) (A) (A) (A) (A) (A)
                 (A) (A) (A) (A) (A) (A) (A) (A) (A) (A) (A) (A)
                 (A) (A) (A) (A) (A) (A) (A) (A) (A) (A) (A) (A)
                 (A) (A) (A) (A) (A) (A) (A) (A) (A) (A) (A) (A)
                 (A) (A) (A) (A)
 The electronic state is 1-A.
 Alpha  occ. eigenvalues --  -19.26771 -19.25632 -19.25407 -14.42054 -10.30933
 Alpha  occ. eigenvalues --  -10.30855 -10.29478 -10.28182 -10.28167 -10.27537
 Alpha  occ. eigenvalues --  -10.24976 -10.24947  -1.08437  -1.05684  -1.04877
 Alpha  occ. eigenvalues --   -0.97873  -0.82876  -0.79443  -0.75137  -0.71910
 Alpha  occ. eigenvalues --   -0.66974  -0.62054  -0.60653  -0.58890  -0.55107
 Alpha  occ. eigenvalues --   -0.53543  -0.51715  -0.51354  -0.49669  -0.47208
 Alpha  occ. eigenvalues --   -0.45466  -0.45041  -0.43088  -0.42691  -0.41329
 Alpha  occ. eigenvalues --   -0.39291  -0.39252  -0.38451  -0.36230  -0.35637
 Alpha  occ. eigenvalues --   -0.34789  -0.34678  -0.33479  -0.31408  -0.31056
 Alpha  occ. eigenvalues --   -0.28166  -0.24481
 Alpha virt. eigenvalues --    0.00552   0.01306   0.01759   0.02736   0.03797
 Alpha virt. eigenvalues --    0.04407   0.04777   0.04889   0.05334   0.07500
 Alpha virt. eigenvalues --    0.07572   0.08140   0.08655   0.08770   0.09823
 Alpha virt. eigenvalues --    0.10787   0.11190   0.11803   0.12214   0.12387
 Alpha virt. eigenvalues --    0.13443   0.13567   0.13904   0.15424   0.15561
 Alpha virt. eigenvalues --    0.15698   0.16286   0.17392   0.17706   0.18355
 Alpha virt. eigenvalues --    0.18961   0.19579   0.19899   0.20127   0.21157
 Alpha virt. eigenvalues --    0.21452   0.22096   0.22595   0.22896   0.23217
 Alpha virt. eigenvalues --    0.23753   0.24457   0.24714   0.25078   0.25559
 Alpha virt. eigenvalues --    0.25827   0.26356   0.27565   0.27916   0.28593
 Alpha virt. eigenvalues --    0.29104   0.29588   0.30403   0.30580   0.31438
 Alpha virt. eigenvalues --    0.31879   0.32758   0.33053   0.33591   0.34657
 Alpha virt. eigenvalues --    0.34771   0.35762   0.36054   0.36664   0.38100
 Alpha virt. eigenvalues --    0.38855   0.39624   0.40277   0.40824   0.41699
 Alpha virt. eigenvalues --    0.41934   0.43301   0.44474   0.45788   0.47897
 Alpha virt. eigenvalues --    0.49234   0.65323   0.66635   0.67390   0.69225
 Alpha virt. eigenvalues --    0.70033   0.70794   0.71594   0.72263   0.73346
 Alpha virt. eigenvalues --    0.75019   0.76549   0.78067   0.78900   0.80219
 Alpha virt. eigenvalues --    0.81957   0.83622   0.85507   0.86520   0.88964
 Alpha virt. eigenvalues --    0.89584   0.91930   0.93054   0.94560   0.96553
 Alpha virt. eigenvalues --    0.97427   0.99155   1.00078   1.02104   1.04095
 Alpha virt. eigenvalues --    1.05287   1.06094   1.07339   1.08683   1.10064
 Alpha virt. eigenvalues --    1.11764   1.12224   1.13572   1.15205   1.15568
 Alpha virt. eigenvalues --    1.17296   1.20639   1.23148   1.23872   1.26071
 Alpha virt. eigenvalues --    1.27189   1.28262   1.31039   1.31424   1.32853
 Alpha virt. eigenvalues --    1.33533   1.36063   1.38009   1.39245   1.41781
 Alpha virt. eigenvalues --    1.42445   1.43459   1.46212   1.50241   1.52393
 Alpha virt. eigenvalues --    1.54947   1.56774   1.57233   1.58472   1.61199
 Alpha virt. eigenvalues --    1.62561   1.64520   1.66333   1.67529   1.68773
 Alpha virt. eigenvalues --    1.70686   1.72858   1.74188   1.75464   1.77540
 Alpha virt. eigenvalues --    1.78675   1.80162   1.82903   1.84781   1.88522
 Alpha virt. eigenvalues --    1.88711   1.89494   1.91699   1.95404   1.96380
 Alpha virt. eigenvalues --    1.97664   1.98736   1.99994   2.02105   2.03543
 Alpha virt. eigenvalues --    2.06092   2.07233   2.08342   2.10065   2.10691
 Alpha virt. eigenvalues --    2.12007   2.13436   2.14085   2.18198   2.19499
 Alpha virt. eigenvalues --    2.20869   2.23745   2.25072   2.27523   2.29986
 Alpha virt. eigenvalues --    2.32917   2.35514   2.36136   2.40340   2.40354
 Alpha virt. eigenvalues --    2.41387   2.43187   2.45619   2.46156   2.48104
 Alpha virt. eigenvalues --    2.50046   2.50815   2.53549   2.55105   2.56647
 Alpha virt. eigenvalues --    2.57460   2.57774   2.59090   2.59737   2.60233
 Alpha virt. eigenvalues --    2.61948   2.63829   2.64701   2.67548   2.70636
 Alpha virt. eigenvalues --    2.72282   2.72947   2.73778   2.76075   2.76858
 Alpha virt. eigenvalues --    2.80506   2.82269   2.82599   2.84183   2.84561
 Alpha virt. eigenvalues --    2.86083   2.90203   2.90715   2.92507   2.95367
 Alpha virt. eigenvalues --    2.98402   2.99630   3.02594   3.03695   3.06233
 Alpha virt. eigenvalues --    3.08995   3.11547   3.14291   3.21226   3.31120
 Alpha virt. eigenvalues --    3.34401   3.35743   3.40224   3.42303   3.45605
 Alpha virt. eigenvalues --    3.46639   3.48828   3.49606   3.53951   3.55101
 Alpha virt. eigenvalues --    3.59188   3.59975   3.61868   3.62780   4.26022
 Alpha virt. eigenvalues --    4.32456   4.39614   4.42551   4.48911   4.53512
 Alpha virt. eigenvalues --    4.58424   4.62264   4.75049   4.84883   4.91591
 Alpha virt. eigenvalues --    5.06677
          Condensed to atoms (all electrons):
              1          2          3          4          5          6
     1  C    6.171579  -1.216390   0.163273   0.249030  -0.103713  -0.009373
     2  C   -1.216390  10.818122  -1.100018  -1.075811   0.952769  -0.334639
     3  N    0.163273  -1.100018   7.896164   0.335687  -0.276145   0.000774
     4  C    0.249030  -1.075811   0.335687   6.112589  -0.359060  -0.071015
     5  C   -0.103713   0.952769  -0.276145  -0.359060   6.015431  -0.114384
     6  C   -0.009373  -0.334639   0.000774  -0.071015  -0.114384   7.773748
     7  C   -0.070836   0.483842  -0.290640  -0.024020  -0.021001  -0.974538
     8  C    0.445813  -2.282869   0.327544   0.172407  -0.355790   0.224563
     9  H    0.410793  -0.103532   0.015737   0.024456  -0.038894   0.005484
    10  H    0.446028  -0.127922   0.029538   0.022911  -0.064075   0.003100
    11  H    0.048401   0.098349  -0.007924   0.077445  -0.054445   0.024793
    12  H    0.036040  -0.096066  -0.072443   0.505370  -0.103174   0.005497
    13  H    0.017817   0.043804  -0.051209   0.362170  -0.007799  -0.005890
    14  H   -0.024902  -0.011784   0.015164  -0.040653   0.395681  -0.001060
    15  H   -0.062932   0.016480   0.006507  -0.016250   0.390246   0.000652
    16  H    0.018690  -0.085132  -0.057313   0.055206  -0.016061   0.325989
    17  H    0.004324  -0.034161   0.035532   0.005816   0.001753  -0.032109
    18  H    0.014577  -0.059033   0.020100   0.004937  -0.001635   0.038289
    19  O   -0.001378  -0.090401   0.034502   0.015513  -0.007996   0.069181
    20  H    0.021956  -0.117356   0.047703   0.017943  -0.012838   0.032340
    21  O    0.004553  -0.017086   0.026274   0.000824  -0.000654  -0.234579
    22  H   -0.001584   0.032569   0.002547   0.001413   0.001429   0.013124
    23  C   -0.024669   0.008664   0.060663  -0.038257   0.019009  -0.212955
    24  H    0.000167   0.002989   0.007936   0.013033   0.002419  -0.075815
    25  H   -0.001426   0.001032   0.012538  -0.000625   0.001340  -0.124179
    26  O   -0.008017   0.040016   0.015876  -0.015485   0.020616  -0.121685
    27  H   -0.001595   0.004221   0.022824   0.000037   0.009121  -0.091235
              7          8          9         10         11         12
     1  C   -0.070836   0.445813   0.410793   0.446028   0.048401   0.036040
     2  C    0.483842  -2.282869  -0.103532  -0.127922   0.098349  -0.096066
     3  N   -0.290640   0.327544   0.015737   0.029538  -0.007924  -0.072443
     4  C   -0.024020   0.172407   0.024456   0.022911   0.077445   0.505370
     5  C   -0.021001  -0.355790  -0.038894  -0.064075  -0.054445  -0.103174
     6  C   -0.974538   0.224563   0.005484   0.003100   0.024793   0.005497
     7  C    6.798072  -0.413469  -0.006556  -0.005428  -0.023895  -0.000051
     8  C   -0.413469   7.379008   0.033162   0.019327   0.070715   0.020369
     9  H   -0.006556   0.033162   0.513718  -0.024851  -0.002923   0.000208
    10  H   -0.005428   0.019327  -0.024851   0.514908   0.003679  -0.000163
    11  H   -0.023895   0.070715  -0.002923   0.003679   0.571722   0.007016
    12  H   -0.000051   0.020369   0.000208  -0.000163   0.007016   0.565635
    13  H   -0.003401  -0.007751  -0.000111  -0.000011  -0.000315  -0.039253
    14  H   -0.001759   0.007069  -0.006266   0.003155   0.000882  -0.006500
    15  H    0.001082   0.004424   0.002205  -0.007924  -0.000086   0.003219
    16  H   -0.027670   0.039395   0.000021  -0.000009   0.006976   0.009976
    17  H    0.392636  -0.036196   0.000005  -0.000001   0.000556   0.000004
    18  H   -0.043015   0.371195   0.000354  -0.000099  -0.001425   0.000013
    19  O   -0.141716   0.200471  -0.001117   0.008595   0.004644  -0.000306
    20  H   -0.029916   0.060275   0.000088   0.000058   0.000412   0.000038
    21  O    0.390951  -0.041178   0.000021  -0.000079  -0.000449  -0.000076
    22  H    0.022111  -0.103454   0.000000  -0.000002  -0.000052   0.000000
    23  C   -0.044397   0.014771  -0.000299   0.002015   0.005059   0.004618
    24  H   -0.004098  -0.013776   0.000000  -0.000002  -0.000004   0.000007
    25  H    0.000221   0.000796   0.000000   0.000000   0.000017   0.000016
    26  O    0.060668  -0.029177   0.000002   0.000012   0.000308   0.000177
    27  H   -0.006733   0.001201   0.000000   0.000000   0.000008  -0.000033
             13         14         15         16         17         18
     1  C    0.017817  -0.024902  -0.062932   0.018690   0.004324   0.014577
     2  C    0.043804  -0.011784   0.016480  -0.085132  -0.034161  -0.059033
     3  N   -0.051209   0.015164   0.006507  -0.057313   0.035532   0.020100
     4  C    0.362170  -0.040653  -0.016250   0.055206   0.005816   0.004937
     5  C   -0.007799   0.395681   0.390246  -0.016061   0.001753  -0.001635
     6  C   -0.005890  -0.001060   0.000652   0.325989  -0.032109   0.038289
     7  C   -0.003401  -0.001759   0.001082  -0.027670   0.392636  -0.043015
     8  C   -0.007751   0.007069   0.004424   0.039395  -0.036196   0.371195
     9  H   -0.000111  -0.006266   0.002205   0.000021   0.000005   0.000354
    10  H   -0.000011   0.003155  -0.007924  -0.000009  -0.000001  -0.000099
    11  H   -0.000315   0.000882  -0.000086   0.006976   0.000556  -0.001425
    12  H   -0.039253  -0.006500   0.003219   0.009976   0.000004   0.000013
    13  H    0.550013   0.002216  -0.006776  -0.000935   0.000002   0.000002
    14  H    0.002216   0.514628  -0.026250   0.000014   0.000000  -0.000001
    15  H   -0.006776  -0.026250   0.514436  -0.000004   0.000000   0.000001
    16  H   -0.000935   0.000014  -0.000004   0.572254  -0.006805  -0.000091
    17  H    0.000002   0.000000   0.000000  -0.006805   0.533009  -0.003939
    18  H    0.000002  -0.000001   0.000001  -0.000091  -0.003939   0.525061
    19  O    0.000181   0.000116  -0.000109  -0.001192   0.009344  -0.050585
    20  H   -0.000013  -0.000005   0.000037   0.000057  -0.000370   0.005780
    21  O    0.000056  -0.000003  -0.000007   0.006165  -0.055735   0.000619
    22  H    0.000000   0.000000   0.000000  -0.000233   0.005819   0.000081
    23  C   -0.006584   0.000743   0.000736  -0.009533   0.000497   0.000128
    24  H    0.000021   0.000000  -0.000001   0.004409  -0.000125  -0.000008
    25  H   -0.000051   0.000000   0.000000  -0.002285   0.000148   0.000000
    26  O   -0.002484   0.000032  -0.000054   0.004376  -0.000413   0.000020
    27  H    0.001948   0.000001  -0.000007  -0.000094   0.000004   0.000000
             19         20         21         22         23         24
     1  C   -0.001378   0.021956   0.004553  -0.001584  -0.024669   0.000167
     2  C   -0.090401  -0.117356  -0.017086   0.032569   0.008664   0.002989
     3  N    0.034502   0.047703   0.026274   0.002547   0.060663   0.007936
     4  C    0.015513   0.017943   0.000824   0.001413  -0.038257   0.013033
     5  C   -0.007996  -0.012838  -0.000654   0.001429   0.019009   0.002419
     6  C    0.069181   0.032340  -0.234579   0.013124  -0.212955  -0.075815
     7  C   -0.141716  -0.029916   0.390951   0.022111  -0.044397  -0.004098
     8  C    0.200471   0.060275  -0.041178  -0.103454   0.014771  -0.013776
     9  H   -0.001117   0.000088   0.000021   0.000000  -0.000299   0.000000
    10  H    0.008595   0.000058  -0.000079  -0.000002   0.002015  -0.000002
    11  H    0.004644   0.000412  -0.000449  -0.000052   0.005059  -0.000004
    12  H   -0.000306   0.000038  -0.000076   0.000000   0.004618   0.000007
    13  H    0.000181  -0.000013   0.000056   0.000000  -0.006584   0.000021
    14  H    0.000116  -0.000005  -0.000003   0.000000   0.000743   0.000000
    15  H   -0.000109   0.000037  -0.000007   0.000000   0.000736  -0.000001
    16  H   -0.001192   0.000057   0.006165  -0.000233  -0.009533   0.004409
    17  H    0.009344  -0.000370  -0.055735   0.005819   0.000497  -0.000125
    18  H   -0.050585   0.005780   0.000619   0.000081   0.000128  -0.000008
    19  O    8.288607   0.246381  -0.026837   0.048840  -0.006673  -0.000190
    20  H    0.246381   0.333543  -0.002591  -0.005541  -0.004936  -0.000351
    21  O   -0.026837  -0.002591   8.242962   0.245553   0.000851   0.002800
    22  H    0.048840  -0.005541   0.245553   0.348191  -0.004830  -0.001054
    23  C   -0.006673  -0.004936   0.000851  -0.004830   5.326812   0.421111
    24  H   -0.000190  -0.000351   0.002800  -0.001054   0.421111   0.554654
    25  H    0.000094   0.000027  -0.002208   0.000228   0.488982  -0.030363
    26  O   -0.000755   0.000325  -0.001669  -0.000102   0.160658  -0.043219
    27  H    0.000022   0.000017   0.000248   0.000004   0.054226  -0.008093
             25         26         27
     1  C   -0.001426  -0.008017  -0.001595
     2  C    0.001032   0.040016   0.004221
     3  N    0.012538   0.015876   0.022824
     4  C   -0.000625  -0.015485   0.000037
     5  C    0.001340   0.020616   0.009121
     6  C   -0.124179  -0.121685  -0.091235
     7  C    0.000221   0.060668  -0.006733
     8  C    0.000796  -0.029177   0.001201
     9  H    0.000000   0.000002   0.000000
    10  H    0.000000   0.000012   0.000000
    11  H    0.000017   0.000308   0.000008
    12  H    0.000016   0.000177  -0.000033
    13  H   -0.000051  -0.002484   0.001948
    14  H    0.000000   0.000032   0.000001
    15  H    0.000000  -0.000054  -0.000007
    16  H   -0.002285   0.004376  -0.000094
    17  H    0.000148  -0.000413   0.000004
    18  H    0.000000   0.000020   0.000000
    19  O    0.000094  -0.000755   0.000022
    20  H    0.000027   0.000325   0.000017
    21  O   -0.002208  -0.001669   0.000248
    22  H    0.000228  -0.000102   0.000004
    23  C    0.488982   0.160658   0.054226
    24  H   -0.030363  -0.043219  -0.008093
    25  H    0.533974  -0.059686   0.006427
    26  O   -0.059686   8.263475   0.258627
    27  H    0.006427   0.258627   0.376307
 Mulliken atomic charges:
              1
     1  C   -0.526223
     2  C    0.249343
     3  N   -0.221193
     4  C   -0.335611
     5  C   -0.272151
     6  C   -0.114078
     7  C   -0.016444
     8  C   -0.108847
     9  H    0.178294
    10  H    0.177241
    11  H    0.170537
    12  H    0.159863
    13  H    0.154351
    14  H    0.179482
    15  H    0.180376
    16  H    0.163829
    17  H    0.180403
    18  H    0.178671
    19  O   -0.597236
    20  H    0.406938
    21  O   -0.538725
    22  H    0.394944
    23  C   -0.216412
    24  H    0.167551
    25  H    0.174985
    26  O   -0.542439
    27  H    0.372550
 Sum of Mulliken atomic charges =   0.00000
 Mulliken charges with hydrogens summed into heavy atoms:
              1
     1  C   -0.170688
     2  C    0.419879
     3  N   -0.221193
     4  C   -0.021397
     5  C    0.087708
     6  C    0.049752
     7  C    0.163959
     8  C    0.069824
    19  O   -0.190298
    21  O   -0.143782
    23  C    0.126125
    26  O   -0.169889
 Sum of Mulliken charges with hydrogens summed into heavy atoms =   0.00000
 Electronic spatial extent (au):  <R**2>=           2042.7489
 Charge=              0.0000 electrons
 Dipole moment (field-independent basis, Debye):
    X=             -4.4184    Y=              0.5341    Z=             -0.2104  Tot=              4.4555
 Quadrupole moment (field-independent basis, Debye-Ang):
   XX=            -79.8663   YY=            -84.0681   ZZ=            -67.8876
   XY=             -3.1468   XZ=              2.1313   YZ=              5.6616
 Traceless Quadrupole moment (field-independent basis, Debye-Ang):
   XX=             -2.5923   YY=             -6.7941   ZZ=              9.3864
   XY=             -3.1468   XZ=              2.1313   YZ=              5.6616
 Octapole moment (field-independent basis, Debye-Ang**2):
  XXX=            -25.9963  YYY=             -6.4823  ZZZ=              9.3010  XYY=            -25.9153
  XXY=             -0.3761  XXZ=              2.4814  XZZ=              8.0495  YZZ=              1.1137
  YYZ=              0.9345  XYZ=             -4.3530
 Hexadecapole moment (field-independent basis, Debye-Ang**3):
 XXXX=          -1408.8403 YYYY=          -1129.9812 ZZZZ=           -226.9088 XXXY=             15.2356
 XXXZ=             13.2472 YYYX=            -62.7547 YYYZ=             56.6096 ZZZX=              1.3872
 ZZZY=              3.7260 XXYY=           -464.2059 XXZZ=           -251.4269 YYZZ=           -206.3991
 XXYZ=            -14.2334 YYXZ=             11.5373 ZZXY=             -5.2824
 N-N= 8.082732101310D+02 E-N=-3.001779705613D+03  KE= 5.886607973316D+02
 1\1\GINC-COMPUTE-3-1\SP\RmPW1PW91\6-31+G(d,p)\C8H15N1O3\MAMICHETTI.IQU
 IR\17-May-2024\0\\# mpw1pw91/6-31+G** nmr scrf=(pcm,solvent=water)\\co
 mment\\0,1\C,0,-2.501005,-0.630249,0.101412\C,0,-1.118066,-0.6847,-0.5
 39945\N,0,-0.447318,0.493035,0.035413\C,0,-1.40697,1.582163,-0.151299\
 C,0,-2.7708,0.906132,0.170586\C,0,0.891684,0.513552,-0.566395\C,0,1.22
 5034,-1.020706,-0.737575\C,0,-0.075123,-1.761619,-0.285477\H,0,-3.2556
 8,-1.166402,-0.480387\H,0,-2.468818,-1.065395,1.105246\H,0,-1.223363,-
 0.578741,-1.63871\H,0,-1.388317,1.949292,-1.193018\H,0,-1.197361,2.432
 222,0.504692\H,0,-3.530465,1.215381,-0.553076\H,0,-3.130511,1.194171,1
 .162699\H,0,0.850943,0.976869,-1.569093\H,0,1.421887,-1.224085,-1.7934
 12\H,0,-0.235623,-2.692998,-0.830824\O,0,0.025077,-2.114406,1.100611\H
 ,0,-0.079269,-1.276462,1.590791\O,0,2.356407,-1.486295,-0.012878\H,0,1
 .993212,-1.785295,0.845014\C,0,1.927057,1.271593,0.258104\H,0,1.977206
 ,0.861446,1.274228\H,0,2.912047,1.151667,-0.202681\O,0,1.680091,2.6841
 73,0.29967\H,0,0.961877,2.832323,0.934946\\Version=AM64L-G09RevC.01\St
 ate=1-A\HF=-594.1942951\RMSD=6.338e-09\Dipole=-1.7383348,0.2101126,-0.
 082792\Quadrupole=-1.9272959,-5.0512726,6.9785685,-2.3395368,1.5845498
 ,4.2092428\PG=C01 [X(C8H15N1O3)]\\@


 Spring appears, and we are once more children.
                                  -- Anonymous
 Job cpu time:  0 days  0 hours  8 minutes 23.4 seconds.
 File lengths (MBytes):  RWF=    113 Int=      0 D2E=      0 Chk=      7 Scr=      1
 Normal termination of Gaussian 09 at Fri May 17 13:26:51 2024.
