 Entering Gaussian System, Link 0=g09
 Input=/home/fbruno.iquir/2_val_run/2a_003_MPW_A_SMD.gjc
 Output=/home/fbruno.iquir/2_val_run/2a_003_MPW_A_SMD.log
 Initial command:
 /share/apps/Gaussian09/EM64T.SSE4.2-enabled/g09/l1.exe /tmp/Gau-45732.inp -scrdir=/tmp/
 Entering Link 1 = /share/apps/Gaussian09/EM64T.SSE4.2-enabled/g09/l1.exe PID=     45733.
  
 Copyright (c) 1988,1990,1992,1993,1995,1998,2003,2009,2011,
            Gaussian, Inc.  All Rights Reserved.
  
 This is part of the Gaussian(R) 09 program.  It is based on
 the Gaussian(R) 03 system (copyright 2003, Gaussian, Inc.),
 the Gaussian(R) 98 system (copyright 1998, Gaussian, Inc.),
 the Gaussian(R) 94 system (copyright 1995, Gaussian, Inc.),
 the Gaussian 92(TM) system (copyright 1992, Gaussian, Inc.),
 the Gaussian 90(TM) system (copyright 1990, Gaussian, Inc.),
 the Gaussian 88(TM) system (copyright 1988, Gaussian, Inc.),
 the Gaussian 86(TM) system (copyright 1986, Carnegie Mellon
 University), and the Gaussian 82(TM) system (copyright 1983,
 Carnegie Mellon University). Gaussian is a federally registered
 trademark of Gaussian, Inc.
  
 This software contains proprietary and confidential information,
 including trade secrets, belonging to Gaussian, Inc.
  
 This software is provided under written license and may be
 used, copied, transmitted, or stored only in accord with that
 written license.
  
 The following legend is applicable only to US Government
 contracts under FAR:
  
                    RESTRICTED RIGHTS LEGEND
  
 Use, reproduction and disclosure by the US Government is
 subject to restrictions as set forth in subparagraphs (a)
 and (c) of the Commercial Computer Software - Restricted
 Rights clause in FAR 52.227-19.
  
 Gaussian, Inc.
 340 Quinnipiac St., Bldg. 40, Wallingford CT 06492
  
  
 ---------------------------------------------------------------
 Warning -- This program may not be used in any manner that
 competes with the business of Gaussian, Inc. or will provide
 assistance to any competitor of Gaussian, Inc.  The licensee
 of this program is prohibited from giving any competitor of
 Gaussian, Inc. access to this program.  By using this program,
 the user acknowledges that Gaussian, Inc. is engaged in the
 business of creating and licensing software in the field of
 computational chemistry and represents and warrants to the
 licensee that it is not a competitor of Gaussian, Inc. and that
 it will not use this program in any manner prohibited above.
 ---------------------------------------------------------------
  

 Cite this work as:
 Gaussian 09, Revision C.01,
 M. J. Frisch, G. W. Trucks, H. B. Schlegel, G. E. Scuseria, 
 M. A. Robb, J. R. Cheeseman, G. Scalmani, V. Barone, B. Mennucci, 
 G. A. Petersson, H. Nakatsuji, M. Caricato, X. Li, H. P. Hratchian, 
 A. F. Izmaylov, J. Bloino, G. Zheng, J. L. Sonnenberg, M. Hada, 
 M. Ehara, K. Toyota, R. Fukuda, J. Hasegawa, M. Ishida, T. Nakajima, 
 Y. Honda, O. Kitao, H. Nakai, T. Vreven, J. A. Montgomery, Jr., 
 J. E. Peralta, F. Ogliaro, M. Bearpark, J. J. Heyd, E. Brothers, 
 K. N. Kudin, V. N. Staroverov, T. Keith, R. Kobayashi, J. Normand, 
 K. Raghavachari, A. Rendell, J. C. Burant, S. S. Iyengar, J. Tomasi, 
 M. Cossi, N. Rega, J. M. Millam, M. Klene, J. E. Knox, J. B. Cross, 
 V. Bakken, C. Adamo, J. Jaramillo, R. Gomperts, R. E. Stratmann, 
 O. Yazyev, A. J. Austin, R. Cammi, C. Pomelli, J. W. Ochterski, 
 R. L. Martin, K. Morokuma, V. G. Zakrzewski, G. A. Voth, 
 P. Salvador, J. J. Dannenberg, S. Dapprich, A. D. Daniels, 
 O. Farkas, J. B. Foresman, J. V. Ortiz, J. Cioslowski, 
 and D. J. Fox, Gaussian, Inc., Wallingford CT, 2010.
 
 ******************************************
 Gaussian 09:  EM64L-G09RevC.01 23-Sep-2011
                21-Dec-2021 
 ******************************************
 %nprocshared=4
 Will use up to    4 processors via shared memory.
 -----------------------------------------------------------------
 # mPW1PW91/6-31g** scrf=(pcm,solvent=chloroform,smd,dovacuum) nmr
 -----------------------------------------------------------------
 1/38=1/1;
 2/12=2,17=6,18=5,40=1/2;
 3/5=1,6=6,7=101,11=2,16=1,25=1,30=1,70=32101,72=7,74=-7/1,2,8,3;
 4//1;
 5/5=2,38=5,53=7/2;
 8/6=1,10=90,11=11/1;
 10/13=100,45=16/2;
 6/7=2,8=2,9=2,10=2,28=1/1;
 99/9=1/99;
 -------
 comment
 -------
 Charge =  0 Multiplicity = 1
 Symbolic Z-Matrix:
 6                    -0.83816   0.56062   1.96793 
 1                    -0.8043    0.41102   3.05399 
 6                    -0.32768  -0.72076   1.2849 
 1                     0.7446   -0.83503   1.47671 
 6                    -0.55787  -0.69403  -0.22695 
 8                    -1.62903  -1.06939  -0.70991 
 8                     0.06487   1.63259   1.69016 
 1                    -0.29617   2.43682   2.10396 
 6                    -0.9971   -1.96893   1.87261 
 1                    -0.61343  -2.87436   1.38902 
 1                    -2.083    -1.96102   1.7339 
 1                    -0.79302  -2.04936   2.94547 
 6                     0.51985  -0.22661  -1.15751 
 6                     2.46802   0.58566  -3.01172 
 6                     0.32088  -0.41032  -2.53523 
 6                     1.70614   0.37435  -0.72258 
 6                     2.67511   0.7782   -1.64733 
 6                     1.28994  -0.00765  -3.45704 
 1                    -0.59494  -0.87243  -2.9001 
 1                     1.90145   0.5605    0.32866 
 1                     3.59096   1.24988  -1.29911 
 1                     1.12147  -0.15703  -4.5205 
 1                     3.22251   0.90234  -3.72739 
 6                    -2.25155   0.99045   1.58686 
 1                    -2.55166   1.86077   2.18156 
 1                    -2.9822    0.19595   1.75936 
 1                    -2.30568   1.30777   0.54026 
 
                          Input orientation:                          
 ---------------------------------------------------------------------
 Center     Atomic      Atomic             Coordinates (Angstroms)
 Number     Number       Type             X           Y           Z
 ---------------------------------------------------------------------
      1          6           0       -0.838160    0.560615    1.967934
      2          1           0       -0.804297    0.411021    3.053985
      3          6           0       -0.327685   -0.720757    1.284898
      4          1           0        0.744601   -0.835029    1.476706
      5          6           0       -0.557873   -0.694029   -0.226947
      6          8           0       -1.629035   -1.069389   -0.709914
      7          8           0        0.064866    1.632591    1.690164
      8          1           0       -0.296173    2.436821    2.103964
      9          6           0       -0.997103   -1.968932    1.872612
     10          1           0       -0.613435   -2.874356    1.389019
     11          1           0       -2.083000   -1.961017    1.733905
     12          1           0       -0.793015   -2.049355    2.945470
     13          6           0        0.519850   -0.226606   -1.157507
     14          6           0        2.468018    0.585659   -3.011716
     15          6           0        0.320885   -0.410316   -2.535227
     16          6           0        1.706138    0.374347   -0.722577
     17          6           0        2.675110    0.778199   -1.647333
     18          6           0        1.289943   -0.007646   -3.457041
     19          1           0       -0.594941   -0.872428   -2.900097
     20          1           0        1.901454    0.560495    0.328658
     21          1           0        3.590958    1.249875   -1.299105
     22          1           0        1.121472   -0.157035   -4.520504
     23          1           0        3.222510    0.902339   -3.727386
     24          6           0       -2.251548    0.990451    1.586857
     25          1           0       -2.551659    1.860772    2.181556
     26          1           0       -2.982204    0.195946    1.759365
     27          1           0       -2.305677    1.307765    0.540263
 ---------------------------------------------------------------------
                    Distance matrix (angstroms):
                    1          2          3          4          5
     1  C    0.000000
     2  H    1.096828   0.000000
     3  C    1.539168   2.153544   0.000000
     4  H    2.166624   2.537624   1.095283   0.000000
     5  C    2.543658   3.470789   1.529501   2.149128   0.000000
     6  O    3.233151   4.127801   2.407141   3.235796   1.233507
     7  O    1.428896   2.026743   2.420037   2.568414   3.078356
     8  H    1.957652   2.294470   3.262232   3.490224   3.912013
     9  C    2.536328   2.664019   1.533451   2.115658   2.495285
    10  H    3.490656   3.688123   2.174968   2.451694   2.714453
    11  H    2.821884   3.000710   2.195675   3.054395   2.788585
    12  H    2.787393   2.462795   2.176972   2.448697   3.457807
    13  C    3.497470   4.460561   2.632079   2.712890   1.498638
    14  C    5.977320   6.894293   5.289949   5.013427   4.306804
    15  C    4.750216   5.760202   3.887206   4.056541   2.486135
    16  C    3.707695   4.534981   3.060333   2.687748   2.552023
    17  C    5.045847   5.860332   4.456638   4.011109   3.825851
    18  C    5.855091   6.852342   5.060753   5.032278   3.784053
    19  H    5.080403   6.094438   4.196262   4.577355   2.679353
    20  H    3.192603   3.843286   2.743185   2.145650   2.816171
    21  H    5.546685   6.242703   5.090797   4.489288   4.705432
    22  H    6.815790   7.836080   6.010035   6.047167   4.641465
    23  H    7.003034   7.902124   6.353055   6.020054   5.393771
    24  C    1.525662   2.140733   2.592424   3.510188   2.999315
    25  H    2.161509   2.432320   3.523400   4.316189   4.037707
    26  H    2.184814   2.542750   2.848146   3.877097   3.258047
    27  H    2.179469   3.062204   2.929477   3.843525   2.765973
                    6          7          8          9         10
     6  O    0.000000
     7  O    3.991287   0.000000
     8  H    4.689129   0.973840   0.000000
     9  C    2.806770   3.759259   4.467156   0.000000
    10  H    2.948707   4.567642   5.368464   1.095836   0.000000
    11  H    2.640707   4.186796   4.761373   1.094749   1.764301
    12  H    3.875706   3.983526   4.591379   1.095054   1.770711
    13  C    2.351240   3.431160   4.289164   3.810311   3.844439
    14  C    4.982300   5.383203   6.102272   6.510734   6.390111
    15  C    2.751060   4.700313   5.478051   4.857512   4.726960
    16  C    3.634269   3.177778   4.031424   4.419669   4.515897
    17  C    4.776819   4.322296   5.064758   5.781167   5.777120
    18  C    4.146617   5.539396   6.278212   6.122289   5.943498
    19  H    2.430030   5.270765   6.006747   4.913533   4.733347
    20  H    4.024861   2.525103   3.391441   4.145290   4.387168
    21  H    5.742339   4.638483   5.300896   6.439783   6.473964
    22  H    4.787303   6.549165   7.254059   6.974472   6.731730
    23  H    6.044033   6.312989   6.981432   7.576893   7.426674
    24  C    3.147319   2.405991   2.486539   3.226954   4.202296
    25  H    4.218729   2.672029   2.329179   4.144722   5.177477
    26  H    3.086985   3.369477   3.514973   2.939413   3.895508
    27  H    2.769773   2.654668   2.785325   3.771507   4.590666
                   11         12         13         14         15
    11  H    0.000000
    12  H    1.771935   0.000000
    13  C    4.259492   4.677655   0.000000
    14  C    7.051116   7.284620   2.809487   0.000000
    15  C    5.138952   5.827973   1.404083   2.414371   0.000000
    16  C    5.083876   5.057140   1.399138   2.421832   2.412535
    17  C    6.447921   6.412238   2.427902   1.393376   2.782679
    18  C    6.491403   7.035583   2.434921   1.392187   1.396767
    19  H    4.987316   5.966158   2.167133   3.394141   1.088767
    20  H    4.920226   4.573750   2.176475   3.388174   3.412113
    21  H    7.190464   6.936899   3.410535   2.152954   3.870092
    22  H    7.255385   7.936428   3.417094   2.154350   2.155554
    23  H    8.134675   8.328502   3.896557   1.087073   3.400549
    24  C    2.959932   3.635047   4.085758   6.601896   5.056792
    25  H    3.876352   4.354938   4.994063   7.334381   5.971382
    26  H    2.337029   3.352726   4.577235   7.253965   5.451740
    27  H    3.487019   4.398116   3.635976   5.993843   4.394231
                   16         17         18         19         20
    16  C    0.000000
    17  C    1.398992   0.000000
    18  C    2.792208   2.410660   0.000000
    19  H    3.404556   3.871333   2.147282   0.000000
    20  H    1.085308   2.133185   3.876628   4.325519   0.000000
    21  H    2.156729   1.087436   3.395985   4.958739   2.445256
    22  H    3.879233   3.397582   1.087039   2.466490   4.963626
    23  H    3.406910   2.154455   2.153131   4.290353   4.279431
    24  C    4.623457   5.897203   6.243338   5.132974   4.360660
    25  H    5.363981   6.568978   7.074085   6.092810   4.995415
    26  H    5.307770   6.629466   6.745634   5.343317   5.101955
    27  H    4.308212   5.465735   5.535090   4.417684   4.278217
                   21         22         23         24         25
    21  H    0.000000
    22  H    4.295947   0.000000
    23  H    2.480541   2.483076   0.000000
    24  C    6.521576   7.070632   7.629827   0.000000
    25  H    7.086603   7.904495   8.317164   1.095989   0.000000
    26  H    7.326081   7.510093   8.312755   1.093095   1.770667
    27  H    6.177129   6.285089   6.995573   1.094979   1.749334
                   26         27
    26  H    0.000000
    27  H    1.783267   0.000000
 Stoichiometry    C11H14O2
 Framework group  C1[X(C11H14O2)]
 Deg. of freedom    75
 Full point group                 C1      NOp   1
 Largest Abelian subgroup         C1      NOp   1
 Largest concise Abelian subgroup C1      NOp   1
                         Standard orientation:                         
 ---------------------------------------------------------------------
 Center     Atomic      Atomic             Coordinates (Angstroms)
 Number     Number       Type             X           Y           Z
 ---------------------------------------------------------------------
      1          6           0       -2.304571    0.867018   -0.094411
      2          1           0       -3.179737    1.237693    0.453053
      3          6           0       -1.534503   -0.102616    0.819834
      4          1           0       -1.080537    0.455926    1.645418
      5          6           0       -0.433062   -0.848300    0.064746
      6          8           0       -0.679874   -1.891689   -0.545141
      7          8           0       -1.490653    2.011825   -0.356514
      8          1           0       -1.985238    2.592777   -0.961697
      9          6           0       -2.477621   -1.122965    1.468592
     10          1           0       -1.919484   -1.796508    2.128653
     11          1           0       -2.989404   -1.744440    0.726756
     12          1           0       -3.239651   -0.617827    2.071328
     13          6           0        0.975504   -0.336584    0.062889
     14          6           0        3.659918    0.490916    0.014065
     15          6           0        1.972354   -1.163963   -0.478575
     16          6           0        1.341969    0.912976    0.574642
     17          6           0        2.679175    1.323371    0.549471
     18          6           0        3.307137   -0.753140   -0.501743
     19          1           0        1.713274   -2.139699   -0.886287
     20          1           0        0.609292    1.600962    0.984219
     21          1           0        2.952435    2.299075    0.944246
     22          1           0        4.067554   -1.405178   -0.923956
     23          1           0        4.697695    0.813982   -0.005306
     24          6           0       -2.780834    0.282073   -1.420554
     25          1           0       -3.383626    1.020833   -1.960986
     26          1           0       -3.392223   -0.612755   -1.277921
     27          1           0       -1.938943    0.041361   -2.078016
 ---------------------------------------------------------------------
 Rotational constants (GHZ):      1.4390113      0.5142332      0.4497691
 Standard basis: 6-31G(d,p) (6D, 7F)
 There are   265 symmetry adapted basis functions of A   symmetry.
 Integral buffers will be    131072 words long.
 Raffenetti 2 integral format.
 Two-electron integral symmetry is turned on.
   265 basis functions,   462 primitive gaussians,   265 cartesian basis functions
    48 alpha electrons       48 beta electrons
       nuclear repulsion energy       787.7989139018 Hartrees.
 NAtoms=   27 NActive=   27 NUniq=   27 SFac= 1.00D+00 NAtFMM=   60 NAOKFM=F Big=F
 ------------------------------------------------------------------------------
 Polarizable Continuum Model (PCM)
 =================================
 Model                : C-PCM.
 Atomic radii         : SMD-Coulomb.
 Polarization charges : Total charges.
 Charge compensation  : None.
 Solution method      : Matrix inversion.
 Cavity type          : VdW (van der Waals Surface) (Alpha=1.000).
 Cavity algorithm     : GePol (No added spheres)
                        Default sphere list used, NSphG=   27.
                        Lebedev-Laikov grids with approx.  5.0 points / Ang**2.
                        Smoothing algorithm: Karplus/York (Gamma=1.0000).
                        Polarization charges: spherical gaussians, with
                                              point-specific exponents (IZeta= 3).
                        Self-potential: point-specific (ISelfS= 7).
                        Self-field    : sphere-specific E.n sum rule (ISelfD= 2).
 Solvent              : Chloroform, Eps=   4.711300 Eps(inf)=   2.090627
 ------------------------------------------------------------------------------
 ------------------------------------------------------------------------------
 Atomic radii for non-electrostatic terms: SMD-CDS.
 ------------------------------------------------------------------------------
 Nuclear repulsion after PCM non-electrostatic terms =      787.7921744530 Hartrees.
 One-electron integrals computed using PRISM.
 NBasis=   265 RedAO= T  NBF=   265
 NBsUse=   265 1.00D-06 NBFU=   265
 Harris functional with IExCor=  908 diagonalized for initial guess.
 ExpMin= 1.61D-01 ExpMax= 5.48D+03 ExpMxC= 8.25D+02 IAcc=1 IRadAn=         1 AccDes= 0.00D+00
 HarFok:  IExCor=  908 AccDes= 0.00D+00 IRadAn=         1 IDoV= 1
 ScaDFX=  1.000000  1.000000  1.000000  1.000000
 FoFCou: FMM=F IPFlag=           0 FMFlag=      100000 FMFlg1=           0
         NFxFlg=           0 DoJE=T BraDBF=F KetDBF=T FulRan=T
         Omega=  0.000000  0.000000  1.000000  0.000000  0.000000 ICntrl=     500 IOpCl=  0
         NMat0=    1 NMatS0=    1 NMatT0=    0 NMatD0=    1 NMtDS0=    0 NMtDT0=    0
         I1Cent=           4 NGrid=           0.
 Petite list used in FoFCou.
 Initial guess orbital symmetries:
       Occupied  (A) (A) (A) (A) (A) (A) (A) (A) (A) (A) (A) (A)
                 (A) (A) (A) (A) (A) (A) (A) (A) (A) (A) (A) (A)
                 (A) (A) (A) (A) (A) (A) (A) (A) (A) (A) (A) (A)
                 (A) (A) (A) (A) (A) (A) (A) (A) (A) (A) (A) (A)
       Virtual   (A) (A) (A) (A) (A) (A) (A) (A) (A) (A) (A) (A)
                 (A) (A) (A) (A) (A) (A) (A) (A) (A) (A) (A) (A)
                 (A) (A) (A) (A) (A) (A) (A) (A) (A) (A) (A) (A)
                 (A) (A) (A) (A) (A) (A) (A) (A) (A) (A) (A) (A)
                 (A) (A) (A) (A) (A) (A) (A) (A) (A) (A) (A) (A)
                 (A) (A) (A) (A) (A) (A) (A) (A) (A) (A) (A) (A)
                 (A) (A) (A) (A) (A) (A) (A) (A) (A) (A) (A) (A)
                 (A) (A) (A) (A) (A) (A) (A) (A) (A) (A) (A) (A)
                 (A) (A) (A) (A) (A) (A) (A) (A) (A) (A) (A) (A)
                 (A) (A) (A) (A) (A) (A) (A) (A) (A) (A) (A) (A)
                 (A) (A) (A) (A) (A) (A) (A) (A) (A) (A) (A) (A)
                 (A) (A) (A) (A) (A) (A) (A) (A) (A) (A) (A) (A)
                 (A) (A) (A) (A) (A) (A) (A) (A) (A) (A) (A) (A)
                 (A) (A) (A) (A) (A) (A) (A) (A) (A) (A) (A) (A)
                 (A) (A) (A) (A) (A) (A) (A) (A) (A) (A) (A) (A)
                 (A) (A) (A) (A) (A) (A) (A) (A) (A) (A) (A) (A)
                 (A) (A) (A) (A) (A) (A) (A) (A) (A) (A) (A) (A)
                 (A) (A) (A) (A) (A) (A) (A) (A) (A) (A) (A) (A)
                 (A)
 The electronic state of the initial guess is 1-A.
 Requested convergence on RMS density matrix=1.00D-08 within 128 cycles.
 Requested convergence on MAX density matrix=1.00D-06.
 Requested convergence on             energy=1.00D-06.
 No special actions if energy rises.
 Error on total polarization charges =  0.02886
 SCF Done:  E(RmPW1PW91) =  -577.945313805     A.U. after   12 cycles
             Convg  =    0.7633D-08             -V/T =  2.0094
 SMD-CDS (non-electrostatic) energy       (kcal/mol) =      -4.23
 (included in total energy above)
 Range of M.O.s used for correlation:     1   265
 NBasis=   265 NAE=    48 NBE=    48 NFC=     0 NFV=     0
 NROrb=    265 NOA=    48 NOB=    48 NVA=   217 NVB=   217
 NEqPCM:  Using equilibrium solvation (IEInf=0, Eps=   4.7113, EpsInf=   2.0906)
          Differentiating once with respect to magnetic field using GIAOs.
          Electric field/nuclear overlap derivatives assumed to be zero.
 FoFCou: FMM=F IPFlag=           0 FMFlag=    10101102 FMFlg1=           0
         NFxFlg=    40000000 DoJE=F BraDBF=F KetDBF=T FulRan=T
         Omega=  0.000000  0.000000  1.000000  0.000000  0.000000 ICntrl=    6100 IOpCl=  0
         NMat0=    1 NMatS0=    1 NMatT0=    0 NMatD0=    1 NMtDS0=    0 NMtDT0=    0
         I1Cent=           7 NGrid=        2008.
 Symmetry not used in FoFCou.
          There are     3 degrees of freedom in the 1st order CPHF.  IDoFFX=0.
      3 vectors produced by pass  0 Test12= 3.47D-13 3.33D-08 XBig12= 2.52D+01 1.08D+00.
 AX will form     3 AO Fock derivatives at one time.
      3 vectors produced by pass  1 Test12= 3.47D-13 3.33D-08 XBig12= 1.22D-01 1.86D-01.
      3 vectors produced by pass  2 Test12= 3.47D-13 3.33D-08 XBig12= 9.34D-04 9.71D-03.
      3 vectors produced by pass  3 Test12= 3.47D-13 3.33D-08 XBig12= 3.28D-06 3.84D-04.
      3 vectors produced by pass  4 Test12= 3.47D-13 3.33D-08 XBig12= 1.37D-08 2.38D-05.
      3 vectors produced by pass  5 Test12= 3.47D-13 3.33D-08 XBig12= 3.67D-11 2.35D-06.
      3 vectors produced by pass  6 Test12= 3.47D-13 3.33D-08 XBig12= 1.48D-13 9.45D-08.
 Inverted reduced A of dimension    21 with in-core refinement.
 Calculating GIAO nuclear magnetic shielding tensors.
 SCF GIAO Magnetic shielding tensor (ppm):
      1  C    Isotropic =   125.4627   Anisotropy =    51.1862
   XX=   121.9871   YX=    20.1763   ZX=    -2.9983
   XY=    21.8361   YY=   139.2157   ZY=   -15.6910
   XZ=    -4.9209   YZ=   -18.8627   ZZ=   115.1852
   Eigenvalues:   102.4413   114.3599   159.5868
      2  H    Isotropic =    27.3905   Anisotropy =     5.1525
   XX=    28.8746   YX=    -1.4661   ZX=    -3.6307
   XY=     0.4165   YY=    27.7827   ZY=    -0.4106
   XZ=    -2.5556   YZ=     0.9198   ZZ=    25.5142
   Eigenvalues:    23.6738    27.6723    30.8255
      3  C    Isotropic =   151.3215   Anisotropy =    17.6211
   XX=   154.0039   YX=   -10.5079   ZX=    -3.4422
   XY=   -10.0795   YY=   147.3008   ZY=    -7.7945
   XZ=    -9.2768   YZ=   -16.4997   ZZ=   152.6598
   Eigenvalues:   131.1989   159.6966   163.0689
      4  H    Isotropic =    27.5742   Anisotropy =     7.1247
   XX=    29.2373   YX=     3.3712   ZX=     0.7668
   XY=     4.9130   YY=    26.0272   ZY=    -0.2349
   XZ=     0.5451   YZ=     2.2109   ZZ=    27.4581
   Eigenvalues:    23.1428    27.2558    32.3240
      5  C    Isotropic =    -6.6380   Anisotropy =   169.8961
   XX=   -75.0355   YX=   -30.0122   ZX=    25.8120
   XY=   -23.1036   YY=     1.3619   ZY=   -62.7345
   XZ=    26.4395   YZ=   -70.7473   ZZ=    53.7597
   Eigenvalues:   -83.6590   -42.8810   106.6261
      6  O    Isotropic =  -245.6767   Anisotropy =   965.1568
   XX=  -325.1742   YX=  -186.2132   ZX=    70.9062
   XY=  -161.1293   YY=  -474.0768   ZY=  -518.2693
   XZ=    77.6364   YZ=  -489.5088   ZZ=    62.2209
   Eigenvalues:  -803.4393  -331.3520   397.7612
      7  O    Isotropic =   272.5766   Anisotropy =    72.6008
   XX=   248.5469   YX=    -8.8111   ZX=    38.5851
   XY=     4.8196   YY=   294.7500   ZY=   -18.9122
   XZ=    32.6396   YZ=   -34.2575   ZZ=   274.4328
   Eigenvalues:   220.8393   275.9134   320.9771
      8  H    Isotropic =    30.5867   Anisotropy =    18.4873
   XX=    27.9443   YX=    -2.1704   ZX=     4.5356
   XY=    -3.5350   YY=    35.4835   ZY=    -7.6143
   XZ=     6.9480   YZ=    -8.6584   ZZ=    28.3324
   Eigenvalues:    21.0479    27.8007    42.9116
      9  C    Isotropic =   178.9960   Anisotropy =    23.2449
   XX=   178.6511   YX=     5.9913   ZX=   -12.3510
   XY=     3.9756   YY=   181.6361   ZY=    -7.5995
   XZ=    -9.5014   YZ=    -7.0459   ZZ=   176.7008
   Eigenvalues:   166.3580   176.1373   194.4926
     10  H    Isotropic =    30.6672   Anisotropy =    10.0652
   XX=    28.4154   YX=    -0.5204   ZX=     1.1659
   XY=    -0.7154   YY=    31.7411   ZY=    -5.7315
   XZ=     0.0630   YZ=    -5.2670   ZZ=    31.8451
   Eigenvalues:    26.2936    28.3307    37.3773
     11  H    Isotropic =    30.0579   Anisotropy =     7.8275
   XX=    29.2448   YX=     4.1568   ZX=     1.7902
   XY=     3.8715   YY=    31.3689   ZY=     2.1886
   XZ=     0.6148   YZ=     1.4138   ZZ=    29.5600
   Eigenvalues:    26.1471    28.7504    35.2762
     12  H    Isotropic =    30.8097   Anisotropy =    10.1681
   XX=    32.2634   YX=    -1.3481   ZX=    -5.4998
   XY=    -0.2843   YY=    28.6023   ZY=     0.5071
   XZ=    -5.5879   YZ=     0.7896   ZZ=    31.5635
   Eigenvalues:    26.3551    28.4857    37.5885
     13  C    Isotropic =    62.8025   Anisotropy =   160.5922
   XX=    -4.8183   YX=   -25.5965   ZX=    16.9769
   XY=   -21.1142   YY=    46.3756   ZY=   -54.6504
   XZ=    13.9305   YZ=   -43.3056   ZZ=   146.8502
   Eigenvalues:   -13.9604    32.5039   169.8640
     14  C    Isotropic =    66.3380   Anisotropy =   181.5858
   XX=   -23.9201   YX=   -31.2198   ZX=    19.6176
   XY=   -34.3551   YY=    62.2689   ZY=   -51.8992
   XZ=    22.0472   YZ=   -50.4870   ZZ=   160.6651
   Eigenvalues:   -35.0433    46.6620   187.3952
     15  C    Isotropic =    69.2175   Anisotropy =   184.1255
   XX=    45.3461   YX=   -22.7128   ZX=    13.2250
   XY=    -6.7797   YY=     9.4397   ZY=   -82.2861
   XZ=    13.6347   YZ=   -80.6190   ZZ=   152.8667
   Eigenvalues:   -28.2380    43.9227   191.9679
     16  C    Isotropic =    66.9982   Anisotropy =   181.2399
   XX=    14.7114   YX=    23.1627   ZX=    40.3565
   XY=     7.6062   YY=    37.3888   ZY=   -67.4651
   XZ=    27.3221   YZ=   -77.3624   ZZ=   148.8944
   Eigenvalues:   -22.3121    35.4819   187.8249
     17  C    Isotropic =    70.4047   Anisotropy =   172.2962
   XX=    52.4949   YX=   -27.3772   ZX=     9.0803
   XY=   -26.6649   YY=     9.2190   ZY=   -75.2635
   XZ=    10.2374   YZ=   -75.4730   ZZ=   149.5001
   Eigenvalues:   -29.0839    55.0291   185.2688
     18  C    Isotropic =    70.5486   Anisotropy =   172.4911
   XX=    17.8718   YX=    27.2449   ZX=    39.4467
   XY=    26.4053   YY=    45.9393   ZY=   -68.3442
   XZ=    38.9393   YZ=   -68.4975   ZZ=   147.8348
   Eigenvalues:   -28.1331    54.2362   185.5427
     19  H    Isotropic =    23.0428   Anisotropy =     7.4187
   XX=    27.7180   YX=    -0.3045   ZX=    -1.5946
   XY=    -0.4942   YY=    22.2643   ZY=     2.1106
   XZ=    -0.9538   YZ=     1.7724   ZZ=    19.1463
   Eigenvalues:    18.1144    23.0255    27.9886
     20  H    Isotropic =    22.9153   Anisotropy =     9.6104
   XX=    27.9222   YX=     3.3082   ZX=     1.8354
   XY=     2.1992   YY=    21.6578   ZY=     1.4313
   XZ=     1.2562   YZ=     1.2056   ZZ=    19.1659
   Eigenvalues:    18.5814    20.8422    29.3222
     21  H    Isotropic =    23.7713   Anisotropy =     5.4845
   XX=    27.2832   YX=     0.0721   ZX=    -0.8769
   XY=     0.0431   YY=    23.1508   ZY=     1.5013
   XZ=    -1.0309   YZ=     1.3118   ZZ=    20.8799
   Eigenvalues:    20.0980    23.7882    27.4277
     22  H    Isotropic =    23.7452   Anisotropy =     4.8159
   XX=    25.8909   YX=     1.4333   ZX=    -0.2142
   XY=     1.5741   YY=    24.4508   ZY=     1.7932
   XZ=    -0.2393   YZ=     1.8769   ZZ=    20.8940
   Eigenvalues:    20.0034    24.2765    26.9558
     23  H    Isotropic =    23.7258   Anisotropy =     4.5128
   XX=    24.3063   YX=    -0.4747   ZX=    -0.7539
   XY=    -0.7499   YY=    25.2674   ZY=     2.3577
   XZ=    -0.6348   YZ=     2.3807   ZZ=    21.6037
   Eigenvalues:    20.4077    24.0354    26.7344
     24  C    Isotropic =   175.5738   Anisotropy =    26.5669
   XX=   168.5662   YX=     6.5102   ZX=     6.5534
   XY=     5.6854   YY=   173.9930   ZY=     5.4180
   XZ=     8.2551   YZ=    13.0941   ZZ=   184.1623
   Eigenvalues:   164.4602   168.9762   193.2851
     25  H    Isotropic =    30.7884   Anisotropy =     9.9150
   XX=    31.2226   YX=    -2.8360   ZX=     4.0942
   XY=    -3.0069   YY=    29.9487   ZY=    -1.5849
   XZ=     4.8850   YZ=    -2.6159   ZZ=    31.1940
   Eigenvalues:    26.5546    28.4123    37.3985
     26  H    Isotropic =    30.1949   Anisotropy =     8.8056
   XX=    30.2675   YX=     4.6574   ZX=     2.2071
   XY=     3.9170   YY=    31.9161   ZY=    -0.3129
   XZ=     3.7087   YZ=     0.8483   ZZ=    28.4012
   Eigenvalues:    25.1509    29.3685    36.0653
     27  H    Isotropic =    30.9064   Anisotropy =     5.8861
   XX=    30.8718   YX=    -1.8363   ZX=    -1.4600
   XY=    -2.8962   YY=    28.1198   ZY=     1.4806
   XZ=    -0.7755   YZ=     1.2667   ZZ=    33.7278
   Eigenvalues:    26.6971    31.1917    34.8305
 End of Minotr Frequency-dependent properties file   721 does not exist.
 End of Minotr Frequency-dependent properties file   722 does not exist.

 **********************************************************************

            Population analysis using the SCF density.

 **********************************************************************

 Orbital symmetries:
       Occupied  (A) (A) (A) (A) (A) (A) (A) (A) (A) (A) (A) (A)
                 (A) (A) (A) (A) (A) (A) (A) (A) (A) (A) (A) (A)
                 (A) (A) (A) (A) (A) (A) (A) (A) (A) (A) (A) (A)
                 (A) (A) (A) (A) (A) (A) (A) (A) (A) (A) (A) (A)
       Virtual   (A) (A) (A) (A) (A) (A) (A) (A) (A) (A) (A) (A)
                 (A) (A) (A) (A) (A) (A) (A) (A) (A) (A) (A) (A)
                 (A) (A) (A) (A) (A) (A) (A) (A) (A) (A) (A) (A)
                 (A) (A) (A) (A) (A) (A) (A) (A) (A) (A) (A) (A)
                 (A) (A) (A) (A) (A) (A) (A) (A) (A) (A) (A) (A)
                 (A) (A) (A) (A) (A) (A) (A) (A) (A) (A) (A) (A)
                 (A) (A) (A) (A) (A) (A) (A) (A) (A) (A) (A) (A)
                 (A) (A) (A) (A) (A) (A) (A) (A) (A) (A) (A) (A)
                 (A) (A) (A) (A) (A) (A) (A) (A) (A) (A) (A) (A)
                 (A) (A) (A) (A) (A) (A) (A) (A) (A) (A) (A) (A)
                 (A) (A) (A) (A) (A) (A) (A) (A) (A) (A) (A) (A)
                 (A) (A) (A) (A) (A) (A) (A) (A) (A) (A) (A) (A)
                 (A) (A) (A) (A) (A) (A) (A) (A) (A) (A) (A) (A)
                 (A) (A) (A) (A) (A) (A) (A) (A) (A) (A) (A) (A)
                 (A) (A) (A) (A) (A) (A) (A) (A) (A) (A) (A) (A)
                 (A) (A) (A) (A) (A) (A) (A) (A) (A) (A) (A) (A)
                 (A) (A) (A) (A) (A) (A) (A) (A) (A) (A) (A) (A)
                 (A) (A) (A) (A) (A) (A) (A) (A) (A) (A) (A) (A)
                 (A)
 The electronic state is 1-A.
 Alpha  occ. eigenvalues --  -19.22873 -19.22566 -10.33409 -10.29700 -10.25973
 Alpha  occ. eigenvalues --  -10.25626 -10.25608 -10.25475 -10.25413 -10.25237
 Alpha  occ. eigenvalues --  -10.25210 -10.23168 -10.22715  -1.05903  -1.03909
 Alpha  occ. eigenvalues --   -0.88262  -0.82222  -0.78099  -0.76809  -0.74134
 Alpha  occ. eigenvalues --   -0.67886  -0.64661  -0.62430  -0.60225  -0.55102
 Alpha  occ. eigenvalues --   -0.52051  -0.51432  -0.48932  -0.47406  -0.46536
 Alpha  occ. eigenvalues --   -0.45118  -0.44187  -0.43123  -0.42924  -0.40355
 Alpha  occ. eigenvalues --   -0.39421  -0.38447  -0.38033  -0.36583  -0.36281
 Alpha  occ. eigenvalues --   -0.35801  -0.35567  -0.34896  -0.32424  -0.27881
 Alpha  occ. eigenvalues --   -0.26639  -0.26350  -0.25523
 Alpha virt. eigenvalues --   -0.04995   0.00060   0.04861   0.09828   0.11759
 Alpha virt. eigenvalues --    0.12393   0.14775   0.15991   0.16835   0.17418
 Alpha virt. eigenvalues --    0.17658   0.18406   0.18777   0.19768   0.20487
 Alpha virt. eigenvalues --    0.21371   0.22759   0.23706   0.24380   0.25144
 Alpha virt. eigenvalues --    0.25736   0.27328   0.28653   0.30732   0.31700
 Alpha virt. eigenvalues --    0.32701   0.34310   0.38139   0.40386   0.49708
 Alpha virt. eigenvalues --    0.53012   0.54316   0.54649   0.55128   0.55683
 Alpha virt. eigenvalues --    0.56326   0.57150   0.58455   0.60405   0.60881
 Alpha virt. eigenvalues --    0.61119   0.61564   0.62513   0.62746   0.63534
 Alpha virt. eigenvalues --    0.63841   0.65759   0.68015   0.68281   0.70024
 Alpha virt. eigenvalues --    0.71453   0.72654   0.75757   0.78361   0.79454
 Alpha virt. eigenvalues --    0.80348   0.82462   0.84130   0.84579   0.84715
 Alpha virt. eigenvalues --    0.85241   0.86322   0.87758   0.88107   0.89517
 Alpha virt. eigenvalues --    0.91141   0.91426   0.92342   0.93355   0.94282
 Alpha virt. eigenvalues --    0.95829   0.96092   0.97775   0.99430   0.99855
 Alpha virt. eigenvalues --    1.01553   1.02961   1.05224   1.07039   1.07583
 Alpha virt. eigenvalues --    1.09743   1.11375   1.14329   1.17895   1.20845
 Alpha virt. eigenvalues --    1.21803   1.24558   1.25998   1.27217   1.31684
 Alpha virt. eigenvalues --    1.33944   1.35602   1.38093   1.41221   1.41433
 Alpha virt. eigenvalues --    1.42531   1.42905   1.43653   1.47673   1.48350
 Alpha virt. eigenvalues --    1.49453   1.52782   1.53807   1.55989   1.66375
 Alpha virt. eigenvalues --    1.68182   1.69354   1.73609   1.76391   1.77458
 Alpha virt. eigenvalues --    1.78093   1.79224   1.82578   1.84430   1.86404
 Alpha virt. eigenvalues --    1.87556   1.89379   1.91220   1.91950   1.94067
 Alpha virt. eigenvalues --    1.94963   1.97796   1.98211   1.99460   2.00484
 Alpha virt. eigenvalues --    2.01621   2.02511   2.03372   2.04885   2.05569
 Alpha virt. eigenvalues --    2.07048   2.08959   2.09391   2.11007   2.11801
 Alpha virt. eigenvalues --    2.13335   2.15059   2.16415   2.18232   2.22081
 Alpha virt. eigenvalues --    2.23417   2.26202   2.28851   2.30338   2.32557
 Alpha virt. eigenvalues --    2.33680   2.36497   2.38281   2.38652   2.39710
 Alpha virt. eigenvalues --    2.40684   2.42963   2.43563   2.46586   2.46774
 Alpha virt. eigenvalues --    2.47758   2.50900   2.51888   2.52659   2.53231
 Alpha virt. eigenvalues --    2.57574   2.58128   2.59903   2.60995   2.62343
 Alpha virt. eigenvalues --    2.65546   2.66304   2.67594   2.69068   2.71949
 Alpha virt. eigenvalues --    2.73241   2.75282   2.76162   2.76915   2.79313
 Alpha virt. eigenvalues --    2.81707   2.83445   2.85881   2.88232   2.89142
 Alpha virt. eigenvalues --    2.92107   2.94623   2.97956   2.98678   3.05931
 Alpha virt. eigenvalues --    3.06296   3.07529   3.11595   3.21845   3.23785
 Alpha virt. eigenvalues --    3.24946   3.26453   3.28277   3.35579   3.39526
 Alpha virt. eigenvalues --    3.42344   3.46321   3.49107   3.49233   3.51151
 Alpha virt. eigenvalues --    3.53547   3.54331   3.55888   3.91792   4.02960
 Alpha virt. eigenvalues --    4.10557   4.16467   4.18893   4.22747   4.35680
 Alpha virt. eigenvalues --    4.44492   4.46854   4.54766   4.60202   4.68916
 Alpha virt. eigenvalues --    4.79924   4.87543
          Condensed to atoms (all electrons):
              1          2          3          4          5          6
     1  C    4.753402   0.408199   0.344909  -0.034413  -0.026996  -0.006474
     2  H    0.408199   0.626586  -0.059041  -0.005971   0.005423  -0.000135
     3  C    0.344909  -0.059041   5.298074   0.386847   0.285649  -0.089345
     4  H   -0.034413  -0.005971   0.386847   0.562568  -0.039187   0.003117
     5  C   -0.026996   0.005423   0.285649  -0.039187   4.615215   0.511568
     6  O   -0.006474  -0.000135  -0.089345   0.003117   0.511568   8.150649
     7  O    0.222649  -0.042999  -0.055634  -0.000923   0.003608   0.000017
     8  H   -0.025379  -0.003691   0.007035   0.000051  -0.000040  -0.000004
     9  C   -0.038801  -0.003385   0.329658  -0.039901  -0.037745   0.001330
    10  H    0.004128   0.000052  -0.030848  -0.003775  -0.003040   0.000306
    11  H   -0.006016  -0.000647  -0.030115   0.004903  -0.008338   0.007190
    12  H   -0.004812   0.004546  -0.032117  -0.003705   0.005061   0.000396
    13  C   -0.002256  -0.000200  -0.094980  -0.000487   0.334868  -0.085568
    14  C   -0.000001   0.000000  -0.000023   0.000006   0.000168  -0.000014
    15  C    0.000020   0.000005   0.009036  -0.000335  -0.040145  -0.000960
    16  C   -0.000415   0.000059  -0.005141  -0.000043  -0.036404   0.003873
    17  C    0.000004   0.000000  -0.000018   0.000152   0.004499  -0.000074
    18  C    0.000002   0.000000  -0.000073  -0.000022   0.005715   0.001014
    19  H    0.000000   0.000000   0.000628  -0.000025  -0.009079   0.015392
    20  H   -0.001120   0.000095   0.002230   0.003130  -0.008442   0.000034
    21  H    0.000000   0.000000   0.000012  -0.000006  -0.000121   0.000000
    22  H    0.000000   0.000000   0.000001   0.000000  -0.000132   0.000004
    23  H    0.000000   0.000000   0.000000   0.000000   0.000006   0.000000
    24  C    0.346288  -0.059294  -0.047809   0.005870  -0.012440   0.004459
    25  H   -0.028710  -0.007182   0.005196  -0.000098   0.000234   0.000153
    26  H   -0.024011   0.001474  -0.003085  -0.000061  -0.000517   0.000298
    27  H   -0.026935   0.005894  -0.010403  -0.000126   0.006769   0.000929
              7          8          9         10         11         12
     1  C    0.222649  -0.025379  -0.038801   0.004128  -0.006016  -0.004812
     2  H   -0.042999  -0.003691  -0.003385   0.000052  -0.000647   0.004546
     3  C   -0.055634   0.007035   0.329658  -0.030848  -0.030115  -0.032117
     4  H   -0.000923   0.000051  -0.039901  -0.003775   0.004903  -0.003705
     5  C    0.003608  -0.000040  -0.037745  -0.003040  -0.008338   0.005061
     6  O    0.000017  -0.000004   0.001330   0.000306   0.007190   0.000396
     7  O    8.217149   0.291478   0.002377  -0.000051   0.000002  -0.000006
     8  H    0.291478   0.386291  -0.000218   0.000003   0.000002  -0.000004
     9  C    0.002377  -0.000218   5.031740   0.388455   0.386119   0.383381
    10  H   -0.000051   0.000003   0.388455   0.551005  -0.026856  -0.027431
    11  H    0.000002   0.000002   0.386119  -0.026856   0.544568  -0.028617
    12  H   -0.000006  -0.000004   0.383381  -0.027431  -0.028617   0.562246
    13  C   -0.000121  -0.000037   0.005332   0.000103   0.000256  -0.000088
    14  C    0.000002   0.000000   0.000000   0.000000   0.000000   0.000000
    15  C    0.000013  -0.000002  -0.000223  -0.000004  -0.000007   0.000001
    16  C   -0.003505   0.000218   0.000021   0.000008  -0.000012   0.000000
    17  C   -0.000056   0.000003  -0.000002   0.000000   0.000000   0.000000
    18  C   -0.000001   0.000000   0.000001   0.000000   0.000000   0.000000
    19  H    0.000000   0.000000  -0.000021  -0.000004  -0.000003   0.000000
    20  H    0.011738  -0.000316   0.000000  -0.000013  -0.000001   0.000004
    21  H   -0.000007   0.000000   0.000000   0.000000   0.000000   0.000000
    22  H    0.000000   0.000000   0.000000   0.000000   0.000000   0.000000
    23  H    0.000000   0.000000   0.000000   0.000000   0.000000   0.000000
    24  C   -0.054478  -0.004249  -0.003737  -0.000052   0.002603  -0.000203
    25  H   -0.002226   0.004318  -0.000007   0.000001  -0.000061  -0.000024
    26  H    0.003891  -0.000036   0.000775  -0.000035   0.002235   0.000143
    27  H    0.001492  -0.000692   0.000337  -0.000007  -0.000002   0.000004
             13         14         15         16         17         18
     1  C   -0.002256  -0.000001   0.000020  -0.000415   0.000004   0.000002
     2  H   -0.000200   0.000000   0.000005   0.000059   0.000000   0.000000
     3  C   -0.094980  -0.000023   0.009036  -0.005141  -0.000018  -0.000073
     4  H   -0.000487   0.000006  -0.000335  -0.000043   0.000152  -0.000022
     5  C    0.334868   0.000168  -0.040145  -0.036404   0.004499   0.005715
     6  O   -0.085568  -0.000014  -0.000960   0.003873  -0.000074   0.001014
     7  O   -0.000121   0.000002   0.000013  -0.003505  -0.000056  -0.000001
     8  H   -0.000037   0.000000  -0.000002   0.000218   0.000003   0.000000
     9  C    0.005332   0.000000  -0.000223   0.000021  -0.000002   0.000001
    10  H    0.000103   0.000000  -0.000004   0.000008   0.000000   0.000000
    11  H    0.000256   0.000000  -0.000007  -0.000012   0.000000   0.000000
    12  H   -0.000088   0.000000   0.000001   0.000000   0.000000   0.000000
    13  C    5.015441  -0.031853   0.491780   0.517060  -0.027554  -0.034296
    14  C   -0.031853   4.865303  -0.045068  -0.047508   0.542323   0.533429
    15  C    0.491780  -0.045068   4.970110  -0.068146  -0.038964   0.506980
    16  C    0.517060  -0.047508  -0.068146   4.956607   0.517664  -0.038311
    17  C   -0.027554   0.542323  -0.038964   0.517664   4.896363  -0.041117
    18  C   -0.034296   0.533429   0.506980  -0.038311  -0.041117   4.910343
    19  H   -0.043630   0.004174   0.378620   0.004936   0.000141  -0.036405
    20  H   -0.034663   0.004212   0.004927   0.371714  -0.037231   0.000104
    21  H    0.002934  -0.037503   0.000637  -0.033155   0.381287   0.003955
    22  H    0.003107  -0.037749  -0.034245   0.000594   0.003951   0.382236
    23  H    0.000450   0.381647   0.003978   0.004168  -0.036760  -0.037066
    24  C    0.001113   0.000000  -0.000063  -0.000164   0.000001  -0.000001
    25  H    0.000013   0.000000  -0.000001  -0.000003   0.000000   0.000000
    26  H   -0.000044   0.000000   0.000002   0.000002   0.000000   0.000000
    27  H   -0.000263   0.000000   0.000081   0.000068   0.000000   0.000001
             19         20         21         22         23         24
     1  C    0.000000  -0.001120   0.000000   0.000000   0.000000   0.346288
     2  H    0.000000   0.000095   0.000000   0.000000   0.000000  -0.059294
     3  C    0.000628   0.002230   0.000012   0.000001   0.000000  -0.047809
     4  H   -0.000025   0.003130  -0.000006   0.000000   0.000000   0.005870
     5  C   -0.009079  -0.008442  -0.000121  -0.000132   0.000006  -0.012440
     6  O    0.015392   0.000034   0.000000   0.000004   0.000000   0.004459
     7  O    0.000000   0.011738  -0.000007   0.000000   0.000000  -0.054478
     8  H    0.000000  -0.000316   0.000000   0.000000   0.000000  -0.004249
     9  C   -0.000021   0.000000   0.000000   0.000000   0.000000  -0.003737
    10  H   -0.000004  -0.000013   0.000000   0.000000   0.000000  -0.000052
    11  H   -0.000003  -0.000001   0.000000   0.000000   0.000000   0.002603
    12  H    0.000000   0.000004   0.000000   0.000000   0.000000  -0.000203
    13  C   -0.043630  -0.034663   0.002934   0.003107   0.000450   0.001113
    14  C    0.004174   0.004212  -0.037503  -0.037749   0.381647   0.000000
    15  C    0.378620   0.004927   0.000637  -0.034245   0.003978  -0.000063
    16  C    0.004936   0.371714  -0.033155   0.000594   0.004168  -0.000164
    17  C    0.000141  -0.037231   0.381287   0.003951  -0.036760   0.000001
    18  C   -0.036405   0.000104   0.003955   0.382236  -0.037066  -0.000001
    19  H    0.528421  -0.000102   0.000014  -0.004282  -0.000139  -0.000008
    20  H   -0.000102   0.523534  -0.004518   0.000012  -0.000138   0.000170
    21  H    0.000014  -0.004518   0.533832  -0.000147  -0.004487   0.000000
    22  H   -0.004282   0.000012  -0.000147   0.533355  -0.004456   0.000000
    23  H   -0.000139  -0.000138  -0.004487  -0.004456   0.534169   0.000000
    24  C   -0.000008   0.000170   0.000000   0.000000   0.000000   5.130648
    25  H    0.000000  -0.000001   0.000000   0.000000   0.000000   0.380566
    26  H    0.000000  -0.000009   0.000000   0.000000   0.000000   0.361181
    27  H    0.000020   0.000015   0.000000   0.000000   0.000000   0.376722
             25         26         27
     1  C   -0.028710  -0.024011  -0.026935
     2  H   -0.007182   0.001474   0.005894
     3  C    0.005196  -0.003085  -0.010403
     4  H   -0.000098  -0.000061  -0.000126
     5  C    0.000234  -0.000517   0.006769
     6  O    0.000153   0.000298   0.000929
     7  O   -0.002226   0.003891   0.001492
     8  H    0.004318  -0.000036  -0.000692
     9  C   -0.000007   0.000775   0.000337
    10  H    0.000001  -0.000035  -0.000007
    11  H   -0.000061   0.002235  -0.000002
    12  H   -0.000024   0.000143   0.000004
    13  C    0.000013  -0.000044  -0.000263
    14  C    0.000000   0.000000   0.000000
    15  C   -0.000001   0.000002   0.000081
    16  C   -0.000003   0.000002   0.000068
    17  C    0.000000   0.000000   0.000000
    18  C    0.000000   0.000000   0.000001
    19  H    0.000000   0.000000   0.000020
    20  H   -0.000001  -0.000009   0.000015
    21  H    0.000000   0.000000   0.000000
    22  H    0.000000   0.000000   0.000000
    23  H    0.000000   0.000000   0.000000
    24  C    0.380566   0.361181   0.376722
    25  H    0.568472  -0.025823  -0.033794
    26  H   -0.025823   0.558185  -0.022305
    27  H   -0.033794  -0.022305   0.552027
 Mulliken atomic charges:
              1
     1  C    0.146737
     2  H    0.130211
     3  C   -0.210641
     4  H    0.162434
     5  C    0.443842
     6  O   -0.518157
     7  O   -0.594408
     8  H    0.345269
     9  C   -0.405486
    10  H    0.148054
    11  H    0.152797
    12  H    0.141226
    13  C   -0.016418
    14  C   -0.131545
    15  C   -0.138026
    16  C   -0.144187
    17  C   -0.164613
    18  C   -0.156486
    19  H    0.161353
    20  H    0.164635
    21  H    0.157274
    22  H    0.157750
    23  H    0.158627
    24  C   -0.427126
    25  H    0.138977
    26  H    0.147741
    27  H    0.150167
 Sum of Mulliken atomic charges =   0.00000
 Mulliken charges with hydrogens summed into heavy atoms:
              1
     1  C    0.276948
     3  C   -0.048207
     5  C    0.443842
     6  O   -0.518157
     7  O   -0.249139
     9  C    0.036591
    13  C   -0.016418
    14  C    0.027082
    15  C    0.023327
    16  C    0.020448
    17  C   -0.007339
    18  C    0.001264
    24  C    0.009760
 Sum of Mulliken charges with hydrogens summed into heavy atoms =   0.00000
 Electronic spatial extent (au):  <R**2>=           2660.8468
 Charge=              0.0000 electrons
 Dipole moment (field-independent basis, Debye):
    X=             -0.5473    Y=              2.8521    Z=              0.7205  Tot=              2.9922
 Quadrupole moment (field-independent basis, Debye-Ang):
   XX=            -60.2517   YY=            -76.6132   ZZ=            -75.6151
   XY=             -4.9809   XZ=             -0.0710   YZ=             -2.1263
 Traceless Quadrupole moment (field-independent basis, Debye-Ang):
   XX=             10.5750   YY=             -5.7865   ZZ=             -4.7884
   XY=             -4.9809   XZ=             -0.0710   YZ=             -2.1263
 Octapole moment (field-independent basis, Debye-Ang**2):
  XXX=              8.2662  YYY=             26.5475  ZZZ=             -3.4794  XYY=             -1.3274
  XXY=             17.5862  XXZ=            -11.5331  XZZ=            -14.1630  YZZ=              5.8415
  YYZ=             -3.9109  XYZ=             16.9813
 Hexadecapole moment (field-independent basis, Debye-Ang**3):
 XXXX=          -2181.0835 YYYY=           -649.4420 ZZZZ=           -386.9266 XXXY=            -28.0917
 XXXZ=            -11.1825 YYYX=            -48.7848 YYYZ=            -21.3921 ZZZX=              3.2799
 ZZZY=             -6.7284 XXYY=           -461.5094 XXZZ=           -477.1804 YYZZ=           -163.0969
 XXYZ=              7.7727 YYXZ=             20.3256 ZZXY=            -17.3240
 N-N= 7.877921744530D+02 E-N=-2.920612305696D+03  KE= 5.725792957411D+02
 1\1\GINC-COMPUTE-8-2\SP\RmPW1PW91\6-31G(d,p)\C11H14O2\FBRUNO.IQUIR\21-
 Dec-2021\0\\# mPW1PW91/6-31g** scrf=(pcm,solvent=chloroform,smd,dovacu
 um) nmr\\comment\\0,1\C,0,-0.838160102,0.560615416,1.967933967\H,0,-0.
 804297335,0.411021424,3.053985269\C,0,-0.327684537,-0.720756527,1.2848
 97612\H,0,0.744600575,-0.835029251,1.476706095\C,0,-0.557873137,-0.694
 029144,-0.226946538\O,0,-1.629034991,-1.06938853,-0.709913887\O,0,0.06
 4866477,1.632590645,1.690164111\H,0,-0.296172614,2.436820698,2.1039635
 17\C,0,-0.997103009,-1.968931856,1.872611881\H,0,-0.613434675,-2.87435
 6468,1.389018599\H,0,-2.08300015,-1.961017245,1.73390453\H,0,-0.793015
 304,-2.049355447,2.945469742\C,0,0.519850411,-0.226606094,-1.157507368
 \C,0,2.468018045,0.585658792,-3.011715546\C,0,0.320884727,-0.410316172
 ,-2.53522739\C,0,1.70613793,0.374346691,-0.722577228\C,0,2.675110148,0
 .778198895,-1.647333345\C,0,1.289943335,-0.007646495,-3.457040675\H,0,
 -0.59494055,-0.872427542,-2.900097154\H,0,1.90145443,0.560495248,0.328
 657599\H,0,3.590957752,1.249875177,-1.299105441\H,0,1.121471649,-0.157
 034853,-4.520503523\H,0,3.22250954,0.902339079,-3.727385993\C,0,-2.251
 547981,0.99045094,1.586857436\H,0,-2.551659178,1.860771745,2.181556433
 \H,0,-2.98220445,0.195945773,1.759364778\H,0,-2.305677002,1.307765103,
 0.540262518\\Version=EM64L-G09RevC.01\State=1-A\HF=-577.9453138\RMSD=7
 .633e-09\Dipole=0.6411518,0.6237448,0.7653296\Quadrupole=-3.2840792,-2
 .6903566,5.9744357,-1.7260346,-5.5905129,1.2738788\PG=C01 [X(C11H14O2)
 ]\\@


 ABSOLUTISM, OBSOLETISM -- IF IT WORKS, IT'S OUT OF DATE

                          -- STAFFORD BEER
 Job cpu time:  0 days  0 hours 22 minutes 48.2 seconds.
 File lengths (MBytes):  RWF=     80 Int=      0 D2E=      0 Chk=      5 Scr=      1
 Normal termination of Gaussian 09 at Tue Dec 21 07:59:28 2021.
