 Entering Gaussian System, Link 0=g09
 Input=/home/fbruno.iquir/2_val_run/2a_007_MPW_A_SMD.gjc
 Output=/home/fbruno.iquir/2_val_run/2a_007_MPW_A_SMD.log
 Initial command:
 /share/apps/Gaussian09/EM64T.SSE4.2-enabled/g09/l1.exe /tmp/Gau-44783.inp -scrdir=/tmp/
 Entering Link 1 = /share/apps/Gaussian09/EM64T.SSE4.2-enabled/g09/l1.exe PID=     44784.
  
 Copyright (c) 1988,1990,1992,1993,1995,1998,2003,2009,2011,
            Gaussian, Inc.  All Rights Reserved.
  
 This is part of the Gaussian(R) 09 program.  It is based on
 the Gaussian(R) 03 system (copyright 2003, Gaussian, Inc.),
 the Gaussian(R) 98 system (copyright 1998, Gaussian, Inc.),
 the Gaussian(R) 94 system (copyright 1995, Gaussian, Inc.),
 the Gaussian 92(TM) system (copyright 1992, Gaussian, Inc.),
 the Gaussian 90(TM) system (copyright 1990, Gaussian, Inc.),
 the Gaussian 88(TM) system (copyright 1988, Gaussian, Inc.),
 the Gaussian 86(TM) system (copyright 1986, Carnegie Mellon
 University), and the Gaussian 82(TM) system (copyright 1983,
 Carnegie Mellon University). Gaussian is a federally registered
 trademark of Gaussian, Inc.
  
 This software contains proprietary and confidential information,
 including trade secrets, belonging to Gaussian, Inc.
  
 This software is provided under written license and may be
 used, copied, transmitted, or stored only in accord with that
 written license.
  
 The following legend is applicable only to US Government
 contracts under FAR:
  
                    RESTRICTED RIGHTS LEGEND
  
 Use, reproduction and disclosure by the US Government is
 subject to restrictions as set forth in subparagraphs (a)
 and (c) of the Commercial Computer Software - Restricted
 Rights clause in FAR 52.227-19.
  
 Gaussian, Inc.
 340 Quinnipiac St., Bldg. 40, Wallingford CT 06492
  
  
 ---------------------------------------------------------------
 Warning -- This program may not be used in any manner that
 competes with the business of Gaussian, Inc. or will provide
 assistance to any competitor of Gaussian, Inc.  The licensee
 of this program is prohibited from giving any competitor of
 Gaussian, Inc. access to this program.  By using this program,
 the user acknowledges that Gaussian, Inc. is engaged in the
 business of creating and licensing software in the field of
 computational chemistry and represents and warrants to the
 licensee that it is not a competitor of Gaussian, Inc. and that
 it will not use this program in any manner prohibited above.
 ---------------------------------------------------------------
  

 Cite this work as:
 Gaussian 09, Revision C.01,
 M. J. Frisch, G. W. Trucks, H. B. Schlegel, G. E. Scuseria, 
 M. A. Robb, J. R. Cheeseman, G. Scalmani, V. Barone, B. Mennucci, 
 G. A. Petersson, H. Nakatsuji, M. Caricato, X. Li, H. P. Hratchian, 
 A. F. Izmaylov, J. Bloino, G. Zheng, J. L. Sonnenberg, M. Hada, 
 M. Ehara, K. Toyota, R. Fukuda, J. Hasegawa, M. Ishida, T. Nakajima, 
 Y. Honda, O. Kitao, H. Nakai, T. Vreven, J. A. Montgomery, Jr., 
 J. E. Peralta, F. Ogliaro, M. Bearpark, J. J. Heyd, E. Brothers, 
 K. N. Kudin, V. N. Staroverov, T. Keith, R. Kobayashi, J. Normand, 
 K. Raghavachari, A. Rendell, J. C. Burant, S. S. Iyengar, J. Tomasi, 
 M. Cossi, N. Rega, J. M. Millam, M. Klene, J. E. Knox, J. B. Cross, 
 V. Bakken, C. Adamo, J. Jaramillo, R. Gomperts, R. E. Stratmann, 
 O. Yazyev, A. J. Austin, R. Cammi, C. Pomelli, J. W. Ochterski, 
 R. L. Martin, K. Morokuma, V. G. Zakrzewski, G. A. Voth, 
 P. Salvador, J. J. Dannenberg, S. Dapprich, A. D. Daniels, 
 O. Farkas, J. B. Foresman, J. V. Ortiz, J. Cioslowski, 
 and D. J. Fox, Gaussian, Inc., Wallingford CT, 2010.
 
 ******************************************
 Gaussian 09:  EM64L-G09RevC.01 23-Sep-2011
                21-Dec-2021 
 ******************************************
 %nprocshared=4
 Will use up to    4 processors via shared memory.
 -----------------------------------------------------------------
 # mPW1PW91/6-31g** scrf=(pcm,solvent=chloroform,smd,dovacuum) nmr
 -----------------------------------------------------------------
 1/38=1/1;
 2/12=2,17=6,18=5,40=1/2;
 3/5=1,6=6,7=101,11=2,16=1,25=1,30=1,70=32101,72=7,74=-7/1,2,8,3;
 4//1;
 5/5=2,38=5,53=7/2;
 8/6=1,10=90,11=11/1;
 10/13=100,45=16/2;
 6/7=2,8=2,9=2,10=2,28=1/1;
 99/9=1/99;
 -------
 comment
 -------
 Charge =  0 Multiplicity = 1
 Symbolic Z-Matrix:
 6                    -0.91122   0.62026   1.97198 
 1                    -0.75075   0.52023   3.05229 
 6                    -0.34623  -0.64112   1.29466 
 1                     0.72613  -0.70656   1.50665 
 6                    -0.54771  -0.60704  -0.21876 
 8                    -1.62685  -0.92096  -0.72424 
 8                    -0.15104   1.76495   1.57693 
 1                    -0.58736   2.17031   0.80567 
 6                    -0.96735  -1.92283   1.85824 
 1                    -0.5037   -2.80454   1.40152 
 1                    -2.04218  -1.98593   1.66063 
 1                    -0.81492  -1.98531   2.9407 
 6                     0.57091  -0.19169  -1.12388 
 6                     2.59268   0.53949  -2.92907 
 6                     0.43452  -0.45281  -2.4961 
 6                     1.72957   0.44808  -0.66847 
 6                     2.73586   0.81054  -1.56967 
 6                     1.44134  -0.09095  -3.39366 
 1                    -0.46012  -0.94433  -2.87522 
 1                     1.87519   0.69647   0.37871 
 1                     3.63158   1.31068  -1.20827 
 1                     1.32389  -0.30105  -4.45389 
 1                     3.3768    0.82358  -3.62665 
 6                    -2.396     0.89452   1.75024 
 1                    -2.69406   1.79526   2.29886 
 1                    -3.0212    0.06632   2.09363 
 1                    -2.61778   1.09443   0.69715 
 
                          Input orientation:                          
 ---------------------------------------------------------------------
 Center     Atomic      Atomic             Coordinates (Angstroms)
 Number     Number       Type             X           Y           Z
 ---------------------------------------------------------------------
      1          6           0       -0.911223    0.620259    1.971984
      2          1           0       -0.750750    0.520232    3.052291
      3          6           0       -0.346233   -0.641118    1.294657
      4          1           0        0.726130   -0.706562    1.506650
      5          6           0       -0.547715   -0.607036   -0.218761
      6          8           0       -1.626849   -0.920956   -0.724244
      7          8           0       -0.151040    1.764949    1.576928
      8          1           0       -0.587361    2.170310    0.805667
      9          6           0       -0.967348   -1.922830    1.858241
     10          1           0       -0.503698   -2.804536    1.401518
     11          1           0       -2.042179   -1.985934    1.660635
     12          1           0       -0.814923   -1.985305    2.940703
     13          6           0        0.570910   -0.191689   -1.123880
     14          6           0        2.592676    0.539489   -2.929070
     15          6           0        0.434518   -0.452814   -2.496098
     16          6           0        1.729569    0.448075   -0.668471
     17          6           0        2.735861    0.810540   -1.569674
     18          6           0        1.441343   -0.090954   -3.393656
     19          1           0       -0.460115   -0.944329   -2.875215
     20          1           0        1.875185    0.696467    0.378708
     21          1           0        3.631584    1.310685   -1.208265
     22          1           0        1.323893   -0.301051   -4.453886
     23          1           0        3.376802    0.823575   -3.626653
     24          6           0       -2.396001    0.894523    1.750245
     25          1           0       -2.694058    1.795259    2.298864
     26          1           0       -3.021198    0.066319    2.093628
     27          1           0       -2.617779    1.094433    0.697155
 ---------------------------------------------------------------------
                    Distance matrix (angstroms):
                    1          2          3          4          5
     1  C    0.000000
     2  H    1.096731   0.000000
     3  C    1.539175   2.145145   0.000000
     4  H    2.158220   2.464793   1.095074   0.000000
     5  C    2.537274   3.465795   1.527151   2.147005   0.000000
     6  O    3.187023   4.136036   2.407125   3.249518   1.232311
     7  O    1.429777   2.021303   2.430419   2.623496   3.001360
     8  H    1.966683   2.792270   2.863806   3.239294   2.960519
     9  C    2.546251   2.727861   1.531730   2.114425   2.494263
    10  H    3.495817   3.720238   2.171772   2.434138   2.730614
    11  H    2.858014   3.144100   2.195154   3.053529   2.768919
    12  H    2.781484   2.508842   2.176230   2.463034   3.457346
    13  C    3.527088   4.437794   2.625349   2.684935   1.497689
    14  C    6.025294   6.852411   5.279288   4.971141   4.303759
    15  C    4.788138   5.756414   3.874901   4.021370   2.484921
    16  C    3.738373   4.472276   3.057641   2.659178   2.549807
    17  C    5.087315   5.796835   4.450956   3.975473   3.823135
    18  C    5.901736   6.835865   5.047611   4.990340   3.781884
    19  H    5.113392   6.112670   4.182432   4.545817   2.679214
    20  H    3.210671   3.751618   2.750054   2.135666   2.815410
    21  H    5.588182   6.162955   5.088928   4.458891   4.703542
    22  H    6.865593   7.830794   5.995891   6.004144   4.640347
    23  H    7.055015   7.857290   6.342366   5.976469   5.390938
    24  C    1.526091   2.131259   2.601404   3.517174   3.089955
    25  H    2.160088   2.443316   3.529399   4.310963   4.088551
    26  H    2.184866   2.505993   2.879976   3.870963   3.452343
    27  H    2.182285   3.059766   2.920457   3.883374   2.831795
                    6          7          8          9         10
     6  O    0.000000
     7  O    3.832426   0.000000
     8  H    3.602373   0.974442   0.000000
     9  C    2.847442   3.787507   4.243360   0.000000
    10  H    3.054212   4.586429   5.011101   1.095889   0.000000
    11  H    2.644678   4.201492   4.485736   1.094665   1.761868
    12  H    3.901782   4.045371   4.677532   1.094925   1.771184
    13  C    2.349827   3.412331   3.262480   3.775730   3.789378
    14  C    4.979814   5.416063   5.169184   6.454079   6.286814
    15  C    2.758235   4.674494   4.338971   4.804836   4.647823
    16  C    3.625314   3.211333   3.241502   4.390766   4.455538
    17  C    4.769285   4.375637   4.305233   5.738961   5.691353
    18  C    4.150718   5.539563   5.182978   6.061351   5.842979
    19  H    2.447139   5.220851   4.823490   4.860078   4.663981
    20  H    4.012083   2.585145   2.901490   4.138808   4.354566
    21  H    5.732855   4.719312   4.753354   6.403847   6.391132
    22  H    4.795977   6.543279   6.117468   6.908177   6.625201
    23  H    6.041845   6.356816   6.097028   7.516545   7.314642
    24  C    3.163962   2.414027   2.406457   3.160726   4.169587
    25  H    4.201898   2.643681   2.609305   4.123090   5.173107
    26  H    3.295349   3.374926   3.465427   2.868871   3.880546
    27  H    2.657840   2.703404   2.300409   3.629865   4.490816
                   11         12         13         14         15
    11  H    0.000000
    12  H    1.773340   0.000000
    13  C    4.219131   4.653862   0.000000
    14  C    6.994643   7.241585   2.807289   0.000000
    15  C    5.075718   5.785192   1.403486   2.414493   0.000000
    16  C    5.057194   5.042015   1.399709   2.421491   2.414328
    17  C    6.409745   6.385008   2.426975   1.393530   2.783973
    18  C    6.424307   6.985943   2.433040   1.392432   1.396513
    19  H    4.915466   5.918989   2.167177   3.394724   1.088892
    20  H    4.917759   4.581747   2.178927   3.388337   3.414803
    21  H    7.161695   6.917291   3.410568   2.152961   3.871650
    22  H    7.180295   7.879797   3.415829   2.154387   2.155679
    23  H    8.075526   8.281941   3.894569   1.087282   3.400641
    24  C    2.903489   3.494339   4.271183   6.849009   5.278123
    25  H    3.889692   4.270337   5.130610   7.540412   6.150894
    26  H    2.314671   3.129592   4.829303   7.547646   5.768628
    27  H    3.278455   4.215280   3.890760   6.372308   4.680530
                   16         17         18         19         20
    16  C    0.000000
    17  C    1.398633   0.000000
    18  C    2.792894   2.411509   0.000000
    19  H    3.406351   3.872759   2.147690   0.000000
    20  H    1.086041   2.133066   3.878012   4.328262   0.000000
    21  H    2.157113   1.087695   3.396716   4.960425   2.445544
    22  H    3.880094   3.398230   1.087209   2.467528   4.965172
    23  H    3.406644   2.154562   2.153289   4.290930   4.279478
    24  C    4.803106   6.112686   6.492772   5.340778   4.490364
    25  H    5.494402   6.739383   7.284513   6.266334   5.076646
    26  H    5.508603   6.864210   7.074552   5.680665   5.226146
    27  H    4.602406   5.820702   5.883566   4.644770   4.521782
                   21         22         23         24         25
    21  H    0.000000
    22  H    4.296183   0.000000
    23  H    2.480079   2.482646   0.000000
    24  C    6.727388   7.332002   7.889317   0.000000
    25  H    7.249036   8.132532   8.538810   1.095969   0.000000
    26  H    7.530634   7.866684   8.615652   1.093026   1.771546
    27  H    6.536967   6.634559   7.396194   1.094600   1.749985
                   26         27
    26  H    0.000000
    27  H    1.780422   0.000000
 Stoichiometry    C11H14O2
 Framework group  C1[X(C11H14O2)]
 Deg. of freedom    75
 Full point group                 C1      NOp   1
 Largest Abelian subgroup         C1      NOp   1
 Largest concise Abelian subgroup C1      NOp   1
                         Standard orientation:                         
 ---------------------------------------------------------------------
 Center     Atomic      Atomic             Coordinates (Angstroms)
 Number     Number       Type             X           Y           Z
 ---------------------------------------------------------------------
      1          6           0       -2.323537    0.889411   -0.043750
      2          1           0       -3.083694    1.356057    0.594388
      3          6           0       -1.503640   -0.075319    0.831535
      4          1           0       -1.018799    0.496309    1.629882
      5          6           0       -0.429554   -0.797708    0.021174
      6          8           0       -0.704881   -1.785329   -0.662486
      7          8           0       -1.491871    1.961645   -0.494201
      8          1           0       -1.129813    1.721924   -1.366545
      9          6           0       -2.390017   -1.110185    1.531238
     10          1           0       -1.788120   -1.743382    2.192868
     11          1           0       -2.893900   -1.774077    0.821560
     12          1           0       -3.154994   -0.618198    2.140844
     13          6           0        0.989152   -0.318334    0.044523
     14          6           0        3.686094    0.460768    0.025212
     15          6           0        1.977309   -1.171269   -0.471056
     16          6           0        1.368281    0.933558    0.542733
     17          6           0        2.712697    1.319073    0.532891
     18          6           0        3.319141   -0.784385   -0.478577
     19          1           0        1.706403   -2.147802   -0.869399
     20          1           0        0.641933    1.642138    0.929798
     21          1           0        2.998672    2.295084    0.918510
     22          1           0        4.074853   -1.455671   -0.878949
     23          1           0        4.730096    0.764409    0.018510
     24          6           0       -3.042737    0.267582   -1.237499
     25          1           0       -3.615104    1.036434   -1.768922
     26          1           0       -3.735888   -0.520717   -0.932820
     27          1           0       -2.336759   -0.142183   -1.966770
 ---------------------------------------------------------------------
 Rotational constants (GHZ):      1.4988960      0.5033502      0.4462631
 Standard basis: 6-31G(d,p) (6D, 7F)
 There are   265 symmetry adapted basis functions of A   symmetry.
 Integral buffers will be    131072 words long.
 Raffenetti 2 integral format.
 Two-electron integral symmetry is turned on.
   265 basis functions,   462 primitive gaussians,   265 cartesian basis functions
    48 alpha electrons       48 beta electrons
       nuclear repulsion energy       788.3577571716 Hartrees.
 NAtoms=   27 NActive=   27 NUniq=   27 SFac= 1.00D+00 NAtFMM=   60 NAOKFM=F Big=F
 ------------------------------------------------------------------------------
 Polarizable Continuum Model (PCM)
 =================================
 Model                : C-PCM.
 Atomic radii         : SMD-Coulomb.
 Polarization charges : Total charges.
 Charge compensation  : None.
 Solution method      : Matrix inversion.
 Cavity type          : VdW (van der Waals Surface) (Alpha=1.000).
 Cavity algorithm     : GePol (No added spheres)
                        Default sphere list used, NSphG=   27.
                        Lebedev-Laikov grids with approx.  5.0 points / Ang**2.
                        Smoothing algorithm: Karplus/York (Gamma=1.0000).
                        Polarization charges: spherical gaussians, with
                                              point-specific exponents (IZeta= 3).
                        Self-potential: point-specific (ISelfS= 7).
                        Self-field    : sphere-specific E.n sum rule (ISelfD= 2).
 Solvent              : Chloroform, Eps=   4.711300 Eps(inf)=   2.090627
 ------------------------------------------------------------------------------
 ------------------------------------------------------------------------------
 Atomic radii for non-electrostatic terms: SMD-CDS.
 ------------------------------------------------------------------------------
 Nuclear repulsion after PCM non-electrostatic terms =      788.3511234118 Hartrees.
 One-electron integrals computed using PRISM.
 NBasis=   265 RedAO= T  NBF=   265
 NBsUse=   265 1.00D-06 NBFU=   265
 Harris functional with IExCor=  908 diagonalized for initial guess.
 ExpMin= 1.61D-01 ExpMax= 5.48D+03 ExpMxC= 8.25D+02 IAcc=1 IRadAn=         1 AccDes= 0.00D+00
 HarFok:  IExCor=  908 AccDes= 0.00D+00 IRadAn=         1 IDoV= 1
 ScaDFX=  1.000000  1.000000  1.000000  1.000000
 FoFCou: FMM=F IPFlag=           0 FMFlag=      100000 FMFlg1=           0
         NFxFlg=           0 DoJE=T BraDBF=F KetDBF=T FulRan=T
         Omega=  0.000000  0.000000  1.000000  0.000000  0.000000 ICntrl=     500 IOpCl=  0
         NMat0=    1 NMatS0=    1 NMatT0=    0 NMatD0=    1 NMtDS0=    0 NMtDT0=    0
         I1Cent=           4 NGrid=           0.
 Petite list used in FoFCou.
 Initial guess orbital symmetries:
       Occupied  (A) (A) (A) (A) (A) (A) (A) (A) (A) (A) (A) (A)
                 (A) (A) (A) (A) (A) (A) (A) (A) (A) (A) (A) (A)
                 (A) (A) (A) (A) (A) (A) (A) (A) (A) (A) (A) (A)
                 (A) (A) (A) (A) (A) (A) (A) (A) (A) (A) (A) (A)
       Virtual   (A) (A) (A) (A) (A) (A) (A) (A) (A) (A) (A) (A)
                 (A) (A) (A) (A) (A) (A) (A) (A) (A) (A) (A) (A)
                 (A) (A) (A) (A) (A) (A) (A) (A) (A) (A) (A) (A)
                 (A) (A) (A) (A) (A) (A) (A) (A) (A) (A) (A) (A)
                 (A) (A) (A) (A) (A) (A) (A) (A) (A) (A) (A) (A)
                 (A) (A) (A) (A) (A) (A) (A) (A) (A) (A) (A) (A)
                 (A) (A) (A) (A) (A) (A) (A) (A) (A) (A) (A) (A)
                 (A) (A) (A) (A) (A) (A) (A) (A) (A) (A) (A) (A)
                 (A) (A) (A) (A) (A) (A) (A) (A) (A) (A) (A) (A)
                 (A) (A) (A) (A) (A) (A) (A) (A) (A) (A) (A) (A)
                 (A) (A) (A) (A) (A) (A) (A) (A) (A) (A) (A) (A)
                 (A) (A) (A) (A) (A) (A) (A) (A) (A) (A) (A) (A)
                 (A) (A) (A) (A) (A) (A) (A) (A) (A) (A) (A) (A)
                 (A) (A) (A) (A) (A) (A) (A) (A) (A) (A) (A) (A)
                 (A) (A) (A) (A) (A) (A) (A) (A) (A) (A) (A) (A)
                 (A) (A) (A) (A) (A) (A) (A) (A) (A) (A) (A) (A)
                 (A) (A) (A) (A) (A) (A) (A) (A) (A) (A) (A) (A)
                 (A) (A) (A) (A) (A) (A) (A) (A) (A) (A) (A) (A)
                 (A)
 The electronic state of the initial guess is 1-A.
 Requested convergence on RMS density matrix=1.00D-08 within 128 cycles.
 Requested convergence on MAX density matrix=1.00D-06.
 Requested convergence on             energy=1.00D-06.
 No special actions if energy rises.
 Error on total polarization charges =  0.02878
 SCF Done:  E(RmPW1PW91) =  -577.946579848     A.U. after   12 cycles
             Convg  =    0.7798D-08             -V/T =  2.0094
 SMD-CDS (non-electrostatic) energy       (kcal/mol) =      -4.16
 (included in total energy above)
 Range of M.O.s used for correlation:     1   265
 NBasis=   265 NAE=    48 NBE=    48 NFC=     0 NFV=     0
 NROrb=    265 NOA=    48 NOB=    48 NVA=   217 NVB=   217
 NEqPCM:  Using equilibrium solvation (IEInf=0, Eps=   4.7113, EpsInf=   2.0906)
          Differentiating once with respect to magnetic field using GIAOs.
          Electric field/nuclear overlap derivatives assumed to be zero.
 FoFCou: FMM=F IPFlag=           0 FMFlag=    10101102 FMFlg1=           0
         NFxFlg=    40000000 DoJE=F BraDBF=F KetDBF=T FulRan=T
         Omega=  0.000000  0.000000  1.000000  0.000000  0.000000 ICntrl=    6100 IOpCl=  0
         NMat0=    1 NMatS0=    1 NMatT0=    0 NMatD0=    1 NMtDS0=    0 NMtDT0=    0
         I1Cent=           7 NGrid=        1997.
 Symmetry not used in FoFCou.
          There are     3 degrees of freedom in the 1st order CPHF.  IDoFFX=0.
      3 vectors produced by pass  0 Test12= 3.47D-13 3.33D-08 XBig12= 2.59D+01 1.17D+00.
 AX will form     3 AO Fock derivatives at one time.
      3 vectors produced by pass  1 Test12= 3.47D-13 3.33D-08 XBig12= 1.31D-01 1.92D-01.
      3 vectors produced by pass  2 Test12= 3.47D-13 3.33D-08 XBig12= 8.23D-04 8.40D-03.
      3 vectors produced by pass  3 Test12= 3.47D-13 3.33D-08 XBig12= 2.86D-06 3.59D-04.
      3 vectors produced by pass  4 Test12= 3.47D-13 3.33D-08 XBig12= 1.19D-08 2.38D-05.
      3 vectors produced by pass  5 Test12= 3.47D-13 3.33D-08 XBig12= 2.80D-11 2.04D-06.
      3 vectors produced by pass  6 Test12= 3.47D-13 3.33D-08 XBig12= 1.13D-13 9.88D-08.
 Inverted reduced A of dimension    21 with in-core refinement.
 Calculating GIAO nuclear magnetic shielding tensors.
 SCF GIAO Magnetic shielding tensor (ppm):
      1  C    Isotropic =   125.7995   Anisotropy =    52.0593
   XX=   125.5845   YX=    17.5412   ZX=    -1.7309
   XY=    19.0550   YY=   137.2815   ZY=   -20.9856
   XZ=    -6.8421   YZ=   -24.3110   ZZ=   114.5325
   Eigenvalues:    98.8461   118.0467   160.5057
      2  H    Isotropic =    27.6172   Anisotropy =     5.0201
   XX=    28.2411   YX=    -2.1863   ZX=    -2.9868
   XY=    -0.5860   YY=    27.9674   ZY=     0.4685
   XZ=    -1.9658   YZ=     1.3642   ZZ=    26.6429
   Eigenvalues:    24.8379    27.0497    30.9639
      3  C    Isotropic =   148.3667   Anisotropy =    21.7584
   XX=   148.7873   YX=   -12.1073   ZX=    -3.3309
   XY=    -9.7036   YY=   147.2433   ZY=    -9.8502
   XZ=   -11.1074   YZ=   -18.3690   ZZ=   149.0696
   Eigenvalues:   126.5097   155.7181   162.8723
      4  H    Isotropic =    27.4626   Anisotropy =     7.2219
   XX=    29.6266   YX=     3.2855   ZX=     0.3008
   XY=     4.6683   YY=    25.9310   ZY=    -0.4318
   XZ=     0.6416   YZ=     1.8709   ZZ=    26.8303
   Eigenvalues:    23.3569    26.7537    32.2772
      5  C    Isotropic =    -7.4591   Anisotropy =   172.1156
   XX=   -75.7490   YX=   -31.7585   ZX=    20.8844
   XY=   -23.7196   YY=    12.7804   ZY=   -66.1269
   XZ=    21.5230   YZ=   -79.7698   ZZ=    40.5913
   Eigenvalues:   -83.7231   -45.9388   107.2846
      6  O    Isotropic =  -249.9136   Anisotropy =   969.0556
   XX=  -330.8582   YX=  -202.1425   ZX=    43.3701
   XY=  -168.5152   YY=  -384.8603   ZY=  -550.6111
   XZ=    47.6297   YZ=  -546.0562   ZZ=   -34.0223
   Eigenvalues:  -817.3697  -328.4945   396.1235
      7  O    Isotropic =   268.3972   Anisotropy =    40.9402
   XX=   263.0636   YX=    35.1443   ZX=    -2.1962
   XY=    17.2937   YY=   253.5583   ZY=    24.0936
   XZ=   -10.5283   YZ=     8.3902   ZZ=   288.5696
   Eigenvalues:   227.1679   282.3329   295.6907
      8  H    Isotropic =    31.0783   Anisotropy =    11.8510
   XX=    28.5809   YX=     0.9374   ZX=    -5.6389
   XY=     1.1554   YY=    27.9795   ZY=     0.4779
   XZ=    -3.9733   YZ=    -1.4132   ZZ=    36.6745
   Eigenvalues:    26.0440    28.2120    38.9790
      9  C    Isotropic =   179.5018   Anisotropy =    23.3305
   XX=   177.1664   YX=     7.0613   ZX=   -10.8310
   XY=     6.3933   YY=   181.1685   ZY=    -6.3432
   XZ=    -8.6583   YZ=    -7.1857   ZZ=   180.1704
   Eigenvalues:   168.7458   174.7042   195.0554
     10  H    Isotropic =    30.7387   Anisotropy =     9.9848
   XX=    28.7611   YX=    -0.6216   ZX=     1.4694
   XY=    -0.7230   YY=    31.3301   ZY=    -5.7083
   XZ=     0.5853   YZ=    -5.2590   ZZ=    32.1250
   Eigenvalues:    26.2117    28.6092    37.3953
     11  H    Isotropic =    30.2026   Anisotropy =     7.6506
   XX=    29.1280   YX=     3.8385   ZX=     1.9942
   XY=     3.9010   YY=    31.8331   ZY=     2.0992
   XZ=     0.4202   YZ=     1.1471   ZZ=    29.6466
   Eigenvalues:    26.3805    28.9243    35.3030
     12  H    Isotropic =    30.8353   Anisotropy =     9.9880
   XX=    31.9913   YX=    -1.3070   ZX=    -5.2211
   XY=    -0.1398   YY=    28.4619   ZY=     0.2660
   XZ=    -5.5619   YZ=     0.6981   ZZ=    32.0527
   Eigenvalues:    26.6136    28.3984    37.4940
     13  C    Isotropic =    61.9461   Anisotropy =   161.0122
   XX=    -6.1806   YX=   -22.6266   ZX=    13.1303
   XY=   -18.2804   YY=    42.7077   ZY=   -56.1362
   XZ=     9.4240   YZ=   -39.0297   ZZ=   149.3113
   Eigenvalues:   -13.8612    30.4120   169.2876
     14  C    Isotropic =    66.2629   Anisotropy =   181.7408
   XX=   -25.7999   YX=   -28.5144   ZX=    16.1280
   XY=   -31.6561   YY=    61.8628   ZY=   -51.4256
   XZ=    18.9639   YZ=   -49.8503   ZZ=   162.7258
   Eigenvalues:   -35.1496    46.5149   187.4234
     15  C    Isotropic =    69.3883   Anisotropy =   182.9356
   XX=    45.1814   YX=   -21.5333   ZX=    10.2977
   XY=    -5.4272   YY=     7.6383   ZY=   -80.0172
   XZ=     8.6978   YZ=   -78.9310   ZZ=   155.3451
   Eigenvalues:   -28.0144    44.8339   191.3454
     16  C    Isotropic =    67.3703   Anisotropy =   181.0330
   XX=    15.3058   YX=    25.4574   ZX=    36.4288
   XY=    10.1571   YY=    34.3540   ZY=   -65.4323
   XZ=    22.3999   YZ=   -76.9714   ZZ=   152.4511
   Eigenvalues:   -22.0852    36.1372   188.0589
     17  C    Isotropic =    70.1958   Anisotropy =   172.8829
   XX=    50.7797   YX=   -26.7287   ZX=     6.5803
   XY=   -26.4523   YY=     8.1257   ZY=   -73.7383
   XZ=     8.0520   YZ=   -74.9299   ZZ=   151.6822
   Eigenvalues:   -29.3623    54.4987   185.4511
     18  C    Isotropic =    70.3481   Anisotropy =   172.9682
   XX=    17.2974   YX=    29.0434   ZX=    35.7129
   XY=    28.7151   YY=    42.4287   ZY=   -67.3397
   XZ=    34.7321   YZ=   -66.8879   ZZ=   151.3183
   Eigenvalues:   -28.3111    53.6952   185.6602
     19  H    Isotropic =    23.1052   Anisotropy =     7.3924
   XX=    27.7827   YX=    -0.4237   ZX=    -1.3711
   XY=    -0.8267   YY=    22.2352   ZY=     2.1293
   XZ=    -0.6450   YZ=     1.7535   ZZ=    19.2976
   Eigenvalues:    18.2901    22.9921    28.0334
     20  H    Isotropic =    22.7990   Anisotropy =     9.5269
   XX=    27.7024   YX=     3.2415   ZX=     1.8762
   XY=     2.3427   YY=    21.4689   ZY=     1.5735
   XZ=     1.1732   YZ=     1.2887   ZZ=    19.2257
   Eigenvalues:    18.5256    20.7212    29.1502
     21  H    Isotropic =    23.7421   Anisotropy =     5.4543
   XX=    27.2573   YX=     0.0145   ZX=    -0.7505
   XY=    -0.0395   YY=    23.1898   ZY=     1.5145
   XZ=    -0.9665   YZ=     1.2244   ZZ=    20.7793
   Eigenvalues:    20.0757    23.7724    27.3783
     22  H    Isotropic =    23.7383   Anisotropy =     4.8191
   XX=    25.9457   YX=     1.3878   ZX=    -0.1170
   XY=     1.5495   YY=    24.3902   ZY=     1.7657
   XZ=    -0.2119   YZ=     1.8850   ZZ=    20.8791
   Eigenvalues:    20.0081    24.2558    26.9511
     23  H    Isotropic =    23.7110   Anisotropy =     4.5043
   XX=    24.2922   YX=    -0.4780   ZX=    -0.6645
   XY=    -0.7699   YY=    25.3426   ZY=     2.3236
   XZ=    -0.5199   YZ=     2.3262   ZZ=    21.4982
   Eigenvalues:    20.3846    24.0346    26.7139
     24  C    Isotropic =   177.3423   Anisotropy =    27.5140
   XX=   175.1043   YX=    11.7021   ZX=     5.5692
   XY=    10.2177   YY=   174.0958   ZY=     4.9642
   XZ=    10.2169   YZ=    11.5181   ZZ=   182.8267
   Eigenvalues:   163.6091   172.7328   195.6849
     25  H    Isotropic =    30.4898   Anisotropy =    10.0959
   XX=    31.3199   YX=    -3.0105   ZX=     4.0782
   XY=    -3.1249   YY=    29.9427   ZY=    -1.7146
   XZ=     4.8726   YZ=    -2.7020   ZZ=    30.2069
   Eigenvalues:    26.1892    28.0598    37.2204
     26  H    Isotropic =    30.1538   Anisotropy =     8.9682
   XX=    32.0122   YX=     4.9589   ZX=     1.3011
   XY=     4.3477   YY=    30.6666   ZY=    -1.3939
   XZ=     2.4614   YZ=    -0.3421   ZZ=    27.7825
   Eigenvalues:    25.2135    29.1153    36.1325
     27  H    Isotropic =    30.9649   Anisotropy =     6.1587
   XX=    30.1270   YX=    -1.8462   ZX=    -0.5690
   XY=    -2.9989   YY=    29.1519   ZY=     2.3851
   XZ=     0.1498   YZ=     2.6410   ZZ=    33.6158
   Eigenvalues:    26.6553    31.1688    35.0707
 End of Minotr Frequency-dependent properties file   721 does not exist.
 End of Minotr Frequency-dependent properties file   722 does not exist.

 **********************************************************************

            Population analysis using the SCF density.

 **********************************************************************

 Orbital symmetries:
       Occupied  (A) (A) (A) (A) (A) (A) (A) (A) (A) (A) (A) (A)
                 (A) (A) (A) (A) (A) (A) (A) (A) (A) (A) (A) (A)
                 (A) (A) (A) (A) (A) (A) (A) (A) (A) (A) (A) (A)
                 (A) (A) (A) (A) (A) (A) (A) (A) (A) (A) (A) (A)
       Virtual   (A) (A) (A) (A) (A) (A) (A) (A) (A) (A) (A) (A)
                 (A) (A) (A) (A) (A) (A) (A) (A) (A) (A) (A) (A)
                 (A) (A) (A) (A) (A) (A) (A) (A) (A) (A) (A) (A)
                 (A) (A) (A) (A) (A) (A) (A) (A) (A) (A) (A) (A)
                 (A) (A) (A) (A) (A) (A) (A) (A) (A) (A) (A) (A)
                 (A) (A) (A) (A) (A) (A) (A) (A) (A) (A) (A) (A)
                 (A) (A) (A) (A) (A) (A) (A) (A) (A) (A) (A) (A)
                 (A) (A) (A) (A) (A) (A) (A) (A) (A) (A) (A) (A)
                 (A) (A) (A) (A) (A) (A) (A) (A) (A) (A) (A) (A)
                 (A) (A) (A) (A) (A) (A) (A) (A) (A) (A) (A) (A)
                 (A) (A) (A) (A) (A) (A) (A) (A) (A) (A) (A) (A)
                 (A) (A) (A) (A) (A) (A) (A) (A) (A) (A) (A) (A)
                 (A) (A) (A) (A) (A) (A) (A) (A) (A) (A) (A) (A)
                 (A) (A) (A) (A) (A) (A) (A) (A) (A) (A) (A) (A)
                 (A) (A) (A) (A) (A) (A) (A) (A) (A) (A) (A) (A)
                 (A) (A) (A) (A) (A) (A) (A) (A) (A) (A) (A) (A)
                 (A) (A) (A) (A) (A) (A) (A) (A) (A) (A) (A) (A)
                 (A) (A) (A) (A) (A) (A) (A) (A) (A) (A) (A) (A)
                 (A)
 The electronic state is 1-A.
 Alpha  occ. eigenvalues --  -19.23053 -19.22718 -10.33447 -10.29693 -10.26135
 Alpha  occ. eigenvalues --  -10.25804 -10.25746 -10.25647 -10.25393 -10.25367
 Alpha  occ. eigenvalues --  -10.25035 -10.23144 -10.22894  -1.06121  -1.03959
 Alpha  occ. eigenvalues --   -0.88434  -0.82091  -0.78275  -0.76989  -0.74233
 Alpha  occ. eigenvalues --   -0.67898  -0.64925  -0.62683  -0.60659  -0.55457
 Alpha  occ. eigenvalues --   -0.52235  -0.50260  -0.48776  -0.47008  -0.46686
 Alpha  occ. eigenvalues --   -0.45399  -0.45117  -0.43396  -0.43129  -0.40291
 Alpha  occ. eigenvalues --   -0.39325  -0.38582  -0.37969  -0.37287  -0.36384
 Alpha  occ. eigenvalues --   -0.36004  -0.35277  -0.34865  -0.32681  -0.27972
 Alpha  occ. eigenvalues --   -0.26797  -0.26531  -0.25599
 Alpha virt. eigenvalues --   -0.05126  -0.00142   0.04591   0.10574   0.11767
 Alpha virt. eigenvalues --    0.12062   0.15015   0.15735   0.17051   0.17107
 Alpha virt. eigenvalues --    0.17270   0.18043   0.18824   0.19872   0.20338
 Alpha virt. eigenvalues --    0.21159   0.22839   0.23021   0.24421   0.24889
 Alpha virt. eigenvalues --    0.25508   0.27060   0.29285   0.30985   0.31701
 Alpha virt. eigenvalues --    0.32803   0.33816   0.38183   0.40518   0.49696
 Alpha virt. eigenvalues --    0.53103   0.54069   0.54450   0.54933   0.55661
 Alpha virt. eigenvalues --    0.56713   0.57253   0.58509   0.60575   0.60803
 Alpha virt. eigenvalues --    0.61048   0.61218   0.62423   0.62546   0.63385
 Alpha virt. eigenvalues --    0.63743   0.65836   0.66924   0.68104   0.69865
 Alpha virt. eigenvalues --    0.69982   0.74254   0.75278   0.78086   0.79977
 Alpha virt. eigenvalues --    0.80766   0.82154   0.83860   0.84483   0.84679
 Alpha virt. eigenvalues --    0.85129   0.86270   0.87869   0.88815   0.89962
 Alpha virt. eigenvalues --    0.90795   0.91104   0.92013   0.93246   0.93823
 Alpha virt. eigenvalues --    0.95689   0.95888   0.97653   0.99952   1.00885
 Alpha virt. eigenvalues --    1.01734   1.03630   1.03811   1.06767   1.07803
 Alpha virt. eigenvalues --    1.10686   1.12558   1.13724   1.17141   1.19178
 Alpha virt. eigenvalues --    1.20511   1.21960   1.25562   1.28675   1.31287
 Alpha virt. eigenvalues --    1.32348   1.33912   1.37133   1.40692   1.41506
 Alpha virt. eigenvalues --    1.42130   1.42495   1.44844   1.45411   1.47816
 Alpha virt. eigenvalues --    1.49993   1.52525   1.53684   1.60861   1.64640
 Alpha virt. eigenvalues --    1.66317   1.69178   1.73063   1.75158   1.76386
 Alpha virt. eigenvalues --    1.78425   1.78727   1.83128   1.84663   1.85816
 Alpha virt. eigenvalues --    1.87483   1.90000   1.90993   1.92034   1.93252
 Alpha virt. eigenvalues --    1.94973   1.96705   1.97571   1.98785   1.99404
 Alpha virt. eigenvalues --    2.00906   2.02656   2.03605   2.04419   2.06852
 Alpha virt. eigenvalues --    2.07140   2.08200   2.09795   2.10135   2.12100
 Alpha virt. eigenvalues --    2.13349   2.14225   2.16312   2.19021   2.20652
 Alpha virt. eigenvalues --    2.24276   2.27813   2.29000   2.30667   2.32652
 Alpha virt. eigenvalues --    2.33594   2.33776   2.37219   2.38641   2.39515
 Alpha virt. eigenvalues --    2.41530   2.42191   2.42776   2.45553   2.46487
 Alpha virt. eigenvalues --    2.47319   2.50684   2.51943   2.52315   2.54675
 Alpha virt. eigenvalues --    2.57691   2.60429   2.60965   2.61838   2.63516
 Alpha virt. eigenvalues --    2.64829   2.66860   2.67145   2.69456   2.70114
 Alpha virt. eigenvalues --    2.71931   2.73548   2.75269   2.76075   2.80800
 Alpha virt. eigenvalues --    2.82682   2.83955   2.86698   2.87203   2.90000
 Alpha virt. eigenvalues --    2.92124   2.93428   2.94952   2.98199   3.05863
 Alpha virt. eigenvalues --    3.07361   3.07716   3.11201   3.21696   3.23481
 Alpha virt. eigenvalues --    3.24673   3.26256   3.27966   3.37630   3.39132
 Alpha virt. eigenvalues --    3.42420   3.45817   3.46851   3.49139   3.51539
 Alpha virt. eigenvalues --    3.53112   3.55505   3.56994   3.91592   4.01328
 Alpha virt. eigenvalues --    4.11151   4.16334   4.18761   4.22940   4.38708
 Alpha virt. eigenvalues --    4.43537   4.46484   4.54242   4.57763   4.69205
 Alpha virt. eigenvalues --    4.81896   4.87314
          Condensed to atoms (all electrons):
              1          2          3          4          5          6
     1  C    4.749363   0.411845   0.320410  -0.033886  -0.020476  -0.005304
     2  H    0.411845   0.589504  -0.062331  -0.006663   0.005203  -0.000130
     3  C    0.320410  -0.062331   5.355190   0.391179   0.275680  -0.086743
     4  H   -0.033886  -0.006663   0.391179   0.568575  -0.039536   0.003333
     5  C   -0.020476   0.005203   0.275680  -0.039536   4.630932   0.511317
     6  O   -0.005304  -0.000130  -0.086743   0.003333   0.511317   8.148176
     7  O    0.242409  -0.041335  -0.065396  -0.002997   0.003764  -0.000088
     8  H   -0.031305   0.006239  -0.002702  -0.000377   0.003296  -0.000149
     9  C   -0.034661  -0.001796   0.313342  -0.042678  -0.032524  -0.001206
    10  H    0.003596  -0.000144  -0.029074  -0.003556  -0.003994   0.000252
    11  H   -0.006153  -0.000440  -0.030888   0.004930  -0.008294   0.008182
    12  H   -0.004297   0.004474  -0.033784  -0.003620   0.005092   0.000289
    13  C   -0.002931  -0.000181  -0.095428  -0.000267   0.333640  -0.087521
    14  C   -0.000001   0.000000  -0.000024   0.000006   0.000202  -0.000014
    15  C   -0.000023   0.000004   0.008950  -0.000329  -0.039781  -0.000103
    16  C   -0.000101   0.000032  -0.005913   0.000584  -0.037561   0.003604
    17  C    0.000020   0.000000  -0.000018   0.000193   0.004296  -0.000073
    18  C    0.000003   0.000000  -0.000080  -0.000026   0.005725   0.000979
    19  H   -0.000002   0.000000   0.000628  -0.000027  -0.008596   0.014375
    20  H   -0.001370   0.000082   0.002549   0.002666  -0.007931   0.000032
    21  H    0.000000   0.000000   0.000013  -0.000006  -0.000122   0.000000
    22  H    0.000000   0.000000   0.000001   0.000000  -0.000132   0.000004
    23  H    0.000000   0.000000   0.000000   0.000000   0.000006   0.000000
    24  C    0.360129  -0.047900  -0.057036   0.005409  -0.011180   0.003148
    25  H   -0.030770  -0.007215   0.005962  -0.000087   0.000060   0.000152
    26  H   -0.026039  -0.001432   0.000170   0.000000  -0.000618  -0.000357
    27  H   -0.027463   0.005347  -0.010333  -0.000096   0.006163   0.003678
              7          8          9         10         11         12
     1  C    0.242409  -0.031305  -0.034661   0.003596  -0.006153  -0.004297
     2  H   -0.041335   0.006239  -0.001796  -0.000144  -0.000440   0.004474
     3  C   -0.065396  -0.002702   0.313342  -0.029074  -0.030888  -0.033784
     4  H   -0.002997  -0.000377  -0.042678  -0.003556   0.004930  -0.003620
     5  C    0.003764   0.003296  -0.032524  -0.003994  -0.008294   0.005092
     6  O   -0.000088  -0.000149  -0.001206   0.000252   0.008182   0.000289
     7  O    8.195517   0.293226   0.003179  -0.000062  -0.000010   0.000026
     8  H    0.293226   0.387942  -0.000125   0.000003   0.000003   0.000002
     9  C    0.003179  -0.000125   5.047265   0.385831   0.385472   0.385714
    10  H   -0.000062   0.000003   0.385831   0.555118  -0.027093  -0.027862
    11  H   -0.000010   0.000003   0.385472  -0.027093   0.545834  -0.028585
    12  H    0.000026   0.000002   0.385714  -0.027862  -0.028585   0.560807
    13  C   -0.001140   0.000760   0.004841   0.000207   0.000353  -0.000101
    14  C    0.000001  -0.000007   0.000000   0.000000   0.000000   0.000000
    15  C    0.000009   0.000018  -0.000251  -0.000005  -0.000009   0.000002
    16  C   -0.002605   0.001513   0.000083   0.000006  -0.000014  -0.000001
    17  C    0.000095   0.000012   0.000000   0.000000   0.000000   0.000000
    18  C   -0.000001   0.000000   0.000001   0.000000   0.000000   0.000000
    19  H    0.000000   0.000000  -0.000021  -0.000005  -0.000004   0.000000
    20  H    0.013113  -0.000928   0.000057  -0.000018  -0.000001   0.000006
    21  H   -0.000005   0.000002   0.000000   0.000000   0.000000   0.000000
    22  H    0.000000   0.000000   0.000000   0.000000   0.000000   0.000000
    23  H    0.000000   0.000000   0.000000   0.000000   0.000000   0.000000
    24  C   -0.046874  -0.007409  -0.002872   0.000056   0.002750  -0.000396
    25  H    0.001570  -0.000617  -0.000045   0.000002  -0.000020  -0.000041
    26  H    0.003447   0.000148   0.000129  -0.000020   0.001601   0.000243
    27  H   -0.003320   0.005499   0.000362  -0.000020   0.000053   0.000020
             13         14         15         16         17         18
     1  C   -0.002931  -0.000001  -0.000023  -0.000101   0.000020   0.000003
     2  H   -0.000181   0.000000   0.000004   0.000032   0.000000   0.000000
     3  C   -0.095428  -0.000024   0.008950  -0.005913  -0.000018  -0.000080
     4  H   -0.000267   0.000006  -0.000329   0.000584   0.000193  -0.000026
     5  C    0.333640   0.000202  -0.039781  -0.037561   0.004296   0.005725
     6  O   -0.087521  -0.000014  -0.000103   0.003604  -0.000073   0.000979
     7  O   -0.001140   0.000001   0.000009  -0.002605   0.000095  -0.000001
     8  H    0.000760  -0.000007   0.000018   0.001513   0.000012   0.000000
     9  C    0.004841   0.000000  -0.000251   0.000083   0.000000   0.000001
    10  H    0.000207   0.000000  -0.000005   0.000006   0.000000   0.000000
    11  H    0.000353   0.000000  -0.000009  -0.000014   0.000000   0.000000
    12  H   -0.000101   0.000000   0.000002  -0.000001   0.000000   0.000000
    13  C    5.021946  -0.031520   0.494109   0.516926  -0.030214  -0.034257
    14  C   -0.031520   4.864392  -0.045623  -0.048277   0.543170   0.534027
    15  C    0.494109  -0.045623   4.962864  -0.066091  -0.038366   0.507742
    16  C    0.516926  -0.048277  -0.066091   4.961210   0.517294  -0.038223
    17  C   -0.030214   0.543170  -0.038366   0.517294   4.895422  -0.041395
    18  C   -0.034257   0.534027   0.507742  -0.038223  -0.041395   4.908940
    19  H   -0.044016   0.004153   0.379413   0.004863   0.000150  -0.036227
    20  H   -0.036405   0.004123   0.004766   0.371682  -0.035471   0.000115
    21  H    0.002971  -0.037326   0.000639  -0.033093   0.381230   0.003931
    22  H    0.003145  -0.037615  -0.034197   0.000598   0.003936   0.382129
    23  H    0.000443   0.381777   0.003990   0.004168  -0.036743  -0.036973
    24  C    0.000843   0.000000  -0.000025  -0.000047   0.000001   0.000000
    25  H    0.000013   0.000000  -0.000001  -0.000002   0.000000   0.000000
    26  H   -0.000052   0.000000   0.000001  -0.000001   0.000000   0.000000
    27  H   -0.000090   0.000000   0.000023  -0.000014   0.000000   0.000000
             19         20         21         22         23         24
     1  C   -0.000002  -0.001370   0.000000   0.000000   0.000000   0.360129
     2  H    0.000000   0.000082   0.000000   0.000000   0.000000  -0.047900
     3  C    0.000628   0.002549   0.000013   0.000001   0.000000  -0.057036
     4  H   -0.000027   0.002666  -0.000006   0.000000   0.000000   0.005409
     5  C   -0.008596  -0.007931  -0.000122  -0.000132   0.000006  -0.011180
     6  O    0.014375   0.000032   0.000000   0.000004   0.000000   0.003148
     7  O    0.000000   0.013113  -0.000005   0.000000   0.000000  -0.046874
     8  H    0.000000  -0.000928   0.000002   0.000000   0.000000  -0.007409
     9  C   -0.000021   0.000057   0.000000   0.000000   0.000000  -0.002872
    10  H   -0.000005  -0.000018   0.000000   0.000000   0.000000   0.000056
    11  H   -0.000004  -0.000001   0.000000   0.000000   0.000000   0.002750
    12  H    0.000000   0.000006   0.000000   0.000000   0.000000  -0.000396
    13  C   -0.044016  -0.036405   0.002971   0.003145   0.000443   0.000843
    14  C    0.004153   0.004123  -0.037326  -0.037615   0.381777   0.000000
    15  C    0.379413   0.004766   0.000639  -0.034197   0.003990  -0.000025
    16  C    0.004863   0.371682  -0.033093   0.000598   0.004168  -0.000047
    17  C    0.000150  -0.035471   0.381230   0.003936  -0.036743   0.000001
    18  C   -0.036227   0.000115   0.003931   0.382129  -0.036973   0.000000
    19  H    0.527817  -0.000101   0.000014  -0.004269  -0.000138  -0.000003
    20  H   -0.000101   0.521307  -0.004457   0.000012  -0.000137   0.000130
    21  H    0.000014  -0.004457   0.532333  -0.000146  -0.004488   0.000000
    22  H   -0.004269   0.000012  -0.000146   0.532340  -0.004456   0.000000
    23  H   -0.000138  -0.000137  -0.004488  -0.004456   0.533039   0.000000
    24  C   -0.000003   0.000130   0.000000   0.000000   0.000000   5.107358
    25  H    0.000000  -0.000001   0.000000   0.000000   0.000000   0.380510
    26  H    0.000000  -0.000006   0.000000   0.000000   0.000000   0.369658
    27  H    0.000007   0.000007   0.000000   0.000000   0.000000   0.378560
             25         26         27
     1  C   -0.030770  -0.026039  -0.027463
     2  H   -0.007215  -0.001432   0.005347
     3  C    0.005962   0.000170  -0.010333
     4  H   -0.000087   0.000000  -0.000096
     5  C    0.000060  -0.000618   0.006163
     6  O    0.000152  -0.000357   0.003678
     7  O    0.001570   0.003447  -0.003320
     8  H   -0.000617   0.000148   0.005499
     9  C   -0.000045   0.000129   0.000362
    10  H    0.000002  -0.000020  -0.000020
    11  H   -0.000020   0.001601   0.000053
    12  H   -0.000041   0.000243   0.000020
    13  C    0.000013  -0.000052  -0.000090
    14  C    0.000000   0.000000   0.000000
    15  C   -0.000001   0.000001   0.000023
    16  C   -0.000002  -0.000001  -0.000014
    17  C    0.000000   0.000000   0.000000
    18  C    0.000000   0.000000   0.000000
    19  H    0.000000   0.000000   0.000007
    20  H   -0.000001  -0.000006   0.000007
    21  H    0.000000   0.000000   0.000000
    22  H    0.000000   0.000000   0.000000
    23  H    0.000000   0.000000   0.000000
    24  C    0.380510   0.369658   0.378560
    25  H    0.561141  -0.025135  -0.033858
    26  H   -0.025135   0.551782  -0.023873
    27  H   -0.033858  -0.023873   0.552100
 Mulliken atomic charges:
              1
     1  C    0.137008
     2  H    0.146838
     3  C   -0.194324
     4  H    0.157277
     5  C    0.425370
     6  O   -0.515832
     7  O   -0.592524
     8  H    0.344954
     9  C   -0.410099
    10  H    0.146783
    11  H    0.152333
    12  H    0.142010
    13  C   -0.016071
    14  C   -0.131444
    15  C   -0.137726
    16  C   -0.150619
    17  C   -0.163538
    18  C   -0.156412
    19  H    0.161990
    20  H    0.166177
    21  H    0.158511
    22  H    0.158651
    23  H    0.159513
    24  C   -0.434811
    25  H    0.148382
    26  H    0.150354
    27  H    0.147248
 Sum of Mulliken atomic charges =   0.00000
 Mulliken charges with hydrogens summed into heavy atoms:
              1
     1  C    0.283846
     3  C   -0.037047
     5  C    0.425370
     6  O   -0.515832
     7  O   -0.247570
     9  C    0.031026
    13  C   -0.016071
    14  C    0.028069
    15  C    0.024264
    16  C    0.015559
    17  C   -0.005027
    18  C    0.002239
    24  C    0.011173
 Sum of Mulliken charges with hydrogens summed into heavy atoms =   0.00000
 Electronic spatial extent (au):  <R**2>=           2677.0594
 Charge=              0.0000 electrons
 Dipole moment (field-independent basis, Debye):
    X=              0.9346    Y=              1.3192    Z=              0.6457  Tot=              1.7409
 Quadrupole moment (field-independent basis, Debye-Ang):
   XX=            -63.8387   YY=            -82.3372   ZZ=            -74.5089
   XY=              0.4072   XZ=             -1.8429   YZ=             -0.9195
 Traceless Quadrupole moment (field-independent basis, Debye-Ang):
   XX=              9.7229   YY=             -8.7756   ZZ=             -0.9473
   XY=              0.4072   XZ=             -1.8429   YZ=             -0.9195
 Octapole moment (field-independent basis, Debye-Ang**2):
  XXX=             17.9249  YYY=              0.7614  ZZZ=             -7.9011  XYY=             17.4816
  XXY=              3.1561  XXZ=             -4.7969  XZZ=            -13.9748  YZZ=              7.3815
  YYZ=              3.4267  XYZ=             10.2232
 Hexadecapole moment (field-independent basis, Debye-Ang**3):
 XXXX=          -2239.4693 YYYY=           -684.8506 ZZZZ=           -374.7614 XXXY=              3.2729
 XXXZ=            -22.7267 YYYX=             10.1789 YYYZ=              5.3781 ZZZX=              6.3637
 ZZZY=            -10.2890 XXYY=           -507.9892 XXZZ=           -490.8490 YYZZ=           -161.6325
 XXYZ=             25.7645 YYXZ=             -2.1924 ZZXY=            -13.3046
 N-N= 7.883511234118D+02 E-N=-2.921292025329D+03  KE= 5.725921904745D+02
 1\1\GINC-COMPUTE-8-13\SP\RmPW1PW91\6-31G(d,p)\C11H14O2\FBRUNO.IQUIR\21
 -Dec-2021\0\\# mPW1PW91/6-31g** scrf=(pcm,solvent=chloroform,smd,dovac
 uum) nmr\\comment\\0,1\C,0,-0.911222932,0.620259123,1.971984488\H,0,-0
 .750750367,0.520232229,3.052290709\C,0,-0.346232957,-0.641118476,1.294
 656829\H,0,0.726130124,-0.706561841,1.506650072\C,0,-0.547714783,-0.60
 7035524,-0.218761295\O,0,-1.626849385,-0.920956444,-0.724244366\O,0,-0
 .151040318,1.76494877,1.576927828\H,0,-0.587361199,2.170309839,0.80566
 6624\C,0,-0.967348253,-1.922830413,1.858241089\H,0,-0.503697619,-2.804
 536446,1.401518251\H,0,-2.042179389,-1.98593359,1.660634604\H,0,-0.814
 922958,-1.985305223,2.940703299\C,0,0.570910039,-0.191688736,-1.123879
 579\C,0,2.59267571,0.53948927,-2.929069788\C,0,0.434518287,-0.45281435
 8,-2.49609832\C,0,1.729568642,0.448075245,-0.668470851\C,0,2.735861319
 ,0.810539728,-1.569674334\C,0,1.441342834,-0.090954319,-3.393655503\H,
 0,-0.46011528,-0.944328549,-2.87521518\H,0,1.875185041,0.696466674,0.3
 78707872\H,0,3.631584311,1.310684689,-1.20826512\H,0,1.32389316,-0.301
 050902,-4.45388607\H,0,3.376801972,0.823575198,-3.626653392\C,0,-2.396
 000645,0.894522738,1.750244947\H,0,-2.694058451,1.795259464,2.29886392
 3\H,0,-3.021197652,0.066318964,2.093628478\H,0,-2.617779251,1.09443289
 1,0.697154785\\Version=EM64L-G09RevC.01\State=1-A\HF=-577.9465798\RMSD
 =7.798e-09\Dipole=0.6383869,0.2443446,0.043327\Quadrupole=-0.4335436,-
 3.2317402,3.6652839,-1.3895724,-5.1304599,-3.132053\PG=C01 [X(C11H14O2
 )]\\@


 SCIENCE IS A VERY HUMAN FORM OF KNOWLEDGE.
 WE ARE ALWAYS AT THE BRINK OF THE KNOWN,
 WE ALWAYS FEEL FORWARD FOR WHAT IS HOPED.
 EVERY JUDGEMENT IN SCIENCE STANDS ON THE EDGE OF ERROR, AND IS PERSONAL.
 SCIENCE IS A TRIBUTE TO WHAT WE CAN KNOW ALTHOUGH WE ARE FALLIBLE.

                     -- J. BRONOWSKI
 Job cpu time:  0 days  0 hours 23 minutes 13.8 seconds.
 File lengths (MBytes):  RWF=     79 Int=      0 D2E=      0 Chk=      5 Scr=      1
 Normal termination of Gaussian 09 at Tue Dec 21 09:06:10 2021.
