 Entering Gaussian System, Link 0=g09
 Input=/home/fbruno.iquir/2_val_run/2a_006_MPW_A_SMD.gjc
 Output=/home/fbruno.iquir/2_val_run/2a_006_MPW_A_SMD.log
 Initial command:
 /share/apps/Gaussian09/EM64T.SSE4.2-enabled/g09/l1.exe /tmp/Gau-41169.inp -scrdir=/tmp/
 Entering Link 1 = /share/apps/Gaussian09/EM64T.SSE4.2-enabled/g09/l1.exe PID=     41170.
  
 Copyright (c) 1988,1990,1992,1993,1995,1998,2003,2009,2011,
            Gaussian, Inc.  All Rights Reserved.
  
 This is part of the Gaussian(R) 09 program.  It is based on
 the Gaussian(R) 03 system (copyright 2003, Gaussian, Inc.),
 the Gaussian(R) 98 system (copyright 1998, Gaussian, Inc.),
 the Gaussian(R) 94 system (copyright 1995, Gaussian, Inc.),
 the Gaussian 92(TM) system (copyright 1992, Gaussian, Inc.),
 the Gaussian 90(TM) system (copyright 1990, Gaussian, Inc.),
 the Gaussian 88(TM) system (copyright 1988, Gaussian, Inc.),
 the Gaussian 86(TM) system (copyright 1986, Carnegie Mellon
 University), and the Gaussian 82(TM) system (copyright 1983,
 Carnegie Mellon University). Gaussian is a federally registered
 trademark of Gaussian, Inc.
  
 This software contains proprietary and confidential information,
 including trade secrets, belonging to Gaussian, Inc.
  
 This software is provided under written license and may be
 used, copied, transmitted, or stored only in accord with that
 written license.
  
 The following legend is applicable only to US Government
 contracts under FAR:
  
                    RESTRICTED RIGHTS LEGEND
  
 Use, reproduction and disclosure by the US Government is
 subject to restrictions as set forth in subparagraphs (a)
 and (c) of the Commercial Computer Software - Restricted
 Rights clause in FAR 52.227-19.
  
 Gaussian, Inc.
 340 Quinnipiac St., Bldg. 40, Wallingford CT 06492
  
  
 ---------------------------------------------------------------
 Warning -- This program may not be used in any manner that
 competes with the business of Gaussian, Inc. or will provide
 assistance to any competitor of Gaussian, Inc.  The licensee
 of this program is prohibited from giving any competitor of
 Gaussian, Inc. access to this program.  By using this program,
 the user acknowledges that Gaussian, Inc. is engaged in the
 business of creating and licensing software in the field of
 computational chemistry and represents and warrants to the
 licensee that it is not a competitor of Gaussian, Inc. and that
 it will not use this program in any manner prohibited above.
 ---------------------------------------------------------------
  

 Cite this work as:
 Gaussian 09, Revision C.01,
 M. J. Frisch, G. W. Trucks, H. B. Schlegel, G. E. Scuseria, 
 M. A. Robb, J. R. Cheeseman, G. Scalmani, V. Barone, B. Mennucci, 
 G. A. Petersson, H. Nakatsuji, M. Caricato, X. Li, H. P. Hratchian, 
 A. F. Izmaylov, J. Bloino, G. Zheng, J. L. Sonnenberg, M. Hada, 
 M. Ehara, K. Toyota, R. Fukuda, J. Hasegawa, M. Ishida, T. Nakajima, 
 Y. Honda, O. Kitao, H. Nakai, T. Vreven, J. A. Montgomery, Jr., 
 J. E. Peralta, F. Ogliaro, M. Bearpark, J. J. Heyd, E. Brothers, 
 K. N. Kudin, V. N. Staroverov, T. Keith, R. Kobayashi, J. Normand, 
 K. Raghavachari, A. Rendell, J. C. Burant, S. S. Iyengar, J. Tomasi, 
 M. Cossi, N. Rega, J. M. Millam, M. Klene, J. E. Knox, J. B. Cross, 
 V. Bakken, C. Adamo, J. Jaramillo, R. Gomperts, R. E. Stratmann, 
 O. Yazyev, A. J. Austin, R. Cammi, C. Pomelli, J. W. Ochterski, 
 R. L. Martin, K. Morokuma, V. G. Zakrzewski, G. A. Voth, 
 P. Salvador, J. J. Dannenberg, S. Dapprich, A. D. Daniels, 
 O. Farkas, J. B. Foresman, J. V. Ortiz, J. Cioslowski, 
 and D. J. Fox, Gaussian, Inc., Wallingford CT, 2010.
 
 ******************************************
 Gaussian 09:  EM64L-G09RevC.01 23-Sep-2011
                21-Dec-2021 
 ******************************************
 %nprocshared=4
 Will use up to    4 processors via shared memory.
 -----------------------------------------------------------------
 # mPW1PW91/6-31g** scrf=(pcm,solvent=chloroform,smd,dovacuum) nmr
 -----------------------------------------------------------------
 1/38=1/1;
 2/12=2,17=6,18=5,40=1/2;
 3/5=1,6=6,7=101,11=2,16=1,25=1,30=1,70=32101,72=7,74=-7/1,2,8,3;
 4//1;
 5/5=2,38=5,53=7/2;
 8/6=1,10=90,11=11/1;
 10/13=100,45=16/2;
 6/7=2,8=2,9=2,10=2,28=1/1;
 99/9=1/99;
 -------
 comment
 -------
 Charge =  0 Multiplicity = 1
 Symbolic Z-Matrix:
 6                     0.17723   1.91564   1.68143 
 1                    -0.82477   2.24479   1.98202 
 6                     0.18153   0.43112   1.26691 
 1                     1.19793   0.18376   0.94302 
 6                    -0.81406   0.19886   0.13598 
 8                    -1.90929   0.76165   0.12545 
 8                     1.05344   2.10699   2.79679 
 1                     0.54924   1.89071   3.60049 
 6                    -0.19209  -0.48705   2.43288 
 1                    -0.26774  -1.53026   2.10807 
 1                    -1.16131  -0.20756   2.86089 
 1                     0.55817  -0.44276   3.22864 
 6                    -0.47075  -0.7363   -0.97931 
 6                     0.07704  -2.4418   -3.1364 
 6                     0.57467  -1.66399  -0.89823 
 6                    -1.24527  -0.68002  -2.14725 
 6                    -0.97053  -1.52783  -3.22199 
 6                     0.84685  -2.5117   -1.97642 
 1                     1.1861   -1.76301  -0.00688 
 1                    -2.06859   0.02804  -2.22665 
 1                    -1.57607  -1.47437  -4.12344 
 1                     1.65927  -3.2318   -1.90947 
 1                     0.29068  -3.10335  -3.97254 
 6                     0.68236   2.82785   0.56669 
 1                     0.73037   3.86467   0.9178 
 1                     0.03594   2.79472  -0.31481 
 1                     1.69965   2.55298   0.26636 
 
                          Input orientation:                          
 ---------------------------------------------------------------------
 Center     Atomic      Atomic             Coordinates (Angstroms)
 Number     Number       Type             X           Y           Z
 ---------------------------------------------------------------------
      1          6           0        0.177230    1.915645    1.681429
      2          1           0       -0.824767    2.244791    1.982025
      3          6           0        0.181535    0.431116    1.266907
      4          1           0        1.197930    0.183756    0.943018
      5          6           0       -0.814060    0.198858    0.135982
      6          8           0       -1.909294    0.761654    0.125450
      7          8           0        1.053441    2.106993    2.796795
      8          1           0        0.549240    1.890712    3.600489
      9          6           0       -0.192089   -0.487046    2.432881
     10          1           0       -0.267743   -1.530263    2.108065
     11          1           0       -1.161313   -0.207563    2.860886
     12          1           0        0.558172   -0.442756    3.228639
     13          6           0       -0.470746   -0.736299   -0.979315
     14          6           0        0.077036   -2.441799   -3.136401
     15          6           0        0.574666   -1.663985   -0.898227
     16          6           0       -1.245274   -0.680024   -2.147252
     17          6           0       -0.970530   -1.527827   -3.221991
     18          6           0        0.846853   -2.511697   -1.976422
     19          1           0        1.186097   -1.763010   -0.006876
     20          1           0       -2.068592    0.028041   -2.226651
     21          1           0       -1.576068   -1.474372   -4.123443
     22          1           0        1.659265   -3.231795   -1.909473
     23          1           0        0.290681   -3.103348   -3.972544
     24          6           0        0.682364    2.827854    0.566685
     25          1           0        0.730374    3.864667    0.917796
     26          1           0        0.035945    2.794716   -0.314814
     27          1           0        1.699650    2.552979    0.266361
 ---------------------------------------------------------------------
                    Distance matrix (angstroms):
                    1          2          3          4          5
     1  C    0.000000
     2  H    1.096674   0.000000
     3  C    1.541322   2.193959   0.000000
     4  H    2.141615   3.068990   1.095057   0.000000
     5  C    2.513646   2.755690   1.524514   2.167865   0.000000
     6  O    2.847165   2.612042   2.404942   3.264541   1.231418
     7  O    1.431224   2.051952   2.430915   2.675108   3.769412
     8  H    1.954944   2.152370   2.776911   3.224383   4.089470
     9  C    2.544406   2.840156   1.530396   2.145185   2.476501
    10  H    3.500614   3.818009   2.180918   2.538384   2.679073
    11  H    2.773234   2.626728   2.179890   3.065514   2.776844
    12  H    2.846232   3.269477   2.180345   2.454765   3.443722
    13  C    3.812117   4.216842   2.614161   2.706722   1.495416
    14  C    6.496833   6.998261   5.258676   4.979117   4.298327
    15  C    4.430162   5.052999   3.038389   2.681938   2.543292
    16  C    4.839402   5.077627   3.863534   4.033005   2.484258
    17  C    6.100686   6.429282   5.031392   4.997903   3.779141
    18  C    5.781835   6.409976   4.429670   3.988967   3.816804
    19  H    4.171413   4.905280   2.728709   2.166180   2.805345
    20  H    4.886701   4.916709   4.174983   4.554253   2.680497
    21  H    6.947143   7.188418   5.981297   6.009449   4.639295
    22  H    6.448809   7.162902   5.068529   4.473872   4.697936
    23  H    7.561122   8.081070   6.321090   5.982550   5.385629
    24  C    1.526414   2.148160   2.546664   2.720053   3.055554
    25  H    2.165131   2.484964   3.494621   3.710572   4.053968
    26  H    2.185798   2.513704   2.847743   3.122412   2.768429
    27  H    2.174022   3.067762   2.794292   2.514519   3.446392
                    6          7          8          9         10
     6  O    0.000000
     7  O    4.209967   0.000000
     8  H    4.403982   0.973099   0.000000
     9  C    3.135647   2.900486   2.750747   0.000000
    10  H    3.446497   3.930586   3.820714   1.095230   0.000000
    11  H    2.996910   3.204125   2.806378   1.095762   1.764863
    12  H    4.143523   2.633060   2.362927   1.094571   1.766491
    13  C    2.352401   4.966534   5.377375   3.432616   3.194292
    14  C    4.984706   7.539741   8.023672   5.908501   5.334248
    15  C    3.619628   5.301197   5.733669   3.615160   3.124953
    16  C    2.772099   6.123329   6.547174   4.703621   4.448168
    17  C    4.162735   7.316704   7.780896   5.802307   5.376189
    18  C    4.767498   6.645192   7.111379   4.961911   4.346099
    19  H    3.996610   4.780700   5.173814   3.078943   2.576975
    20  H    2.468996   6.269302   6.654183   5.049536   4.945820
    21  H    4.812893   8.223757   8.689065   6.773152   6.367616
    22  H    5.729151   7.142733   7.604730   5.460512   4.769611
    23  H    6.047453   8.576328   9.075148   6.935962   6.305572
    24  C    3.343735   2.372915   3.178038   3.903321   4.719294
    25  H    4.150222   2.593150   3.335589   4.699343   5.614111
    26  H    2.848004   3.345201   4.050962   4.286232   4.966690
    27  H    4.031523   2.649450   3.588656   4.185001   4.892379
                   11         12         13         14         15
    11  H    0.000000
    12  H    1.774031   0.000000
    13  C    3.937459   4.341856   0.000000
    14  C    6.518648   6.688901   2.803893   0.000000
    15  C    4.389274   4.303801   1.400023   2.421168   0.000000
    16  C    5.031075   5.675290   1.402547   2.414699   2.416697
    17  C    6.227430   6.717510   2.430205   1.392862   2.793930
    18  C    5.722002   5.608611   2.425351   1.393936   1.398286
    19  H    4.019180   3.550481   2.178280   3.388909   1.085432
    20  H    5.173171   6.073033   2.166374   3.395803   3.408002
    21  H    7.110392   7.724786   3.413507   2.154743   3.881189
    22  H    6.313316   5.949062   3.410226   2.152417   2.158008
    23  H    7.562382   7.681623   3.891287   1.087394   3.406440
    24  C    4.228032   4.218805   4.052526   6.469043   4.725906
    25  H    4.892559   4.891170   5.119629   7.525614   5.821355
    26  H    4.531244   4.828044   3.628548   5.948456   4.528863
    27  H    4.747342   4.364917   4.132999   6.257753   4.517150
                   16         17         18         19         20
    16  C    0.000000
    17  C    1.396180   0.000000
    18  C    2.785894   2.412949   0.000000
    19  H    3.415500   3.878572   2.134182   0.000000
    20  H    1.088813   2.148760   3.874623   4.327617   0.000000
    21  H    2.155399   1.087267   3.399454   4.965782   2.469341
    22  H    3.873555   3.397357   1.087676   2.449713   4.962264
    23  H    3.400493   2.153195   2.154966   4.280748   4.291842
    24  C    4.835954   6.004839   5.916524   4.653896   4.817618
    25  H    5.826827   7.007845   7.003433   5.721315   5.695740
    26  H    4.131969   5.305567   5.619299   4.710683   3.967201
    27  H    4.995039   5.995952   5.604309   4.355015   5.175912
                   21         22         23         24         25
    21  H    0.000000
    22  H    4.296229   0.000000
    23  H    2.482153   2.479069   0.000000
    24  C    6.753293   6.618538   7.479116   0.000000
    25  H    7.696694   7.695197   8.524200   1.095702   0.000000
    26  H    5.943850   6.441812   6.944856   1.093616   1.773796
    27  H    6.798548   6.180574   7.207464   1.095729   1.756242
                   26         27
    26  H    0.000000
    27  H    1.778796   0.000000
 Stoichiometry    C11H14O2
 Framework group  C1[X(C11H14O2)]
 Deg. of freedom    75
 Full point group                 C1      NOp   1
 Largest Abelian subgroup         C1      NOp   1
 Largest concise Abelian subgroup C1      NOp   1
                         Standard orientation:                         
 ---------------------------------------------------------------------
 Center     Atomic      Atomic             Coordinates (Angstroms)
 Number     Number       Type             X           Y           Z
 ---------------------------------------------------------------------
      1          6           0       -2.636199   -0.332099   -0.234835
      2          1           0       -2.971304   -0.930499    0.620919
      3          6           0       -1.393703    0.508897    0.118158
      4          1           0       -1.092672    1.045784   -0.787537
      5          6           0       -0.267908   -0.396433    0.605090
      6          8           0       -0.496331   -1.360030    1.337002
      7          8           0       -3.712279    0.532934   -0.611893
      8          1           0       -4.151560    0.821213    0.207160
      9          6           0       -1.692945    1.535654    1.212843
     10          1           0       -0.785668    2.069695    1.514799
     11          1           0       -2.099717    1.051699    2.107839
     12          1           0       -2.416323    2.281928    0.869500
     13          6           0        1.144224   -0.111968    0.203551
     14          6           0        3.823359    0.305986   -0.510147
     15          6           0        1.549139    1.117057   -0.330869
     16          6           0        2.097216   -1.124542    0.386955
     17          6           0        3.430670   -0.916728    0.029138
     18          6           0        2.885486    1.321790   -0.687891
     19          1           0        0.854516    1.939677   -0.468555
     20          1           0        1.804384   -2.084281    0.809640
     21          1           0        4.160801   -1.709280    0.173779
     22          1           0        3.196582    2.278248   -1.101951
     23          1           0        4.862008    0.468988   -0.787753
     24          6           0       -2.386606   -1.261848   -1.419406
     25          1           0       -3.307529   -1.792661   -1.685306
     26          1           0       -1.614106   -2.004768   -1.201899
     27          1           0       -2.086932   -0.693577   -2.307035
 ---------------------------------------------------------------------
 Rotational constants (GHZ):      1.6677383      0.4301968      0.4046007
 Standard basis: 6-31G(d,p) (6D, 7F)
 There are   265 symmetry adapted basis functions of A   symmetry.
 Integral buffers will be    131072 words long.
 Raffenetti 2 integral format.
 Two-electron integral symmetry is turned on.
   265 basis functions,   462 primitive gaussians,   265 cartesian basis functions
    48 alpha electrons       48 beta electrons
       nuclear repulsion energy       776.4431934214 Hartrees.
 NAtoms=   27 NActive=   27 NUniq=   27 SFac= 1.00D+00 NAtFMM=   60 NAOKFM=F Big=F
 ------------------------------------------------------------------------------
 Polarizable Continuum Model (PCM)
 =================================
 Model                : C-PCM.
 Atomic radii         : SMD-Coulomb.
 Polarization charges : Total charges.
 Charge compensation  : None.
 Solution method      : Matrix inversion.
 Cavity type          : VdW (van der Waals Surface) (Alpha=1.000).
 Cavity algorithm     : GePol (No added spheres)
                        Default sphere list used, NSphG=   27.
                        Lebedev-Laikov grids with approx.  5.0 points / Ang**2.
                        Smoothing algorithm: Karplus/York (Gamma=1.0000).
                        Polarization charges: spherical gaussians, with
                                              point-specific exponents (IZeta= 3).
                        Self-potential: point-specific (ISelfS= 7).
                        Self-field    : sphere-specific E.n sum rule (ISelfD= 2).
 Solvent              : Chloroform, Eps=   4.711300 Eps(inf)=   2.090627
 ------------------------------------------------------------------------------
 ------------------------------------------------------------------------------
 Atomic radii for non-electrostatic terms: SMD-CDS.
 ------------------------------------------------------------------------------
 Nuclear repulsion after PCM non-electrostatic terms =      776.4365493472 Hartrees.
 One-electron integrals computed using PRISM.
 NBasis=   265 RedAO= T  NBF=   265
 NBsUse=   265 1.00D-06 NBFU=   265
 Harris functional with IExCor=  908 diagonalized for initial guess.
 ExpMin= 1.61D-01 ExpMax= 5.48D+03 ExpMxC= 8.25D+02 IAcc=1 IRadAn=         1 AccDes= 0.00D+00
 HarFok:  IExCor=  908 AccDes= 0.00D+00 IRadAn=         1 IDoV= 1
 ScaDFX=  1.000000  1.000000  1.000000  1.000000
 FoFCou: FMM=F IPFlag=           0 FMFlag=      100000 FMFlg1=           0
         NFxFlg=           0 DoJE=T BraDBF=F KetDBF=T FulRan=T
         Omega=  0.000000  0.000000  1.000000  0.000000  0.000000 ICntrl=     500 IOpCl=  0
         NMat0=    1 NMatS0=    1 NMatT0=    0 NMatD0=    1 NMtDS0=    0 NMtDT0=    0
         I1Cent=           4 NGrid=           0.
 Petite list used in FoFCou.
 Initial guess orbital symmetries:
       Occupied  (A) (A) (A) (A) (A) (A) (A) (A) (A) (A) (A) (A)
                 (A) (A) (A) (A) (A) (A) (A) (A) (A) (A) (A) (A)
                 (A) (A) (A) (A) (A) (A) (A) (A) (A) (A) (A) (A)
                 (A) (A) (A) (A) (A) (A) (A) (A) (A) (A) (A) (A)
       Virtual   (A) (A) (A) (A) (A) (A) (A) (A) (A) (A) (A) (A)
                 (A) (A) (A) (A) (A) (A) (A) (A) (A) (A) (A) (A)
                 (A) (A) (A) (A) (A) (A) (A) (A) (A) (A) (A) (A)
                 (A) (A) (A) (A) (A) (A) (A) (A) (A) (A) (A) (A)
                 (A) (A) (A) (A) (A) (A) (A) (A) (A) (A) (A) (A)
                 (A) (A) (A) (A) (A) (A) (A) (A) (A) (A) (A) (A)
                 (A) (A) (A) (A) (A) (A) (A) (A) (A) (A) (A) (A)
                 (A) (A) (A) (A) (A) (A) (A) (A) (A) (A) (A) (A)
                 (A) (A) (A) (A) (A) (A) (A) (A) (A) (A) (A) (A)
                 (A) (A) (A) (A) (A) (A) (A) (A) (A) (A) (A) (A)
                 (A) (A) (A) (A) (A) (A) (A) (A) (A) (A) (A) (A)
                 (A) (A) (A) (A) (A) (A) (A) (A) (A) (A) (A) (A)
                 (A) (A) (A) (A) (A) (A) (A) (A) (A) (A) (A) (A)
                 (A) (A) (A) (A) (A) (A) (A) (A) (A) (A) (A) (A)
                 (A) (A) (A) (A) (A) (A) (A) (A) (A) (A) (A) (A)
                 (A) (A) (A) (A) (A) (A) (A) (A) (A) (A) (A) (A)
                 (A) (A) (A) (A) (A) (A) (A) (A) (A) (A) (A) (A)
                 (A) (A) (A) (A) (A) (A) (A) (A) (A) (A) (A) (A)
                 (A)
 The electronic state of the initial guess is 1-A.
 Requested convergence on RMS density matrix=1.00D-08 within 128 cycles.
 Requested convergence on MAX density matrix=1.00D-06.
 Requested convergence on             energy=1.00D-06.
 No special actions if energy rises.
 Error on total polarization charges =  0.02754
 SCF Done:  E(RmPW1PW91) =  -577.947542409     A.U. after   12 cycles
             Convg  =    0.6568D-08             -V/T =  2.0093
 SMD-CDS (non-electrostatic) energy       (kcal/mol) =      -4.17
 (included in total energy above)
 Range of M.O.s used for correlation:     1   265
 NBasis=   265 NAE=    48 NBE=    48 NFC=     0 NFV=     0
 NROrb=    265 NOA=    48 NOB=    48 NVA=   217 NVB=   217
 NEqPCM:  Using equilibrium solvation (IEInf=0, Eps=   4.7113, EpsInf=   2.0906)
          Differentiating once with respect to magnetic field using GIAOs.
          Electric field/nuclear overlap derivatives assumed to be zero.
 FoFCou: FMM=F IPFlag=           0 FMFlag=    10101102 FMFlg1=           0
         NFxFlg=    40000000 DoJE=F BraDBF=F KetDBF=T FulRan=T
         Omega=  0.000000  0.000000  1.000000  0.000000  0.000000 ICntrl=    6100 IOpCl=  0
         NMat0=    1 NMatS0=    1 NMatT0=    0 NMatD0=    1 NMtDS0=    0 NMtDT0=    0
         I1Cent=           7 NGrid=        2032.
 Symmetry not used in FoFCou.
          There are     3 degrees of freedom in the 1st order CPHF.  IDoFFX=0.
      3 vectors produced by pass  0 Test12= 3.47D-13 3.33D-08 XBig12= 2.68D+01 1.13D+00.
 AX will form     3 AO Fock derivatives at one time.
      3 vectors produced by pass  1 Test12= 3.47D-13 3.33D-08 XBig12= 1.51D-01 2.13D-01.
      3 vectors produced by pass  2 Test12= 3.47D-13 3.33D-08 XBig12= 8.52D-04 9.20D-03.
      3 vectors produced by pass  3 Test12= 3.47D-13 3.33D-08 XBig12= 3.31D-06 3.96D-04.
      3 vectors produced by pass  4 Test12= 3.47D-13 3.33D-08 XBig12= 1.32D-08 2.43D-05.
      3 vectors produced by pass  5 Test12= 3.47D-13 3.33D-08 XBig12= 3.86D-11 2.55D-06.
      3 vectors produced by pass  6 Test12= 3.47D-13 3.33D-08 XBig12= 1.14D-13 6.68D-08.
 Inverted reduced A of dimension    21 with in-core refinement.
 Calculating GIAO nuclear magnetic shielding tensors.
 SCF GIAO Magnetic shielding tensor (ppm):
      1  C    Isotropic =   125.3198   Anisotropy =    45.5232
   XX=   135.0238   YX=   -12.8893   ZX=    20.0722
   XY=   -19.2944   YY=   130.6526   ZY=    -6.1408
   XZ=    18.1083   YZ=    -1.2963   ZZ=   110.2830
   Eigenvalues:    99.1553   121.1355   155.6686
      2  H    Isotropic =    27.3805   Anisotropy =     5.8427
   XX=    26.5194   YX=    -1.5534   ZX=    -0.1238
   XY=     0.2020   YY=    28.0758   ZY=    -3.8448
   XZ=    -0.0583   YZ=    -2.9840   ZZ=    27.5464
   Eigenvalues:    24.2625    26.6034    31.2757
      3  C    Isotropic =   144.4001   Anisotropy =    34.5133
   XX=   157.7322   YX=    -0.3036   ZX=    17.2056
   XY=    -1.7032   YY=   137.5283   ZY=     4.4685
   XZ=    16.0824   YZ=     8.9938   ZZ=   137.9397
   Eigenvalues:   125.1733   140.6180   167.4089
      4  H    Isotropic =    28.1806   Anisotropy =     6.0227
   XX=    30.7031   YX=     1.1963   ZX=    -1.7916
   XY=     3.3248   YY=    26.0786   ZY=    -0.1173
   XZ=    -1.4504   YZ=    -0.3415   ZZ=    27.7600
   Eigenvalues:    25.0874    27.2585    32.1957
      5  C    Isotropic =    -8.1934   Anisotropy =   175.0520
   XX=   -82.1810   YX=     4.3452   ZX=    21.4215
   XY=     2.4459   YY=    14.4948   ZY=    72.4293
   XZ=    20.8325   YZ=    80.7633   ZZ=    43.1060
   Eigenvalues:   -87.0562   -46.0319   108.5079
      6  O    Isotropic =  -229.6094   Anisotropy =   938.1091
   XX=  -321.5977   YX=   -13.9648   ZX=   103.4529
   XY=   -18.6041   YY=  -324.3180   ZY=   524.1914
   XZ=   114.4126   YZ=   583.2124   ZZ=   -42.9127
   Eigenvalues:  -769.2736  -315.3514   395.7966
      7  O    Isotropic =   297.8875   Anisotropy =    46.5059
   XX=   284.7144   YX=   -13.5227   ZX=   -17.5995
   XY=   -30.9385   YY=   299.2949   ZY=     9.4504
   XZ=    -7.0502   YZ=    12.2552   ZZ=   309.6531
   Eigenvalues:   268.2461   296.5250   328.8914
      8  H    Isotropic =    29.7491   Anisotropy =    18.2921
   XX=    32.4587   YX=    -5.8918   ZX=    -5.9911
   XY=    -5.1993   YY=    24.1659   ZY=     5.7770
   XZ=    -6.3896   YZ=     4.5074   ZZ=    32.6228
   Eigenvalues:    20.9372    26.3664    41.9439
      9  C    Isotropic =   178.3304   Anisotropy =    24.4608
   XX=   169.1929   YX=    -0.6449   ZX=    -8.2031
   XY=    -2.0566   YY=   182.7381   ZY=     7.1885
   XZ=    -6.7282   YZ=    13.0928   ZZ=   183.0603
   Eigenvalues:   165.3194   175.0343   194.6377
     10  H    Isotropic =    30.2804   Anisotropy =     8.0643
   XX=    31.7317   YX=     3.1809   ZX=     0.8559
   XY=     3.2402   YY=    30.8002   ZY=     2.7562
   XZ=    -0.2362   YZ=     4.8192   ZZ=    28.3094
   Eigenvalues:    25.1016    30.0831    35.6566
     11  H    Isotropic =    30.6537   Anisotropy =     9.0569
   XX=    28.1841   YX=     1.0314   ZX=    -2.7852
   XY=     0.0446   YY=    28.6003   ZY=    -0.4171
   XZ=    -4.1725   YZ=    -0.8689   ZZ=    35.1766
   Eigenvalues:    26.7133    28.5561    36.6916
     12  H    Isotropic =    29.9648   Anisotropy =     8.8473
   XX=    29.7600   YX=    -3.4399   ZX=     1.5873
   XY=    -4.0054   YY=    33.5820   ZY=     0.5329
   XZ=     0.1768   YZ=     1.1601   ZZ=    26.5524
   Eigenvalues:    25.7328    28.2986    35.8630
     13  C    Isotropic =    63.3963   Anisotropy =   160.5722
   XX=    -1.3096   YX=    -6.4192   ZX=    39.3894
   XY=     3.1970   YY=    41.1738   ZY=    48.7760
   XZ=    43.0615   YZ=    24.7041   ZZ=   150.3248
   Eigenvalues:   -14.1302    33.8748   170.4444
     14  C    Isotropic =    66.2094   Anisotropy =   181.9897
   XX=   -22.9841   YX=    -1.9876   ZX=    45.0609
   XY=    -5.1313   YY=    60.4288   ZY=    48.6216
   XZ=    41.7047   YZ=    46.9125   ZZ=   161.1836
   Eigenvalues:   -34.9613    46.0537   187.5359
     15  C    Isotropic =    70.2021   Anisotropy =   175.7283
   XX=    24.1093   YX=    48.6770   ZX=    17.1000
   XY=    33.7713   YY=    23.1902   ZY=    49.9118
   XZ=    26.5548   YZ=    53.0584   ZZ=   163.3067
   Eigenvalues:   -20.5401    43.7921   187.3543
     16  C    Isotropic =    69.4960   Anisotropy =   182.9646
   XX=    50.6472   YX=    -6.4572   ZX=    32.1591
   XY=     8.9282   YY=     0.8605   ZY=    68.2854
   XZ=    36.6897   YZ=    72.1117   ZZ=   156.9804
   Eigenvalues:   -27.7624    44.7780   191.4724
     17  C    Isotropic =    69.6959   Anisotropy =   174.3775
   XX=    22.2357   YX=    48.9235   ZX=    16.0941
   XY=    48.7805   YY=    23.6176   ZY=    50.3759
   XZ=    17.0234   YZ=    51.2487   ZZ=   163.2345
   Eigenvalues:   -29.2875    52.4277   185.9476
     18  C    Isotropic =    70.1322   Anisotropy =   173.5288
   XX=    51.7280   YX=   -11.7002   ZX=    32.8756
   XY=   -12.7217   YY=     4.6851   ZY=    69.0595
   XZ=    31.3997   YZ=    68.6161   ZZ=   153.9835
   Eigenvalues:   -29.0593    53.6378   185.8181
     19  H    Isotropic =    23.2693   Anisotropy =     9.1789
   XX=    27.5602   YX=     3.0090   ZX=    -2.4937
   XY=     1.9832   YY=    22.1414   ZY=    -1.7631
   XZ=    -2.2375   YZ=    -1.5532   ZZ=    20.1064
   Eigenvalues:    19.0539    21.3655    29.3886
     20  H    Isotropic =    23.2039   Anisotropy =     7.2280
   XX=    27.3526   YX=    -1.4979   ZX=    -0.9602
   XY=    -2.0505   YY=    22.6633   ZY=    -1.5825
   XZ=    -1.6059   YZ=    -1.2408   ZZ=    19.5957
   Eigenvalues:    18.6420    22.9470    28.0226
     21  H    Isotropic =    23.7261   Anisotropy =     4.8176
   XX=    25.9012   YX=     0.7442   ZX=    -1.4066
   XY=     0.8952   YY=    24.2252   ZY=    -1.8363
   XZ=    -1.3189   YZ=    -1.8234   ZZ=    21.0518
   Eigenvalues:    20.0691    24.1713    26.9378
     22  H    Isotropic =    23.7578   Anisotropy =     5.2226
   XX=    26.9727   YX=    -0.7176   ZX=    -1.0649
   XY=    -0.8617   YY=    23.5881   ZY=    -1.1553
   XZ=    -0.9394   YZ=    -0.9655   ZZ=    20.7125
   Eigenvalues:    20.1515    23.8822    27.2395
     23  H    Isotropic =    23.6967   Anisotropy =     4.4874
   XX=    24.0495   YX=    -0.8149   ZX=    -0.3978
   XY=    -1.1487   YY=    25.8236   ZY=    -1.8278
   XZ=    -0.5755   YZ=    -1.8132   ZZ=    21.2170
   Eigenvalues:    20.4117    23.9901    26.6883
     24  C    Isotropic =   174.6395   Anisotropy =    31.7548
   XX=   168.6057   YX=    -4.4449   ZX=    -1.0953
   XY=    -1.9672   YY=   175.0124   ZY=    15.7498
   XZ=    -1.0599   YZ=    19.5381   ZZ=   180.3005
   Eigenvalues:   159.4804   168.6288   195.8094
     25  H    Isotropic =    30.4515   Anisotropy =    10.5672
   XX=    31.7875   YX=     3.6836   ZX=     1.3932
   XY=     4.8785   YY=    31.0378   ZY=     3.0432
   XZ=     3.6152   YZ=     3.3121   ZZ=    28.5292
   Eigenvalues:    26.3081    27.5501    37.4963
     26  H    Isotropic =    30.6811   Anisotropy =     7.3515
   XX=    31.1384   YX=    -3.7561   ZX=     1.4821
   XY=    -2.6653   YY=    33.1906   ZY=     1.6481
   XZ=     2.2016   YZ=     2.4402   ZZ=    27.7142
   Eigenvalues:    25.4885    30.9727    35.5821
     27  H    Isotropic =    30.8472   Anisotropy =     6.7262
   XX=    28.8847   YX=     1.1371   ZX=    -1.3388
   XY=     1.7640   YY=    28.5214   ZY=     0.2794
   XZ=    -0.4320   YZ=    -1.2681   ZZ=    35.1356
   Eigenvalues:    27.2351    29.9753    35.3314
 End of Minotr Frequency-dependent properties file   721 does not exist.
 End of Minotr Frequency-dependent properties file   722 does not exist.

 **********************************************************************

            Population analysis using the SCF density.

 **********************************************************************

 Orbital symmetries:
       Occupied  (A) (A) (A) (A) (A) (A) (A) (A) (A) (A) (A) (A)
                 (A) (A) (A) (A) (A) (A) (A) (A) (A) (A) (A) (A)
                 (A) (A) (A) (A) (A) (A) (A) (A) (A) (A) (A) (A)
                 (A) (A) (A) (A) (A) (A) (A) (A) (A) (A) (A) (A)
       Virtual   (A) (A) (A) (A) (A) (A) (A) (A) (A) (A) (A) (A)
                 (A) (A) (A) (A) (A) (A) (A) (A) (A) (A) (A) (A)
                 (A) (A) (A) (A) (A) (A) (A) (A) (A) (A) (A) (A)
                 (A) (A) (A) (A) (A) (A) (A) (A) (A) (A) (A) (A)
                 (A) (A) (A) (A) (A) (A) (A) (A) (A) (A) (A) (A)
                 (A) (A) (A) (A) (A) (A) (A) (A) (A) (A) (A) (A)
                 (A) (A) (A) (A) (A) (A) (A) (A) (A) (A) (A) (A)
                 (A) (A) (A) (A) (A) (A) (A) (A) (A) (A) (A) (A)
                 (A) (A) (A) (A) (A) (A) (A) (A) (A) (A) (A) (A)
                 (A) (A) (A) (A) (A) (A) (A) (A) (A) (A) (A) (A)
                 (A) (A) (A) (A) (A) (A) (A) (A) (A) (A) (A) (A)
                 (A) (A) (A) (A) (A) (A) (A) (A) (A) (A) (A) (A)
                 (A) (A) (A) (A) (A) (A) (A) (A) (A) (A) (A) (A)
                 (A) (A) (A) (A) (A) (A) (A) (A) (A) (A) (A) (A)
                 (A) (A) (A) (A) (A) (A) (A) (A) (A) (A) (A) (A)
                 (A) (A) (A) (A) (A) (A) (A) (A) (A) (A) (A) (A)
                 (A) (A) (A) (A) (A) (A) (A) (A) (A) (A) (A) (A)
                 (A) (A) (A) (A) (A) (A) (A) (A) (A) (A) (A) (A)
                 (A)
 The electronic state is 1-A.
 Alpha  occ. eigenvalues --  -19.22794 -19.22759 -10.33610 -10.29048 -10.26297
 Alpha  occ. eigenvalues --  -10.26142 -10.25857 -10.25771 -10.25603 -10.25495
 Alpha  occ. eigenvalues --  -10.25027 -10.23645 -10.22473  -1.06258  -1.03620
 Alpha  occ. eigenvalues --   -0.88625  -0.82162  -0.78267  -0.77179  -0.74908
 Alpha  occ. eigenvalues --   -0.67331  -0.64387  -0.62658  -0.59928  -0.55595
 Alpha  occ. eigenvalues --   -0.53840  -0.51618  -0.48688  -0.46982  -0.45817
 Alpha  occ. eigenvalues --   -0.45261  -0.44372  -0.43478  -0.42572  -0.41125
 Alpha  occ. eigenvalues --   -0.39163  -0.38998  -0.38088  -0.37023  -0.36843
 Alpha  occ. eigenvalues --   -0.35534  -0.35332  -0.35087  -0.32392  -0.28180
 Alpha  occ. eigenvalues --   -0.26940  -0.26708  -0.25472
 Alpha virt. eigenvalues --   -0.05062  -0.00337   0.04520   0.09647   0.11226
 Alpha virt. eigenvalues --    0.13405   0.14223   0.16117   0.16853   0.17450
 Alpha virt. eigenvalues --    0.17676   0.18363   0.18835   0.19849   0.20179
 Alpha virt. eigenvalues --    0.20398   0.21463   0.22894   0.23334   0.24938
 Alpha virt. eigenvalues --    0.26416   0.27722   0.28249   0.30868   0.31493
 Alpha virt. eigenvalues --    0.33399   0.33792   0.40304   0.40413   0.50240
 Alpha virt. eigenvalues --    0.50500   0.53210   0.53795   0.55283   0.55920
 Alpha virt. eigenvalues --    0.56677   0.57815   0.58234   0.60422   0.60922
 Alpha virt. eigenvalues --    0.61702   0.62189   0.62656   0.62881   0.64047
 Alpha virt. eigenvalues --    0.64151   0.65498   0.67702   0.68603   0.70062
 Alpha virt. eigenvalues --    0.72058   0.73037   0.76362   0.78043   0.79657
 Alpha virt. eigenvalues --    0.81230   0.82538   0.83377   0.84227   0.84372
 Alpha virt. eigenvalues --    0.85080   0.86430   0.87964   0.88303   0.88786
 Alpha virt. eigenvalues --    0.90752   0.91367   0.92204   0.93468   0.93941
 Alpha virt. eigenvalues --    0.95446   0.96497   0.96800   0.98418   0.99391
 Alpha virt. eigenvalues --    1.01861   1.03826   1.04363   1.08254   1.08650
 Alpha virt. eigenvalues --    1.09582   1.12175   1.12909   1.14033   1.17704
 Alpha virt. eigenvalues --    1.20174   1.22305   1.25452   1.28192   1.30383
 Alpha virt. eigenvalues --    1.32933   1.35177   1.38848   1.40741   1.41656
 Alpha virt. eigenvalues --    1.42322   1.44645   1.44910   1.46461   1.49342
 Alpha virt. eigenvalues --    1.49473   1.56284   1.56482   1.60715   1.62151
 Alpha virt. eigenvalues --    1.63988   1.67324   1.72097   1.74913   1.77170
 Alpha virt. eigenvalues --    1.78362   1.79153   1.82367   1.83854   1.84717
 Alpha virt. eigenvalues --    1.87057   1.88158   1.90514   1.91427   1.92381
 Alpha virt. eigenvalues --    1.94191   1.95791   1.97282   1.98242   1.98546
 Alpha virt. eigenvalues --    2.00008   2.01272   2.03038   2.05502   2.06656
 Alpha virt. eigenvalues --    2.06999   2.08497   2.09678   2.10080   2.11814
 Alpha virt. eigenvalues --    2.13168   2.14007   2.15653   2.17276   2.20535
 Alpha virt. eigenvalues --    2.24828   2.27313   2.29454   2.31322   2.32745
 Alpha virt. eigenvalues --    2.33567   2.36400   2.39238   2.39473   2.40444
 Alpha virt. eigenvalues --    2.41273   2.42501   2.42709   2.45002   2.46564
 Alpha virt. eigenvalues --    2.47136   2.49558   2.50353   2.51943   2.53837
 Alpha virt. eigenvalues --    2.57804   2.59988   2.60663   2.62104   2.63117
 Alpha virt. eigenvalues --    2.66435   2.66902   2.69001   2.69688   2.71263
 Alpha virt. eigenvalues --    2.73678   2.75954   2.76690   2.78318   2.79640
 Alpha virt. eigenvalues --    2.81187   2.83474   2.86056   2.87115   2.90155
 Alpha virt. eigenvalues --    2.92873   2.94658   2.96847   2.99519   3.02153
 Alpha virt. eigenvalues --    3.05214   3.06552   3.11999   3.21120   3.22933
 Alpha virt. eigenvalues --    3.24124   3.26152   3.27547   3.35044   3.39863
 Alpha virt. eigenvalues --    3.43462   3.45711   3.47958   3.48781   3.49269
 Alpha virt. eigenvalues --    3.52559   3.53987   3.57084   3.91478   4.01124
 Alpha virt. eigenvalues --    4.11639   4.16216   4.18575   4.23384   4.37781
 Alpha virt. eigenvalues --    4.43577   4.46183   4.50034   4.57891   4.66743
 Alpha virt. eigenvalues --    4.78681   4.87291
          Condensed to atoms (all electrons):
              1          2          3          4          5          6
     1  C    4.791059   0.396375   0.308575  -0.037294  -0.024154   0.001160
     2  H    0.396375   0.599617  -0.057312   0.005753  -0.002561   0.009915
     3  C    0.308575  -0.057312   5.389398   0.377932   0.261651  -0.091158
     4  H   -0.037294   0.005753   0.377932   0.570011  -0.032641   0.003002
     5  C   -0.024154  -0.002561   0.261651  -0.032641   4.649959   0.518627
     6  O    0.001160   0.009915  -0.091158   0.003002   0.518627   8.147293
     7  O    0.210465  -0.034535  -0.056029   0.002220   0.003052   0.000066
     8  H   -0.020539  -0.008753  -0.003606  -0.000386  -0.000109   0.000007
     9  C   -0.035938  -0.005219   0.325757  -0.039600  -0.031851  -0.001565
    10  H    0.004573  -0.000024  -0.033512  -0.003045  -0.003529  -0.000102
    11  H   -0.004697   0.004501  -0.036275   0.005238  -0.005644   0.003088
    12  H   -0.005919   0.000418  -0.032568  -0.004031   0.005109  -0.000012
    13  C    0.003554   0.000403  -0.096937   0.000524   0.311126  -0.088879
    14  C    0.000000   0.000000  -0.000025   0.000003   0.000202  -0.000015
    15  C    0.000045  -0.000016  -0.004878   0.000647  -0.036990   0.003588
    16  C   -0.000170  -0.000005   0.008651  -0.000237  -0.038114   0.000582
    17  C    0.000002   0.000000  -0.000077  -0.000023   0.005761   0.000959
    18  C   -0.000002   0.000000  -0.000077   0.000138   0.004325  -0.000073
    19  H    0.000019  -0.000003   0.003402   0.000962  -0.007768   0.000037
    20  H   -0.000012  -0.000003   0.000590  -0.000022  -0.008436   0.013568
    21  H    0.000000   0.000000   0.000002   0.000000  -0.000133   0.000004
    22  H    0.000000   0.000000   0.000014  -0.000003  -0.000123   0.000000
    23  H    0.000000   0.000000   0.000000   0.000000   0.000006   0.000000
    24  C    0.369006  -0.043859  -0.063339  -0.006487  -0.001820  -0.002757
    25  H   -0.026935  -0.004781   0.005718  -0.000065  -0.000089   0.000003
    26  H   -0.028872  -0.001194  -0.002945  -0.000024   0.004533   0.002663
    27  H   -0.030379   0.005339  -0.009265   0.005423   0.000055   0.000080
              7          8          9         10         11         12
     1  C    0.210465  -0.020539  -0.035938   0.004573  -0.004697  -0.005919
     2  H   -0.034535  -0.008753  -0.005219  -0.000024   0.004501   0.000418
     3  C   -0.056029  -0.003606   0.325757  -0.033512  -0.036275  -0.032568
     4  H    0.002220  -0.000386  -0.039600  -0.003045   0.005238  -0.004031
     5  C    0.003052  -0.000109  -0.031851  -0.003529  -0.005644   0.005109
     6  O    0.000066   0.000007  -0.001565  -0.000102   0.003088  -0.000012
     7  O    8.225291   0.290023  -0.003571   0.000255  -0.000440   0.009323
     8  H    0.290023   0.385214   0.004623  -0.000039   0.000145   0.000083
     9  C   -0.003571   0.004623   5.055629   0.383900   0.385297   0.381025
    10  H    0.000255  -0.000039   0.383900   0.551046  -0.027111  -0.026124
    11  H   -0.000440   0.000145   0.385297  -0.027111   0.552508  -0.027665
    12  H    0.009323   0.000083   0.381025  -0.026124  -0.027665   0.549471
    13  C   -0.000066   0.000002  -0.002087   0.001654   0.000524  -0.000178
    14  C    0.000000   0.000000   0.000000   0.000000   0.000000   0.000000
    15  C    0.000002   0.000000  -0.001032   0.001278  -0.000058  -0.000017
    16  C    0.000000   0.000000  -0.000195  -0.000077  -0.000005   0.000005
    17  C    0.000000   0.000000   0.000003  -0.000001   0.000000   0.000000
    18  C    0.000000   0.000000   0.000046  -0.000003   0.000001  -0.000001
    19  H   -0.000003   0.000000  -0.000486   0.000796  -0.000052   0.000167
    20  H    0.000000   0.000000  -0.000011  -0.000002  -0.000002   0.000000
    21  H    0.000000   0.000000   0.000000   0.000000   0.000000   0.000000
    22  H    0.000000   0.000000  -0.000001  -0.000002   0.000000   0.000000
    23  H    0.000000   0.000000   0.000000   0.000000   0.000000   0.000000
    24  C   -0.058245   0.006416   0.005011  -0.000128   0.000025   0.000059
    25  H    0.002815   0.000009  -0.000160   0.000002   0.000000  -0.000008
    26  H    0.003116  -0.000262   0.000061  -0.000002   0.000000  -0.000011
    27  H    0.000204  -0.000136  -0.000017  -0.000001   0.000008   0.000020
             13         14         15         16         17         18
     1  C    0.003554   0.000000   0.000045  -0.000170   0.000002  -0.000002
     2  H    0.000403   0.000000  -0.000016  -0.000005   0.000000   0.000000
     3  C   -0.096937  -0.000025  -0.004878   0.008651  -0.000077  -0.000077
     4  H    0.000524   0.000003   0.000647  -0.000237  -0.000023   0.000138
     5  C    0.311126   0.000202  -0.036990  -0.038114   0.005761   0.004325
     6  O   -0.088879  -0.000015   0.003588   0.000582   0.000959  -0.000073
     7  O   -0.000066   0.000000   0.000002   0.000000   0.000000   0.000000
     8  H    0.000002   0.000000   0.000000   0.000000   0.000000   0.000000
     9  C   -0.002087   0.000000  -0.001032  -0.000195   0.000003   0.000046
    10  H    0.001654   0.000000   0.001278  -0.000077  -0.000001  -0.000003
    11  H    0.000524   0.000000  -0.000058  -0.000005   0.000000   0.000001
    12  H   -0.000178   0.000000  -0.000017   0.000005   0.000000  -0.000001
    13  C    5.024943  -0.031330   0.517926   0.503352  -0.035239  -0.029612
    14  C   -0.031330   4.862773  -0.049290  -0.046114   0.535000   0.544456
    15  C    0.517926  -0.049290   4.948638  -0.068199  -0.036968   0.523166
    16  C    0.503352  -0.046114  -0.068199   4.953113   0.508046  -0.037938
    17  C   -0.035239   0.535000  -0.036968   0.508046   4.905577  -0.041110
    18  C   -0.029612   0.544456   0.523166  -0.037938  -0.041110   4.886447
    19  H   -0.035861   0.004021   0.379560   0.004335   0.000229  -0.036025
    20  H   -0.043222   0.004111   0.004665   0.379449  -0.035591   0.000149
    21  H    0.003156  -0.037408   0.000619  -0.034087   0.381970   0.003917
    22  H    0.002945  -0.036878  -0.032984   0.000648   0.003896   0.380875
    23  H    0.000471   0.381969   0.004181   0.003947  -0.036809  -0.036655
    24  C   -0.000157   0.000000   0.000027   0.000031  -0.000001   0.000000
    25  H    0.000011   0.000000   0.000000   0.000000   0.000000   0.000000
    26  H    0.000073   0.000000  -0.000028   0.000023   0.000002   0.000001
    27  H   -0.000017   0.000000  -0.000019   0.000001   0.000000  -0.000001
             19         20         21         22         23         24
     1  C    0.000019  -0.000012   0.000000   0.000000   0.000000   0.369006
     2  H   -0.000003  -0.000003   0.000000   0.000000   0.000000  -0.043859
     3  C    0.003402   0.000590   0.000002   0.000014   0.000000  -0.063339
     4  H    0.000962  -0.000022   0.000000  -0.000003   0.000000  -0.006487
     5  C   -0.007768  -0.008436  -0.000133  -0.000123   0.000006  -0.001820
     6  O    0.000037   0.013568   0.000004   0.000000   0.000000  -0.002757
     7  O   -0.000003   0.000000   0.000000   0.000000   0.000000  -0.058245
     8  H    0.000000   0.000000   0.000000   0.000000   0.000000   0.006416
     9  C   -0.000486  -0.000011   0.000000  -0.000001   0.000000   0.005011
    10  H    0.000796  -0.000002   0.000000  -0.000002   0.000000  -0.000128
    11  H   -0.000052  -0.000002   0.000000   0.000000   0.000000   0.000025
    12  H    0.000167   0.000000   0.000000   0.000000   0.000000   0.000059
    13  C   -0.035861  -0.043222   0.003156   0.002945   0.000471  -0.000157
    14  C    0.004021   0.004111  -0.037408  -0.036878   0.381969   0.000000
    15  C    0.379560   0.004665   0.000619  -0.032984   0.004181   0.000027
    16  C    0.004335   0.379449  -0.034087   0.000648   0.003947   0.000031
    17  C    0.000229  -0.035591   0.381970   0.003896  -0.036809  -0.000001
    18  C   -0.036025   0.000149   0.003917   0.380875  -0.036655   0.000000
    19  H    0.524635  -0.000111   0.000013  -0.004328  -0.000144  -0.000008
    20  H   -0.000111   0.525461  -0.004205   0.000013  -0.000138  -0.000005
    21  H    0.000013  -0.004205   0.530832  -0.000145  -0.004447   0.000000
    22  H   -0.004328   0.000013  -0.000145   0.531017  -0.004488   0.000000
    23  H   -0.000144  -0.000138  -0.004447  -0.004488   0.531609   0.000000
    24  C   -0.000008  -0.000005   0.000000   0.000000   0.000000   5.075127
    25  H    0.000000   0.000000   0.000000   0.000000   0.000000   0.378446
    26  H   -0.000002   0.000027   0.000000   0.000000   0.000000   0.376449
    27  H   -0.000008   0.000001   0.000000   0.000000   0.000000   0.381296
             25         26         27
     1  C   -0.026935  -0.028872  -0.030379
     2  H   -0.004781  -0.001194   0.005339
     3  C    0.005718  -0.002945  -0.009265
     4  H   -0.000065  -0.000024   0.005423
     5  C   -0.000089   0.004533   0.000055
     6  O    0.000003   0.002663   0.000080
     7  O    0.002815   0.003116   0.000204
     8  H    0.000009  -0.000262  -0.000136
     9  C   -0.000160   0.000061  -0.000017
    10  H    0.000002  -0.000002  -0.000001
    11  H    0.000000   0.000000   0.000008
    12  H   -0.000008  -0.000011   0.000020
    13  C    0.000011   0.000073  -0.000017
    14  C    0.000000   0.000000   0.000000
    15  C    0.000000  -0.000028  -0.000019
    16  C    0.000000   0.000023   0.000001
    17  C    0.000000   0.000002   0.000000
    18  C    0.000000   0.000001  -0.000001
    19  H    0.000000  -0.000002  -0.000008
    20  H    0.000000   0.000027   0.000001
    21  H    0.000000   0.000000   0.000000
    22  H    0.000000   0.000000   0.000000
    23  H    0.000000   0.000000   0.000000
    24  C    0.378446   0.376449   0.381296
    25  H    0.556109  -0.023929  -0.030674
    26  H   -0.023929   0.548979  -0.026488
    27  H   -0.030674  -0.026488   0.563274
 Mulliken atomic charges:
              1
     1  C    0.130079
     2  H    0.135944
     3  C   -0.193685
     4  H    0.152006
     5  C    0.429556
     6  O   -0.520081
     7  O   -0.593943
     8  H    0.347309
     9  C   -0.419619
    10  H    0.150197
    11  H    0.150614
    12  H    0.150855
    13  C   -0.007079
    14  C   -0.131473
    15  C   -0.153863
    16  C   -0.137042
    17  C   -0.155627
    18  C   -0.162022
    19  H    0.166623
    20  H    0.163726
    21  H    0.159914
    22  H    0.159544
    23  H    0.160498
    24  C   -0.415089
    25  H    0.143529
    26  H    0.147828
    27  H    0.141303
 Sum of Mulliken atomic charges =   0.00000
 Mulliken charges with hydrogens summed into heavy atoms:
              1
     1  C    0.266022
     3  C   -0.041680
     5  C    0.429556
     6  O   -0.520081
     7  O   -0.246634
     9  C    0.032047
    13  C   -0.007079
    14  C    0.029025
    15  C    0.012760
    16  C    0.026684
    17  C    0.004287
    18  C   -0.002478
    24  C    0.017571
 Sum of Mulliken charges with hydrogens summed into heavy atoms =   0.00000
 Electronic spatial extent (au):  <R**2>=           2899.8137
 Charge=              0.0000 electrons
 Dipole moment (field-independent basis, Debye):
    X=              1.6844    Y=              2.3570    Z=             -0.2800  Tot=              2.9105
 Quadrupole moment (field-independent basis, Debye-Ang):
   XX=            -66.4035   YY=            -73.4642   ZZ=            -81.4704
   XY=             -1.7317   XZ=             -8.2360   YZ=              2.6898
 Traceless Quadrupole moment (field-independent basis, Debye-Ang):
   XX=              7.3759   YY=              0.3152   ZZ=             -7.6911
   XY=             -1.7317   XZ=             -8.2360   YZ=              2.6898
 Octapole moment (field-independent basis, Debye-Ang**2):
  XXX=             21.4294  YYY=              5.8561  ZZZ=              0.3807  XYY=              2.9030
  XXY=             -0.4295  XXZ=             21.9829  XZZ=             -8.6401  YZZ=              5.1375
  YYZ=             -4.9877  XYZ=            -16.0032
 Hexadecapole moment (field-independent basis, Debye-Ang**3):
 XXXX=          -2493.8191 YYYY=           -573.6426 ZZZZ=           -398.2347 XXXY=            -38.9446
 XXXZ=           -170.2295 YYYX=            -13.6516 YYYZ=            -13.2940 ZZZX=              4.7846
 ZZZY=             -0.8999 XXYY=           -514.3270 XXZZ=           -557.6822 YYZZ=           -171.3686
 XXYZ=             -0.8959 YYXZ=             -3.3520 ZZXY=              2.9269
 N-N= 7.764365493472D+02 E-N=-2.897435865387D+03  KE= 5.726018435437D+02
 1\1\GINC-COMPUTE-8-13\SP\RmPW1PW91\6-31G(d,p)\C11H14O2\FBRUNO.IQUIR\21
 -Dec-2021\0\\# mPW1PW91/6-31g** scrf=(pcm,solvent=chloroform,smd,dovac
 uum) nmr\\comment\\0,1\C,0,0.177229925,1.915644876,1.681428686\H,0,-0.
 82476726,2.244791236,1.982024535\C,0,0.181534557,0.431115742,1.2669065
 63\H,0,1.197929785,0.183756498,0.943018167\C,0,-0.814059605,0.19885833
 8,0.135981917\O,0,-1.909294384,0.761654455,0.125449791\O,0,1.053441422
 ,2.106993339,2.796794835\H,0,0.549239701,1.89071158,3.600489167\C,0,-0
 .192088998,-0.487046201,2.432880687\H,0,-0.267743087,-1.530262621,2.10
 8065448\H,0,-1.161313026,-0.207562912,2.860885882\H,0,0.558172018,-0.4
 42756457,3.228639363\C,0,-0.470746223,-0.736299191,-0.979314578\C,0,0.
 077035512,-2.441798742,-3.136401137\C,0,0.574666422,-1.663985012,-0.89
 8227469\C,0,-1.245274475,-0.680023687,-2.147251716\C,0,-0.970530243,-1
 .527827173,-3.221990609\C,0,0.846852774,-2.51169689,-1.976421852\H,0,1
 .186097332,-1.763009587,-0.006875548\H,0,-2.068592368,0.028041389,-2.2
 26650963\H,0,-1.576068054,-1.474371961,-4.123442855\H,0,1.659265319,-3
 .231795326,-1.909472553\H,0,0.290681021,-3.103347879,-3.97254368\C,0,0
 .682363808,2.827854342,0.56668535\H,0,0.730373633,3.864666969,0.917795
 62\H,0,0.035944928,2.79471566,-0.314814033\H,0,1.699649566,2.552979215
 ,0.266360981\\Version=EM64L-G09RevC.01\State=1-A\HF=-577.9475424\RMSD=
 6.568e-09\Dipole=0.5025776,-1.0237968,-0.1020888\Quadrupole=-6.7120249
 ,-1.2670601,7.9790851,-3.7351538,-1.266624,1.9611881\PG=C01 [X(C11H14O
 2)]\\@


 One man practicing sportsmanship is far better than 50 preaching it.
 -- Knute K. Rockne
 Job cpu time:  0 days  0 hours 20 minutes 47.4 seconds.
 File lengths (MBytes):  RWF=     80 Int=      0 D2E=      0 Chk=      5 Scr=      1
 Normal termination of Gaussian 09 at Tue Dec 21 08:28:55 2021.
