 Entering Gaussian System, Link 0=g09
 Input=/home/fbruno.iquir/2_val_run/2a_010_MPW_A_SMD.gjc
 Output=/home/fbruno.iquir/2_val_run/2a_010_MPW_A_SMD.log
 Initial command:
 /share/apps/Gaussian09/EM64T.SSE4.2-enabled/g09/l1.exe /tmp/Gau-7613.inp -scrdir=/tmp/
 Entering Link 1 = /share/apps/Gaussian09/EM64T.SSE4.2-enabled/g09/l1.exe PID=      7622.
  
 Copyright (c) 1988,1990,1992,1993,1995,1998,2003,2009,2011,
            Gaussian, Inc.  All Rights Reserved.
  
 This is part of the Gaussian(R) 09 program.  It is based on
 the Gaussian(R) 03 system (copyright 2003, Gaussian, Inc.),
 the Gaussian(R) 98 system (copyright 1998, Gaussian, Inc.),
 the Gaussian(R) 94 system (copyright 1995, Gaussian, Inc.),
 the Gaussian 92(TM) system (copyright 1992, Gaussian, Inc.),
 the Gaussian 90(TM) system (copyright 1990, Gaussian, Inc.),
 the Gaussian 88(TM) system (copyright 1988, Gaussian, Inc.),
 the Gaussian 86(TM) system (copyright 1986, Carnegie Mellon
 University), and the Gaussian 82(TM) system (copyright 1983,
 Carnegie Mellon University). Gaussian is a federally registered
 trademark of Gaussian, Inc.
  
 This software contains proprietary and confidential information,
 including trade secrets, belonging to Gaussian, Inc.
  
 This software is provided under written license and may be
 used, copied, transmitted, or stored only in accord with that
 written license.
  
 The following legend is applicable only to US Government
 contracts under FAR:
  
                    RESTRICTED RIGHTS LEGEND
  
 Use, reproduction and disclosure by the US Government is
 subject to restrictions as set forth in subparagraphs (a)
 and (c) of the Commercial Computer Software - Restricted
 Rights clause in FAR 52.227-19.
  
 Gaussian, Inc.
 340 Quinnipiac St., Bldg. 40, Wallingford CT 06492
  
  
 ---------------------------------------------------------------
 Warning -- This program may not be used in any manner that
 competes with the business of Gaussian, Inc. or will provide
 assistance to any competitor of Gaussian, Inc.  The licensee
 of this program is prohibited from giving any competitor of
 Gaussian, Inc. access to this program.  By using this program,
 the user acknowledges that Gaussian, Inc. is engaged in the
 business of creating and licensing software in the field of
 computational chemistry and represents and warrants to the
 licensee that it is not a competitor of Gaussian, Inc. and that
 it will not use this program in any manner prohibited above.
 ---------------------------------------------------------------
  

 Cite this work as:
 Gaussian 09, Revision C.01,
 M. J. Frisch, G. W. Trucks, H. B. Schlegel, G. E. Scuseria, 
 M. A. Robb, J. R. Cheeseman, G. Scalmani, V. Barone, B. Mennucci, 
 G. A. Petersson, H. Nakatsuji, M. Caricato, X. Li, H. P. Hratchian, 
 A. F. Izmaylov, J. Bloino, G. Zheng, J. L. Sonnenberg, M. Hada, 
 M. Ehara, K. Toyota, R. Fukuda, J. Hasegawa, M. Ishida, T. Nakajima, 
 Y. Honda, O. Kitao, H. Nakai, T. Vreven, J. A. Montgomery, Jr., 
 J. E. Peralta, F. Ogliaro, M. Bearpark, J. J. Heyd, E. Brothers, 
 K. N. Kudin, V. N. Staroverov, T. Keith, R. Kobayashi, J. Normand, 
 K. Raghavachari, A. Rendell, J. C. Burant, S. S. Iyengar, J. Tomasi, 
 M. Cossi, N. Rega, J. M. Millam, M. Klene, J. E. Knox, J. B. Cross, 
 V. Bakken, C. Adamo, J. Jaramillo, R. Gomperts, R. E. Stratmann, 
 O. Yazyev, A. J. Austin, R. Cammi, C. Pomelli, J. W. Ochterski, 
 R. L. Martin, K. Morokuma, V. G. Zakrzewski, G. A. Voth, 
 P. Salvador, J. J. Dannenberg, S. Dapprich, A. D. Daniels, 
 O. Farkas, J. B. Foresman, J. V. Ortiz, J. Cioslowski, 
 and D. J. Fox, Gaussian, Inc., Wallingford CT, 2010.
 
 ******************************************
 Gaussian 09:  EM64L-G09RevC.01 23-Sep-2011
                21-Dec-2021 
 ******************************************
 %nprocshared=4
 Will use up to    4 processors via shared memory.
 -----------------------------------------------------------------
 # mPW1PW91/6-31g** scrf=(pcm,solvent=chloroform,smd,dovacuum) nmr
 -----------------------------------------------------------------
 1/38=1/1;
 2/12=2,17=6,18=5,40=1/2;
 3/5=1,6=6,7=101,11=2,16=1,25=1,30=1,70=32101,72=7,74=-7/1,2,8,3;
 4//1;
 5/5=2,38=5,53=7/2;
 8/6=1,10=90,11=11/1;
 10/13=100,45=16/2;
 6/7=2,8=2,9=2,10=2,28=1/1;
 99/9=1/99;
 -------
 comment
 -------
 Charge =  0 Multiplicity = 1
 Symbolic Z-Matrix:
 6                    -0.22577   1.78772   1.39708 
 1                    -0.27219   2.62995   0.69647 
 6                     0.81581   0.76033   0.92209 
 1                     1.81292   1.1634    1.15838 
 6                     0.82747   0.7058   -0.60576 
 8                     1.36164   1.60896  -1.2551 
 8                    -1.52602   1.20041   1.4401 
 1                    -2.15094   1.90159   1.69834 
 6                     0.75831  -0.59356   1.62799 
 1                     1.45008  -1.3063    1.16601 
 1                    -0.23974  -1.0389    1.6141 
 1                     1.04972  -0.48993   2.67862 
 6                     0.22901  -0.4258   -1.36043 
 6                    -0.81585  -2.53081  -2.8754 
 6                    -1.01937  -0.96434  -1.04183 
 6                     0.93989  -0.92608  -2.45934 
 6                     0.4204   -1.98109  -3.21096 
 6                    -1.53683  -2.02065  -1.79589 
 1                    -1.6125   -0.56681  -0.22464 
 1                     1.89953  -0.49189  -2.73282 
 1                     0.97699  -2.3682   -4.06067 
 1                    -2.50845  -2.43956  -1.54519 
 1                    -1.22344  -3.3502   -3.46247 
 6                     0.09585   2.32803   2.78771 
 1                    -0.64138   3.08347   3.08144 
 1                     1.08872   2.78671   2.81815 
 1                     0.0461    1.53774   3.54401 
 
                          Input orientation:                          
 ---------------------------------------------------------------------
 Center     Atomic      Atomic             Coordinates (Angstroms)
 Number     Number       Type             X           Y           Z
 ---------------------------------------------------------------------
      1          6           0       -0.225770    1.787721    1.397082
      2          1           0       -0.272189    2.629955    0.696468
      3          6           0        0.815808    0.760329    0.922090
      4          1           0        1.812917    1.163397    1.158377
      5          6           0        0.827475    0.705801   -0.605757
      6          8           0        1.361638    1.608962   -1.255097
      7          8           0       -1.526022    1.200414    1.440098
      8          1           0       -2.150937    1.901594    1.698343
      9          6           0        0.758315   -0.593555    1.627994
     10          1           0        1.450082   -1.306301    1.166009
     11          1           0       -0.239739   -1.038898    1.614097
     12          1           0        1.049725   -0.489926    2.678619
     13          6           0        0.229011   -0.425797   -1.360432
     14          6           0       -0.815846   -2.530813   -2.875399
     15          6           0       -1.019365   -0.964340   -1.041832
     16          6           0        0.939890   -0.926083   -2.459339
     17          6           0        0.420396   -1.981088   -3.210956
     18          6           0       -1.536825   -2.020646   -1.795887
     19          1           0       -1.612499   -0.566814   -0.224638
     20          1           0        1.899534   -0.491891   -2.732820
     21          1           0        0.976994   -2.368203   -4.060674
     22          1           0       -2.508446   -2.439559   -1.545188
     23          1           0       -1.223438   -3.350205   -3.462465
     24          6           0        0.095854    2.328031    2.787715
     25          1           0       -0.641376    3.083465    3.081437
     26          1           0        1.088718    2.786714    2.818145
     27          1           0        0.046098    1.537736    3.544010
 ---------------------------------------------------------------------
                    Distance matrix (angstroms):
                    1          2          3          4          5
     1  C    0.000000
     2  H    1.096528   0.000000
     3  C    1.538192   2.174889   0.000000
     4  H    2.145461   2.590717   1.101146   0.000000
     5  C    2.508234   2.570489   1.528864   2.071873   0.000000
     6  O    3.096106   2.742339   2.399636   2.495403   1.233966
     7  O    1.427387   2.041732   2.438478   3.351007   3.157390
     8  H    1.951920   2.250324   3.272099   4.068002   3.950916
     9  C    2.586932   3.510085   1.527943   2.102287   2.585102
    10  H    3.526308   4.322129   2.175491   2.496221   2.752336
    11  H    2.834972   3.782007   2.197788   3.044862   3.018389
    12  H    2.908075   3.925562   2.168698   2.372146   3.502326
    13  C    3.565160   3.717480   2.638395   3.373232   1.486004
    14  C    6.103443   6.299788   5.283449   6.068685   4.281058
    15  C    3.761905   4.061885   3.193639   4.170132   2.527914
    16  C    4.857518   4.906491   3.780667   4.268017   2.472135
    17  C    5.987943   6.083531   4.975318   5.560393   3.764592
    18  C    5.139803   5.425792   4.544898   5.485123   3.799979
    19  H    3.177550   3.586670   2.995491   4.079195   2.778178
    20  H    5.173939   5.120773   4.012591   4.229527   2.666117
    21  H    6.964585   7.012306   5.885714   6.356843   4.626912
    22  H    5.633600   5.977109   5.232342   6.242173   4.680191
    23  H    7.142046   7.346013   6.346600   7.137523   5.368260
    24  C    1.526183   2.144744   2.540980   2.638071   3.831781
    25  H    2.165348   2.455615   3.490433   3.661744   4.626684
    26  H    2.178369   2.525501   2.788502   2.431965   4.015165
    27  H    2.178463   3.066389   2.841000   2.992160   4.303862
                    6          7          8          9         10
     6  O    0.000000
     7  O    3.971091   0.000000
     8  H    4.598547   0.974096   0.000000
     9  C    3.677947   2.910640   3.833336   0.000000
    10  H    3.790559   3.900762   4.851939   1.095435   0.000000
    11  H    4.219935   2.588304   3.508029   1.092993   1.768554
    12  H    4.469535   3.320491   4.113945   1.095204   1.764863
    13  C    2.331133   3.683432   4.520731   3.039571   2.940953
    14  C    4.950208   5.748906   6.507520   5.148932   4.792373
    15  C    3.512341   3.332092   4.123420   3.228869   3.330115
    16  C    2.838049   5.080189   5.902143   4.104855   3.680762
    17  C    4.195209   5.961778   6.766697   5.045282   4.546803
    18  C    4.676280   4.565846   5.288738   4.362020   4.266701
    19  H    3.826400   2.429387   3.175029   3.008939   3.443856
    20  H    2.624229   5.657878   6.462995   4.508816   4.008259
    21  H    4.882320   7.018448   7.821854   5.963064   5.354406
    22  H    5.608228   4.809001   5.430830   4.914115   4.929990
    23  H    6.012356   6.695881   7.421293   6.118761   5.722590
    24  C    4.296929   2.391249   2.533110   3.212394   4.203835
    25  H    4.999175   2.649995   2.364010   4.194295   5.226194
    26  H    4.248869   3.354434   3.540164   3.598868   4.428647
    27  H    4.976660   2.647979   2.892376   2.953096   3.964165
                   11         12         13         14         15
    11  H    0.000000
    12  H    1.759913   0.000000
    13  C    3.073019   4.122089   0.000000
    14  C    4.765846   6.204248   2.796059   0.000000
    15  C    2.768995   4.283452   1.396416   2.420171   0.000000
    16  C    4.242303   5.157607   1.401154   2.414720   2.418567
    17  C    4.960306   6.107922   2.424871   1.393947   2.794957
    18  C    3.778129   5.390227   2.418955   1.394786   1.397192
    19  H    2.342708   3.939828   2.168196   3.393889   1.085192
    20  H    4.875593   5.477760   2.162976   3.398651   3.406263
    21  H    5.954034   6.996519   3.409359   2.155364   3.881969
    22  H    4.134001   5.856807   3.403387   2.154689   2.155690
    23  H    5.664035   7.145725   3.883338   1.087281   3.404917
    24  C    3.581370   2.977021   4.980805   7.517341   5.171928
    25  H    4.394118   3.973815   5.727363   8.187457   5.790418
    26  H    4.224907   3.279841   5.340396   8.019970   5.780471
    27  H    3.231920   2.422309   5.286063   7.648847   5.331561
                   16         17         18         19         20
    16  C    0.000000
    17  C    1.395650   0.000000
    18  C    2.787894   2.415512   0.000000
    19  H    3.411400   3.879553   2.142003   0.000000
    20  H    1.088225   2.152713   3.876017   4.316361   0.000000
    21  H    2.155310   1.087051   3.401373   4.966452   2.476858
    22  H    3.875216   3.400454   1.087375   2.460436   4.963282
    23  H    3.400384   2.154049   2.154860   4.287442   4.295963
    24  C    6.231631   7.393097   6.525798   4.513631   6.456123
    25  H    7.019763   8.146856   7.116324   5.019736   7.283198
    26  H    6.454367   7.715482   7.161947   5.272690   6.497684
    27  H    6.550532   7.625732   6.609253   4.624152   6.852241
                   21         22         23         24         25
    21  H    0.000000
    22  H    4.298959   0.000000
    23  H    2.482757   2.481224   0.000000
    24  C    8.350535   6.948836   8.546791   0.000000
    25  H    9.129597   7.442808   9.195301   1.095655   0.000000
    26  H    8.596732   7.700142   9.080414   1.094119   1.774995
    27  H    8.599659   6.945826   8.636804   1.094999   1.753816
                   26         27
    26  H    0.000000
    27  H    1.781539   0.000000
 Stoichiometry    C11H14O2
 Framework group  C1[X(C11H14O2)]
 Deg. of freedom    75
 Full point group                 C1      NOp   1
 Largest Abelian subgroup         C1      NOp   1
 Largest concise Abelian subgroup C1      NOp   1
                         Standard orientation:                         
 ---------------------------------------------------------------------
 Center     Atomic      Atomic             Coordinates (Angstroms)
 Number     Number       Type             X           Y           Z
 ---------------------------------------------------------------------
      1          6           0       -2.446610   -0.085756   -0.482465
      2          1           0       -2.405135    0.479708   -1.421029
      3          6           0       -1.485086    0.528622    0.549062
      4          1           0       -1.957956    1.441957    0.942427
      5          6           0       -0.244038    1.070278   -0.160750
      6          8           0       -0.303514    2.126689   -0.795676
      7          8           0       -2.069973   -1.429850   -0.780776
      8          1           0       -2.677495   -1.753537   -1.469983
      9          6           0       -1.214088   -0.337977    1.777954
     10          1           0       -0.441056    0.110619    2.411329
     11          1           0       -0.891225   -1.350384    1.522170
     12          1           0       -2.119850   -0.433225    2.386227
     13          6           0        1.067816    0.374970   -0.099175
     14          6           0        3.593279   -0.821062   -0.001750
     15          6           0        1.194668   -1.005631   -0.265995
     16          6           0        2.213992    1.158952    0.087597
     17          6           0        3.473492    0.560217    0.142499
     18          6           0        2.456809   -1.602325   -0.210300
     19          1           0        0.329329   -1.631838   -0.457555
     20          1           0        2.126730    2.239003    0.188133
     21          1           0        4.359651    1.172080    0.290910
     22          1           0        2.553233   -2.677748   -0.338952
     23          1           0        4.574276   -1.288315    0.036995
     24          6           0       -3.889169   -0.097818    0.015644
     25          1           0       -4.553397   -0.505523   -0.754446
     26          1           0       -4.233048    0.909801    0.267730
     27          1           0       -4.002559   -0.742133    0.893724
 ---------------------------------------------------------------------
 Rotational constants (GHZ):      1.6273479      0.4832975      0.4275756
 Standard basis: 6-31G(d,p) (6D, 7F)
 There are   265 symmetry adapted basis functions of A   symmetry.
 Integral buffers will be    131072 words long.
 Raffenetti 2 integral format.
 Two-electron integral symmetry is turned on.
   265 basis functions,   462 primitive gaussians,   265 cartesian basis functions
    48 alpha electrons       48 beta electrons
       nuclear repulsion energy       784.9799934876 Hartrees.
 NAtoms=   27 NActive=   27 NUniq=   27 SFac= 1.00D+00 NAtFMM=   60 NAOKFM=F Big=F
 ------------------------------------------------------------------------------
 Polarizable Continuum Model (PCM)
 =================================
 Model                : C-PCM.
 Atomic radii         : SMD-Coulomb.
 Polarization charges : Total charges.
 Charge compensation  : None.
 Solution method      : Matrix inversion.
 Cavity type          : VdW (van der Waals Surface) (Alpha=1.000).
 Cavity algorithm     : GePol (No added spheres)
                        Default sphere list used, NSphG=   27.
                        Lebedev-Laikov grids with approx.  5.0 points / Ang**2.
                        Smoothing algorithm: Karplus/York (Gamma=1.0000).
                        Polarization charges: spherical gaussians, with
                                              point-specific exponents (IZeta= 3).
                        Self-potential: point-specific (ISelfS= 7).
                        Self-field    : sphere-specific E.n sum rule (ISelfD= 2).
 Solvent              : Chloroform, Eps=   4.711300 Eps(inf)=   2.090627
 ------------------------------------------------------------------------------
 ------------------------------------------------------------------------------
 Atomic radii for non-electrostatic terms: SMD-CDS.
 ------------------------------------------------------------------------------
 Nuclear repulsion after PCM non-electrostatic terms =      784.9735671662 Hartrees.
 One-electron integrals computed using PRISM.
 NBasis=   265 RedAO= T  NBF=   265
 NBsUse=   265 1.00D-06 NBFU=   265
 Harris functional with IExCor=  908 diagonalized for initial guess.
 ExpMin= 1.61D-01 ExpMax= 5.48D+03 ExpMxC= 8.25D+02 IAcc=1 IRadAn=         1 AccDes= 0.00D+00
 HarFok:  IExCor=  908 AccDes= 0.00D+00 IRadAn=         1 IDoV= 1
 ScaDFX=  1.000000  1.000000  1.000000  1.000000
 FoFCou: FMM=F IPFlag=           0 FMFlag=      100000 FMFlg1=           0
         NFxFlg=           0 DoJE=T BraDBF=F KetDBF=T FulRan=T
         Omega=  0.000000  0.000000  1.000000  0.000000  0.000000 ICntrl=     500 IOpCl=  0
         NMat0=    1 NMatS0=    1 NMatT0=    0 NMatD0=    1 NMtDS0=    0 NMtDT0=    0
         I1Cent=           4 NGrid=           0.
 Petite list used in FoFCou.
 Initial guess orbital symmetries:
       Occupied  (A) (A) (A) (A) (A) (A) (A) (A) (A) (A) (A) (A)
                 (A) (A) (A) (A) (A) (A) (A) (A) (A) (A) (A) (A)
                 (A) (A) (A) (A) (A) (A) (A) (A) (A) (A) (A) (A)
                 (A) (A) (A) (A) (A) (A) (A) (A) (A) (A) (A) (A)
       Virtual   (A) (A) (A) (A) (A) (A) (A) (A) (A) (A) (A) (A)
                 (A) (A) (A) (A) (A) (A) (A) (A) (A) (A) (A) (A)
                 (A) (A) (A) (A) (A) (A) (A) (A) (A) (A) (A) (A)
                 (A) (A) (A) (A) (A) (A) (A) (A) (A) (A) (A) (A)
                 (A) (A) (A) (A) (A) (A) (A) (A) (A) (A) (A) (A)
                 (A) (A) (A) (A) (A) (A) (A) (A) (A) (A) (A) (A)
                 (A) (A) (A) (A) (A) (A) (A) (A) (A) (A) (A) (A)
                 (A) (A) (A) (A) (A) (A) (A) (A) (A) (A) (A) (A)
                 (A) (A) (A) (A) (A) (A) (A) (A) (A) (A) (A) (A)
                 (A) (A) (A) (A) (A) (A) (A) (A) (A) (A) (A) (A)
                 (A) (A) (A) (A) (A) (A) (A) (A) (A) (A) (A) (A)
                 (A) (A) (A) (A) (A) (A) (A) (A) (A) (A) (A) (A)
                 (A) (A) (A) (A) (A) (A) (A) (A) (A) (A) (A) (A)
                 (A) (A) (A) (A) (A) (A) (A) (A) (A) (A) (A) (A)
                 (A) (A) (A) (A) (A) (A) (A) (A) (A) (A) (A) (A)
                 (A) (A) (A) (A) (A) (A) (A) (A) (A) (A) (A) (A)
                 (A) (A) (A) (A) (A) (A) (A) (A) (A) (A) (A) (A)
                 (A) (A) (A) (A) (A) (A) (A) (A) (A) (A) (A) (A)
                 (A)
 The electronic state of the initial guess is 1-A.
 Requested convergence on RMS density matrix=1.00D-08 within 128 cycles.
 Requested convergence on MAX density matrix=1.00D-06.
 Requested convergence on             energy=1.00D-06.
 No special actions if energy rises.
 Error on total polarization charges =  0.02818
 SCF Done:  E(RmPW1PW91) =  -577.939943631     A.U. after   12 cycles
             Convg  =    0.6929D-08             -V/T =  2.0093
 SMD-CDS (non-electrostatic) energy       (kcal/mol) =      -4.03
 (included in total energy above)
 Range of M.O.s used for correlation:     1   265
 NBasis=   265 NAE=    48 NBE=    48 NFC=     0 NFV=     0
 NROrb=    265 NOA=    48 NOB=    48 NVA=   217 NVB=   217
 NEqPCM:  Using equilibrium solvation (IEInf=0, Eps=   4.7113, EpsInf=   2.0906)
          Differentiating once with respect to magnetic field using GIAOs.
          Electric field/nuclear overlap derivatives assumed to be zero.
 FoFCou: FMM=F IPFlag=           0 FMFlag=    10101102 FMFlg1=           0
         NFxFlg=    40000000 DoJE=F BraDBF=F KetDBF=T FulRan=T
         Omega=  0.000000  0.000000  1.000000  0.000000  0.000000 ICntrl=    6100 IOpCl=  0
         NMat0=    1 NMatS0=    1 NMatT0=    0 NMatD0=    1 NMtDS0=    0 NMtDT0=    0
         I1Cent=           7 NGrid=        2008.
 Symmetry not used in FoFCou.
          There are     3 degrees of freedom in the 1st order CPHF.  IDoFFX=0.
      3 vectors produced by pass  0 Test12= 3.47D-13 3.33D-08 XBig12= 2.83D+01 1.37D+00.
 AX will form     3 AO Fock derivatives at one time.
      3 vectors produced by pass  1 Test12= 3.47D-13 3.33D-08 XBig12= 1.10D-01 1.96D-01.
      3 vectors produced by pass  2 Test12= 3.47D-13 3.33D-08 XBig12= 1.44D-03 1.37D-02.
      3 vectors produced by pass  3 Test12= 3.47D-13 3.33D-08 XBig12= 7.35D-06 5.01D-04.
      3 vectors produced by pass  4 Test12= 3.47D-13 3.33D-08 XBig12= 2.11D-08 2.24D-05.
      3 vectors produced by pass  5 Test12= 3.47D-13 3.33D-08 XBig12= 4.39D-11 2.59D-06.
      3 vectors produced by pass  6 Test12= 3.47D-13 3.33D-08 XBig12= 2.43D-13 1.92D-07.
 Inverted reduced A of dimension    21 with in-core refinement.
 Calculating GIAO nuclear magnetic shielding tensors.
 SCF GIAO Magnetic shielding tensor (ppm):
      1  C    Isotropic =   126.2228   Anisotropy =    41.6216
   XX=   119.5753   YX=    -7.4415   ZX=     0.8670
   XY=    -5.9718   YY=   150.8550   ZY=    11.5399
   XZ=     1.4058   YZ=     7.0805   ZZ=   108.2379
   Eigenvalues:   105.8147   118.8830   153.9705
      2  H    Isotropic =    27.0852   Anisotropy =     5.4001
   XX=    25.5187   YX=    -0.3400   ZX=    -0.0717
   XY=     0.4807   YY=    28.7260   ZY=    -3.3845
   XZ=     1.0429   YZ=    -1.9602   ZZ=    27.0110
   Eigenvalues:    24.7977    25.7727    30.6853
      3  C    Isotropic =   143.8685   Anisotropy =    28.6518
   XX=   159.1150   YX=     8.6736   ZX=    -8.3471
   XY=     8.1051   YY=   138.6627   ZY=    -0.2034
   XZ=    -6.4250   YZ=    13.3112   ZZ=   133.8278
   Eigenvalues:   125.6904   142.9454   162.9697
      4  H    Isotropic =    28.8269   Anisotropy =     6.2315
   XX=    27.4041   YX=    -2.0239   ZX=     0.4822
   XY=    -0.9192   YY=    32.3631   ZY=     0.3282
   XZ=    -1.6993   YZ=     1.7384   ZZ=    26.7136
   Eigenvalues:    26.3529    27.1466    32.9812
      5  C    Isotropic =   -16.9556   Anisotropy =   181.0557
   XX=   -73.4786   YX=    29.1824   ZX=    36.6116
   XY=    37.2813   YY=   -20.5433   ZY=    66.9474
   XZ=    38.4732   YZ=    76.6406   ZZ=    43.1552
   Eigenvalues:   -89.6209   -64.9940   103.7482
      6  O    Isotropic =  -280.5268   Anisotropy =   924.5775
   XX=  -303.3641   YX=    83.9075   ZX=   132.8913
   XY=    90.3014   YY=  -476.9714   ZY=   490.1286
   XZ=   103.8953   YZ=   573.9634   ZZ=   -61.2448
   Eigenvalues:  -840.3689  -337.0698   335.8582
      7  O    Isotropic =   283.1768   Anisotropy =    66.6298
   XX=   292.8928   YX=    11.4867   ZX=    17.8101
   XY=     1.8299   YY=   271.5012   ZY=    29.0864
   XZ=    21.9239   YZ=    45.8523   ZZ=   285.1365
   Eigenvalues:   239.0484   282.8854   327.5967
      8  H    Isotropic =    30.3603   Anisotropy =    18.8838
   XX=    29.3796   YX=     1.8955   ZX=     7.5802
   XY=     3.0876   YY=    29.8270   ZY=     8.1507
   XZ=     8.1298   YZ=     7.1504   ZZ=    31.8745
   Eigenvalues:    21.0089    27.1226    42.9495
      9  C    Isotropic =   184.5223   Anisotropy =     7.1539
   XX=   186.5087   YX=     0.3568   ZX=    -3.0034
   XY=    -4.3675   YY=   183.4195   ZY=    -4.7429
   XZ=    -3.4067   YZ=    -5.7700   ZZ=   183.6386
   Eigenvalues:   176.8616   187.4136   189.2915
     10  H    Isotropic =    30.8561   Anisotropy =     7.6489
   XX=    31.9439   YX=     2.2453   ZX=     3.4923
   XY=     1.8224   YY=    27.0480   ZY=     1.9079
   XZ=     1.0612   YZ=     1.6347   ZZ=    33.5764
   Eigenvalues:    26.1855    30.4274    35.9553
     11  H    Isotropic =    30.0301   Anisotropy =     7.0319
   XX=    28.9305   YX=    -3.0234   ZX=     0.4090
   XY=    -2.9608   YY=    33.1318   ZY=     0.7625
   XZ=    -2.2012   YZ=    -0.6741   ZZ=    28.0279
   Eigenvalues:    26.8528    28.5194    34.7180
     12  H    Isotropic =    30.4278   Anisotropy =    10.1459
   XX=    32.7651   YX=     0.4480   ZX=    -3.5030
   XY=     0.5322   YY=    25.5257   ZY=    -1.2529
   XZ=    -4.7593   YZ=    -1.8278   ZZ=    32.9926
   Eigenvalues:    25.2013    28.8903    37.1918
     13  C    Isotropic =    60.5175   Anisotropy =   160.1047
   XX=    -2.8848   YX=    27.8564   ZX=   -13.6403
   XY=    23.1235   YY=    23.8942   ZY=    -9.7748
   XZ=   -31.2265   YZ=   -29.2716   ZZ=   160.5431
   Eigenvalues:   -18.7886    33.0871   167.2539
     14  C    Isotropic =    68.3548   Anisotropy =   179.2977
   XX=   -15.6777   YX=    32.7958   ZX=   -16.0763
   XY=    33.0816   YY=    36.1385   ZY=   -14.2159
   XZ=   -11.2629   YZ=   -18.5778   ZZ=   184.6036
   Eigenvalues:   -31.8011    48.9790   187.8866
     15  C    Isotropic =    72.0793   Anisotropy =   181.2577
   XX=    10.2862   YX=   -30.7838   ZX=   -25.5541
   XY=   -18.7817   YY=    19.0512   ZY=   -30.5569
   XZ=   -27.8397   YZ=   -14.6668   ZZ=   186.9004
   Eigenvalues:   -16.5158    39.8358   192.9177
     16  C    Isotropic =    69.5275   Anisotropy =   172.2336
   XX=    53.5150   YX=     2.4630   ZX=   -11.9967
   XY=    -2.1047   YY=   -24.7650   ZY=   -25.7773
   XZ=   -21.9328   YZ=   -18.2060   ZZ=   179.8325
   Eigenvalues:   -27.1350    51.3677   184.3499
     17  C    Isotropic =    70.3811   Anisotropy =   174.8225
   XX=     1.8243   YX=   -36.4003   ZX=   -21.4188
   XY=   -36.8115   YY=    27.3467   ZY=   -21.4560
   XZ=   -23.5974   YZ=   -24.2279   ZZ=   181.9724
   Eigenvalues:   -28.9179    53.1318   186.9294
     18  C    Isotropic =    71.4268   Anisotropy =   173.9689
   XX=    54.7817   YX=     9.0855   ZX=   -13.1700
   XY=     9.6295   YY=   -23.9601   ZY=   -25.2346
   XZ=    -9.2960   YZ=   -23.4289   ZZ=   183.4589
   Eigenvalues:   -27.5608    54.4352   187.4061
     19  H    Isotropic =    23.2010   Anisotropy =     9.4341
   XX=    27.7698   YX=    -3.2441   ZX=    -0.7821
   XY=    -3.0633   YY=    23.2303   ZY=     0.6364
   XZ=    -0.5471   YZ=     1.4455   ZZ=    18.6030
   Eigenvalues:    18.3796    21.7330    29.4904
     20  H    Isotropic =    23.7313   Anisotropy =     6.6431
   XX=    27.9306   YX=     0.3077   ZX=     0.4703
   XY=     1.2768   YY=    23.1103   ZY=    -0.2622
   XZ=     1.4075   YZ=    -0.0157   ZZ=    20.1529
   Eigenvalues:    20.0234    23.0104    28.1600
     21  H    Isotropic =    23.7888   Anisotropy =     4.4903
   XX=    25.5909   YX=    -1.2263   ZX=     0.2577
   XY=    -1.2363   YY=    25.5064   ZY=     0.2896
   XZ=    -0.1854   YZ=     0.0859   ZZ=    20.2692
   Eigenvalues:    20.2612    24.3229    26.7823
     22  H    Isotropic =    23.8479   Anisotropy =     5.4133
   XX=    27.4106   YX=    -0.4492   ZX=     0.3685
   XY=    -0.3184   YY=    23.7782   ZY=     0.4008
   XZ=     0.1976   YZ=     1.0918   ZZ=    20.3548
   Eigenvalues:    20.1817    23.9052    27.4567
     23  H    Isotropic =    23.7998   Anisotropy =     4.2844
   XX=    24.8338   YX=     0.9239   ZX=     0.4154
   XY=     1.0407   YY=    25.9700   ZY=     0.6626
   XZ=     0.7983   YZ=     0.5985   ZZ=    20.5957
   Eigenvalues:    20.4652    24.2782    26.6561
     24  C    Isotropic =   170.6711   Anisotropy =    39.5005
   XX=   192.4370   YX=    -7.6873   ZX=   -10.7366
   XY=    -0.3984   YY=   167.3834   ZY=     9.5528
   XZ=   -12.4647   YZ=     9.9004   ZZ=   152.1927
   Eigenvalues:   145.7384   169.2701   197.0048
     25  H    Isotropic =    30.5021   Anisotropy =     9.3207
   XX=    34.3598   YX=     1.7544   ZX=     4.2022
   XY=     1.2969   YY=    27.6589   ZY=     2.0412
   XZ=     2.9428   YZ=     0.9786   ZZ=    29.4875
   Eigenvalues:    26.7557    28.0346    36.7159
     26  H    Isotropic =    30.5646   Anisotropy =    10.0709
   XX=    32.3381   YX=    -4.9993   ZX=    -0.8666
   XY=    -3.6338   YY=    32.8653   ZY=     1.5368
   XZ=    -0.8357   YZ=     2.2027   ZZ=    26.4904
   Eigenvalues:    25.9570    28.4582    37.2785
     27  H    Isotropic =    30.0778   Anisotropy =     5.8911
   XX=    31.5931   YX=     2.1992   ZX=    -1.7816
   XY=     0.9894   YY=    27.7219   ZY=    -2.4801
   XZ=    -0.9864   YZ=    -2.6157   ZZ=    30.9183
   Eigenvalues:    26.2017    30.0264    34.0052
 End of Minotr Frequency-dependent properties file   721 does not exist.
 End of Minotr Frequency-dependent properties file   722 does not exist.

 **********************************************************************

            Population analysis using the SCF density.

 **********************************************************************

 Orbital symmetries:
       Occupied  (A) (A) (A) (A) (A) (A) (A) (A) (A) (A) (A) (A)
                 (A) (A) (A) (A) (A) (A) (A) (A) (A) (A) (A) (A)
                 (A) (A) (A) (A) (A) (A) (A) (A) (A) (A) (A) (A)
                 (A) (A) (A) (A) (A) (A) (A) (A) (A) (A) (A) (A)
       Virtual   (A) (A) (A) (A) (A) (A) (A) (A) (A) (A) (A) (A)
                 (A) (A) (A) (A) (A) (A) (A) (A) (A) (A) (A) (A)
                 (A) (A) (A) (A) (A) (A) (A) (A) (A) (A) (A) (A)
                 (A) (A) (A) (A) (A) (A) (A) (A) (A) (A) (A) (A)
                 (A) (A) (A) (A) (A) (A) (A) (A) (A) (A) (A) (A)
                 (A) (A) (A) (A) (A) (A) (A) (A) (A) (A) (A) (A)
                 (A) (A) (A) (A) (A) (A) (A) (A) (A) (A) (A) (A)
                 (A) (A) (A) (A) (A) (A) (A) (A) (A) (A) (A) (A)
                 (A) (A) (A) (A) (A) (A) (A) (A) (A) (A) (A) (A)
                 (A) (A) (A) (A) (A) (A) (A) (A) (A) (A) (A) (A)
                 (A) (A) (A) (A) (A) (A) (A) (A) (A) (A) (A) (A)
                 (A) (A) (A) (A) (A) (A) (A) (A) (A) (A) (A) (A)
                 (A) (A) (A) (A) (A) (A) (A) (A) (A) (A) (A) (A)
                 (A) (A) (A) (A) (A) (A) (A) (A) (A) (A) (A) (A)
                 (A) (A) (A) (A) (A) (A) (A) (A) (A) (A) (A) (A)
                 (A) (A) (A) (A) (A) (A) (A) (A) (A) (A) (A) (A)
                 (A) (A) (A) (A) (A) (A) (A) (A) (A) (A) (A) (A)
                 (A) (A) (A) (A) (A) (A) (A) (A) (A) (A) (A) (A)
                 (A)
 The electronic state is 1-A.
 Alpha  occ. eigenvalues --  -19.23329 -19.22692 -10.33464 -10.29749 -10.25917
 Alpha  occ. eigenvalues --  -10.25544 -10.25536 -10.25394 -10.25360 -10.25194
 Alpha  occ. eigenvalues --  -10.25183 -10.23066 -10.22826  -1.05999  -1.04295
 Alpha  occ. eigenvalues --   -0.88304  -0.82373  -0.78090  -0.76852  -0.74343
 Alpha  occ. eigenvalues --   -0.67840  -0.64838  -0.62300  -0.60378  -0.56222
 Alpha  occ. eigenvalues --   -0.52333  -0.51301  -0.48601  -0.46908  -0.46346
 Alpha  occ. eigenvalues --   -0.44926  -0.44411  -0.42957  -0.42705  -0.41216
 Alpha  occ. eigenvalues --   -0.40003  -0.38971  -0.37962  -0.37116  -0.37088
 Alpha  occ. eigenvalues --   -0.35945  -0.34687  -0.34252  -0.32768  -0.27821
 Alpha  occ. eigenvalues --   -0.26830  -0.26440  -0.25196
 Alpha virt. eigenvalues --   -0.04027   0.00054   0.03224   0.08639   0.11902
 Alpha virt. eigenvalues --    0.13469   0.15262   0.15618   0.16387   0.17102
 Alpha virt. eigenvalues --    0.17391   0.18390   0.18872   0.19951   0.20498
 Alpha virt. eigenvalues --    0.21028   0.21706   0.23539   0.24084   0.25905
 Alpha virt. eigenvalues --    0.26621   0.27019   0.28615   0.30925   0.31421
 Alpha virt. eigenvalues --    0.32370   0.33854   0.37734   0.41542   0.48427
 Alpha virt. eigenvalues --    0.50959   0.53774   0.54591   0.54982   0.55203
 Alpha virt. eigenvalues --    0.56205   0.57717   0.58650   0.59987   0.60332
 Alpha virt. eigenvalues --    0.61264   0.61582   0.61878   0.62638   0.63407
 Alpha virt. eigenvalues --    0.64669   0.66180   0.68108   0.68961   0.70253
 Alpha virt. eigenvalues --    0.71071   0.73852   0.75086   0.77466   0.79346
 Alpha virt. eigenvalues --    0.80349   0.81678   0.83607   0.84589   0.84958
 Alpha virt. eigenvalues --    0.85520   0.85691   0.86678   0.88806   0.89582
 Alpha virt. eigenvalues --    0.90505   0.90919   0.92777   0.93341   0.95009
 Alpha virt. eigenvalues --    0.95865   0.96706   0.97819   0.98657   1.00270
 Alpha virt. eigenvalues --    1.01927   1.02402   1.04002   1.07509   1.09412
 Alpha virt. eigenvalues --    1.11594   1.12203   1.14714   1.15577   1.18048
 Alpha virt. eigenvalues --    1.20967   1.21093   1.22997   1.26031   1.29332
 Alpha virt. eigenvalues --    1.34024   1.35498   1.36847   1.41008   1.41188
 Alpha virt. eigenvalues --    1.42701   1.43453   1.44785   1.46320   1.47166
 Alpha virt. eigenvalues --    1.49351   1.50909   1.60045   1.61689   1.63745
 Alpha virt. eigenvalues --    1.67763   1.70608   1.74170   1.75738   1.77250
 Alpha virt. eigenvalues --    1.77936   1.79390   1.81216   1.83538   1.85766
 Alpha virt. eigenvalues --    1.86837   1.88690   1.88794   1.91158   1.92954
 Alpha virt. eigenvalues --    1.94564   1.95599   1.97607   1.98359   2.00263
 Alpha virt. eigenvalues --    2.00568   2.02264   2.03492   2.04314   2.06532
 Alpha virt. eigenvalues --    2.07257   2.08350   2.09196   2.10860   2.12047
 Alpha virt. eigenvalues --    2.13732   2.14574   2.16553   2.17798   2.23030
 Alpha virt. eigenvalues --    2.25491   2.27624   2.28695   2.30076   2.31649
 Alpha virt. eigenvalues --    2.34208   2.36947   2.38447   2.39351   2.40047
 Alpha virt. eigenvalues --    2.42777   2.43209   2.44252   2.45415   2.46474
 Alpha virt. eigenvalues --    2.47818   2.48189   2.51056   2.51901   2.52633
 Alpha virt. eigenvalues --    2.55237   2.58193   2.61005   2.62580   2.63562
 Alpha virt. eigenvalues --    2.65714   2.66660   2.68072   2.68780   2.70036
 Alpha virt. eigenvalues --    2.74754   2.75542   2.77330   2.77946   2.79558
 Alpha virt. eigenvalues --    2.80280   2.82587   2.84535   2.88179   2.89488
 Alpha virt. eigenvalues --    2.92276   2.94208   2.97874   2.99738   3.05328
 Alpha virt. eigenvalues --    3.06689   3.07194   3.11527   3.21611   3.23048
 Alpha virt. eigenvalues --    3.25112   3.26372   3.28423   3.36270   3.38777
 Alpha virt. eigenvalues --    3.42219   3.45845   3.48146   3.49565   3.49780
 Alpha virt. eigenvalues --    3.53884   3.54237   3.55531   3.92104   4.02134
 Alpha virt. eigenvalues --    4.15899   4.17290   4.18806   4.21275   4.30865
 Alpha virt. eigenvalues --    4.43996   4.47791   4.52873   4.56610   4.68120
 Alpha virt. eigenvalues --    4.79528   4.87862
          Condensed to atoms (all electrons):
              1          2          3          4          5          6
     1  C    4.781610   0.399419   0.336297  -0.028033  -0.025571  -0.004789
     2  H    0.399419   0.607507  -0.061783   0.001842  -0.005604   0.006778
     3  C    0.336297  -0.061783   5.268591   0.385692   0.320799  -0.077727
     4  H   -0.028033   0.001842   0.385692   0.542561  -0.037668   0.001420
     5  C   -0.025571  -0.005604   0.320799  -0.037668   4.626246   0.523698
     6  O   -0.004789   0.006778  -0.077727   0.001420   0.523698   8.132526
     7  O    0.213573  -0.037580  -0.057399   0.002546   0.002971   0.000061
     8  H   -0.023548  -0.005479   0.007053  -0.000166  -0.000010  -0.000007
     9  C   -0.038776   0.005721   0.304467  -0.041674  -0.034396   0.003095
    10  H    0.004361  -0.000079  -0.033771  -0.001764  -0.004685   0.000102
    11  H   -0.008261   0.000229  -0.029077   0.004653  -0.005311  -0.000045
    12  H   -0.003773  -0.000139  -0.024266  -0.006633   0.003764  -0.000068
    13  C   -0.000250   0.001878  -0.098554   0.005561   0.320715  -0.097412
    14  C   -0.000001   0.000000  -0.000001   0.000000   0.000183  -0.000014
    15  C    0.000746  -0.000262  -0.002613   0.000010  -0.039707   0.001164
    16  C    0.000021  -0.000031   0.006383  -0.000255  -0.037277   0.003377
    17  C    0.000001   0.000000  -0.000078   0.000002   0.005563   0.000673
    18  C    0.000002   0.000000  -0.000276   0.000005   0.004600  -0.000069
    19  H   -0.001320   0.000178   0.000943  -0.000039  -0.004726   0.000070
    20  H    0.000000  -0.000002   0.000593  -0.000031  -0.005790   0.007230
    21  H    0.000000   0.000000   0.000002   0.000000  -0.000135   0.000002
    22  H    0.000000   0.000000   0.000007   0.000000  -0.000127   0.000001
    23  H    0.000000   0.000000   0.000000   0.000000   0.000005   0.000000
    24  C    0.350968  -0.055065  -0.048920  -0.008239   0.003869  -0.000069
    25  H   -0.028768  -0.005640   0.005110   0.000245  -0.000108   0.000000
    26  H   -0.025609   0.001478  -0.003218   0.002436  -0.000154   0.000006
    27  H   -0.028382   0.005190  -0.008841   0.000163   0.000020  -0.000004
              7          8          9         10         11         12
     1  C    0.213573  -0.023548  -0.038776   0.004361  -0.008261  -0.003773
     2  H   -0.037580  -0.005479   0.005721  -0.000079   0.000229  -0.000139
     3  C   -0.057399   0.007053   0.304467  -0.033771  -0.029077  -0.024266
     4  H    0.002546  -0.000166  -0.041674  -0.001764   0.004653  -0.006633
     5  C    0.002971  -0.000010  -0.034396  -0.004685  -0.005311   0.003764
     6  O    0.000061  -0.000007   0.003095   0.000102  -0.000045  -0.000068
     7  O    8.200517   0.292166  -0.000743   0.000156   0.006201  -0.000344
     8  H    0.292166   0.381211  -0.000022   0.000001  -0.000226  -0.000027
     9  C   -0.000743  -0.000022   5.070793   0.388477   0.386879   0.380179
    10  H    0.000156   0.000001   0.388477   0.552236  -0.028626  -0.027379
    11  H    0.006201  -0.000226   0.386879  -0.028626   0.543643  -0.027305
    12  H   -0.000344  -0.000027   0.380179  -0.027379  -0.027305   0.555179
    13  C   -0.001356   0.000005   0.003067   0.002617   0.001304   0.000080
    14  C    0.000000   0.000000  -0.000004   0.000001   0.000003   0.000000
    15  C   -0.006861   0.000267  -0.003216   0.000119   0.001495   0.000209
    16  C   -0.000001   0.000000  -0.000823   0.000183  -0.000004   0.000015
    17  C    0.000000   0.000000  -0.000035   0.000022  -0.000011   0.000000
    18  C    0.000212  -0.000005  -0.000049  -0.000092   0.000200   0.000000
    19  H    0.021237  -0.000667  -0.001997  -0.000071   0.001164   0.000071
    20  H    0.000000   0.000000  -0.000056  -0.000013  -0.000001   0.000001
    21  H    0.000000   0.000000   0.000000   0.000000   0.000000   0.000000
    22  H   -0.000003   0.000000  -0.000002  -0.000002   0.000001   0.000000
    23  H    0.000000   0.000000   0.000000   0.000000   0.000000   0.000000
    24  C   -0.056765  -0.003803  -0.007356  -0.000052  -0.000085   0.002311
    25  H   -0.001544   0.003978  -0.000082   0.000001  -0.000009  -0.000068
    26  H    0.004072  -0.000079   0.000498  -0.000007   0.000025   0.000059
    27  H    0.001157  -0.000550   0.002329  -0.000049   0.000435   0.001291
             13         14         15         16         17         18
     1  C   -0.000250  -0.000001   0.000746   0.000021   0.000001   0.000002
     2  H    0.001878   0.000000  -0.000262  -0.000031   0.000000   0.000000
     3  C   -0.098554  -0.000001  -0.002613   0.006383  -0.000078  -0.000276
     4  H    0.005561   0.000000   0.000010  -0.000255   0.000002   0.000005
     5  C    0.320715   0.000183  -0.039707  -0.037277   0.005563   0.004600
     6  O   -0.097412  -0.000014   0.001164   0.003377   0.000673  -0.000069
     7  O   -0.001356   0.000000  -0.006861  -0.000001   0.000000   0.000212
     8  H    0.000005   0.000000   0.000267   0.000000   0.000000  -0.000005
     9  C    0.003067  -0.000004  -0.003216  -0.000823  -0.000035  -0.000049
    10  H    0.002617   0.000001   0.000119   0.000183   0.000022  -0.000092
    11  H    0.001304   0.000003   0.001495  -0.000004  -0.000011   0.000200
    12  H    0.000080   0.000000   0.000209   0.000015   0.000000   0.000000
    13  C    5.000794  -0.032000   0.533402   0.514591  -0.035655  -0.032997
    14  C   -0.032000   4.867533  -0.049684  -0.046568   0.538726   0.543924
    15  C    0.533402  -0.049684   4.940864  -0.048040  -0.040124   0.518699
    16  C    0.514591  -0.046568  -0.048040   4.920104   0.515174  -0.041490
    17  C   -0.035655   0.538726  -0.040124   0.515174   4.899977  -0.040004
    18  C   -0.032997   0.543924   0.518699  -0.041490  -0.040004   4.892462
    19  H   -0.039978   0.003998   0.365709   0.004617   0.000123  -0.032573
    20  H   -0.045195   0.004111   0.004647   0.381975  -0.035255   0.000193
    21  H    0.003565  -0.037574   0.000603  -0.034222   0.381026   0.003875
    22  H    0.003284  -0.037463  -0.033971   0.000665   0.003868   0.380860
    23  H    0.000418   0.382000   0.004269   0.004096  -0.037291  -0.037147
    24  C   -0.000200   0.000000  -0.000039   0.000002   0.000000   0.000000
    25  H    0.000003   0.000000   0.000001   0.000000   0.000000   0.000000
    26  H   -0.000001   0.000000   0.000000   0.000000   0.000000   0.000000
    27  H    0.000005   0.000000  -0.000004   0.000000   0.000000   0.000000
             19         20         21         22         23         24
     1  C   -0.001320   0.000000   0.000000   0.000000   0.000000   0.350968
     2  H    0.000178  -0.000002   0.000000   0.000000   0.000000  -0.055065
     3  C    0.000943   0.000593   0.000002   0.000007   0.000000  -0.048920
     4  H   -0.000039  -0.000031   0.000000   0.000000   0.000000  -0.008239
     5  C   -0.004726  -0.005790  -0.000135  -0.000127   0.000005   0.003869
     6  O    0.000070   0.007230   0.000002   0.000001   0.000000  -0.000069
     7  O    0.021237   0.000000   0.000000  -0.000003   0.000000  -0.056765
     8  H   -0.000667   0.000000   0.000000   0.000000   0.000000  -0.003803
     9  C   -0.001997  -0.000056   0.000000  -0.000002   0.000000  -0.007356
    10  H   -0.000071  -0.000013   0.000000  -0.000002   0.000000  -0.000052
    11  H    0.001164  -0.000001   0.000000   0.000001   0.000000  -0.000085
    12  H    0.000071   0.000001   0.000000   0.000000   0.000000   0.002311
    13  C   -0.039978  -0.045195   0.003565   0.003284   0.000418  -0.000200
    14  C    0.003998   0.004111  -0.037574  -0.037463   0.382000   0.000000
    15  C    0.365709   0.004647   0.000603  -0.033971   0.004269  -0.000039
    16  C    0.004617   0.381975  -0.034222   0.000665   0.004096   0.000002
    17  C    0.000123  -0.035255   0.381026   0.003868  -0.037291   0.000000
    18  C   -0.032573   0.000193   0.003875   0.380860  -0.037147   0.000000
    19  H    0.519285  -0.000109   0.000012  -0.004226  -0.000135   0.000241
    20  H   -0.000109   0.532118  -0.004409   0.000014  -0.000140   0.000000
    21  H    0.000012  -0.004409   0.534753  -0.000146  -0.004556   0.000000
    22  H   -0.004226   0.000014  -0.000146   0.535055  -0.004568   0.000000
    23  H   -0.000135  -0.000140  -0.004556  -0.004568   0.536600   0.000000
    24  C    0.000241   0.000000   0.000000   0.000000   0.000000   5.123775
    25  H   -0.000004   0.000000   0.000000   0.000000   0.000000   0.381972
    26  H   -0.000007   0.000000   0.000000   0.000000   0.000000   0.359793
    27  H    0.000007   0.000000   0.000000   0.000000   0.000000   0.381091
             25         26         27
     1  C   -0.028768  -0.025609  -0.028382
     2  H   -0.005640   0.001478   0.005190
     3  C    0.005110  -0.003218  -0.008841
     4  H    0.000245   0.002436   0.000163
     5  C   -0.000108  -0.000154   0.000020
     6  O    0.000000   0.000006  -0.000004
     7  O   -0.001544   0.004072   0.001157
     8  H    0.003978  -0.000079  -0.000550
     9  C   -0.000082   0.000498   0.002329
    10  H    0.000001  -0.000007  -0.000049
    11  H   -0.000009   0.000025   0.000435
    12  H   -0.000068   0.000059   0.001291
    13  C    0.000003  -0.000001   0.000005
    14  C    0.000000   0.000000   0.000000
    15  C    0.000001   0.000000  -0.000004
    16  C    0.000000   0.000000   0.000000
    17  C    0.000000   0.000000   0.000000
    18  C    0.000000   0.000000   0.000000
    19  H   -0.000004  -0.000007   0.000007
    20  H    0.000000   0.000000   0.000000
    21  H    0.000000   0.000000   0.000000
    22  H    0.000000   0.000000   0.000000
    23  H    0.000000   0.000000   0.000000
    24  C    0.381972   0.359793   0.381091
    25  H    0.562348  -0.024919  -0.031601
    26  H   -0.024919   0.567691  -0.024367
    27  H   -0.031601  -0.024367   0.554285
 Mulliken atomic charges:
              1
     1  C    0.130080
     2  H    0.141443
     3  C   -0.189413
     4  H    0.177368
     5  C    0.388837
     6  O   -0.499999
     7  O   -0.582273
     8  H    0.349908
     9  C   -0.416274
    10  H    0.148314
    11  H    0.152729
    12  H    0.146843
    13  C   -0.007690
    14  C   -0.137170
    15  C   -0.147685
    16  C   -0.142493
    17  C   -0.156702
    18  C   -0.160329
    19  H    0.168196
    20  H    0.160119
    21  H    0.157203
    22  H    0.156753
    23  H    0.156449
    24  C   -0.423428
    25  H    0.139086
    26  H    0.142303
    27  H    0.147824
 Sum of Mulliken atomic charges =   0.00000
 Mulliken charges with hydrogens summed into heavy atoms:
              1
     1  C    0.271523
     3  C   -0.012044
     5  C    0.388837
     6  O   -0.499999
     7  O   -0.232365
     9  C    0.031612
    13  C   -0.007690
    14  C    0.019279
    15  C    0.020511
    16  C    0.017626
    17  C    0.000501
    18  C   -0.003576
    24  C    0.005784
 Sum of Mulliken charges with hydrogens summed into heavy atoms =   0.00000
 Electronic spatial extent (au):  <R**2>=           2737.8792
 Charge=              0.0000 electrons
 Dipole moment (field-independent basis, Debye):
    X=             -1.2877    Y=             -2.3570    Z=              0.8657  Tot=              2.8219
 Quadrupole moment (field-independent basis, Debye-Ang):
   XX=            -58.7680   YY=            -78.6082   ZZ=            -76.7735
   XY=              1.5165   XZ=              3.8862   YZ=              6.9999
 Traceless Quadrupole moment (field-independent basis, Debye-Ang):
   XX=             12.6152   YY=             -7.2250   ZZ=             -5.3903
   XY=              1.5165   XZ=              3.8862   YZ=              6.9999
 Octapole moment (field-independent basis, Debye-Ang**2):
  XXX=             -4.9015  YYY=            -21.9125  ZZZ=             -8.9509  XYY=              6.3016
  XXY=             -8.6454  XXZ=            -11.5235  XZZ=            -24.4161  YZZ=             -6.1405
  YYZ=              2.0814  XYZ=             -6.5883
 Hexadecapole moment (field-independent basis, Debye-Ang**3):
 XXXX=          -2358.2360 YYYY=           -626.6546 ZZZZ=           -315.3245 XXXY=             32.6402
 XXXZ=             69.9436 YYYX=             15.7952 YYYZ=             37.5340 ZZZX=             24.9201
 ZZZY=             12.1090 XXYY=           -489.1538 XXZZ=           -492.3450 YYZZ=           -159.0332
 XXYZ=             34.4763 YYXZ=             13.0567 ZZXY=             23.6048
 N-N= 7.849735671662D+02 E-N=-2.914837397658D+03  KE= 5.726186558704D+02
 1\1\GINC-COMPUTE-8-9\SP\RmPW1PW91\6-31G(d,p)\C11H14O2\FBRUNO.IQUIR\21-
 Dec-2021\0\\# mPW1PW91/6-31g** scrf=(pcm,solvent=chloroform,smd,dovacu
 um) nmr\\comment\\0,1\C,0,-0.225770485,1.78772071,1.397082059\H,0,-0.2
 72189089,2.62995465,0.696467852\C,0,0.815807512,0.760328982,0.92208987
 9\H,0,1.812916589,1.163397474,1.158376873\C,0,0.827474756,0.70580144,-
 0.605756813\O,0,1.361637983,1.608961799,-1.25509721\O,0,-1.526021963,1
 .200414358,1.440097855\H,0,-2.150937465,1.901593671,1.698343403\C,0,0.
 758314578,-0.593555414,1.627993662\H,0,1.450082246,-1.306300932,1.1660
 09197\H,0,-0.239739118,-1.038898056,1.614097381\H,0,1.049724916,-0.489
 925982,2.678619111\C,0,0.229011383,-0.425796816,-1.360431753\C,0,-0.81
 5846104,-2.530813426,-2.875399168\C,0,-1.019365036,-0.964339994,-1.041
 831806\C,0,0.939889627,-0.926083207,-2.459338853\C,0,0.420395681,-1.98
 1088443,-3.21095582\C,0,-1.536825273,-2.020645884,-1.795887244\H,0,-1.
 612498953,-0.566814457,-0.224637626\H,0,1.899534359,-0.491890579,-2.73
 2820472\H,0,0.976993876,-2.368202964,-4.060673798\H,0,-2.508445556,-2.
 439558898,-1.545187543\H,0,-1.223438234,-3.350204514,-3.462465438\C,0,
 0.09585359,2.328030798,2.787714561\H,0,-0.641375928,3.083465045,3.0814
 36582\H,0,1.088718185,2.786714149,2.818145408\H,0,0.046097924,1.537736
 488,3.544009722\\Version=EM64L-G09RevC.01\State=1-A\HF=-577.9399436\RM
 SD=6.929e-09\Dipole=-0.565823,-0.3053829,0.9050795\Quadrupole=-0.36067
 05,-0.3566349,0.7173054,-3.3687862,-0.1055377,9.5602667\PG=C01 [X(C11H
 14O2)]\\@


 IF IT HAPPENS, IT MUST BE POSSIBLE.

 -- THE UNNAMED LAW FROM PAUL DICKSON'S 
    "THE OFFICIAL RULES"
 Job cpu time:  0 days  0 hours 20 minutes 29.1 seconds.
 File lengths (MBytes):  RWF=     80 Int=      0 D2E=      0 Chk=      5 Scr=      1
 Normal termination of Gaussian 09 at Tue Dec 21 07:48:53 2021.
