 Entering Gaussian System, Link 0=g09
 Input=/home/fbruno.iquir/2_val_run/2b_009_MPW_A_SMD.gjc
 Output=/home/fbruno.iquir/2_val_run/2b_009_MPW_A_SMD.log
 Initial command:
 /share/apps/Gaussian09/EM64T.SSE4.2-enabled/g09/l1.exe /tmp/Gau-23075.inp -scrdir=/tmp/
 Entering Link 1 = /share/apps/Gaussian09/EM64T.SSE4.2-enabled/g09/l1.exe PID=     23076.
  
 Copyright (c) 1988,1990,1992,1993,1995,1998,2003,2009,2011,
            Gaussian, Inc.  All Rights Reserved.
  
 This is part of the Gaussian(R) 09 program.  It is based on
 the Gaussian(R) 03 system (copyright 2003, Gaussian, Inc.),
 the Gaussian(R) 98 system (copyright 1998, Gaussian, Inc.),
 the Gaussian(R) 94 system (copyright 1995, Gaussian, Inc.),
 the Gaussian 92(TM) system (copyright 1992, Gaussian, Inc.),
 the Gaussian 90(TM) system (copyright 1990, Gaussian, Inc.),
 the Gaussian 88(TM) system (copyright 1988, Gaussian, Inc.),
 the Gaussian 86(TM) system (copyright 1986, Carnegie Mellon
 University), and the Gaussian 82(TM) system (copyright 1983,
 Carnegie Mellon University). Gaussian is a federally registered
 trademark of Gaussian, Inc.
  
 This software contains proprietary and confidential information,
 including trade secrets, belonging to Gaussian, Inc.
  
 This software is provided under written license and may be
 used, copied, transmitted, or stored only in accord with that
 written license.
  
 The following legend is applicable only to US Government
 contracts under FAR:
  
                    RESTRICTED RIGHTS LEGEND
  
 Use, reproduction and disclosure by the US Government is
 subject to restrictions as set forth in subparagraphs (a)
 and (c) of the Commercial Computer Software - Restricted
 Rights clause in FAR 52.227-19.
  
 Gaussian, Inc.
 340 Quinnipiac St., Bldg. 40, Wallingford CT 06492
  
  
 ---------------------------------------------------------------
 Warning -- This program may not be used in any manner that
 competes with the business of Gaussian, Inc. or will provide
 assistance to any competitor of Gaussian, Inc.  The licensee
 of this program is prohibited from giving any competitor of
 Gaussian, Inc. access to this program.  By using this program,
 the user acknowledges that Gaussian, Inc. is engaged in the
 business of creating and licensing software in the field of
 computational chemistry and represents and warrants to the
 licensee that it is not a competitor of Gaussian, Inc. and that
 it will not use this program in any manner prohibited above.
 ---------------------------------------------------------------
  

 Cite this work as:
 Gaussian 09, Revision C.01,
 M. J. Frisch, G. W. Trucks, H. B. Schlegel, G. E. Scuseria, 
 M. A. Robb, J. R. Cheeseman, G. Scalmani, V. Barone, B. Mennucci, 
 G. A. Petersson, H. Nakatsuji, M. Caricato, X. Li, H. P. Hratchian, 
 A. F. Izmaylov, J. Bloino, G. Zheng, J. L. Sonnenberg, M. Hada, 
 M. Ehara, K. Toyota, R. Fukuda, J. Hasegawa, M. Ishida, T. Nakajima, 
 Y. Honda, O. Kitao, H. Nakai, T. Vreven, J. A. Montgomery, Jr., 
 J. E. Peralta, F. Ogliaro, M. Bearpark, J. J. Heyd, E. Brothers, 
 K. N. Kudin, V. N. Staroverov, T. Keith, R. Kobayashi, J. Normand, 
 K. Raghavachari, A. Rendell, J. C. Burant, S. S. Iyengar, J. Tomasi, 
 M. Cossi, N. Rega, J. M. Millam, M. Klene, J. E. Knox, J. B. Cross, 
 V. Bakken, C. Adamo, J. Jaramillo, R. Gomperts, R. E. Stratmann, 
 O. Yazyev, A. J. Austin, R. Cammi, C. Pomelli, J. W. Ochterski, 
 R. L. Martin, K. Morokuma, V. G. Zakrzewski, G. A. Voth, 
 P. Salvador, J. J. Dannenberg, S. Dapprich, A. D. Daniels, 
 O. Farkas, J. B. Foresman, J. V. Ortiz, J. Cioslowski, 
 and D. J. Fox, Gaussian, Inc., Wallingford CT, 2010.
 
 ******************************************
 Gaussian 09:  EM64L-G09RevC.01 23-Sep-2011
                21-Dec-2021 
 ******************************************
 %nprocshared=4
 Will use up to    4 processors via shared memory.
 -----------------------------------------------------------------
 # mPW1PW91/6-31g** scrf=(pcm,solvent=chloroform,smd,dovacuum) nmr
 -----------------------------------------------------------------
 1/38=1/1;
 2/12=2,17=6,18=5,40=1/2;
 3/5=1,6=6,7=101,11=2,16=1,25=1,30=1,70=32101,72=7,74=-7/1,2,8,3;
 4//1;
 5/5=2,38=5,53=7/2;
 8/6=1,10=90,11=11/1;
 10/13=100,45=16/2;
 6/7=2,8=2,9=2,10=2,28=1/1;
 99/9=1/99;
 -------
 comment
 -------
 Charge =  0 Multiplicity = 1
 Symbolic Z-Matrix:
 6                     0.46378  -0.97187   2.25252 
 1                     1.51928  -1.1105    1.9897 
 6                    -0.2312   -0.15494   1.14162 
 1                     0.08673   0.88305   1.29221 
 6                     0.24203  -0.61468  -0.23506 
 8                     0.48344  -1.79973  -0.46587 
 8                     0.45954  -0.19389   3.45847 
 1                    -0.42416  -0.26111   3.85892 
 6                    -1.75683  -0.20109   1.2071 
 1                    -2.14044  -1.20134   0.97882 
 1                    -2.20229   0.48113   0.47552 
 1                    -2.11894   0.09225   2.19743 
 6                     0.39983   0.37802  -1.34687 
 6                     0.7516    2.13826  -3.50563 
 6                     1.00354  -0.05866  -2.53622 
 6                    -0.03116   1.70722  -1.25483 
 6                     0.14645   2.58237  -2.33152 
 6                     1.17956   0.81738  -3.60939 
 1                     1.34335  -1.0886   -2.63389 
 1                    -0.51624   2.09501  -0.36512 
 1                    -0.19032   3.61369  -2.25395 
 1                     1.65025   0.46601  -4.52433 
 1                     0.88797   2.82121  -4.34065 
 6                    -0.13936  -2.33949   2.56233 
 1                     0.45383  -2.84001   3.33612 
 1                    -0.16794  -2.98792   1.6834 
 1                    -1.15231  -2.25176   2.96918 
 
                          Input orientation:                          
 ---------------------------------------------------------------------
 Center     Atomic      Atomic             Coordinates (Angstroms)
 Number     Number       Type             X           Y           Z
 ---------------------------------------------------------------------
      1          6           0        0.463781   -0.971874    2.252522
      2          1           0        1.519278   -1.110500    1.989702
      3          6           0       -0.231200   -0.154945    1.141622
      4          1           0        0.086734    0.883055    1.292212
      5          6           0        0.242030   -0.614684   -0.235064
      6          8           0        0.483444   -1.799727   -0.465874
      7          8           0        0.459537   -0.193889    3.458473
      8          1           0       -0.424157   -0.261110    3.858918
      9          6           0       -1.756831   -0.201089    1.207099
     10          1           0       -2.140441   -1.201344    0.978821
     11          1           0       -2.202286    0.481125    0.475516
     12          1           0       -2.118945    0.092254    2.197433
     13          6           0        0.399834    0.378016   -1.346869
     14          6           0        0.751602    2.138259   -3.505629
     15          6           0        1.003542   -0.058660   -2.536215
     16          6           0       -0.031155    1.707215   -1.254835
     17          6           0        0.146448    2.582366   -2.331522
     18          6           0        1.179560    0.817382   -3.609394
     19          1           0        1.343349   -1.088599   -2.633890
     20          1           0       -0.516243    2.095012   -0.365120
     21          1           0       -0.190321    3.613687   -2.253950
     22          1           0        1.650250    0.466011   -4.524326
     23          1           0        0.887968    2.821212   -4.340646
     24          6           0       -0.139361   -2.339493    2.562325
     25          1           0        0.453828   -2.840007    3.336116
     26          1           0       -0.167937   -2.987917    1.683396
     27          1           0       -1.152309   -2.251759    2.969177
 ---------------------------------------------------------------------
                    Distance matrix (angstroms):
                    1          2          3          4          5
     1  C    0.000000
     2  H    1.096525   0.000000
     3  C    1.544173   2.167141   0.000000
     4  H    2.122527   2.552046   1.095994   0.000000
     5  C    2.522864   2.612811   1.526621   2.144740   0.000000
     6  O    2.841725   2.752788   2.408333   3.231959   1.231211
     7  O    1.435129   2.029905   2.417940   2.447749   3.723788
     8  H    1.968280   2.827078   2.726206   2.856239   4.162873
     9  C    2.572574   3.488895   1.527733   2.140407   2.499268
    10  H    2.908083   3.797852   2.183268   3.066470   2.737491
    11  H    3.518077   4.321582   2.175652   2.463362   2.771354
    12  H    2.793900   3.837504   2.177022   2.511934   3.462803
    13  C    3.844725   3.821197   2.621992   2.705152   1.498822
    14  C    6.550730   6.429808   5.274621   5.003685   4.305224
    15  C    4.904825   4.675070   3.880766   4.047743   2.486837
    16  C    4.441175   4.568412   3.041491   2.679662   2.550643
    17  C    5.809198   5.847640   4.438267   4.002833   3.824317
    18  C    6.170563   5.931443   5.050527   5.022383   3.783633
    19  H    4.966315   4.626990   4.195879   4.569548   2.681765
    20  H    4.149492   4.468091   2.722834   2.139900   2.816797
    21  H    6.462469   6.576416   5.072885   4.484236   4.705523
    22  H    7.028577   6.703365   6.002367   6.037435   4.642064
    23  H    7.618221   7.478651   6.337610   6.010617   5.392440
    24  C    1.526480   2.142290   2.607505   3.471185   3.308446
    25  H    2.159675   2.437050   3.534774   4.263038   4.213104
    26  H    2.188014   2.542679   2.885006   3.899014   3.079091
    27  H    2.182533   3.065815   2.930022   3.764903   3.858932
                    6          7          8          9         10
     6  O    0.000000
     7  O    4.240258   0.000000
     8  H    4.679199   0.972518   0.000000
     9  C    3.220763   3.159276   2.968463   0.000000
    10  H    3.054501   3.731425   3.482044   1.095344   0.000000
    11  H    3.647142   4.054501   3.893593   1.095016   1.757226
    12  H    4.176748   2.884557   2.399522   1.094504   1.777322
    13  C    2.350683   4.839624   5.309206   3.392539   3.788959
    14  C    4.981943   7.350029   7.834279   5.828772   6.295010
    15  C    2.754656   6.020840   6.555688   4.653208   4.852405
    16  C    3.631241   5.105903   5.493562   3.560997   4.230605
    17  C    4.774614   6.428814   6.836117   4.887937   5.523105
    18  C    4.149164   7.176061   7.714321   5.732215   6.012436
    19  H    2.438326   6.220813   6.779776   5.015175   5.020078
    20  H    4.022252   4.561916   4.837591   3.046803   3.912819
    21  H    5.740751   6.895776   7.241262   5.383802   6.118684
    22  H    4.792290   8.098046   8.666640   6.700930   6.887238
    23  H    6.044052   8.372612   8.857495   6.848849   7.324543
    24  C    3.138347   2.401120   2.466159   3.004267   2.794136
    25  H    3.941850   2.648952   2.773967   4.047668   3.869404
    26  H    2.540759   3.369157   3.497717   3.243125   2.753007
    27  H    3.831396   2.659378   2.298811   2.770490   2.457904
                   11         12         13         14         15
    11  H    0.000000
    12  H    1.767248   0.000000
    13  C    3.178481   4.357520   0.000000
    14  C    5.226955   6.704557   2.807568   0.000000
    15  C    4.431616   5.672753   1.403458   2.414475   0.000000
    16  C    3.034999   4.345701   1.400354   2.421690   2.414715
    17  C    4.220334   5.643057   2.427530   1.393546   2.784157
    18  C    5.313797   6.717529   2.433112   1.392348   1.396476
    19  H    4.970308   6.059997   2.167395   3.394511   1.088937
    20  H    2.480733   3.625792   2.179702   3.387048   3.414924
    21  H    4.616376   5.994571   3.411838   2.151931   3.871836
    22  H    6.311947   7.715476   3.415775   2.154467   2.155481
    23  H    6.182320   7.696441   3.894891   1.087324   3.400439
    24  C    4.070174   3.156786   4.791387   7.593691   5.701188
    25  H    5.125221   4.063732   5.682336   8.466480   6.520916
    26  H    4.199025   3.682136   4.564470   7.351818   5.268589
    27  H    3.845706   2.650353   5.287071   8.051102   6.306086
                   16         17         18         19         20
    16  C    0.000000
    17  C    1.398816   0.000000
    18  C    2.793132   2.411524   0.000000
    19  H    3.406997   3.872981   2.147370   0.000000
    20  H    1.085030   2.131527   3.877293   4.329062   0.000000
    21  H    2.158285   1.087682   3.396045   4.960644   2.445460
    22  H    3.880372   3.398348   1.087249   2.466729   4.964507
    23  H    3.407052   2.154873   2.152926   4.290339   4.278315
    24  C    5.564016   6.946662   7.056595   5.546513   5.326989
    25  H    6.479913   7.849760   7.883102   6.284874   6.244566
    26  H    5.540414   6.873606   6.656552   4.952813   5.491257
    27  H    5.896842   7.290606   7.624621   6.243044   5.515119
                   21         22         23         24         25
    21  H    0.000000
    22  H    4.295366   0.000000
    23  H    2.478916   2.482294   0.000000
    24  C    7.657640   7.829061   8.679821   0.000000
    25  H    8.562355   8.610908   9.548327   1.095965   0.000000
    26  H    7.686636   7.332888   8.435046   1.092605   1.771990
    27  H    7.912643   8.449450   9.128596   1.095121   1.749388
                   26         27
    26  H    0.000000
    27  H    1.778806   0.000000
 Stoichiometry    C11H14O2
 Framework group  C1[X(C11H14O2)]
 Deg. of freedom    75
 Full point group                 C1      NOp   1
 Largest Abelian subgroup         C1      NOp   1
 Largest concise Abelian subgroup C1      NOp   1
                         Standard orientation:                         
 ---------------------------------------------------------------------
 Center     Atomic      Atomic             Coordinates (Angstroms)
 Number     Number       Type             X           Y           Z
 ---------------------------------------------------------------------
      1          6           0       -2.561207    0.073927   -0.658193
      2          1           0       -2.245140    0.667945   -1.523994
      3          6           0       -1.310637   -0.472564    0.064226
      4          1           0       -0.951187   -1.305039   -0.551390
      5          6           0       -0.220364    0.594250    0.125743
      6          8           0       -0.496870    1.783203    0.286419
      7          8           0       -3.298041   -1.035610   -1.192610
      8          1           0       -3.802932   -1.441242   -0.467119
      9          6           0       -1.594503   -1.004761    1.467848
     10          1           0       -1.877215   -0.199982    2.155003
     11          1           0       -0.706664   -1.484169    1.893252
     12          1           0       -2.397955   -1.747866    1.453748
     13          6           0        1.222216    0.203380    0.013267
     14          6           0        3.956712   -0.395574   -0.201728
     15          6           0        2.173223    1.228951   -0.102858
     16          6           0        1.659388   -1.126921    0.026331
     17          6           0        3.022310   -1.422492   -0.082139
     18          6           0        3.533195    0.930766   -0.211060
     19          1           0        1.858745    2.271456   -0.111223
     20          1           0        0.970005   -1.958662    0.127557
     21          1           0        3.355702   -2.457765   -0.071492
     22          1           0        4.258916    1.735235   -0.302002
     23          1           0        5.015372   -0.628934   -0.285731
     24          6           0       -3.512268    0.919312    0.184984
     25          1           0       -4.338898    1.280294   -0.437524
     26          1           0       -3.014862    1.786537    0.625772
     27          1           0       -3.972989    0.331793    0.986139
 ---------------------------------------------------------------------
 Rotational constants (GHZ):      1.8533766      0.4153891      0.3754904
 Standard basis: 6-31G(d,p) (6D, 7F)
 There are   265 symmetry adapted basis functions of A   symmetry.
 Integral buffers will be    131072 words long.
 Raffenetti 2 integral format.
 Two-electron integral symmetry is turned on.
   265 basis functions,   462 primitive gaussians,   265 cartesian basis functions
    48 alpha electrons       48 beta electrons
       nuclear repulsion energy       773.2118960451 Hartrees.
 NAtoms=   27 NActive=   27 NUniq=   27 SFac= 1.00D+00 NAtFMM=   60 NAOKFM=F Big=F
 ------------------------------------------------------------------------------
 Polarizable Continuum Model (PCM)
 =================================
 Model                : C-PCM.
 Atomic radii         : SMD-Coulomb.
 Polarization charges : Total charges.
 Charge compensation  : None.
 Solution method      : Matrix inversion.
 Cavity type          : VdW (van der Waals Surface) (Alpha=1.000).
 Cavity algorithm     : GePol (No added spheres)
                        Default sphere list used, NSphG=   27.
                        Lebedev-Laikov grids with approx.  5.0 points / Ang**2.
                        Smoothing algorithm: Karplus/York (Gamma=1.0000).
                        Polarization charges: spherical gaussians, with
                                              point-specific exponents (IZeta= 3).
                        Self-potential: point-specific (ISelfS= 7).
                        Self-field    : sphere-specific E.n sum rule (ISelfD= 2).
 Solvent              : Chloroform, Eps=   4.711300 Eps(inf)=   2.090627
 ------------------------------------------------------------------------------
 ------------------------------------------------------------------------------
 Atomic radii for non-electrostatic terms: SMD-CDS.
 ------------------------------------------------------------------------------
 Nuclear repulsion after PCM non-electrostatic terms =      773.2053306185 Hartrees.
 One-electron integrals computed using PRISM.
 NBasis=   265 RedAO= T  NBF=   265
 NBsUse=   265 1.00D-06 NBFU=   265
 Harris functional with IExCor=  908 diagonalized for initial guess.
 ExpMin= 1.61D-01 ExpMax= 5.48D+03 ExpMxC= 8.25D+02 IAcc=1 IRadAn=         1 AccDes= 0.00D+00
 HarFok:  IExCor=  908 AccDes= 0.00D+00 IRadAn=         1 IDoV= 1
 ScaDFX=  1.000000  1.000000  1.000000  1.000000
 FoFCou: FMM=F IPFlag=           0 FMFlag=      100000 FMFlg1=           0
         NFxFlg=           0 DoJE=T BraDBF=F KetDBF=T FulRan=T
         Omega=  0.000000  0.000000  1.000000  0.000000  0.000000 ICntrl=     500 IOpCl=  0
         NMat0=    1 NMatS0=    1 NMatT0=    0 NMatD0=    1 NMtDS0=    0 NMtDT0=    0
         I1Cent=           4 NGrid=           0.
 Petite list used in FoFCou.
 Initial guess orbital symmetries:
       Occupied  (A) (A) (A) (A) (A) (A) (A) (A) (A) (A) (A) (A)
                 (A) (A) (A) (A) (A) (A) (A) (A) (A) (A) (A) (A)
                 (A) (A) (A) (A) (A) (A) (A) (A) (A) (A) (A) (A)
                 (A) (A) (A) (A) (A) (A) (A) (A) (A) (A) (A) (A)
       Virtual   (A) (A) (A) (A) (A) (A) (A) (A) (A) (A) (A) (A)
                 (A) (A) (A) (A) (A) (A) (A) (A) (A) (A) (A) (A)
                 (A) (A) (A) (A) (A) (A) (A) (A) (A) (A) (A) (A)
                 (A) (A) (A) (A) (A) (A) (A) (A) (A) (A) (A) (A)
                 (A) (A) (A) (A) (A) (A) (A) (A) (A) (A) (A) (A)
                 (A) (A) (A) (A) (A) (A) (A) (A) (A) (A) (A) (A)
                 (A) (A) (A) (A) (A) (A) (A) (A) (A) (A) (A) (A)
                 (A) (A) (A) (A) (A) (A) (A) (A) (A) (A) (A) (A)
                 (A) (A) (A) (A) (A) (A) (A) (A) (A) (A) (A) (A)
                 (A) (A) (A) (A) (A) (A) (A) (A) (A) (A) (A) (A)
                 (A) (A) (A) (A) (A) (A) (A) (A) (A) (A) (A) (A)
                 (A) (A) (A) (A) (A) (A) (A) (A) (A) (A) (A) (A)
                 (A) (A) (A) (A) (A) (A) (A) (A) (A) (A) (A) (A)
                 (A) (A) (A) (A) (A) (A) (A) (A) (A) (A) (A) (A)
                 (A) (A) (A) (A) (A) (A) (A) (A) (A) (A) (A) (A)
                 (A) (A) (A) (A) (A) (A) (A) (A) (A) (A) (A) (A)
                 (A) (A) (A) (A) (A) (A) (A) (A) (A) (A) (A) (A)
                 (A) (A) (A) (A) (A) (A) (A) (A) (A) (A) (A) (A)
                 (A)
 The electronic state of the initial guess is 1-A.
 Requested convergence on RMS density matrix=1.00D-08 within 128 cycles.
 Requested convergence on MAX density matrix=1.00D-06.
 Requested convergence on             energy=1.00D-06.
 No special actions if energy rises.
 Error on total polarization charges =  0.02760
 SCF Done:  E(RmPW1PW91) =  -577.945434837     A.U. after   12 cycles
             Convg  =    0.6958D-08             -V/T =  2.0094
 SMD-CDS (non-electrostatic) energy       (kcal/mol) =      -4.12
 (included in total energy above)
 Range of M.O.s used for correlation:     1   265
 NBasis=   265 NAE=    48 NBE=    48 NFC=     0 NFV=     0
 NROrb=    265 NOA=    48 NOB=    48 NVA=   217 NVB=   217
 NEqPCM:  Using equilibrium solvation (IEInf=0, Eps=   4.7113, EpsInf=   2.0906)
          Differentiating once with respect to magnetic field using GIAOs.
          Electric field/nuclear overlap derivatives assumed to be zero.
 FoFCou: FMM=F IPFlag=           0 FMFlag=    10101102 FMFlg1=           0
         NFxFlg=    40000000 DoJE=F BraDBF=F KetDBF=T FulRan=T
         Omega=  0.000000  0.000000  1.000000  0.000000  0.000000 ICntrl=    6100 IOpCl=  0
         NMat0=    1 NMatS0=    1 NMatT0=    0 NMatD0=    1 NMtDS0=    0 NMtDT0=    0
         I1Cent=           7 NGrid=        2035.
 Symmetry not used in FoFCou.
          There are     3 degrees of freedom in the 1st order CPHF.  IDoFFX=0.
      3 vectors produced by pass  0 Test12= 3.47D-13 3.33D-08 XBig12= 3.03D+01 1.24D+00.
 AX will form     3 AO Fock derivatives at one time.
      3 vectors produced by pass  1 Test12= 3.47D-13 3.33D-08 XBig12= 1.17D-01 2.15D-01.
      3 vectors produced by pass  2 Test12= 3.47D-13 3.33D-08 XBig12= 9.75D-04 1.02D-02.
      3 vectors produced by pass  3 Test12= 3.47D-13 3.33D-08 XBig12= 3.60D-06 3.74D-04.
      3 vectors produced by pass  4 Test12= 3.47D-13 3.33D-08 XBig12= 1.45D-08 2.18D-05.
      3 vectors produced by pass  5 Test12= 3.47D-13 3.33D-08 XBig12= 2.28D-11 1.49D-06.
      3 vectors produced by pass  6 Test12= 3.47D-13 3.33D-08 XBig12= 9.07D-14 6.92D-08.
 Inverted reduced A of dimension    21 with in-core refinement.
 Calculating GIAO nuclear magnetic shielding tensors.
 SCF GIAO Magnetic shielding tensor (ppm):
      1  C    Isotropic =   127.9546   Anisotropy =    55.4631
   XX=   128.8901   YX=    16.3710   ZX=    16.6214
   XY=    16.6531   YY=   144.4596   ZY=    18.0868
   XZ=    15.9496   YZ=    16.2766   ZZ=   110.5140
   Eigenvalues:    99.6474   119.2863   164.9300
      2  H    Isotropic =    27.6389   Anisotropy =     4.0615
   XX=    27.2998   YX=     1.3196   ZX=    -1.3028
   XY=     1.3229   YY=    27.1109   ZY=    -2.9032
   XZ=     1.2043   YZ=    -1.4807   ZZ=    28.5060
   Eigenvalues:    25.0095    27.5606    30.3465
      3  C    Isotropic =   146.7951   Anisotropy =    38.1383
   XX=   161.3267   YX=     5.9651   ZX=    11.4906
   XY=    10.8802   YY=   136.5865   ZY=     3.3797
   XZ=    19.6180   YZ=     2.2056   ZZ=   142.4721
   Eigenvalues:   132.3887   135.7760   172.2206
      4  H    Isotropic =    27.7861   Anisotropy =     7.9486
   XX=    31.6951   YX=    -2.0055   ZX=    -1.1998
   XY=    -3.6472   YY=    25.6005   ZY=     1.8828
   XZ=    -0.0868   YZ=     2.3385   ZZ=    26.0628
   Eigenvalues:    23.3171    26.9561    33.0852
      5  C    Isotropic =    -7.8170   Anisotropy =   172.7006
   XX=   -84.8786   YX=    10.7231   ZX=    10.4473
   XY=    11.2952   YY=   -41.5542   ZY=   -21.7921
   XZ=    10.0827   YZ=   -26.7691   ZZ=   102.9818
   Eigenvalues:   -88.8533   -41.9144   107.3167
      6  O    Isotropic =  -226.5562   Anisotropy =   928.6799
   XX=  -339.0930   YX=   118.3174   ZX=    51.2566
   XY=    94.6622   YY=  -709.3182   ZY=  -138.0661
   XZ=    53.0775   YZ=  -172.6737   ZZ=   368.7426
   Eigenvalues:  -761.4411  -310.7913   392.5638
      7  O    Isotropic =   273.1038   Anisotropy =    75.2418
   XX=   255.9887   YX=    -1.5417   ZX=   -15.9814
   XY=    11.7986   YY=   302.1228   ZY=    43.0106
   XZ=   -12.6833   YZ=    29.1623   ZZ=   261.2000
   Eigenvalues:   231.1353   264.9111   323.2650
      8  H    Isotropic =    30.3727   Anisotropy =    13.5476
   XX=    31.1794   YX=     7.3638   ZX=    -3.1760
   XY=     6.1372   YY=    29.4760   ZY=    -3.4387
   XZ=    -3.3369   YZ=    -2.8056   ZZ=    30.4627
   Eigenvalues:    23.5172    28.1965    39.4044
      9  C    Isotropic =   182.5168   Anisotropy =    16.4998
   XX=   178.8489   YX=    -2.2996   ZX=    -6.2039
   XY=    -0.0906   YY=   181.5591   ZY=    -5.1440
   XZ=    -8.1132   YZ=    -7.7125   ZZ=   187.1424
   Eigenvalues:   172.4200   181.6137   193.5166
     10  H    Isotropic =    30.5485   Anisotropy =     7.9319
   XX=    28.1411   YX=    -2.5683   ZX=    -0.7544
   XY=    -2.3358   YY=    29.9913   ZY=     2.5803
   XZ=    -2.7197   YZ=     2.5671   ZZ=    33.5132
   Eigenvalues:    26.4453    29.3639    35.8365
     11  H    Isotropic =    30.2814   Anisotropy =     8.7522
   XX=    32.6202   YX=    -3.2806   ZX=     1.8823
   XY=    -3.8392   YY=    28.2480   ZY=    -2.6345
   XZ=     0.5749   YZ=    -4.7066   ZZ=    29.9760
   Eigenvalues:    24.7238    30.0042    36.1162
     12  H    Isotropic =    30.2903   Anisotropy =     8.8938
   XX=    30.9125   YX=     3.6411   ZX=    -0.1357
   XY=     3.7404   YY=    31.8336   ZY=    -2.9056
   XZ=    -1.4983   YZ=    -3.5729   ZZ=    28.1247
   Eigenvalues:    25.8612    28.7902    36.2194
     13  C    Isotropic =    64.5060   Anisotropy =   158.7218
   XX=    -8.2415   YX=    17.5137   ZX=    14.7054
   XY=    12.5678   YY=    34.2638   ZY=     3.0027
   XZ=    19.0388   YZ=    19.9131   ZZ=   167.4958
   Eigenvalues:   -13.9253    37.1228   170.3206
     14  C    Isotropic =    66.0835   Anisotropy =   182.3267
   XX=   -29.7028   YX=    17.0870   ZX=    18.3248
   XY=    19.1115   YY=    41.8784   ZY=     3.3634
   XZ=    16.0181   YZ=     4.5994   ZZ=   186.0749
   Eigenvalues:   -35.1484    45.7642   187.6346
     15  C    Isotropic =    69.4078   Anisotropy =   185.0189
   XX=    43.3008   YX=    19.3546   ZX=    12.1869
   XY=     5.7258   YY=   -25.9937   ZY=     7.6845
   XZ=    18.2238   YZ=     5.6674   ZZ=   190.9162
   Eigenvalues:   -28.2656    43.7352   192.7537
     16  C    Isotropic =    69.8899   Anisotropy =   175.2979
   XX=    18.6962   YX=   -39.1952   ZX=    16.0138
   XY=   -22.0244   YY=     6.1435   ZY=    10.8743
   XZ=    18.1397   YZ=     6.8812   ZZ=   184.8299
   Eigenvalues:   -20.3558    43.2703   186.7552
     17  C    Isotropic =    70.0637   Anisotropy =   173.1784
   XX=    47.0845   YX=    24.7672   ZX=    11.2471
   XY=    24.6779   YY=   -21.2900   ZY=     5.7189
   XZ=    10.1339   YZ=     5.8856   ZZ=   184.3966
   Eigenvalues:   -29.3159    53.9910   185.5160
     18  C    Isotropic =    69.5946   Anisotropy =   174.0443
   XX=    18.5886   YX=   -40.5270   ZX=    15.9225
   XY=   -39.5074   YY=     6.3009   ZY=     9.7858
   XZ=    16.3438   YZ=     8.7390   ZZ=   183.8943
   Eigenvalues:   -29.4855    52.6452   185.6242
     19  H    Isotropic =    23.0875   Anisotropy =     7.4256
   XX=    27.6628   YX=     1.0552   ZX=    -0.8884
   XY=     1.1021   YY=    23.2808   ZY=    -0.0507
   XZ=    -1.3074   YZ=    -0.2010   ZZ=    18.3190
   Eigenvalues:    18.1918    23.0329    28.0379
     20  H    Isotropic =    23.2291   Anisotropy =     9.4558
   XX=    28.0234   YX=    -3.6196   ZX=    -0.8352
   XY=    -2.5455   YY=    22.7613   ZY=     0.3680
   XZ=    -0.9964   YZ=     0.2756   ZZ=    18.9024
   Eigenvalues:    18.8113    21.3429    29.5330
     21  H    Isotropic =    23.7466   Anisotropy =     5.3042
   XX=    27.1507   YX=     0.4428   ZX=    -0.6693
   XY=     0.5337   YY=    23.9293   ZY=    -0.1251
   XZ=    -0.5963   YZ=    -0.2250   ZZ=    20.1598
   Eigenvalues:    20.0985    23.8586    27.2827
     22  H    Isotropic =    23.7094   Anisotropy =     4.8561
   XX=    26.0437   YX=    -1.2466   ZX=    -0.5016
   XY=    -1.3467   YY=    25.0256   ZY=    -0.0154
   XZ=    -0.4149   YZ=    -0.0428   ZZ=    20.0588
   Eigenvalues:    20.0205    24.1608    26.9468
     23  H    Isotropic =    23.6853   Anisotropy =     4.5329
   XX=    24.1355   YX=     0.6133   ZX=    -0.3636
   XY=     0.8482   YY=    26.4750   ZY=    -0.2603
   XZ=    -0.5176   YZ=    -0.2688   ZZ=    20.4454
   Eigenvalues:    20.3882    23.9605    26.7072
     24  C    Isotropic =   174.6782   Anisotropy =    31.4314
   XX=   176.2555   YX=    -8.4606   ZX=   -12.0966
   XY=    -2.0021   YY=   181.1598   ZY=    14.6012
   XZ=    -6.0508   YZ=    16.4677   ZZ=   166.6192
   Eigenvalues:   155.4586   172.9434   195.6325
     25  H    Isotropic =    30.2334   Anisotropy =     9.6764
   XX=    32.9233   YX=    -4.1054   ZX=     3.1262
   XY=    -4.1307   YY=    29.6978   ZY=    -1.2564
   XZ=     2.1531   YZ=    -1.1440   ZZ=    28.0793
   Eigenvalues:    26.5213    27.4947    36.6844
     26  H    Isotropic =    29.8094   Anisotropy =     9.9943
   XX=    28.7004   YX=     0.3217   ZX=     0.4986
   XY=     1.6924   YY=    34.6295   ZY=     3.9272
   XZ=     0.8890   YZ=     4.2971   ZZ=    26.0984
   Eigenvalues:    24.4219    28.5340    36.4723
     27  H    Isotropic =    30.7148   Anisotropy =     5.9485
   XX=    31.9999   YX=    -0.3983   ZX=    -3.1140
   XY=    -1.2031   YY=    28.9134   ZY=    -1.4598
   XZ=    -2.8648   YZ=    -1.9243   ZZ=    31.2311
   Eigenvalues:    26.9354    30.5285    34.6805
 End of Minotr Frequency-dependent properties file   721 does not exist.
 End of Minotr Frequency-dependent properties file   722 does not exist.

 **********************************************************************

            Population analysis using the SCF density.

 **********************************************************************

 Orbital symmetries:
       Occupied  (A) (A) (A) (A) (A) (A) (A) (A) (A) (A) (A) (A)
                 (A) (A) (A) (A) (A) (A) (A) (A) (A) (A) (A) (A)
                 (A) (A) (A) (A) (A) (A) (A) (A) (A) (A) (A) (A)
                 (A) (A) (A) (A) (A) (A) (A) (A) (A) (A) (A) (A)
       Virtual   (A) (A) (A) (A) (A) (A) (A) (A) (A) (A) (A) (A)
                 (A) (A) (A) (A) (A) (A) (A) (A) (A) (A) (A) (A)
                 (A) (A) (A) (A) (A) (A) (A) (A) (A) (A) (A) (A)
                 (A) (A) (A) (A) (A) (A) (A) (A) (A) (A) (A) (A)
                 (A) (A) (A) (A) (A) (A) (A) (A) (A) (A) (A) (A)
                 (A) (A) (A) (A) (A) (A) (A) (A) (A) (A) (A) (A)
                 (A) (A) (A) (A) (A) (A) (A) (A) (A) (A) (A) (A)
                 (A) (A) (A) (A) (A) (A) (A) (A) (A) (A) (A) (A)
                 (A) (A) (A) (A) (A) (A) (A) (A) (A) (A) (A) (A)
                 (A) (A) (A) (A) (A) (A) (A) (A) (A) (A) (A) (A)
                 (A) (A) (A) (A) (A) (A) (A) (A) (A) (A) (A) (A)
                 (A) (A) (A) (A) (A) (A) (A) (A) (A) (A) (A) (A)
                 (A) (A) (A) (A) (A) (A) (A) (A) (A) (A) (A) (A)
                 (A) (A) (A) (A) (A) (A) (A) (A) (A) (A) (A) (A)
                 (A) (A) (A) (A) (A) (A) (A) (A) (A) (A) (A) (A)
                 (A) (A) (A) (A) (A) (A) (A) (A) (A) (A) (A) (A)
                 (A) (A) (A) (A) (A) (A) (A) (A) (A) (A) (A) (A)
                 (A) (A) (A) (A) (A) (A) (A) (A) (A) (A) (A) (A)
                 (A)
 The electronic state is 1-A.
 Alpha  occ. eigenvalues --  -19.22856 -19.22554 -10.33626 -10.29121 -10.26335
 Alpha  occ. eigenvalues --  -10.26154 -10.25857 -10.25741 -10.25594 -10.25479
 Alpha  occ. eigenvalues --  -10.25076 -10.23777 -10.22353  -1.06305  -1.03420
 Alpha  occ. eigenvalues --   -0.88597  -0.82117  -0.78280  -0.77144  -0.74075
 Alpha  occ. eigenvalues --   -0.68278  -0.65060  -0.62695  -0.60061  -0.55893
 Alpha  occ. eigenvalues --   -0.52651  -0.49760  -0.49123  -0.46780  -0.46338
 Alpha  occ. eigenvalues --   -0.45218  -0.44607  -0.43568  -0.42937  -0.41888
 Alpha  occ. eigenvalues --   -0.39280  -0.38957  -0.38193  -0.36756  -0.36580
 Alpha  occ. eigenvalues --   -0.36435  -0.35373  -0.34437  -0.31976  -0.27975
 Alpha  occ. eigenvalues --   -0.26966  -0.26671  -0.25508
 Alpha virt. eigenvalues --   -0.05129  -0.00321   0.04710   0.09723   0.11120
 Alpha virt. eigenvalues --    0.13282   0.15148   0.15450   0.16615   0.17296
 Alpha virt. eigenvalues --    0.17492   0.18501   0.19239   0.19564   0.20156
 Alpha virt. eigenvalues --    0.21324   0.21852   0.22417   0.22656   0.25311
 Alpha virt. eigenvalues --    0.26174   0.27664   0.29060   0.31368   0.31725
 Alpha virt. eigenvalues --    0.33802   0.33905   0.40046   0.40129   0.50256
 Alpha virt. eigenvalues --    0.51234   0.52814   0.53563   0.54927   0.55494
 Alpha virt. eigenvalues --    0.56445   0.58033   0.59324   0.60367   0.60857
 Alpha virt. eigenvalues --    0.61379   0.61777   0.62457   0.62989   0.64029
 Alpha virt. eigenvalues --    0.64272   0.66164   0.67427   0.69519   0.69849
 Alpha virt. eigenvalues --    0.70307   0.75196   0.76009   0.77700   0.79070
 Alpha virt. eigenvalues --    0.81161   0.82703   0.83139   0.84016   0.84645
 Alpha virt. eigenvalues --    0.84844   0.85590   0.86881   0.88084   0.89705
 Alpha virt. eigenvalues --    0.90748   0.91518   0.91922   0.93092   0.94887
 Alpha virt. eigenvalues --    0.95630   0.96842   0.97707   0.98470   1.00543
 Alpha virt. eigenvalues --    1.03845   1.04198   1.05576   1.06340   1.08743
 Alpha virt. eigenvalues --    1.09266   1.11517   1.11827   1.16143   1.18406
 Alpha virt. eigenvalues --    1.20236   1.23261   1.25699   1.28819   1.29712
 Alpha virt. eigenvalues --    1.31099   1.34000   1.38654   1.40813   1.41120
 Alpha virt. eigenvalues --    1.42360   1.42764   1.44727   1.45328   1.48332
 Alpha virt. eigenvalues --    1.52537   1.54795   1.57892   1.60225   1.62354
 Alpha virt. eigenvalues --    1.66547   1.68213   1.72217   1.74177   1.76442
 Alpha virt. eigenvalues --    1.78533   1.80905   1.82439   1.82701   1.84100
 Alpha virt. eigenvalues --    1.87510   1.87788   1.90299   1.92437   1.92719
 Alpha virt. eigenvalues --    1.94403   1.95479   1.97175   1.98203   1.99091
 Alpha virt. eigenvalues --    2.00065   2.00917   2.02226   2.05453   2.06924
 Alpha virt. eigenvalues --    2.07723   2.08822   2.09474   2.09830   2.12837
 Alpha virt. eigenvalues --    2.14757   2.16468   2.16820   2.17326   2.23802
 Alpha virt. eigenvalues --    2.25504   2.26081   2.29705   2.31094   2.31399
 Alpha virt. eigenvalues --    2.33825   2.35546   2.37613   2.39118   2.39630
 Alpha virt. eigenvalues --    2.40238   2.42444   2.42952   2.45028   2.46369
 Alpha virt. eigenvalues --    2.47948   2.49838   2.52057   2.52220   2.54484
 Alpha virt. eigenvalues --    2.57990   2.59207   2.60185   2.61275   2.62006
 Alpha virt. eigenvalues --    2.64961   2.66739   2.68383   2.68855   2.71051
 Alpha virt. eigenvalues --    2.72497   2.74301   2.75981   2.77305   2.80278
 Alpha virt. eigenvalues --    2.80928   2.85399   2.86245   2.88455   2.88797
 Alpha virt. eigenvalues --    2.90757   2.93934   2.95975   2.97188   3.04429
 Alpha virt. eigenvalues --    3.06727   3.08914   3.12743   3.21323   3.23000
 Alpha virt. eigenvalues --    3.25736   3.26216   3.27647   3.37235   3.39330
 Alpha virt. eigenvalues --    3.42602   3.45697   3.47143   3.49880   3.51733
 Alpha virt. eigenvalues --    3.52594   3.54502   3.57955   3.91403   3.99480
 Alpha virt. eigenvalues --    4.09475   4.16057   4.18519   4.21870   4.32955
 Alpha virt. eigenvalues --    4.44699   4.46489   4.54380   4.62409   4.68525
 Alpha virt. eigenvalues --    4.76800   4.87399
          Condensed to atoms (all electrons):
              1          2          3          4          5          6
     1  C    4.771565   0.411245   0.308641  -0.046739  -0.021631   0.003612
     2  H    0.411245   0.579292  -0.063706  -0.002540   0.002301   0.002543
     3  C    0.308641  -0.063706   5.395403   0.380803   0.250123  -0.091255
     4  H   -0.046739  -0.002540   0.380803   0.568576  -0.029875   0.003061
     5  C   -0.021631   0.002301   0.250123  -0.029875   4.643783   0.528393
     6  O    0.003612   0.002543  -0.091255   0.003061   0.528393   8.128148
     7  O    0.231068  -0.038499  -0.055916   0.006081   0.003747   0.000060
     8  H   -0.028406   0.006326  -0.004180  -0.000805   0.000097  -0.000001
     9  C   -0.032583   0.005037   0.327198  -0.040337  -0.031375  -0.002322
    10  H   -0.006772  -0.000001  -0.033750   0.005127  -0.005885   0.002654
    11  H    0.004541  -0.000124  -0.030658  -0.005318  -0.004673  -0.000046
    12  H   -0.003107   0.000113  -0.037430  -0.003416   0.005136  -0.000049
    13  C    0.003630   0.000317  -0.098149  -0.001530   0.317032  -0.088349
    14  C    0.000000   0.000000  -0.000023   0.000000   0.000186  -0.000014
    15  C   -0.000152  -0.000026   0.009100  -0.000235  -0.038070   0.000060
    16  C    0.000110   0.000027  -0.004875   0.001108  -0.038062   0.003752
    17  C   -0.000004   0.000001  -0.000058   0.000194   0.004268  -0.000075
    18  C    0.000001   0.000000  -0.000072  -0.000019   0.005667   0.001015
    19  H   -0.000014  -0.000006   0.000622  -0.000022  -0.008551   0.014842
    20  H    0.000035  -0.000002   0.004010   0.001106  -0.008295   0.000036
    21  H    0.000000   0.000000   0.000013  -0.000002  -0.000122   0.000000
    22  H    0.000000   0.000000   0.000001   0.000000  -0.000132   0.000004
    23  H    0.000000   0.000000   0.000000   0.000000   0.000007   0.000000
    24  C    0.353666  -0.047123  -0.046258   0.005969  -0.002558  -0.006651
    25  H   -0.031128  -0.006277   0.005613  -0.000118  -0.000032   0.000180
    26  H   -0.024553  -0.000523  -0.001430  -0.000110  -0.000376   0.012550
    27  H   -0.028358   0.004950  -0.010392  -0.000057   0.000348   0.000092
              7          8          9         10         11         12
     1  C    0.231068  -0.028406  -0.032583  -0.006772   0.004541  -0.003107
     2  H   -0.038499   0.006326   0.005037  -0.000001  -0.000124   0.000113
     3  C   -0.055916  -0.004180   0.327198  -0.033750  -0.030658  -0.037430
     4  H    0.006081  -0.000805  -0.040337   0.005127  -0.005318  -0.003416
     5  C    0.003747   0.000097  -0.031375  -0.005885  -0.004673   0.005136
     6  O    0.000060  -0.000001  -0.002322   0.002654  -0.000046  -0.000049
     7  O    8.205698   0.291898  -0.002506   0.000047  -0.000037   0.004160
     8  H    0.291898   0.392519   0.002351  -0.000006  -0.000061   0.002222
     9  C   -0.002506   0.002351   5.039823   0.388200   0.386360   0.384988
    10  H    0.000047  -0.000006   0.388200   0.547665  -0.028780  -0.027553
    11  H   -0.000037  -0.000061   0.386360  -0.028780   0.550786  -0.027244
    12  H    0.004160   0.002222   0.384988  -0.027553  -0.027244   0.555313
    13  C   -0.000090   0.000004  -0.001250   0.000437   0.002286  -0.000190
    14  C    0.000000   0.000000   0.000000   0.000000   0.000001   0.000000
    15  C    0.000000   0.000000  -0.000209  -0.000016  -0.000062   0.000006
    16  C    0.000004   0.000000  -0.001822  -0.000043   0.001303   0.000010
    17  C    0.000000   0.000000   0.000035   0.000002  -0.000027  -0.000001
    18  C    0.000000   0.000000   0.000003   0.000000  -0.000004   0.000000
    19  H    0.000000   0.000000  -0.000012  -0.000004  -0.000002   0.000000
    20  H   -0.000019   0.000001  -0.000710  -0.000062   0.001208   0.000121
    21  H    0.000000   0.000000  -0.000001   0.000000  -0.000002   0.000000
    22  H    0.000000   0.000000   0.000000   0.000000   0.000000   0.000000
    23  H    0.000000   0.000000   0.000000   0.000000   0.000000   0.000000
    24  C   -0.050399  -0.007059  -0.011360   0.002895   0.000178  -0.001416
    25  H    0.001832  -0.000580   0.000076  -0.000010  -0.000002  -0.000089
    26  H    0.003617   0.000043  -0.000346   0.000970  -0.000004  -0.000076
    27  H   -0.003925   0.005882   0.003788  -0.000183  -0.000021   0.000932
             13         14         15         16         17         18
     1  C    0.003630   0.000000  -0.000152   0.000110  -0.000004   0.000001
     2  H    0.000317   0.000000  -0.000026   0.000027   0.000001   0.000000
     3  C   -0.098149  -0.000023   0.009100  -0.004875  -0.000058  -0.000072
     4  H   -0.001530   0.000000  -0.000235   0.001108   0.000194  -0.000019
     5  C    0.317032   0.000186  -0.038070  -0.038062   0.004268   0.005667
     6  O   -0.088349  -0.000014   0.000060   0.003752  -0.000075   0.001015
     7  O   -0.000090   0.000000   0.000000   0.000004   0.000000   0.000000
     8  H    0.000004   0.000000   0.000000   0.000000   0.000000   0.000000
     9  C   -0.001250   0.000000  -0.000209  -0.001822   0.000035   0.000003
    10  H    0.000437   0.000000  -0.000016  -0.000043   0.000002   0.000000
    11  H    0.002286   0.000001  -0.000062   0.001303  -0.000027  -0.000004
    12  H   -0.000190   0.000000   0.000006   0.000010  -0.000001   0.000000
    13  C    5.028045  -0.031260   0.497286   0.519371  -0.029258  -0.035535
    14  C   -0.031260   4.862329  -0.045945  -0.049035   0.544560   0.534478
    15  C    0.497286  -0.045945   4.960895  -0.070030  -0.038050   0.507737
    16  C    0.519371  -0.049035  -0.070030   4.953321   0.521860  -0.037053
    17  C   -0.029258   0.544560  -0.038050   0.521860   4.888073  -0.041432
    18  C   -0.035535   0.534478   0.507737  -0.037053  -0.041432   4.906567
    19  H   -0.043665   0.004154   0.379287   0.004644   0.000139  -0.035786
    20  H   -0.035700   0.004058   0.004368   0.378941  -0.036036   0.000227
    21  H    0.002917  -0.036903   0.000654  -0.032813   0.380838   0.003898
    22  H    0.003112  -0.037469  -0.034104   0.000619   0.003922   0.382175
    23  H    0.000487   0.381862   0.003921   0.004167  -0.036591  -0.036791
    24  C   -0.000168   0.000000   0.000007  -0.000006   0.000000   0.000000
    25  H    0.000005   0.000000   0.000000   0.000000   0.000000   0.000000
    26  H    0.000222   0.000000  -0.000006  -0.000003   0.000000   0.000000
    27  H    0.000000   0.000000   0.000000   0.000000   0.000000   0.000000
             19         20         21         22         23         24
     1  C   -0.000014   0.000035   0.000000   0.000000   0.000000   0.353666
     2  H   -0.000006  -0.000002   0.000000   0.000000   0.000000  -0.047123
     3  C    0.000622   0.004010   0.000013   0.000001   0.000000  -0.046258
     4  H   -0.000022   0.001106  -0.000002   0.000000   0.000000   0.005969
     5  C   -0.008551  -0.008295  -0.000122  -0.000132   0.000007  -0.002558
     6  O    0.014842   0.000036   0.000000   0.000004   0.000000  -0.006651
     7  O    0.000000  -0.000019   0.000000   0.000000   0.000000  -0.050399
     8  H    0.000000   0.000001   0.000000   0.000000   0.000000  -0.007059
     9  C   -0.000012  -0.000710  -0.000001   0.000000   0.000000  -0.011360
    10  H   -0.000004  -0.000062   0.000000   0.000000   0.000000   0.002895
    11  H   -0.000002   0.001208  -0.000002   0.000000   0.000000   0.000178
    12  H    0.000000   0.000121   0.000000   0.000000   0.000000  -0.001416
    13  C   -0.043665  -0.035700   0.002917   0.003112   0.000487  -0.000168
    14  C    0.004154   0.004058  -0.036903  -0.037469   0.381862   0.000000
    15  C    0.379287   0.004368   0.000654  -0.034104   0.003921   0.000007
    16  C    0.004644   0.378941  -0.032813   0.000619   0.004167  -0.000006
    17  C    0.000139  -0.036036   0.380838   0.003922  -0.036591   0.000000
    18  C   -0.035786   0.000227   0.003898   0.382175  -0.036791   0.000000
    19  H    0.525039  -0.000111   0.000013  -0.004227  -0.000138   0.000002
    20  H   -0.000111   0.525550  -0.004395   0.000013  -0.000145  -0.000003
    21  H    0.000013  -0.004395   0.531004  -0.000146  -0.004475   0.000000
    22  H   -0.004227   0.000013  -0.000146   0.530783  -0.004434   0.000000
    23  H   -0.000138  -0.000145  -0.004475  -0.004434   0.531548   0.000000
    24  C    0.000002  -0.000003   0.000000   0.000000   0.000000   5.115226
    25  H    0.000000   0.000000   0.000000   0.000000   0.000000   0.380448
    26  H   -0.000004   0.000000   0.000000   0.000000   0.000000   0.358651
    27  H    0.000000   0.000000   0.000000   0.000000   0.000000   0.381200
             25         26         27
     1  C   -0.031128  -0.024553  -0.028358
     2  H   -0.006277  -0.000523   0.004950
     3  C    0.005613  -0.001430  -0.010392
     4  H   -0.000118  -0.000110  -0.000057
     5  C   -0.000032  -0.000376   0.000348
     6  O    0.000180   0.012550   0.000092
     7  O    0.001832   0.003617  -0.003925
     8  H   -0.000580   0.000043   0.005882
     9  C    0.000076  -0.000346   0.003788
    10  H   -0.000010   0.000970  -0.000183
    11  H   -0.000002  -0.000004  -0.000021
    12  H   -0.000089  -0.000076   0.000932
    13  C    0.000005   0.000222   0.000000
    14  C    0.000000   0.000000   0.000000
    15  C    0.000000  -0.000006   0.000000
    16  C    0.000000  -0.000003   0.000000
    17  C    0.000000   0.000000   0.000000
    18  C    0.000000   0.000000   0.000000
    19  H    0.000000  -0.000004   0.000000
    20  H    0.000000   0.000000   0.000000
    21  H    0.000000   0.000000   0.000000
    22  H    0.000000   0.000000   0.000000
    23  H    0.000000   0.000000   0.000000
    24  C    0.380448   0.358651   0.381200
    25  H    0.563032  -0.022562  -0.033357
    26  H   -0.022562   0.546754  -0.024853
    27  H   -0.033357  -0.024853   0.569976
 Mulliken atomic charges:
              1
     1  C    0.135332
     2  H    0.146676
     3  C   -0.203375
     4  H    0.159098
     5  C    0.428550
     6  O   -0.512242
     7  O   -0.596820
     8  H    0.339756
     9  C   -0.413025
    10  H    0.155069
    11  H    0.150402
    12  H    0.147570
    13  C   -0.010006
    14  C   -0.130980
    15  C   -0.136415
    16  C   -0.155494
    17  C   -0.162360
    18  C   -0.155077
    19  H    0.163799
    20  H    0.165804
    21  H    0.159522
    22  H    0.159882
    23  H    0.160583
    24  C   -0.425240
    25  H    0.142972
    26  H    0.152039
    27  H    0.133978
 Sum of Mulliken atomic charges =   0.00000
 Mulliken charges with hydrogens summed into heavy atoms:
              1
     1  C    0.282008
     3  C   -0.044276
     5  C    0.428550
     6  O   -0.512242
     7  O   -0.257064
     9  C    0.040016
    13  C   -0.010006
    14  C    0.029603
    15  C    0.027385
    16  C    0.010310
    17  C   -0.002839
    18  C    0.004806
    24  C    0.003749
 Sum of Mulliken charges with hydrogens summed into heavy atoms =   0.00000
 Electronic spatial extent (au):  <R**2>=           3016.2748
 Charge=              0.0000 electrons
 Dipole moment (field-independent basis, Debye):
    X=              1.5113    Y=             -2.8147    Z=              1.5216  Tot=              3.5386
 Quadrupole moment (field-independent basis, Debye-Ang):
   XX=            -63.6247   YY=            -75.2339   ZZ=            -81.7142
   XY=              1.7227   XZ=             -7.4246   YZ=             -4.4795
 Traceless Quadrupole moment (field-independent basis, Debye-Ang):
   XX=              9.8996   YY=             -1.7096   ZZ=             -8.1900
   XY=              1.7227   XZ=             -7.4246   YZ=             -4.4795
 Octapole moment (field-independent basis, Debye-Ang**2):
  XXX=             18.2664  YYY=            -15.3445  ZZZ=              2.9694  XYY=              6.9533
  XXY=             -6.4958  XXZ=             16.3244  XZZ=             -5.9552  YZZ=              5.6954
  YYZ=             -0.5222  XYZ=              9.0864
 Hexadecapole moment (field-independent basis, Debye-Ang**3):
 XXXX=          -2705.1622 YYYY=           -579.9909 ZZZZ=           -282.9266 XXXY=             44.8211
 XXXZ=            -87.3183 YYYX=             26.1899 YYYZ=             -2.6892 ZZZX=              0.1957
 ZZZY=             -0.9429 XXYY=           -541.5487 XXZZ=           -628.0349 YYZZ=           -154.7501
 XXYZ=            -31.4711 YYXZ=             -5.0035 ZZXY=            -10.2878
 N-N= 7.732053306185D+02 E-N=-2.890911188862D+03  KE= 5.725898626823D+02
 1\1\GINC-COMPUTE-8-9\SP\RmPW1PW91\6-31G(d,p)\C11H14O2\FBRUNO.IQUIR\21-
 Dec-2021\0\\# mPW1PW91/6-31g** scrf=(pcm,solvent=chloroform,smd,dovacu
 um) nmr\\comment\\0,1\C,0,0.46378089,-0.971873603,2.252522185\H,0,1.51
 9278456,-1.110499766,1.989702403\C,0,-0.231199708,-0.154944509,1.14162
 2299\H,0,0.086733956,0.883054941,1.292211993\C,0,0.242030373,-0.614683
 651,-0.235063919\O,0,0.48344418,-1.799726516,-0.465873502\O,0,0.459537
 346,-0.19388856,3.458473204\H,0,-0.424156766,-0.261109795,3.858918355\
 C,0,-1.75683095,-0.201088687,1.207098833\H,0,-2.140441104,-1.201343711
 ,0.978820816\H,0,-2.202285545,0.481125141,0.475515785\H,0,-2.118944947
 ,0.092254399,2.197432984\C,0,0.399833528,0.378016343,-1.346869334\C,0,
 0.751601864,2.13825918,-3.505628829\C,0,1.003541659,-0.058660149,-2.53
 6215404\C,0,-0.031155112,1.707215464,-1.254834973\C,0,0.14644764,2.582
 365869,-2.331521682\C,0,1.1795603,0.81738198,-3.609394428\H,0,1.343348
 731,-1.088598794,-2.633889589\H,0,-0.516243089,2.095011852,-0.36511997
 4\H,0,-0.190321212,3.613686529,-2.253949754\H,0,1.650250462,0.46601127
 3,-4.524326072\H,0,0.887967642,2.821211854,-4.340645582\C,0,-0.1393605
 36,-2.339493073,2.562325203\H,0,0.453828032,-2.840007466,3.336115773\H
 ,0,-0.167936759,-2.987917474,1.683396363\H,0,-1.152309331,-2.251759071
 ,2.969176847\\Version=EM64L-G09RevC.01\State=1-A\HF=-577.9454348\RMSD=
 6.958e-09\Dipole=-0.8704911,1.0474702,-0.2885426\Quadrupole=-1.5167287
 ,-1.203878,2.7206067,-0.5518459,-7.8516209,-4.7017235\PG=C01 [X(C11H14
 O2)]\\@


 "WOULD YOU TELL ME PLEASE, WHICH WAY I OUGHT TO WALK FROM HERE?"
 "THAT DEPENDS A GREAT DEAL ON WHERE YOU WANT TO GO," SAID THE CAT.
 "I DON'T MUCH CARE WHERE -- ", SAID ALICE.
 "THEN IT DOESN'T MATTER WHICH WAY YOU WALK," SAID THE CAT.

                                      -- LEWIS CARROLL
 Job cpu time:  0 days  0 hours 21 minutes 36.9 seconds.
 File lengths (MBytes):  RWF=     81 Int=      0 D2E=      0 Chk=      5 Scr=      1
 Normal termination of Gaussian 09 at Tue Dec 21 10:35:11 2021.
