 Entering Gaussian System, Link 0=g09
 Input=/home/fbruno.iquir/2_val_run/2b_003_MPW_A_SMD.gjc
 Output=/home/fbruno.iquir/2_val_run/2b_003_MPW_A_SMD.log
 Initial command:
 /share/apps/Gaussian09/EM64T.SSE4.2-enabled/g09/l1.exe /tmp/Gau-9078.inp -scrdir=/tmp/
 Entering Link 1 = /share/apps/Gaussian09/EM64T.SSE4.2-enabled/g09/l1.exe PID=      9079.
  
 Copyright (c) 1988,1990,1992,1993,1995,1998,2003,2009,2011,
            Gaussian, Inc.  All Rights Reserved.
  
 This is part of the Gaussian(R) 09 program.  It is based on
 the Gaussian(R) 03 system (copyright 2003, Gaussian, Inc.),
 the Gaussian(R) 98 system (copyright 1998, Gaussian, Inc.),
 the Gaussian(R) 94 system (copyright 1995, Gaussian, Inc.),
 the Gaussian 92(TM) system (copyright 1992, Gaussian, Inc.),
 the Gaussian 90(TM) system (copyright 1990, Gaussian, Inc.),
 the Gaussian 88(TM) system (copyright 1988, Gaussian, Inc.),
 the Gaussian 86(TM) system (copyright 1986, Carnegie Mellon
 University), and the Gaussian 82(TM) system (copyright 1983,
 Carnegie Mellon University). Gaussian is a federally registered
 trademark of Gaussian, Inc.
  
 This software contains proprietary and confidential information,
 including trade secrets, belonging to Gaussian, Inc.
  
 This software is provided under written license and may be
 used, copied, transmitted, or stored only in accord with that
 written license.
  
 The following legend is applicable only to US Government
 contracts under FAR:
  
                    RESTRICTED RIGHTS LEGEND
  
 Use, reproduction and disclosure by the US Government is
 subject to restrictions as set forth in subparagraphs (a)
 and (c) of the Commercial Computer Software - Restricted
 Rights clause in FAR 52.227-19.
  
 Gaussian, Inc.
 340 Quinnipiac St., Bldg. 40, Wallingford CT 06492
  
  
 ---------------------------------------------------------------
 Warning -- This program may not be used in any manner that
 competes with the business of Gaussian, Inc. or will provide
 assistance to any competitor of Gaussian, Inc.  The licensee
 of this program is prohibited from giving any competitor of
 Gaussian, Inc. access to this program.  By using this program,
 the user acknowledges that Gaussian, Inc. is engaged in the
 business of creating and licensing software in the field of
 computational chemistry and represents and warrants to the
 licensee that it is not a competitor of Gaussian, Inc. and that
 it will not use this program in any manner prohibited above.
 ---------------------------------------------------------------
  

 Cite this work as:
 Gaussian 09, Revision C.01,
 M. J. Frisch, G. W. Trucks, H. B. Schlegel, G. E. Scuseria, 
 M. A. Robb, J. R. Cheeseman, G. Scalmani, V. Barone, B. Mennucci, 
 G. A. Petersson, H. Nakatsuji, M. Caricato, X. Li, H. P. Hratchian, 
 A. F. Izmaylov, J. Bloino, G. Zheng, J. L. Sonnenberg, M. Hada, 
 M. Ehara, K. Toyota, R. Fukuda, J. Hasegawa, M. Ishida, T. Nakajima, 
 Y. Honda, O. Kitao, H. Nakai, T. Vreven, J. A. Montgomery, Jr., 
 J. E. Peralta, F. Ogliaro, M. Bearpark, J. J. Heyd, E. Brothers, 
 K. N. Kudin, V. N. Staroverov, T. Keith, R. Kobayashi, J. Normand, 
 K. Raghavachari, A. Rendell, J. C. Burant, S. S. Iyengar, J. Tomasi, 
 M. Cossi, N. Rega, J. M. Millam, M. Klene, J. E. Knox, J. B. Cross, 
 V. Bakken, C. Adamo, J. Jaramillo, R. Gomperts, R. E. Stratmann, 
 O. Yazyev, A. J. Austin, R. Cammi, C. Pomelli, J. W. Ochterski, 
 R. L. Martin, K. Morokuma, V. G. Zakrzewski, G. A. Voth, 
 P. Salvador, J. J. Dannenberg, S. Dapprich, A. D. Daniels, 
 O. Farkas, J. B. Foresman, J. V. Ortiz, J. Cioslowski, 
 and D. J. Fox, Gaussian, Inc., Wallingford CT, 2010.
 
 ******************************************
 Gaussian 09:  EM64L-G09RevC.01 23-Sep-2011
                21-Dec-2021 
 ******************************************
 %nprocshared=4
 Will use up to    4 processors via shared memory.
 -----------------------------------------------------------------
 # mPW1PW91/6-31g** scrf=(pcm,solvent=chloroform,smd,dovacuum) nmr
 -----------------------------------------------------------------
 1/38=1/1;
 2/12=2,17=6,18=5,40=1/2;
 3/5=1,6=6,7=101,11=2,16=1,25=1,30=1,70=32101,72=7,74=-7/1,2,8,3;
 4//1;
 5/5=2,38=5,53=7/2;
 8/6=1,10=90,11=11/1;
 10/13=100,45=16/2;
 6/7=2,8=2,9=2,10=2,28=1/1;
 99/9=1/99;
 -------
 comment
 -------
 Charge =  0 Multiplicity = 1
 Symbolic Z-Matrix:
 6                     0.24706  -1.20066   2.2765 
 1                    -0.05773  -2.23908   2.09768 
 6                    -0.22835  -0.27377   1.13534 
 1                     0.17062   0.72609   1.33969 
 6                     0.35764  -0.7512   -0.19632 
 8                     0.82824  -1.88425  -0.3174 
 8                     1.67665  -1.17327   2.34214 
 1                     1.98797  -1.68378   1.56666 
 6                    -1.75331  -0.23558   1.0328 
 1                    -2.16556  -1.24702   0.94445 
 1                    -2.09146   0.32694   0.15714 
 1                    -2.19841   0.24028   1.9118 
 6                     0.37403   0.16226  -1.3841 
 6                     0.44579   1.77419  -3.67993 
 6                     0.71143  -0.38468  -2.63136 
 6                     0.07996   1.52873  -1.29906 
 6                     0.1149    2.32938  -2.44519 
 6                     0.74536   0.41747  -3.77387 
 1                     0.95046  -1.44311  -2.72122 
 1                    -0.17505   2.00392  -0.35743 
 1                    -0.11349   3.3904   -2.3735 
 1                     1.00784  -0.01831  -4.73479 
 1                     0.4738    2.39993  -4.56878 
 6                    -0.25965  -0.77247   3.64941 
 1                     0.20472  -1.38112   4.43345 
 1                    -1.34432  -0.87939   3.73608 
 1                     0.01085   0.26812   3.85981 
 
                          Input orientation:                          
 ---------------------------------------------------------------------
 Center     Atomic      Atomic             Coordinates (Angstroms)
 Number     Number       Type             X           Y           Z
 ---------------------------------------------------------------------
      1          6           0        0.247055   -1.200659    2.276504
      2          1           0       -0.057726   -2.239080    2.097676
      3          6           0       -0.228349   -0.273768    1.135339
      4          1           0        0.170623    0.726091    1.339686
      5          6           0        0.357644   -0.751202   -0.196317
      6          8           0        0.828239   -1.884246   -0.317399
      7          8           0        1.676654   -1.173275    2.342138
      8          1           0        1.987966   -1.683782    1.566660
      9          6           0       -1.753308   -0.235584    1.032801
     10          1           0       -2.165556   -1.247022    0.944454
     11          1           0       -2.091460    0.326936    0.157140
     12          1           0       -2.198414    0.240279    1.911799
     13          6           0        0.374035    0.162256   -1.384095
     14          6           0        0.445795    1.774192   -3.679926
     15          6           0        0.711429   -0.384677   -2.631361
     16          6           0        0.079960    1.528726   -1.299061
     17          6           0        0.114900    2.329376   -2.445190
     18          6           0        0.745361    0.417472   -3.773867
     19          1           0        0.950456   -1.443106   -2.721222
     20          1           0       -0.175048    2.003924   -0.357434
     21          1           0       -0.113490    3.390397   -2.373505
     22          1           0        1.007836   -0.018312   -4.734795
     23          1           0        0.473800    2.399926   -4.568778
     24          6           0       -0.259651   -0.772472    3.649411
     25          1           0        0.204717   -1.381122    4.433451
     26          1           0       -1.344315   -0.879388    3.736079
     27          1           0        0.010849    0.268119    3.859810
 ---------------------------------------------------------------------
                    Distance matrix (angstroms):
                    1          2          3          4          5
     1  C    0.000000
     2  H    1.096900   0.000000
     3  C    1.545119   2.194916   0.000000
     4  H    2.143790   3.069028   1.095744   0.000000
     5  C    2.515767   2.765632   1.531221   2.139317   0.000000
     6  O    2.744703   2.596811   2.412564   3.161052   1.232846
     7  O    1.431366   2.050312   2.427862   2.623095   2.891658
     8  H    1.941148   2.185221   2.661997   3.026837   2.575994
     9  C    2.545510   2.832482   1.528879   2.172672   2.496540
    10  H    2.756302   2.599432   2.176334   3.083361   2.813136
    11  H    3.506267   3.806073   2.188356   2.583556   2.699153
    12  H    2.861753   3.280902   2.179057   2.485088   3.458413
    13  C    3.908152   4.251537   2.626886   2.788955   1.498497
    14  C    6.660953   7.052700   5.275925   5.135245   4.303594
    15  C    4.996859   5.137529   3.883750   4.158785   2.487758
    16  C    4.501347   5.074755   3.044723   2.759607   2.547788
    17  C    5.896864   6.445016   4.440086   4.110829   3.821821
    18  C    6.282805   6.494400   5.052348   5.154997   3.783515
    19  H    5.052802   4.987162   4.198808   4.669532   2.684269
    20  H    4.169550   4.903510   2.723801   2.152339   2.810772
    21  H    6.544491   7.189268   5.074572   4.578977   4.702654
    22  H    7.150877   7.262912   6.004322   6.176924   4.643022
    23  H    7.737797   8.139073   6.338659   6.148462   5.390873
    24  C    1.524785   2.144666   2.563249   2.786693   3.895014
    25  H    2.164897   2.502161   3.505898   3.743379   4.674927
    26  H    2.183125   2.487657   2.894133   3.258113   4.286822
    27  H    2.172547   3.065268   2.788118   2.566376   4.196600
                    6          7          8          9         10
     6  O    0.000000
     7  O    2.880699   0.000000
     8  H    2.221448   0.979234   0.000000
     9  C    3.347464   3.789230   4.047149   0.000000
    10  H    3.310761   4.089198   4.222516   1.095792   0.000000
    11  H    3.693123   4.606901   4.761455   1.094330   1.761447
    12  H    4.317818   4.147225   4.620271   1.094167   1.774514
    13  C    2.352088   4.167167   3.836612   3.244264   3.722597
    14  C    4.983676   6.816732   6.470127   5.575397   6.109973
    15  C    2.759850   5.127303   4.576090   4.418511   4.669811
    16  C    3.629320   4.807137   4.708826   3.451267   4.216690
    17  C    4.773988   6.134016   5.975680   4.708040   5.429621
    18  C    4.153546   6.387746   5.872015   5.456545   5.788482
    19  H    2.447020   5.122283   4.418176   4.781332   4.815097
    20  H    4.015726   4.561916   4.688277   3.072304   4.028111
    21  H    5.739015   6.802132   6.759312   5.238288   6.060155
    22  H    4.798683   7.201683   6.591114   6.398147   6.620726
    23  H    6.045989   7.872444   7.524159   6.579028   7.117735
    24  C    4.260883   2.370418   3.196892   3.060377   3.342822
    25  H    4.817934   2.565811   3.389700   4.087853   4.220104
    26  H    4.707485   3.340014   4.056788   2.808820   2.933047
    27  H    4.769683   2.675042   3.602422   3.370155   3.941027
                   11         12         13         14         15
    11  H    0.000000
    12  H    1.760050   0.000000
    13  C    2.912248   4.181686   0.000000
    14  C    4.822373   6.372764   2.806123   0.000000
    15  C    4.017252   5.431212   1.403083   2.414699   0.000000
    16  C    2.877479   4.142548   1.400339   2.421282   2.415551
    17  C    3.955996   5.357154   2.426825   1.393662   2.785066
    18  C    4.848563   6.404998   2.431877   1.392571   1.396393
    19  H    4.546566   5.849277   2.167339   3.394820   1.088797
    20  H    2.598020   3.514807   2.178822   3.387798   3.414967
    21  H    4.438617   5.712616   3.411378   2.152128   3.872747
    22  H    5.801366   7.384045   3.414893   2.154463   2.155578
    23  H    5.762997   7.335031   3.893497   1.087375   3.400598
    24  C    4.093920   2.793521   5.158630   7.791170   6.367219
    25  H    5.145555   3.842227   6.021174   8.708675   7.152708
    26  H    3.849968   2.304591   5.500358   8.077321   6.709331
    27  H    4.258278   2.945567   5.257533   7.700977   6.561422
                   16         17         18         19         20
    16  C    0.000000
    17  C    1.398526   0.000000
    18  C    2.793261   2.412103   0.000000
    19  H    3.407651   3.873754   2.147528   0.000000
    20  H    1.085128   2.132771   3.877627   4.328541   0.000000
    21  H    2.158164   1.087688   3.396604   4.961415   2.447578
    22  H    3.880535   3.398715   1.087283   2.467348   4.964871
    23  H    3.406633   2.154858   2.153080   4.290636   4.279397
    24  C    5.467927   6.848789   7.584924   6.519131   4.875483
    25  H    6.429967   7.816109   8.419460   7.193699   5.878379
    26  H    5.760226   7.115726   7.902397   6.876081   5.141743
    27  H    5.311106   6.634201   7.670387   6.864483   4.564288
                   21         22         23         24         25
    21  H    0.000000
    22  H    4.295621   0.000000
    23  H    2.478944   2.482062   0.000000
    24  C    7.323002   8.512942   8.839722   0.000000
    25  H    8.318852   9.303708   9.767745   1.095816   0.000000
    26  H    7.554668   8.833446   9.112085   1.093361   1.771317
    27  H    6.972681   8.656977   8.706320   1.095568   1.756885
                   26         27
    26  H    0.000000
    27  H    1.780043   0.000000
 Stoichiometry    C11H14O2
 Framework group  C1[X(C11H14O2)]
 Deg. of freedom    75
 Full point group                 C1      NOp   1
 Largest Abelian subgroup         C1      NOp   1
 Largest concise Abelian subgroup C1      NOp   1
                         Standard orientation:                         
 ---------------------------------------------------------------------
 Center     Atomic      Atomic             Coordinates (Angstroms)
 Number     Number       Type             X           Y           Z
 ---------------------------------------------------------------------
      1          6           0       -2.735912    0.224272   -0.053208
      2          1           0       -2.955158    0.875279    0.801958
      3          6           0       -1.369085   -0.476738    0.113424
      4          1           0       -1.181973   -1.048421   -0.802448
      5          6           0       -0.262638    0.573281    0.247116
      6          8           0       -0.525147    1.746510    0.520122
      7          8           0       -2.705902    1.044128   -1.226129
      8          1           0       -2.145829    1.814203   -0.997652
      9          6           0       -1.346817   -1.394258    1.336180
     10          1           0       -1.647038   -0.851015    2.239239
     11          1           0       -0.349286   -1.803247    1.523843
     12          1           0       -2.023416   -2.244372    1.206865
     13          6           0        1.170960    0.189127    0.040438
     14          6           0        3.889650   -0.412660   -0.307272
     15          6           0        2.159807    1.121566    0.388836
     16          6           0        1.560057   -1.046436   -0.491481
     17          6           0        2.915793   -1.344306   -0.662144
     18          6           0        3.512638    0.821039    0.217232
     19          1           0        1.881455    2.091395    0.798018
     20          1           0        0.835624   -1.797863   -0.788227
     21          1           0        3.212632   -2.305139   -1.076573
     22          1           0        4.269501    1.551881    0.491478
     23          1           0        4.942817   -0.646774   -0.442972
     24          6           0       -3.893816   -0.751214   -0.233915
     25          1           0       -4.815038   -0.208388   -0.473708
     26          1           0       -4.074507   -1.342276    0.667991
     27          1           0       -3.705212   -1.432393   -1.070989
 ---------------------------------------------------------------------
 Rotational constants (GHZ):      1.8270967      0.4269061      0.3879646
 Standard basis: 6-31G(d,p) (6D, 7F)
 There are   265 symmetry adapted basis functions of A   symmetry.
 Integral buffers will be    131072 words long.
 Raffenetti 2 integral format.
 Two-electron integral symmetry is turned on.
   265 basis functions,   462 primitive gaussians,   265 cartesian basis functions
    48 alpha electrons       48 beta electrons
       nuclear repulsion energy       777.0474531255 Hartrees.
 NAtoms=   27 NActive=   27 NUniq=   27 SFac= 1.00D+00 NAtFMM=   60 NAOKFM=F Big=F
 ------------------------------------------------------------------------------
 Polarizable Continuum Model (PCM)
 =================================
 Model                : C-PCM.
 Atomic radii         : SMD-Coulomb.
 Polarization charges : Total charges.
 Charge compensation  : None.
 Solution method      : Matrix inversion.
 Cavity type          : VdW (van der Waals Surface) (Alpha=1.000).
 Cavity algorithm     : GePol (No added spheres)
                        Default sphere list used, NSphG=   27.
                        Lebedev-Laikov grids with approx.  5.0 points / Ang**2.
                        Smoothing algorithm: Karplus/York (Gamma=1.0000).
                        Polarization charges: spherical gaussians, with
                                              point-specific exponents (IZeta= 3).
                        Self-potential: point-specific (ISelfS= 7).
                        Self-field    : sphere-specific E.n sum rule (ISelfD= 2).
 Solvent              : Chloroform, Eps=   4.711300 Eps(inf)=   2.090627
 ------------------------------------------------------------------------------
 ------------------------------------------------------------------------------
 Atomic radii for non-electrostatic terms: SMD-CDS.
 ------------------------------------------------------------------------------
 Nuclear repulsion after PCM non-electrostatic terms =      777.0409567594 Hartrees.
 One-electron integrals computed using PRISM.
 NBasis=   265 RedAO= T  NBF=   265
 NBsUse=   265 1.00D-06 NBFU=   265
 Harris functional with IExCor=  908 diagonalized for initial guess.
 ExpMin= 1.61D-01 ExpMax= 5.48D+03 ExpMxC= 8.25D+02 IAcc=1 IRadAn=         1 AccDes= 0.00D+00
 HarFok:  IExCor=  908 AccDes= 0.00D+00 IRadAn=         1 IDoV= 1
 ScaDFX=  1.000000  1.000000  1.000000  1.000000
 FoFCou: FMM=F IPFlag=           0 FMFlag=      100000 FMFlg1=           0
         NFxFlg=           0 DoJE=T BraDBF=F KetDBF=T FulRan=T
         Omega=  0.000000  0.000000  1.000000  0.000000  0.000000 ICntrl=     500 IOpCl=  0
         NMat0=    1 NMatS0=    1 NMatT0=    0 NMatD0=    1 NMtDS0=    0 NMtDT0=    0
         I1Cent=           4 NGrid=           0.
 Petite list used in FoFCou.
 Initial guess orbital symmetries:
       Occupied  (A) (A) (A) (A) (A) (A) (A) (A) (A) (A) (A) (A)
                 (A) (A) (A) (A) (A) (A) (A) (A) (A) (A) (A) (A)
                 (A) (A) (A) (A) (A) (A) (A) (A) (A) (A) (A) (A)
                 (A) (A) (A) (A) (A) (A) (A) (A) (A) (A) (A) (A)
       Virtual   (A) (A) (A) (A) (A) (A) (A) (A) (A) (A) (A) (A)
                 (A) (A) (A) (A) (A) (A) (A) (A) (A) (A) (A) (A)
                 (A) (A) (A) (A) (A) (A) (A) (A) (A) (A) (A) (A)
                 (A) (A) (A) (A) (A) (A) (A) (A) (A) (A) (A) (A)
                 (A) (A) (A) (A) (A) (A) (A) (A) (A) (A) (A) (A)
                 (A) (A) (A) (A) (A) (A) (A) (A) (A) (A) (A) (A)
                 (A) (A) (A) (A) (A) (A) (A) (A) (A) (A) (A) (A)
                 (A) (A) (A) (A) (A) (A) (A) (A) (A) (A) (A) (A)
                 (A) (A) (A) (A) (A) (A) (A) (A) (A) (A) (A) (A)
                 (A) (A) (A) (A) (A) (A) (A) (A) (A) (A) (A) (A)
                 (A) (A) (A) (A) (A) (A) (A) (A) (A) (A) (A) (A)
                 (A) (A) (A) (A) (A) (A) (A) (A) (A) (A) (A) (A)
                 (A) (A) (A) (A) (A) (A) (A) (A) (A) (A) (A) (A)
                 (A) (A) (A) (A) (A) (A) (A) (A) (A) (A) (A) (A)
                 (A) (A) (A) (A) (A) (A) (A) (A) (A) (A) (A) (A)
                 (A) (A) (A) (A) (A) (A) (A) (A) (A) (A) (A) (A)
                 (A) (A) (A) (A) (A) (A) (A) (A) (A) (A) (A) (A)
                 (A) (A) (A) (A) (A) (A) (A) (A) (A) (A) (A) (A)
                 (A)
 The electronic state of the initial guess is 1-A.
 Requested convergence on RMS density matrix=1.00D-08 within 128 cycles.
 Requested convergence on MAX density matrix=1.00D-06.
 Requested convergence on             energy=1.00D-06.
 No special actions if energy rises.
 Error on total polarization charges =  0.02868
 SCF Done:  E(RmPW1PW91) =  -577.949798296     A.U. after   12 cycles
             Convg  =    0.6145D-08             -V/T =  2.0094
 SMD-CDS (non-electrostatic) energy       (kcal/mol) =      -4.08
 (included in total energy above)
 Range of M.O.s used for correlation:     1   265
 NBasis=   265 NAE=    48 NBE=    48 NFC=     0 NFV=     0
 NROrb=    265 NOA=    48 NOB=    48 NVA=   217 NVB=   217
 NEqPCM:  Using equilibrium solvation (IEInf=0, Eps=   4.7113, EpsInf=   2.0906)
          Differentiating once with respect to magnetic field using GIAOs.
          Electric field/nuclear overlap derivatives assumed to be zero.
 FoFCou: FMM=F IPFlag=           0 FMFlag=    10101102 FMFlg1=           0
         NFxFlg=    40000000 DoJE=F BraDBF=F KetDBF=T FulRan=T
         Omega=  0.000000  0.000000  1.000000  0.000000  0.000000 ICntrl=    6100 IOpCl=  0
         NMat0=    1 NMatS0=    1 NMatT0=    0 NMatD0=    1 NMtDS0=    0 NMtDT0=    0
         I1Cent=           7 NGrid=        2046.
 Symmetry not used in FoFCou.
          There are     3 degrees of freedom in the 1st order CPHF.  IDoFFX=0.
      3 vectors produced by pass  0 Test12= 3.47D-13 3.33D-08 XBig12= 2.88D+01 1.09D+00.
 AX will form     3 AO Fock derivatives at one time.
      3 vectors produced by pass  1 Test12= 3.47D-13 3.33D-08 XBig12= 1.07D-01 1.96D-01.
      3 vectors produced by pass  2 Test12= 3.47D-13 3.33D-08 XBig12= 9.06D-04 9.27D-03.
      3 vectors produced by pass  3 Test12= 3.47D-13 3.33D-08 XBig12= 3.63D-06 4.48D-04.
      3 vectors produced by pass  4 Test12= 3.47D-13 3.33D-08 XBig12= 1.28D-08 1.98D-05.
      3 vectors produced by pass  5 Test12= 3.47D-13 3.33D-08 XBig12= 2.15D-11 1.32D-06.
      3 vectors produced by pass  6 Test12= 3.47D-13 3.33D-08 XBig12= 7.19D-14 6.97D-08.
 Inverted reduced A of dimension    21 with in-core refinement.
 Calculating GIAO nuclear magnetic shielding tensors.
 SCF GIAO Magnetic shielding tensor (ppm):
      1  C    Isotropic =   127.0735   Anisotropy =    54.9066
   XX=   118.0150   YX=    -5.9492   ZX=     6.4530
   XY=    -2.5533   YY=   120.9350   ZY=   -27.7911
   XZ=     2.7671   YZ=   -30.9101   ZZ=   142.2704
   Eigenvalues:   100.3325   117.2100   163.6779
      2  H    Isotropic =    27.1944   Anisotropy =     3.9352
   XX=    25.3641   YX=    -0.4532   ZX=    -0.7618
   XY=     0.7100   YY=    27.8689   ZY=     0.6448
   XZ=    -1.2248   YZ=     2.5264   ZZ=    28.3501
   Eigenvalues:    24.9205    26.8448    29.8178
      3  C    Isotropic =   143.7206   Anisotropy =    32.3004
   XX=   161.8691   YX=    -0.6021   ZX=     7.4271
   XY=     4.9641   YY=   126.6287   ZY=    -3.1750
   XZ=    10.0389   YZ=   -11.0879   ZZ=   142.6639
   Eigenvalues:   123.1857   142.7218   165.2542
      4  H    Isotropic =    28.2811   Anisotropy =     5.5080
   XX=    30.8168   YX=    -0.8050   ZX=    -0.9948
   XY=    -2.7796   YY=    25.8453   ZY=     1.4304
   XZ=    -0.4757   YZ=     2.8268   ZZ=    28.1811
   Eigenvalues:    24.3576    28.5326    31.9531
      5  C    Isotropic =    -8.5174   Anisotropy =   170.6076
   XX=   -82.0484   YX=     6.9051   ZX=    16.7562
   XY=     6.2130   YY=   -42.6597   ZY=   -36.4557
   XZ=    13.5420   YZ=   -18.0686   ZZ=    99.1559
   Eigenvalues:   -85.2975   -45.4757   105.2210
      6  O    Isotropic =  -218.9941   Anisotropy =   906.4206
   XX=  -330.7202   YX=   113.5143   ZX=    68.5305
   XY=    85.8146   YY=  -676.4186   ZY=  -227.7993
   XZ=    52.0459   YZ=  -143.8986   ZZ=   350.1565
   Eigenvalues:  -738.0849  -304.1838   385.2863
      7  O    Isotropic =   284.9860   Anisotropy =    38.8691
   XX=   284.2199   YX=    18.3909   ZX=    -8.0329
   XY=    16.3158   YY=   288.5362   ZY=    -8.7597
   XZ=    -7.0389   YZ=   -15.7438   ZZ=   282.2019
   Eigenvalues:   268.1693   275.8900   310.8988
      8  H    Isotropic =    28.9013   Anisotropy =    17.5082
   XX=    27.2343   YX=     8.0346   ZX=     4.1599
   XY=     7.3918   YY=    35.9867   ZY=    -0.3267
   XZ=     5.5267   YZ=    -2.4867   ZZ=    23.4829
   Eigenvalues:    18.1744    27.9561    40.5735
      9  C    Isotropic =   180.3401   Anisotropy =    20.5878
   XX=   178.9661   YX=    -1.3763   ZX=    -2.7518
   XY=     0.3380   YY=   178.0975   ZY=    -9.7090
   XZ=    -1.6078   YZ=   -15.4381   ZZ=   183.9565
   Eigenvalues:   167.8360   179.1189   194.0653
     10  H    Isotropic =    30.8673   Anisotropy =     8.8907
   XX=    28.0851   YX=    -1.0394   ZX=    -1.2613
   XY=    -0.7021   YY=    28.2956   ZY=     0.5591
   XZ=    -2.7215   YZ=     1.0347   ZZ=    36.2211
   Eigenvalues:    27.1828    28.6246    36.7944
     11  H    Isotropic =    30.4218   Anisotropy =     7.7681
   XX=    34.3306   YX=    -2.7672   ZX=     0.7921
   XY=    -2.4261   YY=    28.6900   ZY=    -1.8446
   XZ=    -0.5280   YZ=    -4.4734   ZZ=    28.2449
   Eigenvalues:    24.9806    30.6843    35.6006
     12  H    Isotropic =    30.2746   Anisotropy =     8.7742
   XX=    30.4299   YX=     3.1407   ZX=     1.3656
   XY=     3.3735   YY=    33.7327   ZY=    -1.6383
   XZ=    -0.4951   YZ=    -3.3240   ZZ=    26.6613
   Eigenvalues:    25.3978    29.3020    36.1241
     13  C    Isotropic =    65.2563   Anisotropy =   157.6463
   XX=    -8.5733   YX=    13.7200   ZX=    12.0740
   XY=    11.6944   YY=    54.9350   ZY=   -45.3686
   XZ=     7.0752   YZ=   -52.7396   ZZ=   149.4073
   Eigenvalues:   -13.6495    39.0646   170.3539
     14  C    Isotropic =    65.6079   Anisotropy =   182.5850
   XX=   -30.0920   YX=    14.7268   ZX=    13.8236
   XY=    16.3000   YY=    61.8347   ZY=   -52.6386
   XZ=    14.8321   YZ=   -52.3672   ZZ=   165.0810
   Eigenvalues:   -35.5512    45.0436   187.3312
     15  C    Isotropic =    68.9381   Anisotropy =   184.7206
   XX=    42.2375   YX=    13.7837   ZX=    11.0581
   XY=     2.0069   YY=     5.7452   ZY=   -77.5296
   XZ=     4.7574   YZ=   -79.5733   ZZ=   158.8316
   Eigenvalues:   -28.8963    43.6254   192.0851
     16  C    Isotropic =    69.4730   Anisotropy =   176.3672
   XX=    14.7307   YX=   -38.1767   ZX=   -10.9916
   XY=   -23.1044   YY=    33.8165   ZY=   -64.6382
   XZ=    -3.3790   YZ=   -63.9720   ZZ=   159.8718
   Eigenvalues:   -20.5758    41.9437   187.0511
     17  C    Isotropic =    70.0658   Anisotropy =   173.2917
   XX=    47.5444   YX=    18.5658   ZX=    12.1923
   XY=    18.1151   YY=     8.1396   ZY=   -74.9908
   XZ=    13.1392   YZ=   -73.0976   ZZ=   154.5134
   Eigenvalues:   -29.0027    53.6065   185.5936
     18  C    Isotropic =    69.3981   Anisotropy =   174.7827
   XX=    14.2293   YX=   -40.4911   ZX=   -10.6631
   XY=   -39.3580   YY=    34.1606   ZY=   -61.6069
   XZ=   -10.8620   YZ=   -63.8095   ZZ=   159.8043
   Eigenvalues:   -29.9530    52.2273   185.9199
     19  H    Isotropic =    23.0211   Anisotropy =     7.3631
   XX=    27.7206   YX=     1.0223   ZX=     0.1378
   XY=     0.8436   YY=    22.7354   ZY=     1.3780
   XZ=     0.5833   YZ=     1.4019   ZZ=    18.6073
   Eigenvalues:    18.1823    22.9512    27.9298
     20  H    Isotropic =    23.2144   Anisotropy =     9.2662
   XX=    27.5307   YX=    -3.1645   ZX=    -2.3712
   XY=    -1.9787   YY=    22.0784   ZY=     1.6963
   XZ=    -2.1301   YZ=     2.0748   ZZ=    20.0341
   Eigenvalues:    18.8487    21.4027    29.3919
     21  H    Isotropic =    23.7437   Anisotropy =     5.2862
   XX=    27.2050   YX=     0.4576   ZX=    -0.1736
   XY=     0.5430   YY=    23.2824   ZY=     1.3072
   XZ=    -0.1913   YZ=     1.5317   ZZ=    20.7437
   Eigenvalues:    20.0894    23.8738    27.2678
     22  H    Isotropic =    23.6726   Anisotropy =     4.8544
   XX=    25.9418   YX=    -1.1083   ZX=    -0.6613
   XY=    -1.1352   YY=    24.3975   ZY=     1.7634
   XZ=    -0.8816   YZ=     1.6604   ZZ=    20.6785
   Eigenvalues:    19.9932    24.1157    26.9089
     23  H    Isotropic =    23.6631   Anisotropy =     4.5393
   XX=    24.1919   YX=     0.7217   ZX=     0.1542
   XY=     0.8980   YY=    25.5553   ZY=     2.0762
   XZ=     0.2366   YZ=     2.1485   ZZ=    21.2422
   Eigenvalues:    20.3758    23.9242    26.6894
     24  C    Isotropic =   176.6304   Anisotropy =    27.3377
   XX=   183.1681   YX=    12.5682   ZX=     2.9371
   XY=    13.6618   YY=   178.9187   ZY=    -1.8255
   XZ=     6.5808   YZ=     2.2143   ZZ=   167.8043
   Eigenvalues:   164.6003   170.4353   194.8555
     25  H    Isotropic =    30.3280   Anisotropy =    10.1114
   XX=    36.3441   YX=    -2.5647   ZX=     1.5178
   XY=    -1.4566   YY=    28.4172   ZY=    -0.0615
   XZ=     1.6630   YZ=    -0.6242   ZZ=    26.2226
   Eigenvalues:    25.9780    27.9370    37.0689
     26  H    Isotropic =    30.3660   Anisotropy =     8.2334
   XX=    31.4132   YX=     2.5018   ZX=    -1.3929
   XY=     2.4157   YY=    29.6049   ZY=    -4.6674
   XZ=    -1.5409   YZ=    -3.8803   ZZ=    30.0798
   Eigenvalues:    25.4431    29.7999    35.8549
     27  H    Isotropic =    30.6545   Anisotropy =     8.0020
   XX=    29.7578   YX=     1.3425   ZX=     1.6341
   XY=     0.6798   YY=    31.6410   ZY=     4.5919
   XZ=     1.0364   YZ=     4.2483   ZZ=    30.5647
   Eigenvalues:    26.6120    29.3623    35.9892
 End of Minotr Frequency-dependent properties file   721 does not exist.
 End of Minotr Frequency-dependent properties file   722 does not exist.

 **********************************************************************

            Population analysis using the SCF density.

 **********************************************************************

 Orbital symmetries:
       Occupied  (A) (A) (A) (A) (A) (A) (A) (A) (A) (A) (A) (A)
                 (A) (A) (A) (A) (A) (A) (A) (A) (A) (A) (A) (A)
                 (A) (A) (A) (A) (A) (A) (A) (A) (A) (A) (A) (A)
                 (A) (A) (A) (A) (A) (A) (A) (A) (A) (A) (A) (A)
       Virtual   (A) (A) (A) (A) (A) (A) (A) (A) (A) (A) (A) (A)
                 (A) (A) (A) (A) (A) (A) (A) (A) (A) (A) (A) (A)
                 (A) (A) (A) (A) (A) (A) (A) (A) (A) (A) (A) (A)
                 (A) (A) (A) (A) (A) (A) (A) (A) (A) (A) (A) (A)
                 (A) (A) (A) (A) (A) (A) (A) (A) (A) (A) (A) (A)
                 (A) (A) (A) (A) (A) (A) (A) (A) (A) (A) (A) (A)
                 (A) (A) (A) (A) (A) (A) (A) (A) (A) (A) (A) (A)
                 (A) (A) (A) (A) (A) (A) (A) (A) (A) (A) (A) (A)
                 (A) (A) (A) (A) (A) (A) (A) (A) (A) (A) (A) (A)
                 (A) (A) (A) (A) (A) (A) (A) (A) (A) (A) (A) (A)
                 (A) (A) (A) (A) (A) (A) (A) (A) (A) (A) (A) (A)
                 (A) (A) (A) (A) (A) (A) (A) (A) (A) (A) (A) (A)
                 (A) (A) (A) (A) (A) (A) (A) (A) (A) (A) (A) (A)
                 (A) (A) (A) (A) (A) (A) (A) (A) (A) (A) (A) (A)
                 (A) (A) (A) (A) (A) (A) (A) (A) (A) (A) (A) (A)
                 (A) (A) (A) (A) (A) (A) (A) (A) (A) (A) (A) (A)
                 (A) (A) (A) (A) (A) (A) (A) (A) (A) (A) (A) (A)
                 (A) (A) (A) (A) (A) (A) (A) (A) (A) (A) (A) (A)
                 (A)
 The electronic state is 1-A.
 Alpha  occ. eigenvalues --  -19.23454 -19.21933 -10.34139 -10.28759 -10.26553
 Alpha  occ. eigenvalues --  -10.26308 -10.25995 -10.25925 -10.25716 -10.25609
 Alpha  occ. eigenvalues --  -10.25343 -10.23753 -10.22560  -1.06985  -1.02730
 Alpha  occ. eigenvalues --   -0.88773  -0.82399  -0.78453  -0.77306  -0.74242
 Alpha  occ. eigenvalues --   -0.67803  -0.64815  -0.62717  -0.59601  -0.55919
 Alpha  occ. eigenvalues --   -0.53245  -0.51724  -0.48902  -0.47284  -0.46041
 Alpha  occ. eigenvalues --   -0.45522  -0.44286  -0.43420  -0.42650  -0.40661
 Alpha  occ. eigenvalues --   -0.39490  -0.38858  -0.37976  -0.37743  -0.36799
 Alpha  occ. eigenvalues --   -0.36019  -0.35526  -0.35015  -0.32660  -0.27289
 Alpha  occ. eigenvalues --   -0.27111  -0.26772  -0.26107
 Alpha virt. eigenvalues --   -0.05426  -0.00440   0.04334   0.10705   0.11730
 Alpha virt. eigenvalues --    0.12881   0.14438   0.15699   0.16925   0.17251
 Alpha virt. eigenvalues --    0.17663   0.18567   0.18681   0.19060   0.19994
 Alpha virt. eigenvalues --    0.20948   0.21508   0.23511   0.24021   0.25061
 Alpha virt. eigenvalues --    0.26137   0.27667   0.28330   0.29663   0.31362
 Alpha virt. eigenvalues --    0.33516   0.34490   0.38962   0.39556   0.50273
 Alpha virt. eigenvalues --    0.52331   0.52569   0.54698   0.54805   0.55887
 Alpha virt. eigenvalues --    0.56356   0.57080   0.58995   0.60055   0.60538
 Alpha virt. eigenvalues --    0.60804   0.61119   0.62153   0.62402   0.63083
 Alpha virt. eigenvalues --    0.64715   0.67757   0.68910   0.69160   0.70760
 Alpha virt. eigenvalues --    0.71120   0.71894   0.77645   0.77988   0.78897
 Alpha virt. eigenvalues --    0.81066   0.82308   0.82740   0.83453   0.84318
 Alpha virt. eigenvalues --    0.84548   0.85061   0.87015   0.89365   0.89973
 Alpha virt. eigenvalues --    0.90317   0.91175   0.91528   0.92175   0.94559
 Alpha virt. eigenvalues --    0.95494   0.96859   0.97824   0.98429   1.01443
 Alpha virt. eigenvalues --    1.02538   1.03219   1.04000   1.05728   1.08961
 Alpha virt. eigenvalues --    1.11537   1.12502   1.15288   1.17293   1.19539
 Alpha virt. eigenvalues --    1.19878   1.24759   1.25857   1.28438   1.29981
 Alpha virt. eigenvalues --    1.33522   1.35788   1.38133   1.40042   1.40964
 Alpha virt. eigenvalues --    1.41686   1.42513   1.42718   1.46271   1.47082
 Alpha virt. eigenvalues --    1.53713   1.55509   1.56850   1.59691   1.61288
 Alpha virt. eigenvalues --    1.64422   1.66081   1.72526   1.75525   1.77282
 Alpha virt. eigenvalues --    1.79398   1.79593   1.81936   1.83103   1.86760
 Alpha virt. eigenvalues --    1.87067   1.88717   1.89058   1.90275   1.92622
 Alpha virt. eigenvalues --    1.93886   1.96111   1.97463   1.98315   1.98877
 Alpha virt. eigenvalues --    2.00239   2.01723   2.02813   2.04606   2.06544
 Alpha virt. eigenvalues --    2.07557   2.08077   2.08912   2.09801   2.11196
 Alpha virt. eigenvalues --    2.12975   2.14012   2.15090   2.17449   2.22420
 Alpha virt. eigenvalues --    2.26357   2.26531   2.29054   2.30624   2.32170
 Alpha virt. eigenvalues --    2.35201   2.36095   2.38064   2.39375   2.40077
 Alpha virt. eigenvalues --    2.40795   2.42404   2.43008   2.46112   2.46549
 Alpha virt. eigenvalues --    2.48412   2.50117   2.50680   2.52934   2.53701
 Alpha virt. eigenvalues --    2.58072   2.59354   2.60190   2.60265   2.61804
 Alpha virt. eigenvalues --    2.64270   2.66612   2.68977   2.70131   2.72867
 Alpha virt. eigenvalues --    2.73869   2.75798   2.77072   2.78210   2.81207
 Alpha virt. eigenvalues --    2.82301   2.84401   2.85103   2.89703   2.90688
 Alpha virt. eigenvalues --    2.92651   2.94217   2.96862   2.98762   3.02303
 Alpha virt. eigenvalues --    3.06159   3.06742   3.12559   3.21154   3.22526
 Alpha virt. eigenvalues --    3.24402   3.26044   3.27466   3.34270   3.40180
 Alpha virt. eigenvalues --    3.45387   3.45939   3.48628   3.49157   3.51111
 Alpha virt. eigenvalues --    3.52747   3.53779   3.56343   3.91280   3.97738
 Alpha virt. eigenvalues --    4.09742   4.16041   4.18622   4.21743   4.36452
 Alpha virt. eigenvalues --    4.45876   4.46197   4.53428   4.55267   4.66824
 Alpha virt. eigenvalues --    4.77272   4.87374
          Condensed to atoms (all electrons):
              1          2          3          4          5          6
     1  C    4.789653   0.395085   0.300321  -0.036065  -0.029617   0.006908
     2  H    0.395085   0.614205  -0.057622   0.005924  -0.006833   0.006454
     3  C    0.300321  -0.057622   5.397004   0.372746   0.298718  -0.092401
     4  H   -0.036065   0.005924   0.372746   0.555379  -0.033962   0.002017
     5  C   -0.029617  -0.006833   0.298718  -0.033962   4.622908   0.512605
     6  O    0.006908   0.006454  -0.092401   0.002017   0.512605   8.140008
     7  O    0.219839  -0.035822  -0.058582   0.003254   0.006043  -0.008666
     8  H   -0.023764  -0.007581  -0.008115  -0.000751   0.004666   0.018077
     9  C   -0.035479   0.000754   0.297530  -0.029747  -0.037712  -0.000701
    10  H   -0.005223   0.004767  -0.036787   0.004958  -0.004487   0.001047
    11  H    0.003940  -0.000143  -0.028779  -0.002781  -0.005494   0.000023
    12  H   -0.004660  -0.000163  -0.030875  -0.005545   0.003718  -0.000062
    13  C    0.006468   0.000232  -0.103500  -0.001784   0.323904  -0.083966
    14  C    0.000000   0.000000  -0.000023  -0.000002   0.000203  -0.000011
    15  C   -0.000170  -0.000004   0.009035  -0.000172  -0.036093  -0.000187
    16  C    0.000050  -0.000021  -0.003523   0.000335  -0.040178   0.003713
    17  C   -0.000003   0.000000  -0.000014   0.000235   0.004661  -0.000074
    18  C    0.000001   0.000000  -0.000069  -0.000005   0.005447   0.000915
    19  H   -0.000013  -0.000003   0.000622  -0.000017  -0.008373   0.014438
    20  H   -0.000025  -0.000006   0.003779   0.001053  -0.007713   0.000045
    21  H    0.000000   0.000000   0.000013  -0.000002  -0.000129   0.000000
    22  H    0.000000   0.000000   0.000001   0.000000  -0.000132   0.000003
    23  H    0.000000   0.000000   0.000000   0.000000   0.000007   0.000000
    24  C    0.361293  -0.048688  -0.049723  -0.005689   0.004737   0.000468
    25  H   -0.027639  -0.004357   0.005388  -0.000117  -0.000106   0.000004
    26  H   -0.027337  -0.001387  -0.002110   0.000136  -0.000047   0.000005
    27  H   -0.029607   0.005470  -0.009576   0.005047  -0.000051  -0.000007
              7          8          9         10         11         12
     1  C    0.219839  -0.023764  -0.035479  -0.005223   0.003940  -0.004660
     2  H   -0.035822  -0.007581   0.000754   0.004767  -0.000143  -0.000163
     3  C   -0.058582  -0.008115   0.297530  -0.036787  -0.028779  -0.030875
     4  H    0.003254  -0.000751  -0.029747   0.004958  -0.002781  -0.005545
     5  C    0.006043   0.004666  -0.037712  -0.004487  -0.005494   0.003718
     6  O   -0.008666   0.018077  -0.000701   0.001047   0.000023  -0.000062
     7  O    8.238971   0.285975   0.003450   0.000004  -0.000065   0.000030
     8  H    0.285975   0.382501   0.000014  -0.000009   0.000003  -0.000008
     9  C    0.003450   0.000014   5.066146   0.389304   0.379013   0.391382
    10  H    0.000004  -0.000009   0.389304   0.549234  -0.028345  -0.027724
    11  H   -0.000065   0.000003   0.379013  -0.028345   0.554410  -0.026760
    12  H    0.000030  -0.000008   0.391382  -0.027724  -0.026760   0.539603
    13  C   -0.000123   0.000346  -0.002271   0.000146   0.004191  -0.000096
    14  C    0.000000   0.000000   0.000002   0.000000   0.000000   0.000000
    15  C    0.000013  -0.000023  -0.000277  -0.000003  -0.000251   0.000013
    16  C   -0.000026  -0.000023  -0.003530  -0.000007   0.003303   0.000044
    17  C    0.000000   0.000001  -0.000070   0.000004  -0.000037  -0.000002
    18  C    0.000000   0.000000   0.000004  -0.000001  -0.000018   0.000000
    19  H    0.000001  -0.000009  -0.000025  -0.000005  -0.000005   0.000000
    20  H   -0.000015  -0.000001  -0.000797  -0.000026   0.000241   0.000185
    21  H    0.000000   0.000000  -0.000002   0.000000  -0.000004   0.000000
    22  H    0.000000   0.000000   0.000000   0.000000   0.000000   0.000000
    23  H    0.000000   0.000000   0.000000   0.000000   0.000000   0.000000
    24  C   -0.056745   0.006919  -0.004317  -0.000732   0.000048   0.001938
    25  H    0.002417   0.000034   0.000025  -0.000036   0.000001  -0.000065
    26  H    0.003013  -0.000265   0.000646   0.000560   0.000066   0.000214
    27  H    0.000852  -0.000177  -0.000094   0.000106  -0.000043   0.000647
             13         14         15         16         17         18
     1  C    0.006468   0.000000  -0.000170   0.000050  -0.000003   0.000001
     2  H    0.000232   0.000000  -0.000004  -0.000021   0.000000   0.000000
     3  C   -0.103500  -0.000023   0.009035  -0.003523  -0.000014  -0.000069
     4  H   -0.001784  -0.000002  -0.000172   0.000335   0.000235  -0.000005
     5  C    0.323904   0.000203  -0.036093  -0.040178   0.004661   0.005447
     6  O   -0.083966  -0.000011  -0.000187   0.003713  -0.000074   0.000915
     7  O   -0.000123   0.000000   0.000013  -0.000026   0.000000   0.000000
     8  H    0.000346   0.000000  -0.000023  -0.000023   0.000001   0.000000
     9  C   -0.002271   0.000002  -0.000277  -0.003530  -0.000070   0.000004
    10  H    0.000146   0.000000  -0.000003  -0.000007   0.000004  -0.000001
    11  H    0.004191   0.000000  -0.000251   0.003303  -0.000037  -0.000018
    12  H   -0.000096   0.000000   0.000013   0.000044  -0.000002   0.000000
    13  C    5.016409  -0.031110   0.496233   0.520214  -0.028682  -0.035925
    14  C   -0.031110   4.861256  -0.046527  -0.048824   0.543639   0.535100
    15  C    0.496233  -0.046527   4.954965  -0.068913  -0.038366   0.511189
    16  C    0.520214  -0.048824  -0.068913   4.950338   0.521285  -0.037141
    17  C   -0.028682   0.543639  -0.038366   0.521285   4.887852  -0.041083
    18  C   -0.035925   0.535100   0.511189  -0.037141  -0.041083   4.902921
    19  H   -0.043823   0.004145   0.379646   0.004606   0.000135  -0.035573
    20  H   -0.036773   0.004057   0.004383   0.379808  -0.035590   0.000229
    21  H    0.002929  -0.036727   0.000675  -0.032790   0.380856   0.003861
    22  H    0.003075  -0.037280  -0.033711   0.000614   0.003907   0.382060
    23  H    0.000487   0.381900   0.003914   0.004175  -0.036471  -0.036706
    24  C   -0.000095   0.000000   0.000001   0.000002   0.000000   0.000000
    25  H    0.000002   0.000000   0.000000   0.000000   0.000000   0.000000
    26  H    0.000002   0.000000   0.000000   0.000000   0.000000   0.000000
    27  H   -0.000001   0.000000   0.000000  -0.000003   0.000000   0.000000
             19         20         21         22         23         24
     1  C   -0.000013  -0.000025   0.000000   0.000000   0.000000   0.361293
     2  H   -0.000003  -0.000006   0.000000   0.000000   0.000000  -0.048688
     3  C    0.000622   0.003779   0.000013   0.000001   0.000000  -0.049723
     4  H   -0.000017   0.001053  -0.000002   0.000000   0.000000  -0.005689
     5  C   -0.008373  -0.007713  -0.000129  -0.000132   0.000007   0.004737
     6  O    0.014438   0.000045   0.000000   0.000003   0.000000   0.000468
     7  O    0.000001  -0.000015   0.000000   0.000000   0.000000  -0.056745
     8  H   -0.000009  -0.000001   0.000000   0.000000   0.000000   0.006919
     9  C   -0.000025  -0.000797  -0.000002   0.000000   0.000000  -0.004317
    10  H   -0.000005  -0.000026   0.000000   0.000000   0.000000  -0.000732
    11  H   -0.000005   0.000241  -0.000004   0.000000   0.000000   0.000048
    12  H    0.000000   0.000185   0.000000   0.000000   0.000000   0.001938
    13  C   -0.043823  -0.036773   0.002929   0.003075   0.000487  -0.000095
    14  C    0.004145   0.004057  -0.036727  -0.037280   0.381900   0.000000
    15  C    0.379646   0.004383   0.000675  -0.033711   0.003914   0.000001
    16  C    0.004606   0.379808  -0.032790   0.000614   0.004175   0.000002
    17  C    0.000135  -0.035590   0.380856   0.003907  -0.036471   0.000000
    18  C   -0.035573   0.000229   0.003861   0.382060  -0.036706   0.000000
    19  H    0.523884  -0.000109   0.000013  -0.004221  -0.000138   0.000000
    20  H   -0.000109   0.524655  -0.004326   0.000013  -0.000144   0.000006
    21  H    0.000013  -0.004326   0.529534  -0.000146  -0.004455   0.000000
    22  H   -0.004221   0.000013  -0.000146   0.529297  -0.004425   0.000000
    23  H   -0.000138  -0.000144  -0.004455  -0.004425   0.530174   0.000000
    24  C    0.000000   0.000006   0.000000   0.000000   0.000000   5.069565
    25  H    0.000000   0.000000   0.000000   0.000000   0.000000   0.380243
    26  H    0.000000   0.000000   0.000000   0.000000   0.000000   0.377698
    27  H    0.000000  -0.000005   0.000000   0.000000   0.000000   0.379939
             25         26         27
     1  C   -0.027639  -0.027337  -0.029607
     2  H   -0.004357  -0.001387   0.005470
     3  C    0.005388  -0.002110  -0.009576
     4  H   -0.000117   0.000136   0.005047
     5  C   -0.000106  -0.000047  -0.000051
     6  O    0.000004   0.000005  -0.000007
     7  O    0.002417   0.003013   0.000852
     8  H    0.000034  -0.000265  -0.000177
     9  C    0.000025   0.000646  -0.000094
    10  H   -0.000036   0.000560   0.000106
    11  H    0.000001   0.000066  -0.000043
    12  H   -0.000065   0.000214   0.000647
    13  C    0.000002   0.000002  -0.000001
    14  C    0.000000   0.000000   0.000000
    15  C    0.000000   0.000000   0.000000
    16  C    0.000000   0.000000  -0.000003
    17  C    0.000000   0.000000   0.000000
    18  C    0.000000   0.000000   0.000000
    19  H    0.000000   0.000000   0.000000
    20  H    0.000000   0.000000  -0.000005
    21  H    0.000000   0.000000   0.000000
    22  H    0.000000   0.000000   0.000000
    23  H    0.000000   0.000000   0.000000
    24  C    0.380243   0.377698   0.379939
    25  H    0.554176  -0.024605  -0.031033
    26  H   -0.024605   0.556094  -0.027123
    27  H   -0.031033  -0.027123   0.566164
 Mulliken atomic charges:
              1
     1  C    0.136044
     2  H    0.129742
     3  C   -0.203459
     4  H    0.165556
     5  C    0.423310
     6  O   -0.520657
     7  O   -0.603817
     8  H    0.342191
     9  C   -0.413248
    10  H    0.153252
    11  H    0.147484
    12  H    0.158184
    13  C   -0.006487
    14  C   -0.129797
    15  C   -0.135372
    16  C   -0.153505
    17  C   -0.162182
    18  C   -0.155206
    19  H    0.164825
    20  H    0.167076
    21  H    0.160699
    22  H    0.160945
    23  H    0.161684
    24  C   -0.416867
    25  H    0.145667
    26  H    0.144441
    27  H    0.139498
 Sum of Mulliken atomic charges =   0.00000
 Mulliken charges with hydrogens summed into heavy atoms:
              1
     1  C    0.265786
     3  C   -0.037903
     5  C    0.423310
     6  O   -0.520657
     7  O   -0.261627
     9  C    0.045672
    13  C   -0.006487
    14  C    0.031886
    15  C    0.029453
    16  C    0.013571
    17  C   -0.001483
    18  C    0.005739
    24  C    0.012738
 Sum of Mulliken charges with hydrogens summed into heavy atoms =   0.00000
 Electronic spatial extent (au):  <R**2>=           2956.6672
 Charge=              0.0000 electrons
 Dipole moment (field-independent basis, Debye):
    X=              2.7070    Y=             -3.1087    Z=              0.9446  Tot=              4.2289
 Quadrupole moment (field-independent basis, Debye-Ang):
   XX=            -69.2681   YY=            -73.9252   ZZ=            -80.4271
   XY=              3.4977   XZ=             -5.7585   YZ=              2.1276
 Traceless Quadrupole moment (field-independent basis, Debye-Ang):
   XX=              5.2720   YY=              0.6150   ZZ=             -5.8870
   XY=              3.4977   XZ=             -5.7585   YZ=              2.1276
 Octapole moment (field-independent basis, Debye-Ang**2):
  XXX=             49.4564  YYY=              3.0379  ZZZ=              4.3192  XYY=              3.9505
  XXY=             -5.9946  XXZ=             13.6840  XZZ=             -3.5857  YZZ=             -0.6286
  YYZ=             -7.5821  XYZ=              6.2715
 Hexadecapole moment (field-independent basis, Debye-Ang**3):
 XXXX=          -2761.4079 YYYY=           -573.6693 ZZZZ=           -299.5090 XXXY=             11.8105
 XXXZ=            -55.8637 YYYX=            -20.4239 YYYZ=              1.0984 ZZZX=             -3.5794
 ZZZY=              2.8042 XXYY=           -562.1821 XXZZ=           -594.9912 YYZZ=           -142.8076
 XXYZ=             40.8836 YYXZ=              1.8689 ZZXY=              2.4438
 N-N= 7.770409567594D+02 E-N=-2.898505999764D+03  KE= 5.725737254495D+02
 1\1\GINC-COMPUTE-8-4\SP\RmPW1PW91\6-31G(d,p)\C11H14O2\FBRUNO.IQUIR\21-
 Dec-2021\0\\# mPW1PW91/6-31g** scrf=(pcm,solvent=chloroform,smd,dovacu
 um) nmr\\comment\\0,1\C,0,0.247055247,-1.200659163,2.276503737\H,0,-0.
 057726319,-2.239079993,2.097676431\C,0,-0.228349165,-0.273768103,1.135
 338736\H,0,0.170622654,0.726090954,1.339686273\C,0,0.357644066,-0.7512
 02074,-0.196317217\O,0,0.828238978,-1.884246405,-0.317398541\O,0,1.676
 653855,-1.173274618,2.342138258\H,0,1.987965805,-1.683781875,1.5666601
 16\C,0,-1.753307955,-0.235583637,1.032801218\H,0,-2.165556095,-1.24702
 1573,0.944453811\H,0,-2.091460007,0.326936126,0.157139522\H,0,-2.19841
 4048,0.240278834,1.911798722\C,0,0.374034641,0.162256489,-1.384095307\
 C,0,0.445794728,1.774192345,-3.679925934\C,0,0.711429466,-0.384677378,
 -2.631360853\C,0,0.07996039,1.528725804,-1.299060794\C,0,0.114899548,2
 .329376176,-2.445189906\C,0,0.74536126,0.417472192,-3.773866577\H,0,0.
 950455765,-1.443106042,-2.721221685\H,0,-0.17504821,2.003923759,-0.357
 433991\H,0,-0.113490132,3.390396968,-2.373504524\H,0,1.007835565,-0.01
 8312212,-4.734794974\H,0,0.473800012,2.399926315,-4.568777533\C,0,-0.2
 5965149,-0.772472379,3.649410812\H,0,0.204717036,-1.381122187,4.433450
 951\H,0,-1.344315,-0.879387604,3.736079428\H,0,0.010849406,0.268119279
 ,3.85980982\\Version=EM64L-G09RevC.01\State=1-A\HF=-577.9497983\RMSD=6
 .145e-09\Dipole=-0.9693068,1.1044289,-0.7803202\Quadrupole=-3.5584004,
 1.0218801,2.5365203,0.1962351,-5.7160771,-1.4752975\PG=C01 [X(C11H14O2
 )]\\@


 A DANDELION FROM A LOVER MEANS MORE THAN AN ORCHID FROM A FRIEND.
 Job cpu time:  0 days  0 hours 19 minutes 20.4 seconds.
 File lengths (MBytes):  RWF=     81 Int=      0 D2E=      0 Chk=      5 Scr=      1
 Normal termination of Gaussian 09 at Tue Dec 21 09:21:03 2021.
