 Entering Gaussian System, Link 0=g09
 Input=/home/fbruno.iquir/2_val_run/2b_013_MPW_A_SMD.gjc
 Output=/home/fbruno.iquir/2_val_run/2b_013_MPW_A_SMD.log
 Initial command:
 /share/apps/Gaussian09/EM64T.SSE4.2-enabled/g09/l1.exe /tmp/Gau-33129.inp -scrdir=/tmp/
 Entering Link 1 = /share/apps/Gaussian09/EM64T.SSE4.2-enabled/g09/l1.exe PID=     33130.
  
 Copyright (c) 1988,1990,1992,1993,1995,1998,2003,2009,2011,
            Gaussian, Inc.  All Rights Reserved.
  
 This is part of the Gaussian(R) 09 program.  It is based on
 the Gaussian(R) 03 system (copyright 2003, Gaussian, Inc.),
 the Gaussian(R) 98 system (copyright 1998, Gaussian, Inc.),
 the Gaussian(R) 94 system (copyright 1995, Gaussian, Inc.),
 the Gaussian 92(TM) system (copyright 1992, Gaussian, Inc.),
 the Gaussian 90(TM) system (copyright 1990, Gaussian, Inc.),
 the Gaussian 88(TM) system (copyright 1988, Gaussian, Inc.),
 the Gaussian 86(TM) system (copyright 1986, Carnegie Mellon
 University), and the Gaussian 82(TM) system (copyright 1983,
 Carnegie Mellon University). Gaussian is a federally registered
 trademark of Gaussian, Inc.
  
 This software contains proprietary and confidential information,
 including trade secrets, belonging to Gaussian, Inc.
  
 This software is provided under written license and may be
 used, copied, transmitted, or stored only in accord with that
 written license.
  
 The following legend is applicable only to US Government
 contracts under FAR:
  
                    RESTRICTED RIGHTS LEGEND
  
 Use, reproduction and disclosure by the US Government is
 subject to restrictions as set forth in subparagraphs (a)
 and (c) of the Commercial Computer Software - Restricted
 Rights clause in FAR 52.227-19.
  
 Gaussian, Inc.
 340 Quinnipiac St., Bldg. 40, Wallingford CT 06492
  
  
 ---------------------------------------------------------------
 Warning -- This program may not be used in any manner that
 competes with the business of Gaussian, Inc. or will provide
 assistance to any competitor of Gaussian, Inc.  The licensee
 of this program is prohibited from giving any competitor of
 Gaussian, Inc. access to this program.  By using this program,
 the user acknowledges that Gaussian, Inc. is engaged in the
 business of creating and licensing software in the field of
 computational chemistry and represents and warrants to the
 licensee that it is not a competitor of Gaussian, Inc. and that
 it will not use this program in any manner prohibited above.
 ---------------------------------------------------------------
  

 Cite this work as:
 Gaussian 09, Revision C.01,
 M. J. Frisch, G. W. Trucks, H. B. Schlegel, G. E. Scuseria, 
 M. A. Robb, J. R. Cheeseman, G. Scalmani, V. Barone, B. Mennucci, 
 G. A. Petersson, H. Nakatsuji, M. Caricato, X. Li, H. P. Hratchian, 
 A. F. Izmaylov, J. Bloino, G. Zheng, J. L. Sonnenberg, M. Hada, 
 M. Ehara, K. Toyota, R. Fukuda, J. Hasegawa, M. Ishida, T. Nakajima, 
 Y. Honda, O. Kitao, H. Nakai, T. Vreven, J. A. Montgomery, Jr., 
 J. E. Peralta, F. Ogliaro, M. Bearpark, J. J. Heyd, E. Brothers, 
 K. N. Kudin, V. N. Staroverov, T. Keith, R. Kobayashi, J. Normand, 
 K. Raghavachari, A. Rendell, J. C. Burant, S. S. Iyengar, J. Tomasi, 
 M. Cossi, N. Rega, J. M. Millam, M. Klene, J. E. Knox, J. B. Cross, 
 V. Bakken, C. Adamo, J. Jaramillo, R. Gomperts, R. E. Stratmann, 
 O. Yazyev, A. J. Austin, R. Cammi, C. Pomelli, J. W. Ochterski, 
 R. L. Martin, K. Morokuma, V. G. Zakrzewski, G. A. Voth, 
 P. Salvador, J. J. Dannenberg, S. Dapprich, A. D. Daniels, 
 O. Farkas, J. B. Foresman, J. V. Ortiz, J. Cioslowski, 
 and D. J. Fox, Gaussian, Inc., Wallingford CT, 2010.
 
 ******************************************
 Gaussian 09:  EM64L-G09RevC.01 23-Sep-2011
                21-Dec-2021 
 ******************************************
 %nprocshared=4
 Will use up to    4 processors via shared memory.
 -----------------------------------------------------------------
 # mPW1PW91/6-31g** scrf=(pcm,solvent=chloroform,smd,dovacuum) nmr
 -----------------------------------------------------------------
 1/38=1/1;
 2/12=2,17=6,18=5,40=1/2;
 3/5=1,6=6,7=101,11=2,16=1,25=1,30=1,70=32101,72=7,74=-7/1,2,8,3;
 4//1;
 5/5=2,38=5,53=7/2;
 8/6=1,10=90,11=11/1;
 10/13=100,45=16/2;
 6/7=2,8=2,9=2,10=2,28=1/1;
 99/9=1/99;
 -------
 comment
 -------
 Charge =  0 Multiplicity = 1
 Symbolic Z-Matrix:
 6                     1.1349    0.61344   2.02401 
 1                     0.9777    1.08903   3.00033 
 6                     0.15752   1.26003   1.02719 
 1                     0.32904   2.34668   1.08178 
 6                     0.46112   0.93104  -0.43672 
 8                     1.3304    1.56285  -1.04456 
 8                     0.8464   -0.77081   2.20315 
 1                     1.48524  -1.12056   2.84987 
 6                    -1.30773   1.07962   1.42694 
 1                    -1.58375   0.03161   1.56875 
 1                    -1.97696   1.50504   0.67133 
 1                    -1.5061    1.59439   2.37369 
 6                    -0.28856  -0.10806  -1.19494 
 6                    -1.67173  -1.9881   -2.74243 
 6                    -0.65961  -1.33523  -0.64238 
 6                    -0.59244   0.16153  -2.53716 
 6                    -1.2869   -0.77364  -3.30645 
 6                    -1.35509  -2.27041  -1.41423 
 1                    -0.40497  -1.59568   0.37878 
 1                    -0.28592   1.10374  -2.98779 
 1                    -1.52095  -0.55561  -4.34534 
 1                    -1.64206  -3.22457  -0.97872 
 1                    -2.20938  -2.71951  -3.34073 
 6                     2.60533   0.77479   1.65467 
 1                     3.24089   0.40499   2.46714 
 1                     2.8593    1.82306   1.47154 
 1                     2.86432   0.18035   0.77226 
 
                          Input orientation:                          
 ---------------------------------------------------------------------
 Center     Atomic      Atomic             Coordinates (Angstroms)
 Number     Number       Type             X           Y           Z
 ---------------------------------------------------------------------
      1          6           0        1.134902    0.613442    2.024012
      2          1           0        0.977699    1.089030    3.000335
      3          6           0        0.157521    1.260033    1.027193
      4          1           0        0.329041    2.346682    1.081777
      5          6           0        0.461115    0.931040   -0.436719
      6          8           0        1.330400    1.562854   -1.044561
      7          8           0        0.846398   -0.770815    2.203149
      8          1           0        1.485243   -1.120561    2.849871
      9          6           0       -1.307728    1.079623    1.426937
     10          1           0       -1.583751    0.031610    1.568750
     11          1           0       -1.976955    1.505038    0.671333
     12          1           0       -1.506101    1.594385    2.373693
     13          6           0       -0.288562   -0.108061   -1.194937
     14          6           0       -1.671729   -1.988100   -2.742429
     15          6           0       -0.659612   -1.335231   -0.642385
     16          6           0       -0.592443    0.161532   -2.537163
     17          6           0       -1.286903   -0.773643   -3.306447
     18          6           0       -1.355089   -2.270413   -1.414233
     19          1           0       -0.404970   -1.595680    0.378779
     20          1           0       -0.285918    1.103737   -2.987787
     21          1           0       -1.520947   -0.555606   -4.345335
     22          1           0       -1.642063   -3.224573   -0.978720
     23          1           0       -2.209382   -2.719507   -3.340728
     24          6           0        2.605327    0.774786    1.654672
     25          1           0        3.240888    0.404988    2.467140
     26          1           0        2.859300    1.823057    1.471545
     27          1           0        2.864319    0.180352    0.772259
 ---------------------------------------------------------------------
                    Distance matrix (angstroms):
                    1          2          3          4          5
     1  C    0.000000
     2  H    1.097316   0.000000
     3  C    1.538506   2.143647   0.000000
     4  H    2.131042   2.383969   1.101456   0.000000
     5  C    2.571003   3.479247   1.530832   2.080221   0.000000
     6  O    3.218034   4.087797   2.399898   2.477584   1.234632
     7  O    1.425304   2.027750   2.445765   3.353196   3.164437
     8  H    1.952319   2.272121   3.279059   4.060140   4.007440
     9  C    2.557394   2.774680   1.529476   2.098472   2.573732
    10  H    2.817244   3.119071   2.198712   3.042281   3.002060
    11  H    3.508324   3.785141   2.177763   2.488864   2.738876
    12  H    2.838911   2.611001   2.166215   2.367011   3.494049
    13  C    3.592833   4.542769   2.647363   3.404500   1.488839
    14  C    6.112622   7.033316   5.301563   6.117022   4.287971
    15  C    3.758627   4.671963   3.192271   4.184095   2.536594
    16  C    4.898190   5.830050   3.804443   4.326747   2.472649
    17  C    6.016888   6.955104   5.000264   5.621762   3.767871
    18  C    5.132075   6.017987   4.551109   5.512161   3.808337
    19  H    3.155664   3.999000   2.981934   4.071265   2.792750
    20  H    5.232327   6.120012   4.042417   4.299353   2.663800
    21  H    6.999199   7.931389   5.914208   6.426451   4.627739
    22  H    5.608769   6.426757   5.232005   6.258576   4.688948
    23  H    7.146553   8.054286   6.365352   7.188074   5.375064
    24  C    1.524662   2.135118   2.573120   2.824986   2.999329
    25  H    2.162173   2.423682   3.508803   3.764075   4.054166
    26  H    2.177599   2.533064   2.795363   2.613105   3.191936
    27  H    2.178380   3.057671   2.925313   3.349093   2.792947
                    6          7          8          9         10
     6  O    0.000000
     7  O    4.028385   0.000000
     8  H    4.731943   0.974009   0.000000
     9  C    3.647127   2.943958   3.829653   0.000000
    10  H    4.203140   2.636659   3.519587   1.092992   0.000000
    11  H    3.726424   3.936660   4.860722   1.095344   1.769451
    12  H    4.441980   3.340285   4.067655   1.095754   1.759610
    13  C    2.331439   3.643400   4.531226   3.053443   3.055321
    14  C    4.950233   5.681680   6.480193   5.189126   4.761641
    15  C    3.538473   3.268593   4.103941   3.245561   2.758878
    16  C    2.808717   5.040843   5.914446   4.131418   4.225884
    17  C    4.174401   5.908184   6.760576   5.083301   4.950161
    18  C    4.694938   4.492303   5.250926   4.392861   3.774888
    19  H    3.874757   2.361070   3.147211   3.011786   2.335301
    20  H    2.568930   5.633996   6.493286   4.531497   4.857557
    21  H    4.849037   6.966583   7.818397   6.003212   5.943498
    22  H    5.635541   4.726273   5.372617   4.942172   4.134698
    23  H    6.011743   6.623426   7.384470   6.162548   5.662423
    24  C    3.087450   2.404900   2.505081   3.931513   4.255358
    25  H    4.162050   2.680631   2.357132   4.714559   4.921754
    26  H    2.955677   3.363806   3.528839   4.233062   4.791601
    27  H    2.750464   2.650316   2.812596   4.317786   4.521267
                   11         12         13         14         15
    11  H    0.000000
    12  H    1.768534   0.000000
    13  C    2.989268   4.137129   0.000000
    14  C    4.893766   6.247906   2.800433   0.000000
    15  C    3.395346   4.289046   1.396043   2.420909   0.000000
    16  C    3.743839   5.196570   1.402354   2.414106   2.415574
    17  C    4.635870   6.157888   2.428613   1.393238   2.793940
    18  C    4.357790   5.413672   2.421019   1.394298   1.397856
    19  H    3.488722   3.920292   2.168673   3.391255   1.084183
    20  H    4.050903   5.520421   2.163972   3.397077   3.404281
    21  H    5.442533   7.054645   3.412342   2.155013   3.880922
    22  H    5.020363   5.871926   3.404608   2.154161   2.155909
    23  H    5.830732   7.194364   3.887624   1.087194   3.405740
    24  C    4.743157   4.253536   4.156234   6.727647   4.515359
    25  H    5.626804   4.894619   5.111853   7.549853   5.283124
    26  H    4.912315   4.463506   4.555039   7.267235   5.179404
    27  H    5.020251   4.864632   3.727426   6.134407   4.088557
                   16         17         18         19         20
    16  C    0.000000
    17  C    1.395932   0.000000
    18  C    2.785132   2.413595   0.000000
    19  H    3.409642   3.877427   2.138429   0.000000
    20  H    1.088472   2.151296   3.873511   4.316804   0.000000
    21  H    2.155433   1.087017   3.399916   4.964314   2.474198
    22  H    3.872486   3.398750   1.087403   2.454892   4.960821
    23  H    3.400088   2.153725   2.154736   4.284113   4.294355
    24  C    5.307852   6.493057   5.863131   4.038428   5.479045
    25  H    6.308466   7.431310   6.583754   4.653622   6.533211
    26  H    5.544812   6.838352   6.545630   4.851531   5.504131
    27  H    4.785586   5.897338   5.346999   3.741305   4.991451
                   21         22         23         24         25
    21  H    0.000000
    22  H    4.297923   0.000000
    23  H    2.483072   2.481133   0.000000
    24  C    7.402443   6.400777   7.768238   0.000000
    25  H    8.367056   6.992201   8.555655   1.095807   0.000000
    26  H    7.660332   7.193374   8.335730   1.094033   1.774187
    27  H    6.779525   5.913283   7.146208   1.095025   1.750682
                   26         27
    26  H    0.000000
    27  H    1.785358   0.000000
 Stoichiometry    C11H14O2
 Framework group  C1[X(C11H14O2)]
 Deg. of freedom    75
 Full point group                 C1      NOp   1
 Largest Abelian subgroup         C1      NOp   1
 Largest concise Abelian subgroup C1      NOp   1
                         Standard orientation:                         
 ---------------------------------------------------------------------
 Center     Atomic      Atomic             Coordinates (Angstroms)
 Number     Number       Type             X           Y           Z
 ---------------------------------------------------------------------
      1          6           0        2.575966   -0.370999   -0.054320
      2          1           0        3.458053   -0.627464    0.545890
      3          6           0        1.552770    0.295932    0.881240
      4          1           0        2.076747    1.130802    1.372814
      5          6           0        0.403355    0.989150    0.145209
      6          8           0        0.560003    2.123623   -0.316037
      7          8           0        2.074482   -1.600414   -0.572532
      8          1           0        2.766176   -1.979921   -1.143696
      9          6           0        1.113285   -0.613976    2.029376
     10          1           0        0.711316   -1.569959    1.684197
     11          1           0        0.347819   -0.129094    2.644787
     12          1           0        1.966603   -0.840518    2.678379
     13          6           0       -0.940165    0.365903   -0.006967
     14          6           0       -3.524315   -0.673307   -0.297891
     15          6           0       -1.123999   -0.988344   -0.291847
     16          6           0       -2.059730    1.202823    0.105883
     17          6           0       -3.347814    0.683200   -0.033602
     18          6           0       -2.414620   -1.506918   -0.431065
     19          1           0       -0.281466   -1.657010   -0.427778
     20          1           0       -1.929471    2.265558    0.301840
     21          1           0       -4.210370    1.338323    0.058137
     22          1           0       -2.552119   -2.562610   -0.652546
     23          1           0       -4.526445   -1.079525   -0.410647
     24          6           0        3.035244    0.509758   -1.211008
     25          1           0        3.850741    0.021265   -1.756105
     26          1           0        3.393791    1.480787   -0.856810
     27          1           0        2.232870    0.664364   -1.939962
 ---------------------------------------------------------------------
 Rotational constants (GHZ):      1.4430393      0.5232298      0.4670968
 Standard basis: 6-31G(d,p) (6D, 7F)
 There are   265 symmetry adapted basis functions of A   symmetry.
 Integral buffers will be    131072 words long.
 Raffenetti 2 integral format.
 Two-electron integral symmetry is turned on.
   265 basis functions,   462 primitive gaussians,   265 cartesian basis functions
    48 alpha electrons       48 beta electrons
       nuclear repulsion energy       791.1795266722 Hartrees.
 NAtoms=   27 NActive=   27 NUniq=   27 SFac= 1.00D+00 NAtFMM=   60 NAOKFM=F Big=F
 ------------------------------------------------------------------------------
 Polarizable Continuum Model (PCM)
 =================================
 Model                : C-PCM.
 Atomic radii         : SMD-Coulomb.
 Polarization charges : Total charges.
 Charge compensation  : None.
 Solution method      : Matrix inversion.
 Cavity type          : VdW (van der Waals Surface) (Alpha=1.000).
 Cavity algorithm     : GePol (No added spheres)
                        Default sphere list used, NSphG=   27.
                        Lebedev-Laikov grids with approx.  5.0 points / Ang**2.
                        Smoothing algorithm: Karplus/York (Gamma=1.0000).
                        Polarization charges: spherical gaussians, with
                                              point-specific exponents (IZeta= 3).
                        Self-potential: point-specific (ISelfS= 7).
                        Self-field    : sphere-specific E.n sum rule (ISelfD= 2).
 Solvent              : Chloroform, Eps=   4.711300 Eps(inf)=   2.090627
 ------------------------------------------------------------------------------
 ------------------------------------------------------------------------------
 Atomic radii for non-electrostatic terms: SMD-CDS.
 ------------------------------------------------------------------------------
 Nuclear repulsion after PCM non-electrostatic terms =      791.1729279066 Hartrees.
 One-electron integrals computed using PRISM.
 NBasis=   265 RedAO= T  NBF=   265
 NBsUse=   265 1.00D-06 NBFU=   265
 Harris functional with IExCor=  908 diagonalized for initial guess.
 ExpMin= 1.61D-01 ExpMax= 5.48D+03 ExpMxC= 8.25D+02 IAcc=1 IRadAn=         1 AccDes= 0.00D+00
 HarFok:  IExCor=  908 AccDes= 0.00D+00 IRadAn=         1 IDoV= 1
 ScaDFX=  1.000000  1.000000  1.000000  1.000000
 FoFCou: FMM=F IPFlag=           0 FMFlag=      100000 FMFlg1=           0
         NFxFlg=           0 DoJE=T BraDBF=F KetDBF=T FulRan=T
         Omega=  0.000000  0.000000  1.000000  0.000000  0.000000 ICntrl=     500 IOpCl=  0
         NMat0=    1 NMatS0=    1 NMatT0=    0 NMatD0=    1 NMtDS0=    0 NMtDT0=    0
         I1Cent=           4 NGrid=           0.
 Petite list used in FoFCou.
 Initial guess orbital symmetries:
       Occupied  (A) (A) (A) (A) (A) (A) (A) (A) (A) (A) (A) (A)
                 (A) (A) (A) (A) (A) (A) (A) (A) (A) (A) (A) (A)
                 (A) (A) (A) (A) (A) (A) (A) (A) (A) (A) (A) (A)
                 (A) (A) (A) (A) (A) (A) (A) (A) (A) (A) (A) (A)
       Virtual   (A) (A) (A) (A) (A) (A) (A) (A) (A) (A) (A) (A)
                 (A) (A) (A) (A) (A) (A) (A) (A) (A) (A) (A) (A)
                 (A) (A) (A) (A) (A) (A) (A) (A) (A) (A) (A) (A)
                 (A) (A) (A) (A) (A) (A) (A) (A) (A) (A) (A) (A)
                 (A) (A) (A) (A) (A) (A) (A) (A) (A) (A) (A) (A)
                 (A) (A) (A) (A) (A) (A) (A) (A) (A) (A) (A) (A)
                 (A) (A) (A) (A) (A) (A) (A) (A) (A) (A) (A) (A)
                 (A) (A) (A) (A) (A) (A) (A) (A) (A) (A) (A) (A)
                 (A) (A) (A) (A) (A) (A) (A) (A) (A) (A) (A) (A)
                 (A) (A) (A) (A) (A) (A) (A) (A) (A) (A) (A) (A)
                 (A) (A) (A) (A) (A) (A) (A) (A) (A) (A) (A) (A)
                 (A) (A) (A) (A) (A) (A) (A) (A) (A) (A) (A) (A)
                 (A) (A) (A) (A) (A) (A) (A) (A) (A) (A) (A) (A)
                 (A) (A) (A) (A) (A) (A) (A) (A) (A) (A) (A) (A)
                 (A) (A) (A) (A) (A) (A) (A) (A) (A) (A) (A) (A)
                 (A) (A) (A) (A) (A) (A) (A) (A) (A) (A) (A) (A)
                 (A) (A) (A) (A) (A) (A) (A) (A) (A) (A) (A) (A)
                 (A) (A) (A) (A) (A) (A) (A) (A) (A) (A) (A) (A)
                 (A)
 The electronic state of the initial guess is 1-A.
 Requested convergence on RMS density matrix=1.00D-08 within 128 cycles.
 Requested convergence on MAX density matrix=1.00D-06.
 Requested convergence on             energy=1.00D-06.
 No special actions if energy rises.
 Error on total polarization charges =  0.02857
 SCF Done:  E(RmPW1PW91) =  -577.940712760     A.U. after   12 cycles
             Convg  =    0.7133D-08             -V/T =  2.0093
 SMD-CDS (non-electrostatic) energy       (kcal/mol) =      -4.14
 (included in total energy above)
 Range of M.O.s used for correlation:     1   265
 NBasis=   265 NAE=    48 NBE=    48 NFC=     0 NFV=     0
 NROrb=    265 NOA=    48 NOB=    48 NVA=   217 NVB=   217
 NEqPCM:  Using equilibrium solvation (IEInf=0, Eps=   4.7113, EpsInf=   2.0906)
          Differentiating once with respect to magnetic field using GIAOs.
          Electric field/nuclear overlap derivatives assumed to be zero.
 FoFCou: FMM=F IPFlag=           0 FMFlag=    10101102 FMFlg1=           0
         NFxFlg=    40000000 DoJE=F BraDBF=F KetDBF=T FulRan=T
         Omega=  0.000000  0.000000  1.000000  0.000000  0.000000 ICntrl=    6100 IOpCl=  0
         NMat0=    1 NMatS0=    1 NMatT0=    0 NMatD0=    1 NMtDS0=    0 NMtDT0=    0
         I1Cent=           7 NGrid=        1994.
 Symmetry not used in FoFCou.
          There are     3 degrees of freedom in the 1st order CPHF.  IDoFFX=0.
      3 vectors produced by pass  0 Test12= 3.47D-13 3.33D-08 XBig12= 2.60D+01 1.23D+00.
 AX will form     3 AO Fock derivatives at one time.
      3 vectors produced by pass  1 Test12= 3.47D-13 3.33D-08 XBig12= 1.15D-01 2.16D-01.
      3 vectors produced by pass  2 Test12= 3.47D-13 3.33D-08 XBig12= 1.38D-03 1.25D-02.
      3 vectors produced by pass  3 Test12= 3.47D-13 3.33D-08 XBig12= 6.73D-06 5.25D-04.
      3 vectors produced by pass  4 Test12= 3.47D-13 3.33D-08 XBig12= 2.26D-08 2.25D-05.
      3 vectors produced by pass  5 Test12= 3.47D-13 3.33D-08 XBig12= 4.75D-11 2.57D-06.
      3 vectors produced by pass  6 Test12= 3.47D-13 3.33D-08 XBig12= 2.48D-13 1.32D-07.
 Inverted reduced A of dimension    21 with in-core refinement.
 Calculating GIAO nuclear magnetic shielding tensors.
 SCF GIAO Magnetic shielding tensor (ppm):
      1  C    Isotropic =   127.2443   Anisotropy =    41.4716
   XX=   116.0824   YX=    16.6066   ZX=     2.5000
   XY=    14.3091   YY=   140.7886   ZY=    18.7907
   XZ=    -2.7635   YZ=    12.2096   ZZ=   124.8619
   Eigenvalues:   105.4972   121.3437   154.8920
      2  H    Isotropic =    27.2942   Anisotropy =     6.2621
   XX=    29.8766   YX=    -0.5006   ZX=     2.6756
   XY=     1.3223   YY=    25.6793   ZY=     0.8232
   XZ=     2.9823   YZ=    -0.6569   ZZ=    26.3267
   Eigenvalues:    24.7445    25.6692    31.4689
      3  C    Isotropic =   144.3567   Anisotropy =    22.7606
   XX=   153.0995   YX=    -7.1103   ZX=     6.8998
   XY=    -9.1189   YY=   136.7420   ZY=    -1.5171
   XZ=    11.0420   YZ=    10.3676   ZZ=   143.2285
   Eigenvalues:   128.9550   144.5846   159.5304
      4  H    Isotropic =    28.7539   Anisotropy =     6.2911
   XX=    26.0845   YX=     3.6698   ZX=    -0.1145
   XY=     1.9314   YY=    30.9785   ZY=     0.6570
   XZ=     1.6981   YZ=     2.1749   ZZ=    29.1988
   Eigenvalues:    24.8079    28.5058    32.9480
      5  C    Isotropic =   -13.2379   Anisotropy =   175.6508
   XX=   -64.4237   YX=   -22.5864   ZX=   -49.2005
   XY=   -28.8823   YY=   -30.2385   ZY=    51.6568
   XZ=   -48.5163   YZ=    67.8702   ZZ=    54.9486
   Eigenvalues:   -82.5529   -61.0233   103.8627
      6  O    Isotropic =  -301.9193   Anisotropy =   947.8550
   XX=  -299.7521   YX=  -158.1981   ZX=  -148.6921
   XY=  -135.4377   YY=  -670.3495   ZY=   416.7666
   XZ=  -125.0624   YZ=   474.1736   ZZ=    64.3437
   Eigenvalues:  -890.2772  -345.4647   329.9840
      7  O    Isotropic =   281.0536   Anisotropy =    63.4495
   XX=   282.1918   YX=   -14.7130   ZX=   -34.2627
   XY=    -9.1397   YY=   287.5725   ZY=    16.5006
   XZ=   -23.4693   YZ=    28.7553   ZZ=   273.3964
   Eigenvalues:   245.8761   273.9314   323.3532
      8  H    Isotropic =    30.3066   Anisotropy =    18.7251
   XX=    31.5206   YX=    -3.5950   ZX=    -6.7524
   XY=    -4.6695   YY=    31.4673   ZY=     6.9464
   XZ=    -8.4006   YZ=     7.0691   ZZ=    27.9319
   Eigenvalues:    20.7571    27.3726    42.7900
      9  C    Isotropic =   179.0555   Anisotropy =    14.9806
   XX=   180.3294   YX=    -2.1374   ZX=     0.7906
   XY=     5.1947   YY=   173.9970   ZY=    -9.6819
   XZ=     3.1436   YZ=    -9.4575   ZZ=   182.8402
   Eigenvalues:   167.4478   180.6762   189.0426
     10  H    Isotropic =    29.8346   Anisotropy =     6.2355
   XX=    28.5777   YX=     3.2099   ZX=     0.0560
   XY=     2.8415   YY=    32.1320   ZY=     1.1203
   XZ=     2.6879   YZ=    -0.8457   ZZ=    28.7940
   Eigenvalues:    26.3187    29.1934    33.9915
     11  H    Isotropic =    30.6611   Anisotropy =     7.7938
   XX=    31.0566   YX=    -2.3849   ZX=    -3.7770
   XY=    -1.7778   YY=    27.0772   ZY=     1.2099
   XZ=    -1.3731   YZ=     0.9990   ZZ=    33.8496
   Eigenvalues:    26.1875    29.9389    35.8570
     12  H    Isotropic =    30.5733   Anisotropy =    10.9252
   XX=    30.9834   YX=    -0.9413   ZX=     4.0230
   XY=    -1.1910   YY=    27.0813   ZY=    -2.0583
   XZ=     5.3790   YZ=    -2.9531   ZZ=    33.6553
   Eigenvalues:    26.1201    27.7431    37.8568
     13  C    Isotropic =    61.1194   Anisotropy =   160.2790
   XX=    -7.2987   YX=   -21.9620   ZX=    -9.9365
   XY=   -19.7914   YY=    30.3774   ZY=   -22.4058
   XZ=     6.0381   YZ=   -42.4447   ZZ=   160.2796
   Eigenvalues:   -17.9454    33.3316   167.9721
     14  C    Isotropic =    68.0440   Anisotropy =   179.8024
   XX=   -19.6211   YX=   -26.4242   ZX=   -11.6866
   XY=   -26.9547   YY=    42.7192   ZY=   -28.7698
   XZ=   -17.0354   YZ=   -32.6894   ZZ=   181.0338
   Eigenvalues:   -32.3028    48.5225   187.9122
     15  C    Isotropic =    70.7849   Anisotropy =   182.1319
   XX=     8.1916   YX=    32.6539   ZX=     3.4419
   XY=    19.4576   YY=    18.0611   ZY=   -41.7591
   XZ=     6.6760   YZ=   -23.4482   ZZ=   186.1019
   Eigenvalues:   -16.5342    36.6827   192.2061
     16  C    Isotropic =    68.9082   Anisotropy =   174.0192
   XX=    49.7682   YX=    -4.5422   ZX=    -5.6926
   XY=     2.2199   YY=   -20.7835   ZY=   -41.0144
   XZ=     6.5258   YZ=   -35.8386   ZZ=   177.7398
   Eigenvalues:   -27.9764    49.7799   184.9210
     17  C    Isotropic =    70.4364   Anisotropy =   174.1563
   XX=     3.6900   YX=    40.8034   ZX=     1.3324
   XY=    40.1589   YY=    27.2350   ZY=   -29.0206
   XZ=     3.6817   YZ=   -32.7660   ZZ=   180.3841
   Eigenvalues:   -28.7769    53.5454   186.5406
     18  C    Isotropic =    71.3083   Anisotropy =   173.4723
   XX=    53.4053   YX=   -10.3795   ZX=    -5.2128
   XY=    -9.7858   YY=   -18.2568   ZY=   -41.7311
   XZ=    -8.7409   YZ=   -39.2705   ZZ=   178.7764
   Eigenvalues:   -27.8157    54.7841   186.9565
     19  H    Isotropic =    23.1169   Anisotropy =     9.6790
   XX=    28.0405   YX=     3.0171   ZX=     1.5960
   XY=     2.6455   YY=    22.5417   ZY=     0.9846
   XZ=     1.3801   YZ=     1.6773   ZZ=    18.7684
   Eigenvalues:    18.3047    21.4764    29.5696
     20  H    Isotropic =    23.6421   Anisotropy =     6.7291
   XX=    27.9477   YX=    -0.5759   ZX=     0.2920
   XY=    -1.2642   YY=    23.1674   ZY=    -0.1284
   XZ=    -0.8321   YZ=     0.3053   ZZ=    19.8113
   Eigenvalues:    19.8013    22.9968    28.1282
     21  H    Isotropic =    23.7874   Anisotropy =     4.5365
   XX=    25.6663   YX=     1.1796   ZX=     0.4431
   XY=     1.1351   YY=    25.3243   ZY=     0.8321
   XZ=     0.9156   YZ=     0.5666   ZZ=    20.3717
   Eigenvalues:    20.2235    24.3271    26.8118
     22  H    Isotropic =    23.8421   Anisotropy =     5.4595
   XX=    27.4382   YX=     0.0849   ZX=     0.4110
   XY=     0.0313   YY=    23.6134   ZY=     0.6374
   XZ=     0.6352   YZ=     1.3175   ZZ=    20.4749
   Eigenvalues:    20.1627    23.8819    27.4818
     23  H    Isotropic =    23.7851   Anisotropy =     4.3243
   XX=    24.7859   YX=    -0.9432   ZX=     0.0138
   XY=    -1.0400   YY=    25.9710   ZY=     0.9602
   XZ=    -0.3781   YZ=     0.9033   ZZ=    20.5984
   Eigenvalues:    20.4413    24.2459    26.6680
     24  C    Isotropic =   171.5681   Anisotropy =    30.6701
   XX=   161.0364   YX=    10.8439   ZX=    -8.1475
   XY=    10.0470   YY=   177.9233   ZY=    -5.0639
   XZ=    -9.6586   YZ=   -13.0089   ZZ=   175.7446
   Eigenvalues:   154.9532   167.7363   192.0148
     25  H    Isotropic =    30.5241   Anisotropy =     9.4924
   XX=    32.9201   YX=    -1.3837   ZX=    -4.3644
   XY=    -1.0468   YY=    28.4062   ZY=    -0.1891
   XZ=    -5.4848   YZ=     0.9103   ZZ=    30.2459
   Eigenvalues:    26.3726    28.3473    36.8524
     26  H    Isotropic =    30.2587   Anisotropy =     9.8693
   XX=    29.4740   YX=     4.1410   ZX=    -0.9880
   XY=     3.6688   YY=    34.7158   ZY=     0.7329
   XZ=    -2.2466   YZ=    -0.4495   ZZ=    26.5862
   Eigenvalues:    25.4194    28.5184    36.8382
     27  H    Isotropic =    30.5458   Anisotropy =     4.9176
   XX=    30.7608   YX=    -1.2860   ZX=     1.0031
   XY=    -1.3032   YY=    28.1563   ZY=    -2.3103
   XZ=     0.0761   YZ=    -1.7798   ZZ=    32.7201
   Eigenvalues:    27.0817    30.7314    33.8242
 End of Minotr Frequency-dependent properties file   721 does not exist.
 End of Minotr Frequency-dependent properties file   722 does not exist.

 **********************************************************************

            Population analysis using the SCF density.

 **********************************************************************

 Orbital symmetries:
       Occupied  (A) (A) (A) (A) (A) (A) (A) (A) (A) (A) (A) (A)
                 (A) (A) (A) (A) (A) (A) (A) (A) (A) (A) (A) (A)
                 (A) (A) (A) (A) (A) (A) (A) (A) (A) (A) (A) (A)
                 (A) (A) (A) (A) (A) (A) (A) (A) (A) (A) (A) (A)
       Virtual   (A) (A) (A) (A) (A) (A) (A) (A) (A) (A) (A) (A)
                 (A) (A) (A) (A) (A) (A) (A) (A) (A) (A) (A) (A)
                 (A) (A) (A) (A) (A) (A) (A) (A) (A) (A) (A) (A)
                 (A) (A) (A) (A) (A) (A) (A) (A) (A) (A) (A) (A)
                 (A) (A) (A) (A) (A) (A) (A) (A) (A) (A) (A) (A)
                 (A) (A) (A) (A) (A) (A) (A) (A) (A) (A) (A) (A)
                 (A) (A) (A) (A) (A) (A) (A) (A) (A) (A) (A) (A)
                 (A) (A) (A) (A) (A) (A) (A) (A) (A) (A) (A) (A)
                 (A) (A) (A) (A) (A) (A) (A) (A) (A) (A) (A) (A)
                 (A) (A) (A) (A) (A) (A) (A) (A) (A) (A) (A) (A)
                 (A) (A) (A) (A) (A) (A) (A) (A) (A) (A) (A) (A)
                 (A) (A) (A) (A) (A) (A) (A) (A) (A) (A) (A) (A)
                 (A) (A) (A) (A) (A) (A) (A) (A) (A) (A) (A) (A)
                 (A) (A) (A) (A) (A) (A) (A) (A) (A) (A) (A) (A)
                 (A) (A) (A) (A) (A) (A) (A) (A) (A) (A) (A) (A)
                 (A) (A) (A) (A) (A) (A) (A) (A) (A) (A) (A) (A)
                 (A) (A) (A) (A) (A) (A) (A) (A) (A) (A) (A) (A)
                 (A) (A) (A) (A) (A) (A) (A) (A) (A) (A) (A) (A)
                 (A)
 The electronic state is 1-A.
 Alpha  occ. eigenvalues --  -19.23289 -19.22699 -10.33548 -10.29794 -10.25946
 Alpha  occ. eigenvalues --  -10.25605 -10.25530 -10.25417 -10.25324 -10.25180
 Alpha  occ. eigenvalues --  -10.25163 -10.23062 -10.22637  -1.05969  -1.04320
 Alpha  occ. eigenvalues --   -0.88280  -0.82264  -0.78044  -0.76809  -0.74625
 Alpha  occ. eigenvalues --   -0.66922  -0.64878  -0.62409  -0.61050  -0.56218
 Alpha  occ. eigenvalues --   -0.52554  -0.51012  -0.47422  -0.46909  -0.46330
 Alpha  occ. eigenvalues --   -0.45229  -0.44410  -0.43517  -0.42710  -0.41650
 Alpha  occ. eigenvalues --   -0.39430  -0.38697  -0.38240  -0.37074  -0.36668
 Alpha  occ. eigenvalues --   -0.35743  -0.34829  -0.34297  -0.32681  -0.28057
 Alpha  occ. eigenvalues --   -0.26674  -0.26432  -0.25148
 Alpha virt. eigenvalues --   -0.04274   0.00074   0.03436   0.08975   0.11846
 Alpha virt. eigenvalues --    0.13942   0.14742   0.16076   0.16782   0.16990
 Alpha virt. eigenvalues --    0.17542   0.18294   0.18808   0.20368   0.20840
 Alpha virt. eigenvalues --    0.21148   0.21414   0.23101   0.23997   0.24820
 Alpha virt. eigenvalues --    0.25884   0.27092   0.28480   0.31330   0.32091
 Alpha virt. eigenvalues --    0.32862   0.34022   0.37675   0.41060   0.48496
 Alpha virt. eigenvalues --    0.50558   0.53928   0.54578   0.54709   0.55210
 Alpha virt. eigenvalues --    0.55813   0.57170   0.58388   0.60519   0.60887
 Alpha virt. eigenvalues --    0.61075   0.61374   0.62250   0.62600   0.63540
 Alpha virt. eigenvalues --    0.65634   0.66015   0.67616   0.68998   0.69590
 Alpha virt. eigenvalues --    0.71296   0.72686   0.75406   0.78435   0.79183
 Alpha virt. eigenvalues --    0.80191   0.81400   0.82983   0.84048   0.84828
 Alpha virt. eigenvalues --    0.84943   0.85999   0.86799   0.89444   0.90875
 Alpha virt. eigenvalues --    0.91047   0.92220   0.92920   0.93398   0.93609
 Alpha virt. eigenvalues --    0.94296   0.96274   0.97266   0.97533   0.99998
 Alpha virt. eigenvalues --    1.00831   1.02504   1.03082   1.09029   1.09585
 Alpha virt. eigenvalues --    1.11962   1.13196   1.14301   1.16052   1.17735
 Alpha virt. eigenvalues --    1.21358   1.22773   1.24185   1.27775   1.29174
 Alpha virt. eigenvalues --    1.34045   1.34534   1.36815   1.41090   1.42324
 Alpha virt. eigenvalues --    1.42824   1.43037   1.45318   1.46314   1.47581
 Alpha virt. eigenvalues --    1.48972   1.50047   1.59402   1.63913   1.65554
 Alpha virt. eigenvalues --    1.66537   1.70798   1.71758   1.74293   1.75945
 Alpha virt. eigenvalues --    1.78094   1.79343   1.81260   1.83658   1.84909
 Alpha virt. eigenvalues --    1.86896   1.88896   1.90882   1.91589   1.93904
 Alpha virt. eigenvalues --    1.95299   1.97269   1.98239   1.99522   2.00259
 Alpha virt. eigenvalues --    2.00841   2.02109   2.03606   2.05278   2.05948
 Alpha virt. eigenvalues --    2.07031   2.08153   2.09950   2.10670   2.10940
 Alpha virt. eigenvalues --    2.14340   2.15321   2.15561   2.16810   2.23502
 Alpha virt. eigenvalues --    2.25101   2.26618   2.29871   2.31223   2.32359
 Alpha virt. eigenvalues --    2.34940   2.36102   2.37204   2.38816   2.39567
 Alpha virt. eigenvalues --    2.41825   2.42912   2.44011   2.45260   2.46585
 Alpha virt. eigenvalues --    2.47728   2.50083   2.50634   2.52895   2.54643
 Alpha virt. eigenvalues --    2.55059   2.55927   2.60216   2.61124   2.64508
 Alpha virt. eigenvalues --    2.65385   2.66873   2.68140   2.68429   2.70376
 Alpha virt. eigenvalues --    2.71303   2.74037   2.76450   2.77222   2.79269
 Alpha virt. eigenvalues --    2.80556   2.83353   2.85406   2.88153   2.90043
 Alpha virt. eigenvalues --    2.92162   2.95311   2.97399   3.01402   3.04498
 Alpha virt. eigenvalues --    3.05912   3.07481   3.10952   3.21664   3.23599
 Alpha virt. eigenvalues --    3.25011   3.26388   3.28539   3.35255   3.39057
 Alpha virt. eigenvalues --    3.41971   3.46256   3.48978   3.49437   3.50820
 Alpha virt. eigenvalues --    3.52468   3.54151   3.56213   3.92127   4.00679
 Alpha virt. eigenvalues --    4.13863   4.16241   4.18821   4.20893   4.30771
 Alpha virt. eigenvalues --    4.44670   4.46471   4.55414   4.56400   4.67258
 Alpha virt. eigenvalues --    4.80683   4.87898
          Condensed to atoms (all electrons):
              1          2          3          4          5          6
     1  C    4.757141   0.402945   0.350374  -0.027069  -0.025486  -0.005873
     2  H    0.402945   0.629136  -0.053090  -0.005095   0.005959  -0.000172
     3  C    0.350374  -0.053090   5.253181   0.385930   0.307394  -0.071649
     4  H   -0.027069  -0.005095   0.385930   0.546152  -0.038220   0.001534
     5  C   -0.025486   0.005959   0.307394  -0.038220   4.627636   0.509654
     6  O   -0.005873  -0.000172  -0.071649   0.001534   0.509654   8.136314
     7  O    0.221778  -0.043423  -0.060387   0.002591   0.002804  -0.000001
     8  H   -0.024062  -0.004492   0.007087  -0.000182  -0.000036  -0.000005
     9  C   -0.046237  -0.008271   0.318460  -0.042610  -0.039932   0.002975
    10  H   -0.007954  -0.000392  -0.029622   0.004737  -0.005692  -0.000040
    11  H    0.004163  -0.000092  -0.034441  -0.002182  -0.003819   0.000120
    12  H   -0.003345   0.004130  -0.025870  -0.006463   0.004027  -0.000074
    13  C   -0.001722  -0.000193  -0.092685   0.005468   0.330443  -0.093535
    14  C   -0.000001   0.000000  -0.000001   0.000000   0.000231  -0.000013
    15  C    0.000738  -0.000034  -0.002684  -0.000014  -0.039354   0.001829
    16  C    0.000040   0.000002   0.006249  -0.000215  -0.037627   0.002453
    17  C    0.000002   0.000000  -0.000067   0.000001   0.005504   0.000762
    18  C   -0.000015   0.000001  -0.000241   0.000004   0.004270  -0.000075
    19  H   -0.001817   0.000323   0.000787  -0.000030  -0.004764   0.000053
    20  H    0.000002   0.000000   0.000574  -0.000025  -0.006442   0.008829
    21  H    0.000000   0.000000   0.000002   0.000000  -0.000136   0.000002
    22  H    0.000000   0.000000   0.000006   0.000000  -0.000128   0.000001
    23  H    0.000000   0.000000   0.000000   0.000000   0.000005   0.000000
    24  C    0.352828  -0.058553  -0.049146  -0.002573  -0.012696   0.004012
    25  H   -0.028704  -0.007424   0.005112   0.000080   0.000209   0.000187
    26  H   -0.025871   0.001347  -0.002571   0.002203  -0.000285   0.001789
    27  H   -0.026271   0.005898  -0.010739   0.000013   0.006717   0.000958
              7          8          9         10         11         12
     1  C    0.221778  -0.024062  -0.046237  -0.007954   0.004163  -0.003345
     2  H   -0.043423  -0.004492  -0.008271  -0.000392  -0.000092   0.004130
     3  C   -0.060387   0.007087   0.318460  -0.029622  -0.034441  -0.025870
     4  H    0.002591  -0.000182  -0.042610   0.004737  -0.002182  -0.006463
     5  C    0.002804  -0.000036  -0.039932  -0.005692  -0.003819   0.004027
     6  O   -0.000001  -0.000005   0.002975  -0.000040   0.000120  -0.000074
     7  O    8.196346   0.292034   0.000633   0.006052   0.000107  -0.000355
     8  H    0.292034   0.381240  -0.000082  -0.000222   0.000004  -0.000024
     9  C    0.000633  -0.000082   5.072130   0.386748   0.388828   0.379470
    10  H    0.006052  -0.000222   0.386748   0.546446  -0.028659  -0.027288
    11  H    0.000107   0.000004   0.388828  -0.028659   0.554444  -0.027353
    12  H   -0.000355  -0.000024   0.379470  -0.027288  -0.027353   0.558381
    13  C   -0.001180  -0.000002   0.002286   0.001499   0.001971   0.000069
    14  C    0.000000   0.000000  -0.000004   0.000004   0.000000   0.000000
    15  C   -0.008055   0.000313  -0.003306   0.001443   0.000032   0.000195
    16  C   -0.000002   0.000000  -0.000802   0.000001   0.000131   0.000016
    17  C    0.000000   0.000000  -0.000033  -0.000012   0.000014   0.000000
    18  C    0.000237  -0.000007  -0.000063   0.000188  -0.000063   0.000000
    19  H    0.023098  -0.000703  -0.002092   0.001333  -0.000085   0.000084
    20  H    0.000000   0.000000  -0.000059  -0.000001  -0.000014   0.000001
    21  H    0.000000   0.000000   0.000000   0.000000   0.000000   0.000000
    22  H   -0.000004   0.000000  -0.000001   0.000000  -0.000001   0.000000
    23  H    0.000000   0.000000   0.000000   0.000000   0.000000   0.000000
    24  C   -0.055316  -0.003876   0.006468   0.000197  -0.000106  -0.000113
    25  H   -0.001907   0.004079  -0.000120  -0.000001   0.000002  -0.000003
    26  H    0.003900  -0.000060  -0.000108  -0.000007  -0.000005  -0.000004
    27  H    0.001501  -0.000675  -0.000107   0.000002   0.000000   0.000003
             13         14         15         16         17         18
     1  C   -0.001722  -0.000001   0.000738   0.000040   0.000002  -0.000015
     2  H   -0.000193   0.000000  -0.000034   0.000002   0.000000   0.000001
     3  C   -0.092685  -0.000001  -0.002684   0.006249  -0.000067  -0.000241
     4  H    0.005468   0.000000  -0.000014  -0.000215   0.000001   0.000004
     5  C    0.330443   0.000231  -0.039354  -0.037627   0.005504   0.004270
     6  O   -0.093535  -0.000013   0.001829   0.002453   0.000762  -0.000075
     7  O   -0.001180   0.000000  -0.008055  -0.000002   0.000000   0.000237
     8  H   -0.000002   0.000000   0.000313   0.000000   0.000000  -0.000007
     9  C    0.002286  -0.000004  -0.003306  -0.000802  -0.000033  -0.000063
    10  H    0.001499   0.000004   0.001443   0.000001  -0.000012   0.000188
    11  H    0.001971   0.000000   0.000032   0.000131   0.000014  -0.000063
    12  H    0.000069   0.000000   0.000195   0.000016   0.000000   0.000000
    13  C    4.995763  -0.031384   0.529309   0.513173  -0.036538  -0.032756
    14  C   -0.031384   4.866382  -0.049859  -0.046366   0.538039   0.544152
    15  C    0.529309  -0.049859   4.945231  -0.050616  -0.039362   0.519025
    16  C    0.513173  -0.046366  -0.050616   4.925156   0.515567  -0.041049
    17  C   -0.036538   0.538039  -0.039362   0.515567   4.900536  -0.040793
    18  C   -0.032756   0.544152   0.519025  -0.041049  -0.040793   4.893840
    19  H   -0.040008   0.004001   0.366466   0.004606   0.000155  -0.033220
    20  H   -0.044995   0.004119   0.004799   0.380828  -0.035131   0.000197
    21  H    0.003506  -0.037632   0.000606  -0.034286   0.381316   0.003884
    22  H    0.003122  -0.037446  -0.033836   0.000665   0.003888   0.381032
    23  H    0.000434   0.381792   0.004232   0.004074  -0.037243  -0.037013
    24  C    0.000793   0.000000  -0.000247  -0.000021   0.000000   0.000000
    25  H    0.000022   0.000000  -0.000003   0.000000   0.000000   0.000000
    26  H    0.000035   0.000000   0.000007   0.000000   0.000000   0.000000
    27  H   -0.000266   0.000000   0.000114   0.000015   0.000000   0.000003
             19         20         21         22         23         24
     1  C   -0.001817   0.000002   0.000000   0.000000   0.000000   0.352828
     2  H    0.000323   0.000000   0.000000   0.000000   0.000000  -0.058553
     3  C    0.000787   0.000574   0.000002   0.000006   0.000000  -0.049146
     4  H   -0.000030  -0.000025   0.000000   0.000000   0.000000  -0.002573
     5  C   -0.004764  -0.006442  -0.000136  -0.000128   0.000005  -0.012696
     6  O    0.000053   0.008829   0.000002   0.000001   0.000000   0.004012
     7  O    0.023098   0.000000   0.000000  -0.000004   0.000000  -0.055316
     8  H   -0.000703   0.000000   0.000000   0.000000   0.000000  -0.003876
     9  C   -0.002092  -0.000059   0.000000  -0.000001   0.000000   0.006468
    10  H    0.001333  -0.000001   0.000000   0.000000   0.000000   0.000197
    11  H   -0.000085  -0.000014   0.000000  -0.000001   0.000000  -0.000106
    12  H    0.000084   0.000001   0.000000   0.000000   0.000000  -0.000113
    13  C   -0.040008  -0.044995   0.003506   0.003122   0.000434   0.000793
    14  C    0.004001   0.004119  -0.037632  -0.037446   0.381792   0.000000
    15  C    0.366466   0.004799   0.000606  -0.033836   0.004232  -0.000247
    16  C    0.004606   0.380828  -0.034286   0.000665   0.004074  -0.000021
    17  C    0.000155  -0.035131   0.381316   0.003888  -0.037243   0.000000
    18  C   -0.033220   0.000197   0.003884   0.381032  -0.037013   0.000000
    19  H    0.516526  -0.000106   0.000012  -0.004213  -0.000135   0.000128
    20  H   -0.000106   0.532007  -0.004421   0.000014  -0.000140  -0.000002
    21  H    0.000012  -0.004421   0.534502  -0.000147  -0.004538   0.000000
    22  H   -0.004213   0.000014  -0.000147   0.534867  -0.004541   0.000000
    23  H   -0.000135  -0.000140  -0.004538  -0.004541   0.536287   0.000000
    24  C    0.000128  -0.000002   0.000000   0.000000   0.000000   5.123584
    25  H   -0.000012   0.000000   0.000000   0.000000   0.000000   0.378345
    26  H   -0.000012   0.000000   0.000000   0.000000   0.000000   0.362315
    27  H    0.000235   0.000003   0.000000   0.000000   0.000000   0.376818
             25         26         27
     1  C   -0.028704  -0.025871  -0.026271
     2  H   -0.007424   0.001347   0.005898
     3  C    0.005112  -0.002571  -0.010739
     4  H    0.000080   0.002203   0.000013
     5  C    0.000209  -0.000285   0.006717
     6  O    0.000187   0.001789   0.000958
     7  O   -0.001907   0.003900   0.001501
     8  H    0.004079  -0.000060  -0.000675
     9  C   -0.000120  -0.000108  -0.000107
    10  H   -0.000001  -0.000007   0.000002
    11  H    0.000002  -0.000005   0.000000
    12  H   -0.000003  -0.000004   0.000003
    13  C    0.000022   0.000035  -0.000266
    14  C    0.000000   0.000000   0.000000
    15  C   -0.000003   0.000007   0.000114
    16  C    0.000000   0.000000   0.000015
    17  C    0.000000   0.000000   0.000000
    18  C    0.000000   0.000000   0.000003
    19  H   -0.000012  -0.000012   0.000235
    20  H    0.000000   0.000000   0.000003
    21  H    0.000000   0.000000   0.000000
    22  H    0.000000   0.000000   0.000000
    23  H    0.000000   0.000000   0.000000
    24  C    0.378345   0.362315   0.376818
    25  H    0.573421  -0.025485  -0.033731
    26  H   -0.025485   0.559620  -0.022253
    27  H   -0.033731  -0.022253   0.552204
 Mulliken atomic charges:
              1
     1  C    0.134415
     2  H    0.131491
     3  C   -0.201961
     4  H    0.175966
     5  C    0.409766
     6  O   -0.500036
     7  O   -0.580453
     8  H    0.349670
     9  C   -0.414170
    10  H    0.151243
    11  H    0.147005
    12  H    0.144516
    13  C   -0.012630
    14  C   -0.136015
    15  C   -0.146966
    16  C   -0.141991
    17  C   -0.156604
    18  C   -0.161538
    19  H    0.169390
    20  H    0.159962
    21  H    0.157330
    22  H    0.156722
    23  H    0.156787
    24  C   -0.422840
    25  H    0.135934
    26  H    0.145446
    27  H    0.149559
 Sum of Mulliken atomic charges =   0.00000
 Mulliken charges with hydrogens summed into heavy atoms:
              1
     1  C    0.265906
     3  C   -0.025996
     5  C    0.409766
     6  O   -0.500036
     7  O   -0.230783
     9  C    0.028594
    13  C   -0.012630
    14  C    0.020772
    15  C    0.022425
    16  C    0.017971
    17  C    0.000726
    18  C   -0.004815
    24  C    0.008099
 Sum of Mulliken charges with hydrogens summed into heavy atoms =   0.00000
 Electronic spatial extent (au):  <R**2>=           2594.2032
 Charge=              0.0000 electrons
 Dipole moment (field-independent basis, Debye):
    X=              1.1593    Y=             -2.6748    Z=              0.6716  Tot=              2.9916
 Quadrupole moment (field-independent basis, Debye-Ang):
   XX=            -57.7868   YY=            -78.8545   ZZ=            -76.3175
   XY=             -4.0062   XZ=             -1.2458   YZ=              5.6474
 Traceless Quadrupole moment (field-independent basis, Debye-Ang):
   XX=             13.1995   YY=             -7.8682   ZZ=             -5.3313
   XY=             -4.0062   XZ=             -1.2458   YZ=              5.6474
 Octapole moment (field-independent basis, Debye-Ang**2):
  XXX=             13.1248  YYY=            -23.4750  ZZZ=             -1.8578  XYY=             -5.0012
  XXY=            -13.9244  XXZ=            -12.6280  XZZ=             20.7448  YZZ=             -2.9158
  YYZ=             -2.6701  XYZ=              4.4372
 Hexadecapole moment (field-independent basis, Debye-Ang**3):
 XXXX=          -2021.6962 YYYY=           -651.2767 ZZZZ=           -419.1856 XXXY=            -59.3350
 XXXZ=            -25.3334 YYYX=            -32.6470 YYYZ=             35.5665 ZZZX=            -14.3007
 ZZZY=              8.8426 XXYY=           -435.8666 XXZZ=           -461.4193 YYZZ=           -174.6721
 XXYZ=             40.4204 YYXZ=            -11.4775 ZZXY=            -16.4972
 N-N= 7.911729279066D+02 E-N=-2.927314134410D+03  KE= 5.726030537691D+02
 1\1\GINC-COMPUTE-8-7\SP\RmPW1PW91\6-31G(d,p)\C11H14O2\FBRUNO.IQUIR\21-
 Dec-2021\0\\# mPW1PW91/6-31g** scrf=(pcm,solvent=chloroform,smd,dovacu
 um) nmr\\comment\\0,1\C,0,1.134901586,0.613442267,2.024012039\H,0,0.97
 7699497,1.089030392,3.000334713\C,0,0.157520942,1.26003279,1.027193177
 \H,0,0.329040519,2.346682002,1.081777054\C,0,0.461115206,0.931039807,-
 0.436719302\O,0,1.330400224,1.562853834,-1.044560768\O,0,0.846397864,-
 0.770814781,2.203149433\H,0,1.485243114,-1.120561111,2.849870609\C,0,-
 1.307728466,1.079623318,1.426936654\H,0,-1.583751397,0.031609899,1.568
 750228\H,0,-1.976955241,1.505038125,0.67133323\H,0,-1.506100618,1.5943
 85174,2.373692504\C,0,-0.288562422,-0.108060996,-1.194936565\C,0,-1.67
 1728952,-1.988099858,-2.742428522\C,0,-0.659611847,-1.335230927,-0.642
 384991\C,0,-0.592443253,0.161532262,-2.537163184\C,0,-1.286903494,-0.7
 73643123,-3.306446823\C,0,-1.355088709,-2.270412767,-1.414232628\H,0,-
 0.404969595,-1.595680032,0.37877883\H,0,-0.285918124,1.103737486,-2.98
 7787271\H,0,-1.52094676,-0.555606303,-4.345335102\H,0,-1.642062879,-3.
 224572619,-0.978720366\H,0,-2.20938184,-2.719507442,-3.340727827\C,0,2
 .605327148,0.774786146,1.654671605\H,0,3.240887942,0.404987636,2.46713
 9697\H,0,2.859300284,1.823056701,1.471544594\H,0,2.86431927,0.18035212
 2,0.772258982\\Version=EM64L-G09RevC.01\State=1-A\HF=-577.9407128\RMSD
 =7.133e-09\Dipole=-0.3915121,-0.4580643,1.0110391\Quadrupole=-4.034818
 4,-1.6161988,5.6510172,-1.1236508,8.2161995,2.5089716\PG=C01 [X(C11H14
 O2)]\\@


 IN SO FAR AS QUANTUM MECHANICS IS CORRECT, CHEMICAL 
 QUESTIONS ARE PROBLEMS IN APPLIED MATHEMATICS.

                    -- EYRING, WALTER, & KIMBALL, 1944
 Job cpu time:  0 days  0 hours 22 minutes 46.1 seconds.
 File lengths (MBytes):  RWF=     79 Int=      0 D2E=      0 Chk=      5 Scr=      1
 Normal termination of Gaussian 09 at Tue Dec 21 10:09:46 2021.
