 Entering Gaussian System, Link 0=g09
 Input=/home/eluciano.iquir/wb9/73a_003.gjc
 Output=/home/eluciano.iquir/wb9/73a_003.log
 Initial command:
 /share/apps/Gaussian09/EM64T.SSE4.2-enabled/g09/l1.exe /tmp/Gau-27985.inp -scrdir=/tmp/
 Entering Link 1 = /share/apps/Gaussian09/EM64T.SSE4.2-enabled/g09/l1.exe PID=     27986.
  
 Copyright (c) 1988,1990,1992,1993,1995,1998,2003,2009,2011,
            Gaussian, Inc.  All Rights Reserved.
  
 This is part of the Gaussian(R) 09 program.  It is based on
 the Gaussian(R) 03 system (copyright 2003, Gaussian, Inc.),
 the Gaussian(R) 98 system (copyright 1998, Gaussian, Inc.),
 the Gaussian(R) 94 system (copyright 1995, Gaussian, Inc.),
 the Gaussian 92(TM) system (copyright 1992, Gaussian, Inc.),
 the Gaussian 90(TM) system (copyright 1990, Gaussian, Inc.),
 the Gaussian 88(TM) system (copyright 1988, Gaussian, Inc.),
 the Gaussian 86(TM) system (copyright 1986, Carnegie Mellon
 University), and the Gaussian 82(TM) system (copyright 1983,
 Carnegie Mellon University). Gaussian is a federally registered
 trademark of Gaussian, Inc.
  
 This software contains proprietary and confidential information,
 including trade secrets, belonging to Gaussian, Inc.
  
 This software is provided under written license and may be
 used, copied, transmitted, or stored only in accord with that
 written license.
  
 The following legend is applicable only to US Government
 contracts under FAR:
  
                    RESTRICTED RIGHTS LEGEND
  
 Use, reproduction and disclosure by the US Government is
 subject to restrictions as set forth in subparagraphs (a)
 and (c) of the Commercial Computer Software - Restricted
 Rights clause in FAR 52.227-19.
  
 Gaussian, Inc.
 340 Quinnipiac St., Bldg. 40, Wallingford CT 06492
  
  
 ---------------------------------------------------------------
 Warning -- This program may not be used in any manner that
 competes with the business of Gaussian, Inc. or will provide
 assistance to any competitor of Gaussian, Inc.  The licensee
 of this program is prohibited from giving any competitor of
 Gaussian, Inc. access to this program.  By using this program,
 the user acknowledges that Gaussian, Inc. is engaged in the
 business of creating and licensing software in the field of
 computational chemistry and represents and warrants to the
 licensee that it is not a competitor of Gaussian, Inc. and that
 it will not use this program in any manner prohibited above.
 ---------------------------------------------------------------
  

 Cite this work as:
 Gaussian 09, Revision C.01,
 M. J. Frisch, G. W. Trucks, H. B. Schlegel, G. E. Scuseria, 
 M. A. Robb, J. R. Cheeseman, G. Scalmani, V. Barone, B. Mennucci, 
 G. A. Petersson, H. Nakatsuji, M. Caricato, X. Li, H. P. Hratchian, 
 A. F. Izmaylov, J. Bloino, G. Zheng, J. L. Sonnenberg, M. Hada, 
 M. Ehara, K. Toyota, R. Fukuda, J. Hasegawa, M. Ishida, T. Nakajima, 
 Y. Honda, O. Kitao, H. Nakai, T. Vreven, J. A. Montgomery, Jr., 
 J. E. Peralta, F. Ogliaro, M. Bearpark, J. J. Heyd, E. Brothers, 
 K. N. Kudin, V. N. Staroverov, T. Keith, R. Kobayashi, J. Normand, 
 K. Raghavachari, A. Rendell, J. C. Burant, S. S. Iyengar, J. Tomasi, 
 M. Cossi, N. Rega, J. M. Millam, M. Klene, J. E. Knox, J. B. Cross, 
 V. Bakken, C. Adamo, J. Jaramillo, R. Gomperts, R. E. Stratmann, 
 O. Yazyev, A. J. Austin, R. Cammi, C. Pomelli, J. W. Ochterski, 
 R. L. Martin, K. Morokuma, V. G. Zakrzewski, G. A. Voth, 
 P. Salvador, J. J. Dannenberg, S. Dapprich, A. D. Daniels, 
 O. Farkas, J. B. Foresman, J. V. Ortiz, J. Cioslowski, 
 and D. J. Fox, Gaussian, Inc., Wallingford CT, 2010.
 
 ******************************************
 Gaussian 09:  EM64L-G09RevC.01 23-Sep-2011
                17-May-2022 
 ******************************************
 %nprocshared=4
 Will use up to    4 processors via shared memory.
 ----------------------------------------------------------------
 # wb97xd/6-31+g** scrf=(pcm,solvent=chloroform,smd,dovacuum) nmr
 ----------------------------------------------------------------
 1/38=1/1;
 2/12=2,17=6,18=5,40=1/2;
 3/5=1,6=6,7=111,11=2,16=1,25=1,30=1,70=32101,72=7,74=-58/1,2,8,3;
 4//1;
 5/5=2,38=5,53=7/2;
 8/6=1,10=90,11=11/1;
 10/13=100,45=16/2;
 6/7=2,8=2,9=2,10=2,28=1/1;
 99/9=1/99;
 -------
 comment
 -------
 Charge =  0 Multiplicity = 1
 Symbolic Z-Matrix:
 6                     1.63171   0.83023  -1.58131 
 6                    -0.13842   2.93184  -2.06078 
 6                     1.40953   1.27501  -2.88562 
 6                     0.97274   1.43387  -0.50026 
 6                     0.0814    2.48803  -0.75614 
 6                     0.52619   2.32575  -3.12469 
 6                     1.20996   0.93367   0.91328 
 6                     0.01799   0.14974   1.47987 
 6                    -0.17249  -1.11636   0.67621 
 8                    -1.48918  -1.28775   0.37138 
 6                    -1.80597  -2.45519  -0.40001 
 8                     1.49005   2.06078   1.75336 
 6                     0.21288  -0.2346    2.94604 
 8                     0.72875  -1.88786   0.37327 
 6                    -2.02947  -3.64263   0.51729 
 1                     2.31694   0.00012  -1.41597 
 1                    -0.82985   3.74969  -2.24685 
 1                     1.92405   0.79795  -3.71598 
 1                    -0.44647   2.97      0.06511 
 1                     0.35366   2.67029  -4.14098 
 1                     2.11524   0.31392   0.93231 
 1                    -0.8898    0.76332   1.413 
 1                    -1.02955  -2.66343  -1.14513 
 1                    -2.72743  -2.23547  -0.94907 
 1                     2.04739   2.66736   1.23395 
 1                     0.26319   0.65235   3.58547 
 1                    -0.61897  -0.85441   3.299 
 1                     1.13403  -0.81096   3.0871 
 1                    -1.12103  -3.88204   1.07898 
 1                    -2.32834  -4.52473  -0.05595 
 1                    -2.80876  -3.4185    1.25311 
 
                          Input orientation:                          
 ---------------------------------------------------------------------
 Center     Atomic      Atomic             Coordinates (Angstroms)
 Number     Number       Type             X           Y           Z
 ---------------------------------------------------------------------
      1          6           0        1.631707    0.830234   -1.581309
      2          6           0       -0.138419    2.931841   -2.060783
      3          6           0        1.409528    1.275013   -2.885616
      4          6           0        0.972736    1.433871   -0.500256
      5          6           0        0.081401    2.488033   -0.756136
      6          6           0        0.526192    2.325749   -3.124689
      7          6           0        1.209961    0.933674    0.913279
      8          6           0        0.017994    0.149742    1.479873
      9          6           0       -0.172487   -1.116359    0.676209
     10          8           0       -1.489184   -1.287754    0.371381
     11          6           0       -1.805968   -2.455189   -0.400011
     12          8           0        1.490052    2.060775    1.753359
     13          6           0        0.212879   -0.234600    2.946039
     14          8           0        0.728752   -1.887857    0.373273
     15          6           0       -2.029475   -3.642634    0.517290
     16          1           0        2.316935    0.000123   -1.415968
     17          1           0       -0.829847    3.749689   -2.246847
     18          1           0        1.924046    0.797949   -3.715978
     19          1           0       -0.446467    2.970000    0.065110
     20          1           0        0.353662    2.670291   -4.140981
     21          1           0        2.115244    0.313917    0.932306
     22          1           0       -0.889797    0.763318    1.412996
     23          1           0       -1.029545   -2.663431   -1.145132
     24          1           0       -2.727426   -2.235468   -0.949071
     25          1           0        2.047394    2.667363    1.233951
     26          1           0        0.263191    0.652352    3.585469
     27          1           0       -0.618966   -0.854409    3.298998
     28          1           0        1.134035   -0.810960    3.087103
     29          1           0       -1.121031   -3.882044    1.078975
     30          1           0       -2.328341   -4.524734   -0.055946
     31          1           0       -2.808755   -3.418497    1.253111
 ---------------------------------------------------------------------
                    Distance matrix (angstroms):
                    1          2          3          4          5
     1  C    0.000000
     2  C    2.789264   0.000000
     3  C    1.395854   2.412792   0.000000
     4  C    1.402603   2.431836   2.430219   0.000000
     5  C    2.415089   1.395490   2.787476   1.403999   0.000000
     6  C    2.416764   1.393180   1.393371   2.807579   2.415413
     7  C    2.532101   3.828296   3.819417   1.518076   2.544922
     8  C    3.526750   4.505639   4.718060   2.545865   3.235948
     9  C    3.484355   4.886738   4.572530   3.033031   3.886864
    10  O    4.247214   5.054203   5.057503   3.772008   4.242004
    11  C    4.899701   5.878688   5.516525   4.780798   5.303247
    12  O    3.557289   4.237730   4.705741   2.395706   2.909366
    13  C    4.862491   5.934478   6.141587   3.903604   4.597403
    14  O    3.467525   5.468647   4.592119   3.443320   4.565418
    15  C    6.149384   7.310697   6.898534   5.984946   6.607760
    16  H    1.089018   3.878082   2.146764   2.168187   3.409207
    17  H    3.876262   1.087000   3.398065   3.415100   2.155080
    18  H    2.154836   3.398077   1.087116   3.413247   3.874583
    19  H    3.407066   2.148435   3.876142   2.166442   1.088752
    20  H    3.401636   2.153549   2.153507   3.894466   3.400665
    21  H    2.611255   4.570679   3.999784   2.147523   3.422592
    22  H    3.915140   4.163437   4.901713   2.753035   2.936495
    23  H    4.413413   5.739303   4.948708   4.605744   5.284232
    24  H    5.366590   5.885571   5.760909   5.230361   5.498927
    25  H    3.387259   3.962701   4.395036   2.384086   2.803165
    26  H    5.347903   6.102256   6.601268   4.219878   4.717235
    27  H    5.632135   6.579808   6.848261   4.712119   5.301560
    28  H    4.973456   6.490642   6.332500   4.234906   5.173189
    29  H    6.071264   7.566548   6.979753   5.927629   6.737311
    30  H    6.832598   8.025936   7.457597   6.826382   7.448223
    31  H    6.767818   7.644566   7.546656   6.396831   6.875840
                    6          7          8          9         10
     6  C    0.000000
     7  C    4.325575   0.000000
     8  C    5.118130   1.535045   0.000000
     9  C    5.175238   2.483948   1.511678   0.000000
    10  O    5.416793   3.537482   2.359393   1.362346   0.000000
    11  C    5.976638   4.722811   3.694112   2.370437   1.434678
    12  O    4.979417   1.433368   2.427714   3.744125   4.690241
    13  C    6.596005   2.547773   1.528182   2.465387   3.261137
    14  O    5.480076   2.912765   2.425190   1.224423   2.297688
    15  C    7.444263   5.620796   4.415973   3.139383   2.420468
    16  H    3.396325   2.742682   3.700461   3.438163   4.397702
    17  H    2.153382   4.698634   5.250419   5.714438   5.715389
    18  H    2.153554   4.685975   5.572259   5.229850   5.718986
    19  H    3.396460   2.758581   3.189222   4.140874   4.394261
    20  H    1.086888   5.412451   6.169265   6.149867   6.278822
    21  H    4.799142   1.097268   2.173761   2.710164   3.983954
    22  H    5.003679   2.165115   1.097740   2.142562   2.377209
    23  H    5.588460   4.710797   3.987723   2.538753   2.098468
    24  H    6.010328   5.386541   4.373365   3.228258   2.043281
    25  H    4.629092   1.951871   3.243047   4.422160   5.375347
    26  H    6.920668   2.848880   2.178595   3.432484   4.143089
    27  H    7.258687   3.497695   2.173305   2.673384   3.084803
    28  H    6.985326   2.788373   2.179836   2.759108   3.805753
    29  H    7.675991   5.352768   4.208729   2.951436   2.714143
    30  H    8.030856   6.576716   5.451124   4.098875   3.371176
    31  H    7.955085   5.933545   4.557879   3.547191   2.656837
                   11         12         13         14         15
    11  C    0.000000
    12  O    5.991217   0.000000
    13  C    4.494753   2.884857   0.000000
    14  O    2.710099   4.251577   3.101372   0.000000
    15  C    1.517044   6.814970   4.747807   3.272278   0.000000
    16  H    4.905003   3.869711   4.848634   3.047651   5.991531
    17  H    6.547070   4.923009   6.627813   6.409070   7.982857
    18  H    5.957478   5.629985   6.955337   5.036293   7.298607
    19  H    5.612241   2.725249   4.359352   5.007482   6.814493
    20  H    6.702939   6.033750   7.660552   6.426187   8.199503
    21  H    4.981859   2.028918   2.824001   2.661331   5.745018
    22  H    3.805935   2.731835   2.135873   3.275584   4.638272
    23  H    1.096085   6.088329   4.917369   2.449221   2.173096
    24  H    1.094911   6.599087   5.274537   3.716799   2.148830
    25  H    6.615041   0.973840   3.836415   4.819710   7.546557
    26  H    5.460977   2.616385   1.094571   4.121603   5.754732
    27  H    4.201682   3.916025   1.095769   3.382932   4.183496
    28  H    4.848409   3.186296   1.095727   2.947683   4.962873
    29  H    2.166208   6.526075   4.309187   2.810071   1.094567
    30  H    2.162006   7.824489   5.820220   4.059947   1.093627
    31  H    2.160176   6.982293   4.704623   3.953598   1.094965
                   16         17         18         19         20
    16  H    0.000000
    17  H    4.965063   0.000000
    18  H    2.465954   4.295934   0.000000
    19  H    4.318582   2.469826   4.963241   0.000000
    20  H    4.290679   2.480632   2.480403   4.291996   0.000000
    21  H    2.377717   5.530381   4.677327   3.790669   5.864632
    22  H    4.343804   4.724030   5.850238   2.623507   6.002449
    23  H    4.285651   6.510128   5.226289   5.791392   6.271918
    24  H    5.537277   6.411484   6.204320   5.773061   6.614216
    25  H    3.769468   4.643910   5.292609   2.770762   5.635479
    26  H    5.445883   6.693590   7.489377   4.274112   7.986131
    27  H    5.619666   7.211005   7.642453   5.011376   8.289921
    28  H    4.725967   7.287481   7.035241   5.091767   8.060601
    29  H    5.754613   8.330020   7.359783   6.959416   8.506219
    30  H    6.625902   8.689741   7.733665   7.728333   8.697645
    31  H    6.714436   8.218801   8.054171   6.914091   8.727569
                   21         22         23         24         25
    21  H    0.000000
    22  H    3.076247   0.000000
    23  H    4.803130   4.278570   0.000000
    24  H    5.787089   4.236621   1.761928   0.000000
    25  H    2.373668   3.504931   6.598860   7.183470   0.000000
    26  H    3.253292   2.461978   5.919812   6.151857   3.573974
    27  H    3.800279   2.499478   4.815749   4.939536   4.876143
    28  H    2.621310   3.062169   5.101426   5.764617   4.045631
    29  H    5.301045   4.663092   2.537724   3.066707   7.277202
    30  H    6.643390   5.673683   2.517468   2.489514   8.516874
    31  H    6.187051   4.603861   3.080144   2.501156   7.785901
                   26         27         28         29         30
    26  H    0.000000
    27  H    1.769348   0.000000
    28  H    1.774266   1.766296   0.000000
    29  H    5.362773   3.787763   4.306908   0.000000
    30  H    6.839456   5.258222   5.971509   1.777271   0.000000
    31  H    5.607901   3.944031   5.070342   1.758867   1.779941
                   31
    31  H    0.000000
 Stoichiometry    C12H16O3
 Framework group  C1[X(C12H16O3)]
 Deg. of freedom    87
 Full point group                 C1      NOp   1
 Largest Abelian subgroup         C1      NOp   1
 Largest concise Abelian subgroup C1      NOp   1
                         Standard orientation:                         
 ---------------------------------------------------------------------
 Center     Atomic      Atomic             Coordinates (Angstroms)
 Number     Number       Type             X           Y           Z
 ---------------------------------------------------------------------
      1          6           0        1.789454   -0.598228    1.215613
      2          6           0        3.079215   -0.899717   -1.239099
      3          6           0        2.665264   -1.665722    1.011111
      4          6           0        1.550486    0.333488    0.194784
      5          6           0        2.203188    0.167610   -1.037156
      6          6           0        3.310411   -1.815324   -0.214812
      7          6           0        0.585260    1.482978    0.421865
      8          6           0       -0.741002    1.310010   -0.331445
      9          6           0       -1.474097    0.108743    0.220549
     10          8           0       -1.950006   -0.661831   -0.797151
     11          6           0       -2.663093   -1.843786   -0.406265
     12          8           0        1.220994    2.699036    0.007636
     13          6           0       -1.651197    2.530894   -0.203659
     14          8           0       -1.638679   -0.115821    1.412898
     15          6           0       -4.127902   -1.519673   -0.181081
     16          1           0        1.285929   -0.504950    2.176718
     17          1           0        3.579961   -1.017452   -2.196680
     18          1           0        2.840922   -2.383129    1.808791
     19          1           0        2.030853    0.874184   -1.847363
     20          1           0        3.991393   -2.647587   -0.372695
     21          1           0        0.398989    1.593986    1.497494
     22          1           0       -0.538874    1.154071   -1.399087
     23          1           0       -2.212953   -2.306254    0.479682
     24          1           0       -2.566813   -2.561696   -1.227340
     25          1           0        2.152375    2.638560    0.285553
     26          1           0       -1.202452    3.411403   -0.674209
     27          1           0       -2.616610    2.348134   -0.688723
     28          1           0       -1.852003    2.769124    0.846837
     29          1           0       -4.250652   -0.801800    0.636029
     30          1           0       -4.692561   -2.424404    0.061079
     31          1           0       -4.561902   -1.060906   -1.075579
 ---------------------------------------------------------------------
 Rotational constants (GHZ):      0.8252861      0.4168462      0.3259515
 Standard basis: 6-31+G(d,p) (6D, 7F)
 There are   365 symmetry adapted basis functions of A   symmetry.
 Integral buffers will be    131072 words long.
 Raffenetti 2 integral format.
 Two-electron integral symmetry is turned on.
   365 basis functions,   592 primitive gaussians,   365 cartesian basis functions
    56 alpha electrons       56 beta electrons
       nuclear repulsion energy      1012.4705417955 Hartrees.
 NAtoms=   31 NActive=   31 NUniq=   31 SFac= 1.00D+00 NAtFMM=   60 NAOKFM=F Big=F
 Nuclear repulsion after empirical dispersion term =     1012.4496092627 Hartrees.
 ------------------------------------------------------------------------------
 Polarizable Continuum Model (PCM)
 =================================
 Model                : C-PCM.
 Atomic radii         : SMD-Coulomb.
 Polarization charges : Total charges.
 Charge compensation  : None.
 Solution method      : Matrix inversion.
 Cavity type          : VdW (van der Waals Surface) (Alpha=1.000).
 Cavity algorithm     : GePol (No added spheres)
                        Default sphere list used, NSphG=   31.
                        Lebedev-Laikov grids with approx.  5.0 points / Ang**2.
                        Smoothing algorithm: Karplus/York (Gamma=1.0000).
                        Polarization charges: spherical gaussians, with
                                              point-specific exponents (IZeta= 3).
                        Self-potential: point-specific (ISelfS= 7).
                        Self-field    : sphere-specific E.n sum rule (ISelfD= 2).
 Solvent              : Chloroform, Eps=   4.711300 Eps(inf)=   2.090627
 ------------------------------------------------------------------------------
 ------------------------------------------------------------------------------
 Atomic radii for non-electrostatic terms: SMD-CDS.
 ------------------------------------------------------------------------------
 Nuclear repulsion after PCM non-electrostatic terms =     1012.4430691273 Hartrees.
 One-electron integrals computed using PRISM.
 NBasis=   365 RedAO= T  NBF=   365
 NBsUse=   365 1.00D-06 NBFU=   365
 Harris functional with IExCor= 4639 diagonalized for initial guess.
 ExpMin= 4.38D-02 ExpMax= 5.48D+03 ExpMxC= 8.25D+02 IAcc=2 IRadAn=         4 AccDes= 0.00D+00
 HarFok:  IExCor= 4639 AccDes= 0.00D+00 IRadAn=         4 IDoV= 1
 ScaDFX=  1.000000  1.000000  1.000000  1.000000
 FoFCou: FMM=F IPFlag=           0 FMFlag=      100000 FMFlg1=           0
         NFxFlg=           0 DoJE=T BraDBF=F KetDBF=T FulRan=T
         Omega=  0.000000  0.000000  1.000000  0.000000  0.000000 ICntrl=     500 IOpCl=  0
         NMat0=    1 NMatS0=    1 NMatT0=    0 NMatD0=    1 NMtDS0=    0 NMtDT0=    0
         I1Cent=           4 NGrid=           0.
 Petite list used in FoFCou.
 Initial guess orbital symmetries:
       Occupied  (A) (A) (A) (A) (A) (A) (A) (A) (A) (A) (A) (A)
                 (A) (A) (A) (A) (A) (A) (A) (A) (A) (A) (A) (A)
                 (A) (A) (A) (A) (A) (A) (A) (A) (A) (A) (A) (A)
                 (A) (A) (A) (A) (A) (A) (A) (A) (A) (A) (A) (A)
                 (A) (A) (A) (A) (A) (A) (A) (A)
       Virtual   (A) (A) (A) (A) (A) (A) (A) (A) (A) (A) (A) (A)
                 (A) (A) (A) (A) (A) (A) (A) (A) (A) (A) (A) (A)
                 (A) (A) (A) (A) (A) (A) (A) (A) (A) (A) (A) (A)
                 (A) (A) (A) (A) (A) (A) (A) (A) (A) (A) (A) (A)
                 (A) (A) (A) (A) (A) (A) (A) (A) (A) (A) (A) (A)
                 (A) (A) (A) (A) (A) (A) (A) (A) (A) (A) (A) (A)
                 (A) (A) (A) (A) (A) (A) (A) (A) (A) (A) (A) (A)
                 (A) (A) (A) (A) (A) (A) (A) (A) (A) (A) (A) (A)
                 (A) (A) (A) (A) (A) (A) (A) (A) (A) (A) (A) (A)
                 (A) (A) (A) (A) (A) (A) (A) (A) (A) (A) (A) (A)
                 (A) (A) (A) (A) (A) (A) (A) (A) (A) (A) (A) (A)
                 (A) (A) (A) (A) (A) (A) (A) (A) (A) (A) (A) (A)
                 (A) (A) (A) (A) (A) (A) (A) (A) (A) (A) (A) (A)
                 (A) (A) (A) (A) (A) (A) (A) (A) (A) (A) (A) (A)
                 (A) (A) (A) (A) (A) (A) (A) (A) (A) (A) (A) (A)
                 (A) (A) (A) (A) (A) (A) (A) (A) (A) (A) (A) (A)
                 (A) (A) (A) (A) (A) (A) (A) (A) (A) (A) (A) (A)
                 (A) (A) (A) (A) (A) (A) (A) (A) (A) (A) (A) (A)
                 (A) (A) (A) (A) (A) (A) (A) (A) (A) (A) (A) (A)
                 (A) (A) (A) (A) (A) (A) (A) (A) (A) (A) (A) (A)
                 (A) (A) (A) (A) (A) (A) (A) (A) (A) (A) (A) (A)
                 (A) (A) (A) (A) (A) (A) (A) (A) (A) (A) (A) (A)
                 (A) (A) (A) (A) (A) (A) (A) (A) (A) (A) (A) (A)
                 (A) (A) (A) (A) (A) (A) (A) (A) (A) (A) (A) (A)
                 (A) (A) (A) (A) (A) (A) (A) (A) (A) (A) (A) (A)
                 (A) (A) (A) (A) (A) (A) (A) (A) (A)
 The electronic state of the initial guess is 1-A.
 Requested convergence on RMS density matrix=1.00D-08 within 128 cycles.
 Requested convergence on MAX density matrix=1.00D-06.
 Requested convergence on             energy=1.00D-06.
 No special actions if energy rises.
 FoFJK:  IHMeth= 1 ICntrl=     0 DoSepK=T KAlg= 1 I1Cent= 0 FoldK=F
 FoFJK:  IHMeth= 1 ICntrl=     0 DoSepK=T KAlg= 1 I1Cent= 0 FoldK=F
 FoFJK:  IHMeth= 1 ICntrl=     0 DoSepK=T KAlg= 1 I1Cent= 0 FoldK=F
 FoFJK:  IHMeth= 1 ICntrl=     0 DoSepK=T KAlg= 1 I1Cent= 0 FoldK=F
 FoFJK:  IHMeth= 1 ICntrl=     0 DoSepK=T KAlg= 1 I1Cent= 0 FoldK=F
 FoFJK:  IHMeth= 1 ICntrl=     0 DoSepK=T KAlg= 1 I1Cent= 0 FoldK=F
 FoFJK:  IHMeth= 1 ICntrl=     0 DoSepK=T KAlg= 1 I1Cent= 0 FoldK=F
 FoFJK:  IHMeth= 1 ICntrl=     0 DoSepK=T KAlg= 1 I1Cent= 0 FoldK=F
 FoFJK:  IHMeth= 1 ICntrl=     0 DoSepK=T KAlg= 1 I1Cent= 0 FoldK=F
 FoFJK:  IHMeth= 1 ICntrl=     0 DoSepK=T KAlg= 1 I1Cent= 0 FoldK=F
 FoFJK:  IHMeth= 1 ICntrl=     0 DoSepK=T KAlg= 1 I1Cent= 0 FoldK=F
 FoFJK:  IHMeth= 1 ICntrl=     0 DoSepK=T KAlg= 1 I1Cent= 0 FoldK=F
 FoFJK:  IHMeth= 1 ICntrl=     0 DoSepK=T KAlg= 1 I1Cent= 0 FoldK=F
 FoFJK:  IHMeth= 1 ICntrl=     0 DoSepK=T KAlg= 1 I1Cent= 0 FoldK=F
 FoFJK:  IHMeth= 1 ICntrl=     0 DoSepK=T KAlg= 1 I1Cent= 0 FoldK=F
 FoFJK:  IHMeth= 1 ICntrl=     0 DoSepK=T KAlg= 1 I1Cent= 0 FoldK=F
 Error on total polarization charges =  0.03954
 SCF Done:  E(RwB97XD) =  -692.445495235     A.U. after   16 cycles
             Convg  =    0.3589D-08             -V/T =  2.0095
 SMD-CDS (non-electrostatic) energy       (kcal/mol) =      -4.10
 (included in total energy above)
 Range of M.O.s used for correlation:     1   365
 NBasis=   365 NAE=    56 NBE=    56 NFC=     0 NFV=     0
 NROrb=    365 NOA=    56 NOB=    56 NVA=   309 NVB=   309

 **** Warning!!: The largest alpha MO coefficient is  0.13193988D+03

 NEqPCM:  Using equilibrium solvation (IEInf=0, Eps=   4.7113, EpsInf=   2.0906)
          Differentiating once with respect to magnetic field using GIAOs.
          Electric field/nuclear overlap derivatives assumed to be zero.
 FoFCou: FMM=F IPFlag=           0 FMFlag=    10101102 FMFlg1=           0
         NFxFlg=    40000000 DoJE=F BraDBF=F KetDBF=T FulRan=T
         Omega=  0.000000  0.000000  1.000000  0.000000  0.000000 ICntrl=    6100 IOpCl=  0
         NMat0=    1 NMatS0=    1 NMatT0=    0 NMatD0=    1 NMtDS0=    0 NMtDT0=    0
         I1Cent=           7 NGrid=        2280.
 Symmetry not used in FoFCou.
 FoFJK:  IHMeth= 1 ICntrl=  6127 DoSepK=T KAlg= 1 I1Cent= 0 FoldK=F
 FoFJK:  IHMeth= 1 ICntrl=     0 DoSepK=T KAlg= 1 I1Cent= 0 FoldK=F
          There are     3 degrees of freedom in the 1st order CPHF.  IDoFFX=0.
      3 vectors produced by pass  0 Test12= 5.77D-13 3.33D-08 XBig12= 1.25D+02 2.08D+00.
 AX will form     3 AO Fock derivatives at one time.
 FoFJK:  IHMeth= 1 ICntrl=     0 DoSepK=T KAlg= 1 I1Cent= 0 FoldK=F
      3 vectors produced by pass  1 Test12= 5.77D-13 3.33D-08 XBig12= 9.00D-01 2.45D-01.
 FoFJK:  IHMeth= 1 ICntrl=     0 DoSepK=T KAlg= 1 I1Cent= 0 FoldK=F
      3 vectors produced by pass  2 Test12= 5.77D-13 3.33D-08 XBig12= 1.55D-02 4.45D-02.
 FoFJK:  IHMeth= 1 ICntrl=     0 DoSepK=T KAlg= 1 I1Cent= 0 FoldK=F
      3 vectors produced by pass  3 Test12= 5.77D-13 3.33D-08 XBig12= 2.61D-04 4.75D-03.
 FoFJK:  IHMeth= 1 ICntrl=     0 DoSepK=T KAlg= 1 I1Cent= 0 FoldK=F
      3 vectors produced by pass  4 Test12= 5.77D-13 3.33D-08 XBig12= 5.58D-06 5.49D-04.
 FoFJK:  IHMeth= 1 ICntrl=     0 DoSepK=T KAlg= 1 I1Cent= 0 FoldK=F
      3 vectors produced by pass  5 Test12= 5.77D-13 3.33D-08 XBig12= 8.10D-08 4.48D-05.
 FoFJK:  IHMeth= 1 ICntrl=     0 DoSepK=T KAlg= 1 I1Cent= 0 FoldK=F
      3 vectors produced by pass  6 Test12= 5.77D-13 3.33D-08 XBig12= 8.70D-10 5.62D-06.
 FoFJK:  IHMeth= 1 ICntrl=     0 DoSepK=T KAlg= 1 I1Cent= 0 FoldK=F
      3 vectors produced by pass  7 Test12= 5.77D-13 3.33D-08 XBig12= 1.06D-11 8.24D-07.
 FoFJK:  IHMeth= 1 ICntrl=     0 DoSepK=T KAlg= 1 I1Cent= 0 FoldK=F
      3 vectors produced by pass  8 Test12= 5.77D-13 3.33D-08 XBig12= 1.27D-13 7.07D-08.
 FoFJK:  IHMeth= 1 ICntrl=     0 DoSepK=T KAlg= 1 I1Cent= 0 FoldK=F
 Inverted reduced A of dimension    27 with in-core refinement.
 Calculating GIAO nuclear magnetic shielding tensors.
 SCF GIAO Magnetic shielding tensor (ppm):
      1  C    Isotropic =    69.6913   Anisotropy =   164.1037
   XX=   107.8382   YX=    60.2492   ZX=    63.1973
   XY=    49.7045   YY=    99.5498   ZY=    16.4213
   XZ=    63.6604   YZ=    19.7228   ZZ=     1.6861
   Eigenvalues:   -28.3839    58.3641   179.0938
      2  C    Isotropic =    69.2933   Anisotropy =   176.6473
   XX=   114.9210   YX=    60.7208   ZX=    65.2813
   XY=    59.1008   YY=    95.5780   ZY=    16.4657
   XZ=    69.6929   YZ=    16.7598   ZZ=    -2.6193
   Eigenvalues:   -34.2038    55.0254   187.0581
      3  C    Isotropic =    70.4063   Anisotropy =   173.9324
   XX=   129.7054   YX=    63.7316   ZX=    24.2396
   XY=    64.6321   YY=    57.6510   ZY=    66.4399
   XZ=    21.2798   YZ=    67.3407   ZZ=    23.8626
   Eigenvalues:   -31.7318    56.5894   186.3613
      4  C    Isotropic =    51.1240   Anisotropy =   185.5515
   XX=    88.7508   YX=    93.7225   ZX=    35.7188
   XY=    92.5108   YY=    40.8393   ZY=    25.1892
   XZ=    42.7916   YZ=    22.9477   ZZ=    23.7820
   Eigenvalues:   -31.9183    10.4654   174.8250
      5  C    Isotropic =    73.1434   Anisotropy =   180.8514
   XX=   129.5036   YX=    71.4876   ZX=    26.3145
   XY=    65.0556   YY=    66.8319   ZY=    62.7681
   XZ=    25.3102   YZ=    68.8736   ZZ=    23.0947
   Eigenvalues:   -27.3630    53.0822   193.7110
      6  C    Isotropic =    71.4569   Anisotropy =   177.6439
   XX=   101.5411   YX=    95.4058   ZX=    40.8656
   XY=   100.6325   YY=    44.1778   ZY=    16.5788
   XZ=    42.3687   YZ=    13.6420   ZZ=    68.6519
   Eigenvalues:   -31.0876    55.5722   189.8862
      7  C    Isotropic =   119.5781   Anisotropy =    28.7910
   XX=   114.3830   YX=     4.8748   ZX=    -4.4066
   XY=    10.2286   YY=   128.4451   ZY=   -10.5560
   XZ=    -6.3567   YZ=   -12.4311   ZZ=   115.9060
   Eigenvalues:   108.8265   111.1356   138.7721
      8  C    Isotropic =   146.5102   Anisotropy =    27.7506
   XX=   156.8497   YX=     9.3914   ZX=    -2.0366
   XY=    15.6930   YY=   143.7014   ZY=    -4.9234
   XZ=    -0.4861   YZ=    -5.6972   ZZ=   138.9796
   Eigenvalues:   133.2414   141.2787   165.0106
      9  C    Isotropic =    19.6558   Anisotropy =   102.2900
   XX=    47.6770   YX=   -64.4515   ZX=   -11.2590
   XY=   -60.9905   YY=   -10.7266   ZY=   -25.5619
   XZ=   -30.0073   YZ=   -50.8418   ZZ=    22.0169
   Eigenvalues:   -70.9051    42.0233    87.8491
     10  O    Isotropic =   126.4373   Anisotropy =   149.3200
   XX=   198.9747   YX=   -47.3051   ZX=    26.7848
   XY=   -45.4731   YY=   114.8189   ZY=    42.4528
   XZ=   103.6762   YZ=   162.4175   ZZ=    65.5184
   Eigenvalues:   -41.7491   195.0771   225.9840
     11  C    Isotropic =   138.1310   Anisotropy =    65.5977
   XX=   145.6116   YX=    24.0430   ZX=   -14.3555
   XY=    20.9633   YY=   163.5940   ZY=   -10.9788
   XZ=   -10.0323   YZ=    -9.2130   ZZ=   105.1876
   Eigenvalues:   101.5189   131.0114   181.8628
     12  O    Isotropic =   276.7831   Anisotropy =    63.6146
   XX=   319.0128   YX=     4.9130   ZX=     0.8119
   XY=    -9.4803   YY=   285.4540   ZY=    -4.0661
   XZ=    -4.1110   YZ=     0.8366   ZZ=   225.8825
   Eigenvalues:   225.8073   285.3492   319.1928
     13  C    Isotropic =   180.5094   Anisotropy =    26.4814
   XX=   180.1104   YX=   -15.5710   ZX=    -0.9347
   XY=   -13.1700   YY=   186.0241   ZY=     1.6519
   XZ=    -3.3391   YZ=     2.8901   ZZ=   175.3938
   Eigenvalues:   168.3883   174.9762   198.1637
     14  O    Isotropic =   -33.7211   Anisotropy =   563.7690
   XX=   199.5442   YX=  -231.0524   ZX=    12.0865
   XY=  -228.7383   YY=   -30.0871   ZY=   -30.8503
   XZ=   -16.3157   YZ=   -37.2400   ZZ=  -270.6203
   Eigenvalues:  -279.4698  -163.8184   342.1250
     15  C    Isotropic =   181.7544   Anisotropy =    26.3205
   XX=   198.3912   YX=     2.6515   ZX=    -5.3525
   XY=    -2.1893   YY=   182.3042   ZY=    -4.1559
   XZ=    -5.5758   YZ=    -4.5164   ZZ=   164.5679
   Eigenvalues:   162.7819   183.1799   199.3014
     16  H    Isotropic =    23.8474   Anisotropy =     7.7598
   XX=    24.0301   YX=    -3.4122   ZX=     1.8906
   XY=    -3.7928   YY=    24.4458   ZY=    -2.3197
   XZ=     1.2532   YZ=    -1.9765   ZZ=    23.0662
   Eigenvalues:    20.5586    21.9630    29.0205
     17  H    Isotropic =    23.7280   Anisotropy =     4.9079
   XX=    23.2424   YX=    -2.8992   ZX=    -0.8506
   XY=    -2.8798   YY=    24.6790   ZY=    -1.0235
   XZ=    -0.6084   YZ=    -1.2911   ZZ=    23.2625
   Eigenvalues:    20.3979    23.7861    26.9999
     18  H    Isotropic =    23.9344   Anisotropy =     4.8542
   XX=    23.8010   YX=    -2.8201   ZX=    -1.4678
   XY=    -2.9634   YY=    23.7528   ZY=     0.0745
   XZ=    -1.5212   YZ=     0.2680   ZZ=    24.2494
   Eigenvalues:    20.6294    24.0033    27.1705
     19  H    Isotropic =    23.3752   Anisotropy =     9.3775
   XX=    24.2307   YX=    -2.8481   ZX=    -4.3979
   XY=    -3.4131   YY=    22.5908   ZY=     2.1263
   XZ=    -3.3538   YZ=     1.9724   ZZ=    23.3039
   Eigenvalues:    19.6277    20.8710    29.6268
     20  H    Isotropic =    23.8136   Anisotropy =     4.1254
   XX=    22.6632   YX=    -1.7318   ZX=    -1.3588
   XY=    -1.7116   YY=    22.9419   ZY=    -1.4055
   XZ=    -1.3229   YZ=    -1.5277   ZZ=    25.8355
   Eigenvalues:    20.3586    24.5183    26.5638
     21  H    Isotropic =    26.5977   Anisotropy =     5.9978
   XX=    24.0688   YX=     1.3253   ZX=    -0.6746
   XY=     0.7490   YY=    26.5179   ZY=    -2.5967
   XZ=    -1.1911   YZ=    -1.5418   ZZ=    29.2064
   Eigenvalues:    23.6818    25.5151    30.5962
     22  H    Isotropic =    28.5534   Anisotropy =     4.0083
   XX=    28.8752   YX=    -1.9857   ZX=    -1.0414
   XY=     0.4523   YY=    26.8647   ZY=     1.7222
   XZ=    -0.5026   YZ=     1.9326   ZZ=    29.9204
   Eigenvalues:    25.9604    28.4742    31.2256
     23  H    Isotropic =    27.3714   Anisotropy =     5.0524
   XX=    28.2593   YX=     0.4737   ZX=     0.6273
   XY=     1.0360   YY=    29.5948   ZY=    -3.8288
   XZ=     2.3653   YZ=    -1.6003   ZZ=    24.2601
   Eigenvalues:    22.6255    28.7491    30.7397
     24  H    Isotropic =    28.2111   Anisotropy =     7.4080
   XX=    27.9513   YX=     0.5839   ZX=    -1.6527
   XY=     1.2258   YY=    31.0064   ZY=     5.0341
   XZ=    -1.4676   YZ=     2.9690   ZZ=    25.6756
   Eigenvalues:    22.8909    28.5926    33.1497
     25  H    Isotropic =    30.0043   Anisotropy =    14.8055
   XX=    38.6107   YX=     4.3669   ZX=     4.1965
   XY=     1.6054   YY=    28.5636   ZY=    -1.0046
   XZ=     1.7782   YZ=    -0.0777   ZZ=    22.8387
   Eigenvalues:    22.1007    28.0376    39.8747
     26  H    Isotropic =    29.8122   Anisotropy =     9.1264
   XX=    28.5651   YX=    -0.6449   ZX=    -0.5506
   XY=     0.6083   YY=    34.2435   ZY=    -3.9653
   XZ=    -0.4159   YZ=    -3.8517   ZZ=    26.6280
   Eigenvalues:    24.9228    28.6173    35.8964
     27  H    Isotropic =    30.4158   Anisotropy =     9.3094
   XX=    34.7285   YX=    -1.5753   ZX=     4.0185
   XY=    -1.5674   YY=    29.2279   ZY=    -0.5371
   XZ=     3.4752   YZ=    -0.0784   ZZ=    27.2911
   Eigenvalues:    25.6997    28.9257    36.6221
     28  H    Isotropic =    30.3710   Anisotropy =     8.4995
   XX=    28.5366   YX=    -2.8735   ZX=    -3.0165
   XY=    -2.0263   YY=    29.7300   ZY=     3.3768
   XZ=    -2.0325   YZ=     2.1555   ZZ=    32.8466
   Eigenvalues:    26.5900    28.4858    36.0374
     29  H    Isotropic =    30.3733   Anisotropy =     6.0755
   XX=    32.0139   YX=    -0.4134   ZX=    -2.4171
   XY=    -0.1396   YY=    28.8407   ZY=     4.2128
   XZ=    -1.1179   YZ=     3.3533   ZZ=    30.2653
   Eigenvalues:    25.5671    31.1291    34.4236
     30  H    Isotropic =    30.7776   Anisotropy =    11.6319
   XX=    33.3409   YX=     5.7064   ZX=    -1.6134
   XY=     5.0159   YY=    32.0715   ZY=    -1.6558
   XZ=    -1.3725   YZ=    -1.6907   ZZ=    26.9206
   Eigenvalues:    26.4203    27.3803    38.5323
     31  H    Isotropic =    30.5650   Anisotropy =     8.7413
   XX=    32.6509   YX=    -1.4054   ZX=     4.3304
   XY=    -0.6871   YY=    27.7439   ZY=    -2.6243
   XZ=     3.2326   YZ=    -1.7779   ZZ=    31.3002
   Eigenvalues:    26.5586    28.7437    36.3925
 End of Minotr Frequency-dependent properties file   721 does not exist.
 End of Minotr Frequency-dependent properties file   722 does not exist.

 **********************************************************************

            Population analysis using the SCF density.

 **********************************************************************

 Orbital symmetries:
       Occupied  (A) (A) (A) (A) (A) (A) (A) (A) (A) (A) (A) (A)
                 (A) (A) (A) (A) (A) (A) (A) (A) (A) (A) (A) (A)
                 (A) (A) (A) (A) (A) (A) (A) (A) (A) (A) (A) (A)
                 (A) (A) (A) (A) (A) (A) (A) (A) (A) (A) (A) (A)
                 (A) (A) (A) (A) (A) (A) (A) (A)
       Virtual   (A) (A) (A) (A) (A) (A) (A) (A) (A) (A) (A) (A)
                 (A) (A) (A) (A) (A) (A) (A) (A) (A) (A) (A) (A)
                 (A) (A) (A) (A) (A) (A) (A) (A) (A) (A) (A) (A)
                 (A) (A) (A) (A) (A) (A) (A) (A) (A) (A) (A) (A)
                 (A) (A) (A) (A) (A) (A) (A) (A) (A) (A) (A) (A)
                 (A) (A) (A) (A) (A) (A) (A) (A) (A) (A) (A) (A)
                 (A) (A) (A) (A) (A) (A) (A) (A) (A) (A) (A) (A)
                 (A) (A) (A) (A) (A) (A) (A) (A) (A) (A) (A) (A)
                 (A) (A) (A) (A) (A) (A) (A) (A) (A) (A) (A) (A)
                 (A) (A) (A) (A) (A) (A) (A) (A) (A) (A) (A) (A)
                 (A) (A) (A) (A) (A) (A) (A) (A) (A) (A) (A) (A)
                 (A) (A) (A) (A) (A) (A) (A) (A) (A) (A) (A) (A)
                 (A) (A) (A) (A) (A) (A) (A) (A) (A) (A) (A) (A)
                 (A) (A) (A) (A) (A) (A) (A) (A) (A) (A) (A) (A)
                 (A) (A) (A) (A) (A) (A) (A) (A) (A) (A) (A) (A)
                 (A) (A) (A) (A) (A) (A) (A) (A) (A) (A) (A) (A)
                 (A) (A) (A) (A) (A) (A) (A) (A) (A) (A) (A) (A)
                 (A) (A) (A) (A) (A) (A) (A) (A) (A) (A) (A) (A)
                 (A) (A) (A) (A) (A) (A) (A) (A) (A) (A) (A) (A)
                 (A) (A) (A) (A) (A) (A) (A) (A) (A) (A) (A) (A)
                 (A) (A) (A) (A) (A) (A) (A) (A) (A) (A) (A) (A)
                 (A) (A) (A) (A) (A) (A) (A) (A) (A) (A) (A) (A)
                 (A) (A) (A) (A) (A) (A) (A) (A) (A) (A) (A) (A)
                 (A) (A) (A) (A) (A) (A) (A) (A) (A) (A) (A) (A)
                 (A) (A) (A) (A) (A) (A) (A) (A) (A) (A) (A) (A)
                 (A) (A) (A) (A) (A) (A) (A) (A) (A)
 The electronic state is 1-A.
 Alpha  occ. eigenvalues --  -19.32917 -19.28111 -19.27663 -10.44156 -10.35879
 Alpha  occ. eigenvalues --  -10.34997 -10.31868 -10.31498 -10.30817 -10.30752
 Alpha  occ. eigenvalues --  -10.30740 -10.30670 -10.30605 -10.29051 -10.28636
 Alpha  occ. eigenvalues --   -1.21029  -1.12955  -1.12558  -0.96272  -0.91469
 Alpha  occ. eigenvalues --   -0.86671  -0.85345  -0.84804  -0.77725  -0.76281
 Alpha  occ. eigenvalues --   -0.70827  -0.70082  -0.68170  -0.64267  -0.62291
 Alpha  occ. eigenvalues --   -0.60986  -0.57885  -0.56959  -0.56303  -0.55761
 Alpha  occ. eigenvalues --   -0.53403  -0.52677  -0.51604  -0.50909  -0.50426
 Alpha  occ. eigenvalues --   -0.48940  -0.48300  -0.46940  -0.46134  -0.45589
 Alpha  occ. eigenvalues --   -0.44887  -0.44256  -0.43287  -0.42339  -0.41905
 Alpha  occ. eigenvalues --   -0.40048  -0.38866  -0.37466  -0.36070  -0.33369
 Alpha  occ. eigenvalues --   -0.32532
 Alpha virt. eigenvalues --    0.04674   0.05337   0.06612   0.06812   0.07704
 Alpha virt. eigenvalues --    0.08240   0.08678   0.09426   0.09747   0.10197
 Alpha virt. eigenvalues --    0.10648   0.11089   0.11842   0.12006   0.12882
 Alpha virt. eigenvalues --    0.13162   0.13614   0.14080   0.14923   0.15052
 Alpha virt. eigenvalues --    0.15983   0.16522   0.16612   0.17209   0.17655
 Alpha virt. eigenvalues --    0.18156   0.18919   0.19116   0.19366   0.20036
 Alpha virt. eigenvalues --    0.20257   0.21296   0.21530   0.22141   0.22549
 Alpha virt. eigenvalues --    0.23215   0.23874   0.24112   0.24765   0.25167
 Alpha virt. eigenvalues --    0.25407   0.25686   0.26292   0.26651   0.26953
 Alpha virt. eigenvalues --    0.27427   0.27518   0.28453   0.28820   0.29236
 Alpha virt. eigenvalues --    0.30089   0.30244   0.30586   0.30779   0.31170
 Alpha virt. eigenvalues --    0.31845   0.32130   0.32472   0.33058   0.33705
 Alpha virt. eigenvalues --    0.34278   0.34598   0.35155   0.35475   0.35904
 Alpha virt. eigenvalues --    0.36240   0.37111   0.37692   0.37910   0.38905
 Alpha virt. eigenvalues --    0.39784   0.40140   0.41225   0.41646   0.41765
 Alpha virt. eigenvalues --    0.42795   0.43352   0.43842   0.44320   0.44594
 Alpha virt. eigenvalues --    0.45223   0.46175   0.47014   0.47226   0.48230
 Alpha virt. eigenvalues --    0.48564   0.49546   0.51121   0.52675   0.53388
 Alpha virt. eigenvalues --    0.55695   0.56072   0.61829   0.66420   0.69779
 Alpha virt. eigenvalues --    0.72779   0.74030   0.74576   0.75317   0.75781
 Alpha virt. eigenvalues --    0.77496   0.78387   0.78735   0.79572   0.81222
 Alpha virt. eigenvalues --    0.81310   0.81902   0.83053   0.83785   0.84259
 Alpha virt. eigenvalues --    0.85886   0.86293   0.87354   0.89186   0.89400
 Alpha virt. eigenvalues --    0.90287   0.91243   0.93195   0.94949   0.96500
 Alpha virt. eigenvalues --    0.97870   0.99142   1.00123   1.00887   1.01695
 Alpha virt. eigenvalues --    1.02981   1.04208   1.05540   1.05785   1.07411
 Alpha virt. eigenvalues --    1.09311   1.09743   1.10763   1.10926   1.11970
 Alpha virt. eigenvalues --    1.14524   1.15913   1.16320   1.18175   1.19294
 Alpha virt. eigenvalues --    1.19802   1.21665   1.22146   1.22515   1.23711
 Alpha virt. eigenvalues --    1.25384   1.27101   1.27439   1.28854   1.29858
 Alpha virt. eigenvalues --    1.32395   1.33975   1.35340   1.35949   1.36818
 Alpha virt. eigenvalues --    1.39834   1.42509   1.43116   1.44073   1.44711
 Alpha virt. eigenvalues --    1.45966   1.47491   1.48952   1.49075   1.49875
 Alpha virt. eigenvalues --    1.50391   1.52976   1.53657   1.55464   1.57241
 Alpha virt. eigenvalues --    1.57793   1.58595   1.61548   1.62989   1.65441
 Alpha virt. eigenvalues --    1.69440   1.69689   1.72009   1.74353   1.76943
 Alpha virt. eigenvalues --    1.78482   1.80582   1.81465   1.86529   1.87773
 Alpha virt. eigenvalues --    1.88339   1.89212   1.92470   1.93893   1.97112
 Alpha virt. eigenvalues --    1.97912   1.98375   1.99555   1.99684   2.01880
 Alpha virt. eigenvalues --    2.02755   2.03414   2.04701   2.05253   2.06173
 Alpha virt. eigenvalues --    2.07076   2.07686   2.09781   2.10471   2.11574
 Alpha virt. eigenvalues --    2.12119   2.13790   2.14471   2.16578   2.17540
 Alpha virt. eigenvalues --    2.19942   2.20144   2.21036   2.22260   2.24235
 Alpha virt. eigenvalues --    2.25289   2.26481   2.26823   2.29440   2.30579
 Alpha virt. eigenvalues --    2.32475   2.35655   2.37174   2.38503   2.39363
 Alpha virt. eigenvalues --    2.40876   2.42968   2.43534   2.45172   2.48240
 Alpha virt. eigenvalues --    2.48873   2.50030   2.50243   2.51984   2.54250
 Alpha virt. eigenvalues --    2.55194   2.56330   2.56659   2.59382   2.61660
 Alpha virt. eigenvalues --    2.61849   2.63905   2.64846   2.65340   2.68697
 Alpha virt. eigenvalues --    2.69811   2.71720   2.73427   2.73996   2.75852
 Alpha virt. eigenvalues --    2.76213   2.78242   2.80164   2.82239   2.83674
 Alpha virt. eigenvalues --    2.83926   2.85531   2.86708   2.88798   2.89537
 Alpha virt. eigenvalues --    2.90169   2.92163   2.94796   2.95949   2.97259
 Alpha virt. eigenvalues --    2.97814   2.98986   3.02569   3.07109   3.08116
 Alpha virt. eigenvalues --    3.11898   3.14236   3.16545   3.19048   3.26240
 Alpha virt. eigenvalues --    3.28811   3.30337   3.36585   3.37331   3.38316
 Alpha virt. eigenvalues --    3.38535   3.43131   3.45090   3.48656   3.51914
 Alpha virt. eigenvalues --    3.54522   3.58285   3.59259   3.60426   3.62234
 Alpha virt. eigenvalues --    3.64003   3.66059   3.69428   3.99702   4.40806
 Alpha virt. eigenvalues --    4.43008   4.45287   4.52227   4.53098   4.55534
 Alpha virt. eigenvalues --    4.57537   4.61056   4.63842   4.68803   4.70273
 Alpha virt. eigenvalues --    4.77242   4.83347   4.94874   4.97314
          Condensed to atoms (all electrons):
              1          2          3          4          5          6
     1  C   16.767483  -0.990625  -0.924389  -5.292121  -6.805625   0.297889
     2  C   -0.990625   7.191415   0.435609   0.709461  -0.613722   0.330510
     3  C   -0.924389   0.435609   6.649740   0.606375  -0.396718   0.369029
     4  C   -5.292121   0.709461   0.606375  17.447968  -1.717112  -1.178538
     5  C   -6.805625  -0.613722  -0.396718  -1.717112  15.908075   0.509049
     6  C    0.297889   0.330510   0.369029  -1.178538   0.509049   5.573974
     7  C    3.646954  -1.455880  -1.004669  -6.099409  -1.224952   0.027541
     8  C   -0.759135   0.311894   0.121467   1.278981   0.329804  -0.066647
     9  C   -0.668956  -0.003972   0.025302   0.539816   0.522717   0.030468
    10  O    0.007737   0.007360   0.015085  -0.006836  -0.033735  -0.002422
    11  C    0.034359   0.000566   0.002486  -0.011320  -0.030706  -0.005295
    12  O   -0.093251   0.100801   0.020628   0.368038  -0.032318   0.001108
    13  C    0.274512  -0.075867  -0.045455  -0.722260  -0.308828  -0.000746
    14  O    0.030357  -0.002943  -0.002643   0.020901  -0.015175   0.003064
    15  C   -0.006282  -0.002945  -0.003264  -0.003638   0.007134   0.000282
    16  H    0.200998   0.014705   0.068722   0.094839  -0.028428  -0.014370
    17  H    0.005328   0.277259  -0.001740   0.048543   0.006525  -0.003087
    18  H    0.022263  -0.002077   0.272894   0.009465  -0.001036   0.027827
    19  H    0.022536  -0.028527   0.000598   0.061866   0.242484  -0.014568
    20  H    0.004432   0.016944   0.023051   0.002205  -0.005830   0.283878
    21  H    0.198110   0.006151   0.064707   0.073520  -0.131731   0.000849
    22  H    0.056958  -0.008962   0.005907   0.113252  -0.123006  -0.003689
    23  H   -0.001934   0.000777  -0.002496   0.006182   0.001532  -0.000832
    24  H    0.002980  -0.001004  -0.001113  -0.002683  -0.000594   0.000510
    25  H   -0.015402  -0.003119   0.000626   0.037911  -0.038234  -0.004011
    26  H   -0.004457   0.002343   0.000124  -0.004297   0.012852   0.000018
    27  H    0.002160  -0.000542  -0.000235  -0.008681  -0.005133   0.000038
    28  H    0.014203  -0.000428   0.000289  -0.001611  -0.014913  -0.000063
    29  H    0.000035  -0.000038  -0.000026  -0.000532  -0.000097   0.000008
    30  H    0.000134  -0.000006  -0.000038  -0.000203   0.000006   0.000006
    31  H   -0.000106   0.000059  -0.000002   0.000521   0.000023  -0.000007
              7          8          9         10         11         12
     1  C    3.646954  -0.759135  -0.668956   0.007737   0.034359  -0.093251
     2  C   -1.455880   0.311894  -0.003972   0.007360   0.000566   0.100801
     3  C   -1.004669   0.121467   0.025302   0.015085   0.002486   0.020628
     4  C   -6.099409   1.278981   0.539816  -0.006836  -0.011320   0.368038
     5  C   -1.224952   0.329804   0.522717  -0.033735  -0.030706  -0.032318
     6  C    0.027541  -0.066647   0.030468  -0.002422  -0.005295   0.001108
     7  C   13.550954  -2.147632  -0.537587   0.025105  -0.004341  -0.198183
     8  C   -2.147632   9.018110  -1.017160  -0.245435   0.095963  -0.133856
     9  C   -0.537587  -1.017160   6.548638   0.346960  -0.216988   0.076688
    10  O    0.025105  -0.245435   0.346960   8.369245   0.069927  -0.001607
    11  C   -0.004341   0.095963  -0.216988   0.069927   5.151115  -0.001161
    12  O   -0.198183  -0.133856   0.076688  -0.001607  -0.001161   8.294650
    13  C    1.146089  -1.024921  -0.109533  -0.025180  -0.012757  -0.040604
    14  O   -0.020935  -0.091679   0.617866  -0.162098   0.010258  -0.000663
    15  C    0.009207  -0.069754   0.035264  -0.050952   0.231101  -0.000035
    16  H   -0.022211  -0.003759   0.007074  -0.000303  -0.001423  -0.000091
    17  H   -0.006350   0.000176   0.000218  -0.000009   0.000002   0.000101
    18  H   -0.002487  -0.001370   0.001575  -0.000023  -0.000065   0.000018
    19  H    0.010583   0.006901  -0.000380  -0.000390   0.000130   0.003644
    20  H    0.002561  -0.000193  -0.000392   0.000007   0.000050  -0.000008
    21  H    0.060978   0.110527  -0.045530   0.000464   0.000369  -0.050371
    22  H   -0.051392   0.391496  -0.037506  -0.001910   0.001390   0.001692
    23  H   -0.003924   0.008246  -0.008972  -0.035284   0.401691   0.000004
    24  H    0.003660  -0.010219   0.023271  -0.058481   0.407759  -0.000002
    25  H    0.035291   0.006661  -0.001038   0.000005   0.000064   0.235242
    26  H   -0.031344  -0.051082  -0.001996  -0.000028   0.000523   0.006298
    27  H    0.045851  -0.179801   0.020100   0.004770  -0.000072  -0.000280
    28  H    0.016588  -0.052763  -0.016735   0.000113  -0.000269  -0.002678
    29  H    0.001725  -0.008293   0.005182  -0.005798  -0.049238  -0.000001
    30  H    0.000375   0.002452   0.003879   0.007179  -0.046087   0.000000
    31  H   -0.001226   0.004956   0.008216  -0.004069  -0.045644   0.000000
             13         14         15         16         17         18
     1  C    0.274512   0.030357  -0.006282   0.200998   0.005328   0.022263
     2  C   -0.075867  -0.002943  -0.002945   0.014705   0.277259  -0.002077
     3  C   -0.045455  -0.002643  -0.003264   0.068722  -0.001740   0.272894
     4  C   -0.722260   0.020901  -0.003638   0.094839   0.048543   0.009465
     5  C   -0.308828  -0.015175   0.007134  -0.028428   0.006525  -0.001036
     6  C   -0.000746   0.003064   0.000282  -0.014370  -0.003087   0.027827
     7  C    1.146089  -0.020935   0.009207  -0.022211  -0.006350  -0.002487
     8  C   -1.024921  -0.091679  -0.069754  -0.003759   0.000176  -0.001370
     9  C   -0.109533   0.617866   0.035264   0.007074   0.000218   0.001575
    10  O   -0.025180  -0.162098  -0.050952  -0.000303  -0.000009  -0.000023
    11  C   -0.012757   0.010258   0.231101  -0.001423   0.000002  -0.000065
    12  O   -0.040604  -0.000663  -0.000035  -0.000091   0.000101   0.000018
    13  C    6.354690  -0.068200   0.008186  -0.000927   0.000043   0.000050
    14  O   -0.068200   8.143954  -0.036969   0.000447   0.000003  -0.000037
    15  C    0.008186  -0.036969   5.244743  -0.000158  -0.000002   0.000025
    16  H   -0.000927   0.000447  -0.000158   0.509885   0.000011  -0.003910
    17  H    0.000043   0.000003  -0.000002   0.000011   0.495687  -0.000121
    18  H    0.000050  -0.000037   0.000025  -0.003910  -0.000121   0.496282
    19  H    0.013751  -0.000069   0.000033  -0.000111  -0.003949   0.000011
    20  H   -0.000024   0.000001   0.000002  -0.000122  -0.003819  -0.003856
    21  H   -0.064895   0.009900  -0.000444   0.002950   0.000002  -0.000003
    22  H   -0.056713   0.008112  -0.001252   0.000009   0.000004   0.000000
    23  H   -0.003051   0.001867  -0.031535  -0.000016   0.000000   0.000000
    24  H    0.000730  -0.000086  -0.032239   0.000000   0.000000   0.000000
    25  H   -0.005222  -0.000006   0.000016   0.000073  -0.000002   0.000000
    26  H    0.437385   0.000231  -0.000266   0.000000   0.000000   0.000000
    27  H    0.479079  -0.000950   0.001578   0.000000   0.000000   0.000000
    28  H    0.406920   0.003808  -0.000769   0.000001   0.000000   0.000000
    29  H    0.001651   0.001464   0.417967   0.000000   0.000000   0.000000
    30  H   -0.000246  -0.000195   0.396659   0.000000   0.000000   0.000000
    31  H   -0.002996  -0.000482   0.404170   0.000000   0.000000   0.000000
             19         20         21         22         23         24
     1  C    0.022536   0.004432   0.198110   0.056958  -0.001934   0.002980
     2  C   -0.028527   0.016944   0.006151  -0.008962   0.000777  -0.001004
     3  C    0.000598   0.023051   0.064707   0.005907  -0.002496  -0.001113
     4  C    0.061866   0.002205   0.073520   0.113252   0.006182  -0.002683
     5  C    0.242484  -0.005830  -0.131731  -0.123006   0.001532  -0.000594
     6  C   -0.014568   0.283878   0.000849  -0.003689  -0.000832   0.000510
     7  C    0.010583   0.002561   0.060978  -0.051392  -0.003924   0.003660
     8  C    0.006901  -0.000193   0.110527   0.391496   0.008246  -0.010219
     9  C   -0.000380  -0.000392  -0.045530  -0.037506  -0.008972   0.023271
    10  O   -0.000390   0.000007   0.000464  -0.001910  -0.035284  -0.058481
    11  C    0.000130   0.000050   0.000369   0.001390   0.401691   0.407759
    12  O    0.003644  -0.000008  -0.050371   0.001692   0.000004  -0.000002
    13  C    0.013751  -0.000024  -0.064895  -0.056713  -0.003051   0.000730
    14  O   -0.000069   0.000001   0.009900   0.008112   0.001867  -0.000086
    15  C    0.000033   0.000002  -0.000444  -0.001252  -0.031535  -0.032239
    16  H   -0.000111  -0.000122   0.002950   0.000009  -0.000016   0.000000
    17  H   -0.003949  -0.003819   0.000002   0.000004   0.000000   0.000000
    18  H    0.000011  -0.003856  -0.000003   0.000000   0.000000   0.000000
    19  H    0.502944  -0.000119  -0.000073  -0.000184   0.000000   0.000000
    20  H   -0.000119   0.498148   0.000000   0.000000   0.000000   0.000000
    21  H   -0.000073   0.000000   0.599803   0.004261  -0.000005   0.000000
    22  H   -0.000184   0.000000   0.004261   0.505012  -0.000006  -0.000033
    23  H    0.000000   0.000000  -0.000005  -0.000006   0.521181  -0.031428
    24  H    0.000000   0.000000   0.000000  -0.000033  -0.031428   0.528604
    25  H   -0.000518   0.000000  -0.004144  -0.000131   0.000000   0.000000
    26  H    0.000001   0.000000   0.000099  -0.003665   0.000000   0.000000
    27  H    0.000002   0.000000  -0.000060  -0.002921   0.000000   0.000002
    28  H   -0.000001   0.000000   0.002844   0.003974   0.000000   0.000000
    29  H    0.000000   0.000000  -0.000001  -0.000006  -0.004860   0.003913
    30  H    0.000000   0.000000   0.000000   0.000000  -0.001125  -0.001258
    31  H    0.000000   0.000000   0.000000   0.000000   0.003770  -0.005102
             25         26         27         28         29         30
     1  C   -0.015402  -0.004457   0.002160   0.014203   0.000035   0.000134
     2  C   -0.003119   0.002343  -0.000542  -0.000428  -0.000038  -0.000006
     3  C    0.000626   0.000124  -0.000235   0.000289  -0.000026  -0.000038
     4  C    0.037911  -0.004297  -0.008681  -0.001611  -0.000532  -0.000203
     5  C   -0.038234   0.012852  -0.005133  -0.014913  -0.000097   0.000006
     6  C   -0.004011   0.000018   0.000038  -0.000063   0.000008   0.000006
     7  C    0.035291  -0.031344   0.045851   0.016588   0.001725   0.000375
     8  C    0.006661  -0.051082  -0.179801  -0.052763  -0.008293   0.002452
     9  C   -0.001038  -0.001996   0.020100  -0.016735   0.005182   0.003879
    10  O    0.000005  -0.000028   0.004770   0.000113  -0.005798   0.007179
    11  C    0.000064   0.000523  -0.000072  -0.000269  -0.049238  -0.046087
    12  O    0.235242   0.006298  -0.000280  -0.002678  -0.000001   0.000000
    13  C   -0.005222   0.437385   0.479079   0.406920   0.001651  -0.000246
    14  O   -0.000006   0.000231  -0.000950   0.003808   0.001464  -0.000195
    15  C    0.000016  -0.000266   0.001578  -0.000769   0.417967   0.396659
    16  H    0.000073   0.000000   0.000000   0.000001   0.000000   0.000000
    17  H   -0.000002   0.000000   0.000000   0.000000   0.000000   0.000000
    18  H    0.000000   0.000000   0.000000   0.000000   0.000000   0.000000
    19  H   -0.000518   0.000001   0.000002  -0.000001   0.000000   0.000000
    20  H    0.000000   0.000000   0.000000   0.000000   0.000000   0.000000
    21  H   -0.004144   0.000099  -0.000060   0.002844  -0.000001   0.000000
    22  H   -0.000131  -0.003665  -0.002921   0.003974  -0.000006   0.000000
    23  H    0.000000   0.000000   0.000000   0.000000  -0.004860  -0.001125
    24  H    0.000000   0.000000   0.000002   0.000000   0.003913  -0.001258
    25  H    0.357182  -0.000041  -0.000001  -0.000039   0.000000   0.000000
    26  H   -0.000041   0.495119  -0.023709  -0.023363   0.000000   0.000000
    27  H   -0.000001  -0.023709   0.517526  -0.025693   0.000008   0.000000
    28  H   -0.000039  -0.023363  -0.025693   0.509646  -0.000004   0.000000
    29  H    0.000000   0.000000   0.000008  -0.000004   0.508324  -0.021998
    30  H    0.000000   0.000000   0.000000   0.000000  -0.021998   0.505966
    31  H    0.000000   0.000000  -0.000019   0.000000  -0.029386  -0.022613
             31
     1  C   -0.000106
     2  C    0.000059
     3  C   -0.000002
     4  C    0.000521
     5  C    0.000023
     6  C   -0.000007
     7  C   -0.001226
     8  C    0.004956
     9  C    0.008216
    10  O   -0.004069
    11  C   -0.045644
    12  O    0.000000
    13  C   -0.002996
    14  O   -0.000482
    15  C    0.404170
    16  H    0.000000
    17  H    0.000000
    18  H    0.000000
    19  H    0.000000
    20  H    0.000000
    21  H    0.000000
    22  H    0.000000
    23  H    0.003770
    24  H   -0.005102
    25  H    0.000000
    26  H    0.000000
    27  H   -0.000019
    28  H    0.000000
    29  H   -0.029386
    30  H   -0.022613
    31  H    0.516026
 Mulliken atomic charges:
              1
     1  C   -0.027145
     2  C   -0.215197
     3  C   -0.299849
     4  C   -0.370603
     5  C   -0.012308
     6  C   -0.161774
     7  C    0.229061
     8  C    0.176067
     9  C   -0.146490
    10  O   -0.219393
    11  C    0.017611
    12  O   -0.553803
    13  C   -0.554659
    14  O   -0.449105
    15  C   -0.515866
    16  H    0.176115
    17  H    0.185176
    18  H    0.184574
    19  H    0.183404
    20  H    0.183085
    21  H    0.161722
    22  H    0.199307
    23  H    0.180217
    24  H    0.172812
    25  H    0.398836
    26  H    0.189255
    27  H    0.176982
    28  H    0.180941
    29  H    0.180003
    30  H    0.177113
    31  H    0.173910
 Sum of Mulliken atomic charges =   0.00000
 Mulliken charges with hydrogens summed into heavy atoms:
              1
     1  C    0.148970
     2  C   -0.030022
     3  C   -0.115275
     4  C   -0.370603
     5  C    0.171096
     6  C    0.021310
     7  C    0.390783
     8  C    0.375374
     9  C   -0.146490
    10  O   -0.219393
    11  C    0.370640
    12  O   -0.154967
    13  C   -0.007481
    14  O   -0.449105
    15  C    0.015162
 Sum of Mulliken charges with hydrogens summed into heavy atoms =   0.00000
 Electronic spatial extent (au):  <R**2>=           3608.2059
 Charge=              0.0000 electrons
 Dipole moment (field-independent basis, Debye):
    X=              0.4942    Y=             -1.9390    Z=             -1.3319  Tot=              2.4037
 Quadrupole moment (field-independent basis, Debye-Ang):
   XX=            -79.8750   YY=            -87.3993   ZZ=            -90.1978
   XY=              0.6800   XZ=              3.2399   YZ=              0.5995
 Traceless Quadrupole moment (field-independent basis, Debye-Ang):
   XX=              5.9490   YY=             -1.5752   ZZ=             -4.3738
   XY=              0.6800   XZ=              3.2399   YZ=              0.5995
 Octapole moment (field-independent basis, Debye-Ang**2):
  XXX=            -26.1225  YYY=            -29.7067  ZZZ=             -6.0525  XYY=             -9.0843
  XXY=            -18.9344  XXZ=            -16.5886  XZZ=             13.8109  YZZ=              0.9654
  YYZ=              5.4111  XYZ=              0.0342
 Hexadecapole moment (field-independent basis, Debye-Ang**3):
 XXXX=          -2938.2616 YYYY=          -1407.6805 ZZZZ=           -456.9877 XXXY=             40.0796
 XXXZ=            -22.2790 YYYX=             22.5237 YYYZ=              4.2875 ZZZX=              0.5558
 ZZZY=             -2.7611 XXYY=           -604.2715 XXZZ=           -568.4500 YYZZ=           -294.0088
 XXYZ=             17.6860 YYXZ=             22.5094 ZZXY=             -4.7693
 N-N= 1.012443069127D+03 E-N=-3.636862581451D+03  KE= 6.859088651283D+02
 1\1\GINC-COMPUTE-5-22\SP\RwB97XD\6-31+G(d,p)\C12H16O3\ELUCIANO.IQUIR\1
 7-May-2022\0\\# wb97xd/6-31+g** scrf=(pcm,solvent=chloroform,smd,dovac
 uum) nmr\\comment\\0,1\C,0,1.631706513,0.83023444,-1.58130869\C,0,-0.1
 3841882,2.931841263,-2.0607834\C,0,1.409527776,1.275013305,-2.88561592
 2\C,0,0.972736182,1.433870771,-0.500255699\C,0,0.081400613,2.488033273
 ,-0.756135797\C,0,0.526192217,2.325749118,-3.124688697\C,0,1.209961188
 ,0.933673836,0.913279119\C,0,0.017994285,0.149741959,1.479872674\C,0,-
 0.17248727,-1.116358809,0.676209216\O,0,-1.489183946,-1.287753832,0.37
 138085\C,0,-1.805967724,-2.455188616,-0.400010659\O,0,1.490051657,2.06
 0775278,1.7533594\C,0,0.21287897,-0.234599845,2.946038544\O,0,0.728752
 432,-1.88785653,0.373272668\C,0,-2.029474779,-3.642634455,0.517290244\
 H,0,2.316935049,0.000122969,-1.415968294\H,0,-0.829847327,3.749689229,
 -2.246847304\H,0,1.924046446,0.797948745,-3.715977779\H,0,-0.446467116
 ,2.970000152,0.065109901\H,0,0.353662032,2.67029083,-4.140980763\H,0,2
 .115243723,0.313917106,0.932306441\H,0,-0.88979721,0.763317577,1.41299
 5963\H,0,-1.029545299,-2.663431319,-1.145132456\H,0,-2.72742594,-2.235
 467766,-0.949071116\H,0,2.047394042,2.66736299,1.233950523\H,0,0.26319
 0697,0.652351923,3.585469024\H,0,-0.618966295,-0.854408598,3.29899799\
 H,0,1.134034782,-0.810959815,3.087103142\H,0,-1.121030858,-3.88204433,
 1.078975261\H,0,-2.328340737,-4.524733687,-0.055945818\H,0,-2.80875528
 6,-3.41849716,1.253111434\\Version=EM64L-G09RevC.01\State=1-A\HF=-692.
 4454952\RMSD=3.589e-09\Dipole=-0.6429702,0.1445093,-0.6782705\Quadrupo
 le=-0.1180281,0.3664309,-0.2484028,4.0517295,-1.3314389,-1.9278469\PG=
 C01 [X(C12H16O3)]\\@


      SCIENCE SANS CONSCIENCE N'EST QUE RUINE DE L'AME.

                                                  -- RABELAIS
 Job cpu time:  0 days  0 hours 45 minutes  7.7 seconds.
 File lengths (MBytes):  RWF=    124 Int=      0 D2E=      0 Chk=      9 Scr=      1
 Normal termination of Gaussian 09 at Tue May 17 15:16:24 2022.
