 Entering Gaussian System, Link 0=g09
 Input=/home/eluciano.iquir/wb9/73a_029.gjc
 Output=/home/eluciano.iquir/wb9/73a_029.log
 Initial command:
 /share/apps/Gaussian09/EM64T.SSE4.2-enabled/g09/l1.exe /tmp/Gau-2606.inp -scrdir=/tmp/
 Entering Link 1 = /share/apps/Gaussian09/EM64T.SSE4.2-enabled/g09/l1.exe PID=      2607.
  
 Copyright (c) 1988,1990,1992,1993,1995,1998,2003,2009,2011,
            Gaussian, Inc.  All Rights Reserved.
  
 This is part of the Gaussian(R) 09 program.  It is based on
 the Gaussian(R) 03 system (copyright 2003, Gaussian, Inc.),
 the Gaussian(R) 98 system (copyright 1998, Gaussian, Inc.),
 the Gaussian(R) 94 system (copyright 1995, Gaussian, Inc.),
 the Gaussian 92(TM) system (copyright 1992, Gaussian, Inc.),
 the Gaussian 90(TM) system (copyright 1990, Gaussian, Inc.),
 the Gaussian 88(TM) system (copyright 1988, Gaussian, Inc.),
 the Gaussian 86(TM) system (copyright 1986, Carnegie Mellon
 University), and the Gaussian 82(TM) system (copyright 1983,
 Carnegie Mellon University). Gaussian is a federally registered
 trademark of Gaussian, Inc.
  
 This software contains proprietary and confidential information,
 including trade secrets, belonging to Gaussian, Inc.
  
 This software is provided under written license and may be
 used, copied, transmitted, or stored only in accord with that
 written license.
  
 The following legend is applicable only to US Government
 contracts under FAR:
  
                    RESTRICTED RIGHTS LEGEND
  
 Use, reproduction and disclosure by the US Government is
 subject to restrictions as set forth in subparagraphs (a)
 and (c) of the Commercial Computer Software - Restricted
 Rights clause in FAR 52.227-19.
  
 Gaussian, Inc.
 340 Quinnipiac St., Bldg. 40, Wallingford CT 06492
  
  
 ---------------------------------------------------------------
 Warning -- This program may not be used in any manner that
 competes with the business of Gaussian, Inc. or will provide
 assistance to any competitor of Gaussian, Inc.  The licensee
 of this program is prohibited from giving any competitor of
 Gaussian, Inc. access to this program.  By using this program,
 the user acknowledges that Gaussian, Inc. is engaged in the
 business of creating and licensing software in the field of
 computational chemistry and represents and warrants to the
 licensee that it is not a competitor of Gaussian, Inc. and that
 it will not use this program in any manner prohibited above.
 ---------------------------------------------------------------
  

 Cite this work as:
 Gaussian 09, Revision C.01,
 M. J. Frisch, G. W. Trucks, H. B. Schlegel, G. E. Scuseria, 
 M. A. Robb, J. R. Cheeseman, G. Scalmani, V. Barone, B. Mennucci, 
 G. A. Petersson, H. Nakatsuji, M. Caricato, X. Li, H. P. Hratchian, 
 A. F. Izmaylov, J. Bloino, G. Zheng, J. L. Sonnenberg, M. Hada, 
 M. Ehara, K. Toyota, R. Fukuda, J. Hasegawa, M. Ishida, T. Nakajima, 
 Y. Honda, O. Kitao, H. Nakai, T. Vreven, J. A. Montgomery, Jr., 
 J. E. Peralta, F. Ogliaro, M. Bearpark, J. J. Heyd, E. Brothers, 
 K. N. Kudin, V. N. Staroverov, T. Keith, R. Kobayashi, J. Normand, 
 K. Raghavachari, A. Rendell, J. C. Burant, S. S. Iyengar, J. Tomasi, 
 M. Cossi, N. Rega, J. M. Millam, M. Klene, J. E. Knox, J. B. Cross, 
 V. Bakken, C. Adamo, J. Jaramillo, R. Gomperts, R. E. Stratmann, 
 O. Yazyev, A. J. Austin, R. Cammi, C. Pomelli, J. W. Ochterski, 
 R. L. Martin, K. Morokuma, V. G. Zakrzewski, G. A. Voth, 
 P. Salvador, J. J. Dannenberg, S. Dapprich, A. D. Daniels, 
 O. Farkas, J. B. Foresman, J. V. Ortiz, J. Cioslowski, 
 and D. J. Fox, Gaussian, Inc., Wallingford CT, 2010.
 
 ******************************************
 Gaussian 09:  EM64L-G09RevC.01 23-Sep-2011
                17-May-2022 
 ******************************************
 %nprocshared=4
 Will use up to    4 processors via shared memory.
 ----------------------------------------------------------------
 # wb97xd/6-31+g** scrf=(pcm,solvent=chloroform,smd,dovacuum) nmr
 ----------------------------------------------------------------
 1/38=1/1;
 2/12=2,17=6,18=5,40=1/2;
 3/5=1,6=6,7=111,11=2,16=1,25=1,30=1,70=32101,72=7,74=-58/1,2,8,3;
 4//1;
 5/5=2,38=5,53=7/2;
 8/6=1,10=90,11=11/1;
 10/13=100,45=16/2;
 6/7=2,8=2,9=2,10=2,28=1/1;
 99/9=1/99;
 -------
 comment
 -------
 Charge =  0 Multiplicity = 1
 Symbolic Z-Matrix:
 6                     2.11187   0.70383   1.67163 
 6                     3.08296  -0.78342  -0.47213 
 6                     3.13494  -0.22554   1.87117 
 6                     1.55376   0.90097   0.39718 
 6                     2.05956   0.146    -0.67252 
 6                     3.61868  -0.97056   0.7993 
 6                     0.42448   1.90005   0.21642 
 6                    -1.00393   1.33091   0.35312 
 6                    -1.25006   0.27511  -0.70939 
 8                    -1.7899   -0.86502  -0.20888 
 6                    -2.03314  -1.91844  -1.15294 
 8                     0.57929   2.6146   -1.01466 
 6                    -1.30523   0.85874   1.77695 
 8                    -1.00106   0.46913  -1.89632 
 6                    -3.40135  -1.74764  -1.78529 
 1                     1.75403   1.27824   2.52372 
 1                     3.4651   -1.35656  -1.313 
 1                     3.55678  -0.36443   2.86319 
 1                     1.66944   0.27802  -1.67935 
 1                     4.41744  -1.69118   0.95265 
 1                     0.5489    2.6739    0.98496 
 1                    -1.71819   2.13363   0.12257 
 1                    -1.99963  -2.86057  -0.59609 
 1                    -1.2427   -1.96443  -1.91089 
 1                     0.20543   2.06033  -1.72836 
 1                    -1.09219   1.64922   2.50412 
 1                    -2.36386   0.59469   1.87973 
 1                    -0.72166  -0.02659   2.04957 
 1                    -4.17824  -1.70544  -1.01483 
 1                    -3.62142  -2.57684  -2.46355 
 1                    -3.46011  -0.8107   -2.34809 
 
                          Input orientation:                          
 ---------------------------------------------------------------------
 Center     Atomic      Atomic             Coordinates (Angstroms)
 Number     Number       Type             X           Y           Z
 ---------------------------------------------------------------------
      1          6           0        2.111867    0.703831    1.671630
      2          6           0        3.082957   -0.783419   -0.472134
      3          6           0        3.134942   -0.225538    1.871168
      4          6           0        1.553762    0.900970    0.397176
      5          6           0        2.059563    0.145996   -0.672522
      6          6           0        3.618680   -0.970563    0.799304
      7          6           0        0.424478    1.900046    0.216422
      8          6           0       -1.003933    1.330909    0.353119
      9          6           0       -1.250059    0.275108   -0.709393
     10          8           0       -1.789895   -0.865017   -0.208880
     11          6           0       -2.033135   -1.918441   -1.152943
     12          8           0        0.579291    2.614604   -1.014665
     13          6           0       -1.305231    0.858736    1.776955
     14          8           0       -1.001065    0.469132   -1.896315
     15          6           0       -3.401354   -1.747644   -1.785293
     16          1           0        1.754034    1.278241    2.523722
     17          1           0        3.465102   -1.356558   -1.312997
     18          1           0        3.556784   -0.364428    2.863192
     19          1           0        1.669445    0.278016   -1.679348
     20          1           0        4.417441   -1.691176    0.952653
     21          1           0        0.548903    2.673904    0.984961
     22          1           0       -1.718193    2.133630    0.122575
     23          1           0       -1.999632   -2.860568   -0.596094
     24          1           0       -1.242699   -1.964432   -1.910893
     25          1           0        0.205426    2.060332   -1.728359
     26          1           0       -1.092187    1.649217    2.504123
     27          1           0       -2.363862    0.594692    1.879728
     28          1           0       -0.721663   -0.026593    2.049571
     29          1           0       -4.178237   -1.705441   -1.014830
     30          1           0       -3.621419   -2.576841   -2.463545
     31          1           0       -3.460110   -0.810704   -2.348087
 ---------------------------------------------------------------------
                    Distance matrix (angstroms):
                    1          2          3          4          5
     1  C    0.000000
     2  C    2.784000   0.000000
     3  C    1.396504   2.409357   0.000000
     4  C    1.405197   2.435427   2.437581   0.000000
     5  C    2.410179   1.396891   2.786545   1.403592   0.000000
     6  C    2.415581   1.392327   1.392105   2.815710   2.417399
     7  C    2.529000   3.839610   3.821375   1.518587   2.557423
     8  C    3.440916   4.674836   4.675177   2.593953   3.441070
     9  C    4.141934   4.466744   5.112550   3.078573   3.312344
    10  O    4.606664   4.880641   5.384194   3.829629   4.006924
    11  C    5.659997   5.284523   6.222555   4.818483   4.609000
    12  O    3.635385   4.255496   4.788088   2.424753   2.898670
    13  C    3.422229   5.197237   4.571615   3.174810   4.222531
    14  O    4.740851   4.502934   5.637646   3.460307   3.312028
    15  C    6.953823   6.685836   7.642622   6.027562   5.886064
    16  H    1.088142   3.871904   2.143382   2.169019   3.404600
    17  H    3.870975   1.087002   3.395161   3.416774   2.154860
    18  H    2.156104   3.394771   1.086901   3.419732   3.873432
    19  H    3.406774   2.140567   3.873940   2.171038   1.087805
    20  H    3.401273   2.152879   2.153269   3.902363   3.402350
    21  H    2.606829   4.527432   3.984937   2.120973   3.379298
    22  H    4.371871   5.649239   5.672404   3.507213   4.342154
    23  H    5.895077   5.492051   6.276512   5.269000   5.051963
    24  H    5.586341   4.709152   6.040817   4.621461   4.110037
    25  H    4.127292   4.236179   5.173380   2.771287   2.866583
    26  H    3.442784   5.675179   4.667329   3.464123   4.720622
    27  H    4.481893   6.090837   5.559649   4.199946   5.126597
    28  H    2.950466   4.626762   3.865852   2.961139   3.895484
    29  H    7.251695   7.339591   8.000105   6.453136   6.515761
    30  H    7.793141   7.220162   8.364614   6.860131   6.549440
    31  H    7.035543   6.806737   7.851066   5.967010   5.847185
                    6          7          8          9         10
     6  C    0.000000
     7  C    4.333944   0.000000
     8  C    5.183087   1.543684   0.000000
     9  C    5.247140   2.510305   1.517967   0.000000
    10  O    5.502750   3.567900   2.399098   1.357138   0.000000
    11  C    6.054152   4.742981   3.726360   2.370993   1.435313
    12  O    5.038034   1.431829   2.454650   2.985457   4.286035
    13  C    5.342942   2.551761   1.530044   2.554523   2.673904
    14  O    5.539054   2.922901   2.408864   1.228181   2.291211
    15  C    7.520962   5.652389   4.449486   3.142795   2.420931
    16  H    3.392292   2.734592   3.510081   4.525912   4.961865
    17  H    2.152764   4.710625   5.474550   5.025875   5.392187
    18  H    2.151945   4.684504   5.474922   6.023131   6.186695
    19  H    3.391486   2.788345   3.519439   3.076414   3.928846
    20  H    1.086655   5.420578   6.235682   6.224888   6.368887
    21  H    4.768662   1.097719   2.148059   3.444026   4.406721
    22  H    6.210973   2.157408   1.098945   2.089359   3.017762
    23  H    6.089719   5.403697   4.411450   3.226013   2.043562
    24  H    5.653843   4.715839   4.005250   2.541495   2.098805
    25  H    5.217826   1.963632   2.515385   2.518681   3.853284
    26  H    5.653487   2.756223   2.176218   3.498540   3.764114
    27  H    6.277591   3.499339   2.173006   2.836589   2.611986
    28  H    4.614415   2.895861   2.190990   2.825263   2.635275
    29  H    8.038846   5.974991   4.600752   3.548253   2.657075
    30  H    8.102181   6.602577   5.482275   4.102927   3.371696
    31  H    7.748605   5.386548   4.232709   2.957809   2.714548
                   11         12         13         14         15
    11  C    0.000000
    12  O    5.233774   0.000000
    13  C    4.102055   3.798373   0.000000
    14  O    2.705232   2.806757   3.706376   0.000000
    15  C    1.516925   5.955553   4.886364   3.269222   0.000000
    16  H    6.170842   3.960564   3.176909   5.270859   7.368963
    17  H    5.529190   4.918032   6.100116   4.860046   6.893782
    18  H    7.056309   5.725196   5.129838   6.642418   8.481591
    19  H    4.337122   2.662683   4.596951   2.686116   5.461458
    20  H    6.789339   6.094381   6.319059   6.491823   8.284510
    21  H    5.685700   2.000735   2.712914   3.945272   6.544381
    22  H    4.259744   2.608272   2.129053   2.713069   4.640827
    23  H    1.094900   6.066593   4.466180   3.711416   2.148864
    24  H    1.096081   5.009036   4.644825   2.445574   2.173146
    25  H    4.601402   0.977933   4.001643   2.003933   5.245264
    26  H    5.194969   4.013438   1.094999   4.556837   5.938856
    27  H    3.952507   4.595618   1.095893   4.016402   4.471611
    28  H    3.944001   4.249464   1.094841   3.986707   4.984871
    29  H    2.160071   6.426264   4.756388   3.949710   1.094962
    30  H    2.161900   6.833470   5.928722   4.057826   1.093628
    31  H    2.166035   5.461457   4.944340   2.808733   1.094553
                   16         17         18         19         20
    16  H    0.000000
    17  H    4.958865   0.000000
    18  H    2.462420   4.293400   0.000000
    19  H    4.321273   2.455694   4.960792   0.000000
    20  H    4.287124   2.480341   2.480151   4.284464   0.000000
    21  H    2.401666   5.479913   4.669750   3.754255   5.832714
    22  H    4.307384   6.411616   6.447996   4.262196   7.277649
    23  H    6.399453   5.713083   7.005079   4.948361   6.704098
    24  H    6.257886   4.784389   6.956072   3.682766   6.349154
    25  H    4.592390   4.740586   6.180082   2.307034   6.245216
    26  H    2.870362   6.661379   5.079038   5.196945   6.627314
    27  H    4.223628   6.926593   6.077924   5.388401   7.216006
    28  H    2.838395   5.532150   4.368206   4.440160   5.512211
    29  H    7.524331   7.657105   8.756022   6.210561   8.817987
    30  H    8.284322   7.282282   9.208447   6.062872   8.779413
    31  H    7.435422   7.023384   8.751765   5.286289   8.586380
                   21         22         23         24         25
    21  H    0.000000
    22  H    2.485021   0.000000
    23  H    6.294850   5.053484   0.000000
    24  H    5.754125   4.599477   1.762017   0.000000
    25  H    2.802954   2.670513   5.509951   4.281251   0.000000
    26  H    2.459881   2.509644   5.547338   5.707318   4.445979
    27  H    3.688893   2.423387   4.266284   4.709026   4.665580
    28  H    3.168662   3.061527   4.082176   4.439817   4.414466
    29  H    6.747124   4.699359   2.501195   3.080161   5.822944
    30  H    7.540165   5.700774   2.489592   2.517693   6.057113
    31  H    6.270876   4.219899   3.066661   2.537545   4.697134
                   26         27         28         29         30
    26  H    0.000000
    27  H    1.766083   0.000000
    28  H    1.775455   1.763989   0.000000
    29  H    5.758513   4.118378   4.914976   0.000000
    30  H    6.995306   5.523051   5.939745   1.779932   0.000000
    31  H    5.933145   4.588171   5.239591   1.758930   1.777242
                   31
    31  H    0.000000
 Stoichiometry    C12H16O3
 Framework group  C1[X(C12H16O3)]
 Deg. of freedom    87
 Full point group                 C1      NOp   1
 Largest Abelian subgroup         C1      NOp   1
 Largest concise Abelian subgroup C1      NOp   1
                         Standard orientation:                         
 ---------------------------------------------------------------------
 Center     Atomic      Atomic             Coordinates (Angstroms)
 Number     Number       Type             X           Y           Z
 ---------------------------------------------------------------------
      1          6           0        2.495284    0.431457    0.866963
      2          6           0        2.381554   -1.767484   -0.836674
      3          6           0        3.345172   -0.657460    1.072327
      4          6           0        1.570511    0.436299   -0.191030
      5          6           0        1.531083   -0.678656   -1.042730
      6          6           0        3.286406   -1.757728    0.221495
      7          6           0        0.641532    1.623699   -0.373200
      8          6           0       -0.724877    1.522585    0.337901
      9          6           0       -1.506436    0.336473   -0.197382
     10          8           0       -2.027023   -0.442224    0.784678
     11          6           0       -2.764130   -1.596217    0.354450
     12          8           0        0.478333    1.924097   -1.763618
     13          6           0       -0.587021    1.536734    1.861656
     14          8           0       -1.658090    0.140401   -1.400289
     15          6           0       -4.215018   -1.227770    0.109028
     16          1           0        2.563494    1.282281    1.541869
     17          1           0        2.339872   -2.620868   -1.508665
     18          1           0        4.055958   -0.644300    1.894497
     19          1           0        0.843138   -0.710693   -1.884766
     20          1           0        3.949969   -2.603907    0.377970
     21          1           0        1.159270    2.505723    0.025510
     22          1           0       -1.323320    2.401699    0.060944
     23          1           0       -2.702712   -2.333699    1.161391
     24          1           0       -2.309193   -2.051473   -0.532774
     25          1           0       -0.211683    1.327906   -2.116869
     26          1           0        0.000748    2.399196    2.192880
     27          1           0       -1.571732    1.608305    2.337262
     28          1           0       -0.108582    0.627750    2.240500
     29          1           0       -4.653765   -0.776485    1.005010
     30          1           0       -4.798899   -2.111493   -0.163257
     31          1           0       -4.302666   -0.489728   -0.694500
 ---------------------------------------------------------------------
 Rotational constants (GHZ):      0.8988020      0.3981367      0.3616036
 Standard basis: 6-31+G(d,p) (6D, 7F)
 There are   365 symmetry adapted basis functions of A   symmetry.
 Integral buffers will be    131072 words long.
 Raffenetti 2 integral format.
 Two-electron integral symmetry is turned on.
   365 basis functions,   592 primitive gaussians,   365 cartesian basis functions
    56 alpha electrons       56 beta electrons
       nuclear repulsion energy      1025.0757524394 Hartrees.
 NAtoms=   31 NActive=   31 NUniq=   31 SFac= 1.00D+00 NAtFMM=   60 NAOKFM=F Big=F
 Nuclear repulsion after empirical dispersion term =     1025.0538032798 Hartrees.
 ------------------------------------------------------------------------------
 Polarizable Continuum Model (PCM)
 =================================
 Model                : C-PCM.
 Atomic radii         : SMD-Coulomb.
 Polarization charges : Total charges.
 Charge compensation  : None.
 Solution method      : Matrix inversion.
 Cavity type          : VdW (van der Waals Surface) (Alpha=1.000).
 Cavity algorithm     : GePol (No added spheres)
                        Default sphere list used, NSphG=   31.
                        Lebedev-Laikov grids with approx.  5.0 points / Ang**2.
                        Smoothing algorithm: Karplus/York (Gamma=1.0000).
                        Polarization charges: spherical gaussians, with
                                              point-specific exponents (IZeta= 3).
                        Self-potential: point-specific (ISelfS= 7).
                        Self-field    : sphere-specific E.n sum rule (ISelfD= 2).
 Solvent              : Chloroform, Eps=   4.711300 Eps(inf)=   2.090627
 ------------------------------------------------------------------------------
 ------------------------------------------------------------------------------
 Atomic radii for non-electrostatic terms: SMD-CDS.
 ------------------------------------------------------------------------------
 Nuclear repulsion after PCM non-electrostatic terms =     1025.0472326311 Hartrees.
 One-electron integrals computed using PRISM.
 NBasis=   365 RedAO= T  NBF=   365
 NBsUse=   365 1.00D-06 NBFU=   365
 Harris functional with IExCor= 4639 diagonalized for initial guess.
 ExpMin= 4.38D-02 ExpMax= 5.48D+03 ExpMxC= 8.25D+02 IAcc=2 IRadAn=         4 AccDes= 0.00D+00
 HarFok:  IExCor= 4639 AccDes= 0.00D+00 IRadAn=         4 IDoV= 1
 ScaDFX=  1.000000  1.000000  1.000000  1.000000
 FoFCou: FMM=F IPFlag=           0 FMFlag=      100000 FMFlg1=           0
         NFxFlg=           0 DoJE=T BraDBF=F KetDBF=T FulRan=T
         Omega=  0.000000  0.000000  1.000000  0.000000  0.000000 ICntrl=     500 IOpCl=  0
         NMat0=    1 NMatS0=    1 NMatT0=    0 NMatD0=    1 NMtDS0=    0 NMtDT0=    0
         I1Cent=           4 NGrid=           0.
 Petite list used in FoFCou.
 Initial guess orbital symmetries:
       Occupied  (A) (A) (A) (A) (A) (A) (A) (A) (A) (A) (A) (A)
                 (A) (A) (A) (A) (A) (A) (A) (A) (A) (A) (A) (A)
                 (A) (A) (A) (A) (A) (A) (A) (A) (A) (A) (A) (A)
                 (A) (A) (A) (A) (A) (A) (A) (A) (A) (A) (A) (A)
                 (A) (A) (A) (A) (A) (A) (A) (A)
       Virtual   (A) (A) (A) (A) (A) (A) (A) (A) (A) (A) (A) (A)
                 (A) (A) (A) (A) (A) (A) (A) (A) (A) (A) (A) (A)
                 (A) (A) (A) (A) (A) (A) (A) (A) (A) (A) (A) (A)
                 (A) (A) (A) (A) (A) (A) (A) (A) (A) (A) (A) (A)
                 (A) (A) (A) (A) (A) (A) (A) (A) (A) (A) (A) (A)
                 (A) (A) (A) (A) (A) (A) (A) (A) (A) (A) (A) (A)
                 (A) (A) (A) (A) (A) (A) (A) (A) (A) (A) (A) (A)
                 (A) (A) (A) (A) (A) (A) (A) (A) (A) (A) (A) (A)
                 (A) (A) (A) (A) (A) (A) (A) (A) (A) (A) (A) (A)
                 (A) (A) (A) (A) (A) (A) (A) (A) (A) (A) (A) (A)
                 (A) (A) (A) (A) (A) (A) (A) (A) (A) (A) (A) (A)
                 (A) (A) (A) (A) (A) (A) (A) (A) (A) (A) (A) (A)
                 (A) (A) (A) (A) (A) (A) (A) (A) (A) (A) (A) (A)
                 (A) (A) (A) (A) (A) (A) (A) (A) (A) (A) (A) (A)
                 (A) (A) (A) (A) (A) (A) (A) (A) (A) (A) (A) (A)
                 (A) (A) (A) (A) (A) (A) (A) (A) (A) (A) (A) (A)
                 (A) (A) (A) (A) (A) (A) (A) (A) (A) (A) (A) (A)
                 (A) (A) (A) (A) (A) (A) (A) (A) (A) (A) (A) (A)
                 (A) (A) (A) (A) (A) (A) (A) (A) (A) (A) (A) (A)
                 (A) (A) (A) (A) (A) (A) (A) (A) (A) (A) (A) (A)
                 (A) (A) (A) (A) (A) (A) (A) (A) (A) (A) (A) (A)
                 (A) (A) (A) (A) (A) (A) (A) (A) (A) (A) (A) (A)
                 (A) (A) (A) (A) (A) (A) (A) (A) (A) (A) (A) (A)
                 (A) (A) (A) (A) (A) (A) (A) (A) (A) (A) (A) (A)
                 (A) (A) (A) (A) (A) (A) (A) (A) (A) (A) (A) (A)
                 (A) (A) (A) (A) (A) (A) (A) (A) (A)
 The electronic state of the initial guess is 1-A.
 Requested convergence on RMS density matrix=1.00D-08 within 128 cycles.
 Requested convergence on MAX density matrix=1.00D-06.
 Requested convergence on             energy=1.00D-06.
 No special actions if energy rises.
 FoFJK:  IHMeth= 1 ICntrl=     0 DoSepK=T KAlg= 1 I1Cent= 0 FoldK=F
 FoFJK:  IHMeth= 1 ICntrl=     0 DoSepK=T KAlg= 1 I1Cent= 0 FoldK=F
 FoFJK:  IHMeth= 1 ICntrl=     0 DoSepK=T KAlg= 1 I1Cent= 0 FoldK=F
 FoFJK:  IHMeth= 1 ICntrl=     0 DoSepK=T KAlg= 1 I1Cent= 0 FoldK=F
 FoFJK:  IHMeth= 1 ICntrl=     0 DoSepK=T KAlg= 1 I1Cent= 0 FoldK=F
 FoFJK:  IHMeth= 1 ICntrl=     0 DoSepK=T KAlg= 1 I1Cent= 0 FoldK=F
 FoFJK:  IHMeth= 1 ICntrl=     0 DoSepK=T KAlg= 1 I1Cent= 0 FoldK=F
 FoFJK:  IHMeth= 1 ICntrl=     0 DoSepK=T KAlg= 1 I1Cent= 0 FoldK=F
 FoFJK:  IHMeth= 1 ICntrl=     0 DoSepK=T KAlg= 1 I1Cent= 0 FoldK=F
 FoFJK:  IHMeth= 1 ICntrl=     0 DoSepK=T KAlg= 1 I1Cent= 0 FoldK=F
 FoFJK:  IHMeth= 1 ICntrl=     0 DoSepK=T KAlg= 1 I1Cent= 0 FoldK=F
 FoFJK:  IHMeth= 1 ICntrl=     0 DoSepK=T KAlg= 1 I1Cent= 0 FoldK=F
 FoFJK:  IHMeth= 1 ICntrl=     0 DoSepK=T KAlg= 1 I1Cent= 0 FoldK=F
 FoFJK:  IHMeth= 1 ICntrl=     0 DoSepK=T KAlg= 1 I1Cent= 0 FoldK=F
 FoFJK:  IHMeth= 1 ICntrl=     0 DoSepK=T KAlg= 1 I1Cent= 0 FoldK=F
 Error on total polarization charges =  0.03966
 SCF Done:  E(RwB97XD) =  -692.446773205     A.U. after   15 cycles
             Convg  =    0.8521D-08             -V/T =  2.0096
 SMD-CDS (non-electrostatic) energy       (kcal/mol) =      -4.12
 (included in total energy above)
 Range of M.O.s used for correlation:     1   365
 NBasis=   365 NAE=    56 NBE=    56 NFC=     0 NFV=     0
 NROrb=    365 NOA=    56 NOB=    56 NVA=   309 NVB=   309

 **** Warning!!: The largest alpha MO coefficient is  0.12360400D+03

 NEqPCM:  Using equilibrium solvation (IEInf=0, Eps=   4.7113, EpsInf=   2.0906)
          Differentiating once with respect to magnetic field using GIAOs.
          Electric field/nuclear overlap derivatives assumed to be zero.
 FoFCou: FMM=F IPFlag=           0 FMFlag=    10101102 FMFlg1=           0
         NFxFlg=    40000000 DoJE=F BraDBF=F KetDBF=T FulRan=T
         Omega=  0.000000  0.000000  1.000000  0.000000  0.000000 ICntrl=    6100 IOpCl=  0
         NMat0=    1 NMatS0=    1 NMatT0=    0 NMatD0=    1 NMtDS0=    0 NMtDT0=    0
         I1Cent=           7 NGrid=        2232.
 Symmetry not used in FoFCou.
 FoFJK:  IHMeth= 1 ICntrl=  6127 DoSepK=T KAlg= 1 I1Cent= 0 FoldK=F
 FoFJK:  IHMeth= 1 ICntrl=     0 DoSepK=T KAlg= 1 I1Cent= 0 FoldK=F
          There are     3 degrees of freedom in the 1st order CPHF.  IDoFFX=0.
      3 vectors produced by pass  0 Test12= 5.77D-13 3.33D-08 XBig12= 1.24D+02 2.22D+00.
 AX will form     3 AO Fock derivatives at one time.
 FoFJK:  IHMeth= 1 ICntrl=     0 DoSepK=T KAlg= 1 I1Cent= 0 FoldK=F
      3 vectors produced by pass  1 Test12= 5.77D-13 3.33D-08 XBig12= 7.73D-01 2.67D-01.
 FoFJK:  IHMeth= 1 ICntrl=     0 DoSepK=T KAlg= 1 I1Cent= 0 FoldK=F
      3 vectors produced by pass  2 Test12= 5.77D-13 3.33D-08 XBig12= 1.35D-02 4.92D-02.
 FoFJK:  IHMeth= 1 ICntrl=     0 DoSepK=T KAlg= 1 I1Cent= 0 FoldK=F
      3 vectors produced by pass  3 Test12= 5.77D-13 3.33D-08 XBig12= 2.71D-04 4.39D-03.
 FoFJK:  IHMeth= 1 ICntrl=     0 DoSepK=T KAlg= 1 I1Cent= 0 FoldK=F
      3 vectors produced by pass  4 Test12= 5.77D-13 3.33D-08 XBig12= 4.52D-06 4.79D-04.
 FoFJK:  IHMeth= 1 ICntrl=     0 DoSepK=T KAlg= 1 I1Cent= 0 FoldK=F
      3 vectors produced by pass  5 Test12= 5.77D-13 3.33D-08 XBig12= 7.05D-08 5.93D-05.
 FoFJK:  IHMeth= 1 ICntrl=     0 DoSepK=T KAlg= 1 I1Cent= 0 FoldK=F
      3 vectors produced by pass  6 Test12= 5.77D-13 3.33D-08 XBig12= 6.71D-10 5.74D-06.
 FoFJK:  IHMeth= 1 ICntrl=     0 DoSepK=T KAlg= 1 I1Cent= 0 FoldK=F
      3 vectors produced by pass  7 Test12= 5.77D-13 3.33D-08 XBig12= 8.31D-12 8.15D-07.
 FoFJK:  IHMeth= 1 ICntrl=     0 DoSepK=T KAlg= 1 I1Cent= 0 FoldK=F
      3 vectors produced by pass  8 Test12= 5.77D-13 3.33D-08 XBig12= 9.64D-14 7.50D-08.
 FoFJK:  IHMeth= 1 ICntrl=     0 DoSepK=T KAlg= 1 I1Cent= 0 FoldK=F
 Inverted reduced A of dimension    27 with in-core refinement.
 Calculating GIAO nuclear magnetic shielding tensors.
 SCF GIAO Magnetic shielding tensor (ppm):
      1  C    Isotropic =    70.0719   Anisotropy =   165.7923
   XX=   108.5940   YX=    34.0380   ZX=   -58.5685
   XY=    24.0374   YY=    31.0023   ZY=   -76.3279
   XZ=   -46.7254   YZ=   -79.7788   ZZ=    70.6194
   Eigenvalues:   -30.4712    60.0868   180.6001
      2  C    Isotropic =    69.5160   Anisotropy =   175.3437
   XX=   117.7438   YX=    33.8348   ZX=   -57.6238
   XY=    33.4954   YY=    23.5209   ZY=   -77.1326
   XZ=   -53.9018   YZ=   -76.1330   ZZ=    67.2834
   Eigenvalues:   -34.6503    56.7865   186.4118
      3  C    Isotropic =    71.0014   Anisotropy =   172.4618
   XX=    80.4333   YX=    38.0941   ZX=   -95.1483
   XY=    36.2194   YY=    81.1043   ZY=   -30.6050
   XZ=   -96.9501   YZ=   -33.2695   ZZ=    51.4667
   Eigenvalues:   -31.1851    58.2134   185.9760
      4  C    Isotropic =    54.1910   Anisotropy =   181.0954
   XX=    68.3855   YX=    63.3386   ZX=   -71.4694
   XY=    71.9625   YY=    14.7837   ZY=   -34.1939
   XZ=   -67.7900   YZ=   -30.4775   ZZ=    79.4039
   Eigenvalues:   -33.2607    20.9125   174.9213
      5  C    Isotropic =    72.7263   Anisotropy =   180.7863
   XX=    85.1383   YX=    46.2957   ZX=   -96.3671
   XY=    35.0650   YY=    82.7650   ZY=   -39.0199
   XZ=   -89.8975   YZ=   -45.4520   ZZ=    50.2756
   Eigenvalues:   -27.5016    52.4300   193.2505
      6  C    Isotropic =    72.1958   Anisotropy =   176.2913
   XX=    89.2026   YX=    77.2120   ZX=   -60.7557
   XY=    81.5263   YY=    26.7205   ZY=   -23.0452
   XZ=   -63.7162   YZ=   -21.0762   ZZ=   100.6641
   Eigenvalues:   -29.9701    56.8341   189.7233
      7  C    Isotropic =   119.5363   Anisotropy =    43.7942
   XX=   108.2401   YX=    -2.5212   ZX=     4.3473
   XY=    -2.7986   YY=   103.4296   ZY=    -5.7509
   XZ=     7.2423   YZ=    -6.6797   ZZ=   146.9390
   Eigenvalues:   101.9476   107.9288   148.7324
      8  C    Isotropic =   149.4327   Anisotropy =    15.9651
   XX=   157.4766   YX=     2.4697   ZX=     3.5299
   XY=     9.1488   YY=   146.2918   ZY=    -5.6006
   XZ=    -1.3160   YZ=     7.6087   ZZ=   144.5298
   Eigenvalues:   143.5426   144.6796   160.0761
      9  C    Isotropic =    19.1044   Anisotropy =   104.4511
   XX=    45.8328   YX=   -65.9019   ZX=     5.1486
   XY=   -61.4107   YY=    -6.1774   ZY=    14.5304
   XZ=    28.2612   YZ=    46.0921   ZZ=    17.6578
   Eigenvalues:   -63.5782    32.1529    88.7384
     10  O    Isotropic =   122.7365   Anisotropy =   178.9107
   XX=   199.6960   YX=   -80.6027   ZX=   -34.6238
   XY=   -56.3290   YY=   126.0482   ZY=   -35.9311
   XZ=  -102.4433   YZ=  -143.0056   ZZ=    42.4654
   Eigenvalues:   -50.5134   176.7127   242.0103
     11  C    Isotropic =   137.4638   Anisotropy =    66.4073
   XX=   146.0845   YX=    24.0075   ZX=    16.5523
   XY=    20.5142   YY=   161.8296   ZY=    12.4360
   XZ=    11.8680   YZ=    11.2895   ZZ=   104.4772
   Eigenvalues:    99.6345   131.0215   181.7353
     12  O    Isotropic =   278.4111   Anisotropy =    38.1419
   XX=   276.1951   YX=   -11.8813   ZX=   -16.3165
   XY=   -10.7643   YY=   265.5018   ZY=   -23.8827
   XZ=    -9.2264   YZ=   -10.9396   ZZ=   293.5364
   Eigenvalues:   248.0989   283.2953   303.8390
     13  C    Isotropic =   181.8051   Anisotropy =    15.8106
   XX=   177.8674   YX=     4.8441   ZX=     2.1051
   XY=     6.3034   YY=   176.1786   ZY=     2.6831
   XZ=    -0.6817   YZ=     4.0344   ZZ=   191.3693
   Eigenvalues:   171.1639   181.9059   192.3455
     14  O    Isotropic =   -30.8138   Anisotropy =   528.3715
   XX=   165.8585   YX=  -235.2575   ZX=   -27.3971
   XY=  -208.8431   YY=    -2.8964   ZY=    83.3642
   XZ=    29.8019   YZ=    50.7470   ZZ=  -255.4035
   Eigenvalues:  -282.4054  -131.4698   321.4339
     15  C    Isotropic =   181.6040   Anisotropy =    26.6992
   XX=   198.2880   YX=     2.1024   ZX=     6.1122
   XY=    -3.1941   YY=   182.2302   ZY=     4.6629
   XZ=     6.3709   YZ=     4.9622   ZZ=   164.2937
   Eigenvalues:   162.0272   183.3813   199.4034
     16  H    Isotropic =    23.8775   Anisotropy =     8.2496
   XX=    27.2529   YX=    -2.2004   ZX=     3.5400
   XY=    -2.2650   YY=    22.4951   ZY=    -0.0804
   XZ=     2.8011   YZ=    -0.3321   ZZ=    21.8844
   Eigenvalues:    20.1113    22.1438    29.3772
     17  H    Isotropic =    23.8030   Anisotropy =     5.3461
   XX=    24.3595   YX=    -2.7907   ZX=     1.8822
   XY=    -2.7389   YY=    23.9205   ZY=     0.2495
   XZ=     2.0918   YZ=     0.1496   ZZ=    23.1290
   Eigenvalues:    20.4417    23.6002    27.3671
     18  H    Isotropic =    23.8710   Anisotropy =     4.7053
   XX=    23.5053   YX=    -2.1748   ZX=     1.3586
   XY=    -2.1512   YY=    25.5832   ZY=     1.4662
   XZ=     1.3675   YZ=     1.4031   ZZ=    22.5246
   Eigenvalues:    20.3911    24.2141    27.0079
     19  H    Isotropic =    23.6903   Anisotropy =     9.4837
   XX=    23.3827   YX=    -4.1752   ZX=    -1.7559
   XY=    -4.2092   YY=    26.1767   ZY=     2.4485
   XZ=    -0.3899   YZ=     2.4784   ZZ=    21.5114
   Eigenvalues:    19.9581    21.0999    30.0128
     20  H    Isotropic =    23.8436   Anisotropy =     4.1392
   XX=    23.4525   YX=    -1.0527   ZX=     2.2732
   XY=    -0.8915   YY=    23.8211   ZY=     1.9951
   XZ=     2.2496   YZ=     2.0792   ZZ=    24.2570
   Eigenvalues:    20.3051    24.6226    26.6031
     21  H    Isotropic =    26.8700   Anisotropy =     5.5846
   XX=    25.5831   YX=     2.9655   ZX=     2.3199
   XY=     1.8586   YY=    27.6396   ZY=     0.3232
   XZ=     2.9861   YZ=     0.7153   ZZ=    27.3873
   Eigenvalues:    23.0114    27.0055    30.5931
     22  H    Isotropic =    28.4011   Anisotropy =     6.0029
   XX=    27.1888   YX=    -4.2178   ZX=     1.2479
   XY=    -2.8520   YY=    29.8762   ZY=    -1.2753
   XZ=     0.0142   YZ=     0.6530   ZZ=    28.1382
   Eigenvalues:    24.7159    28.0842    32.4030
     23  H    Isotropic =    28.0353   Anisotropy =     7.2740
   XX=    27.7067   YX=     0.8458   ZX=     1.8089
   XY=     1.4138   YY=    31.0453   ZY=    -4.6822
   XZ=     1.1722   YZ=    -2.6949   ZZ=    25.3540
   Eigenvalues:    22.8457    28.3756    32.8847
     24  H    Isotropic =    27.0701   Anisotropy =     5.1414
   XX=    28.0429   YX=     0.5878   ZX=    -0.3638
   XY=     0.9268   YY=    29.1488   ZY=     4.1524
   XZ=    -2.4833   YZ=     1.7480   ZZ=    24.0185
   Eigenvalues:    22.2287    28.4839    30.4977
     25  H    Isotropic =    26.1374   Anisotropy =    17.4426
   XX=    27.4800   YX=     9.3719   ZX=     5.3450
   XY=     7.9218   YY=    24.0715   ZY=     2.3629
   XZ=     5.7210   YZ=     2.6095   ZZ=    26.8607
   Eigenvalues:    16.6565    23.9899    37.7658
     26  H    Isotropic =    30.7259   Anisotropy =     9.7319
   XX=    29.1419   YX=     2.5028   ZX=     1.5599
   XY=     3.3428   YY=    31.6440   ZY=     3.6530
   XZ=     1.6295   YZ=     5.1611   ZZ=    31.3917
   Eigenvalues:    26.5679    28.3959    37.2138
     27  H    Isotropic =    30.2713   Anisotropy =    10.0826
   XX=    32.8538   YX=    -0.8122   ZX=    -4.0412
   XY=     0.6497   YY=    26.4919   ZY=     2.1876
   XZ=    -5.1075   YZ=     2.0746   ZZ=    31.4682
   Eigenvalues:    25.2435    28.5774    36.9931
     28  H    Isotropic =    30.8123   Anisotropy =     5.1840
   XX=    30.7164   YX=    -3.6335   ZX=     0.7068
   XY=    -1.2128   YY=    29.9246   ZY=    -2.8928
   XZ=     0.3434   YZ=    -1.4676   ZZ=    31.7960
   Eigenvalues:    27.4036    30.7650    34.2683
     29  H    Isotropic =    30.5163   Anisotropy =     8.8500
   XX=    32.8724   YX=    -1.4372   ZX=    -4.0631
   XY=    -1.0260   YY=    27.4735   ZY=     2.8790
   XZ=    -3.1549   YZ=     1.8502   ZZ=    31.2029
   Eigenvalues:    26.2754    28.8571    36.4163
     30  H    Isotropic =    30.6780   Anisotropy =    11.6196
   XX=    33.4908   YX=     5.6474   ZX=     2.0203
   XY=     4.8259   YY=    31.5373   ZY=     1.8841
   XZ=     1.5873   YZ=     1.8489   ZZ=    27.0059
   Eigenvalues:    26.3335    27.2761    38.4244
     31  H    Isotropic =    30.2679   Anisotropy =     6.3582
   XX=    31.9695   YX=    -0.5405   ZX=     2.4953
   XY=    -0.5399   YY=    28.6776   ZY=    -4.3920
   XZ=     0.9108   YZ=    -3.4444   ZZ=    30.1567
   Eigenvalues:    25.3580    30.9391    34.5067
 End of Minotr Frequency-dependent properties file   721 does not exist.
 End of Minotr Frequency-dependent properties file   722 does not exist.

 **********************************************************************

            Population analysis using the SCF density.

 **********************************************************************

 Orbital symmetries:
       Occupied  (A) (A) (A) (A) (A) (A) (A) (A) (A) (A) (A) (A)
                 (A) (A) (A) (A) (A) (A) (A) (A) (A) (A) (A) (A)
                 (A) (A) (A) (A) (A) (A) (A) (A) (A) (A) (A) (A)
                 (A) (A) (A) (A) (A) (A) (A) (A) (A) (A) (A) (A)
                 (A) (A) (A) (A) (A) (A) (A) (A)
       Virtual   (A) (A) (A) (A) (A) (A) (A) (A) (A) (A) (A) (A)
                 (A) (A) (A) (A) (A) (A) (A) (A) (A) (A) (A) (A)
                 (A) (A) (A) (A) (A) (A) (A) (A) (A) (A) (A) (A)
                 (A) (A) (A) (A) (A) (A) (A) (A) (A) (A) (A) (A)
                 (A) (A) (A) (A) (A) (A) (A) (A) (A) (A) (A) (A)
                 (A) (A) (A) (A) (A) (A) (A) (A) (A) (A) (A) (A)
                 (A) (A) (A) (A) (A) (A) (A) (A) (A) (A) (A) (A)
                 (A) (A) (A) (A) (A) (A) (A) (A) (A) (A) (A) (A)
                 (A) (A) (A) (A) (A) (A) (A) (A) (A) (A) (A) (A)
                 (A) (A) (A) (A) (A) (A) (A) (A) (A) (A) (A) (A)
                 (A) (A) (A) (A) (A) (A) (A) (A) (A) (A) (A) (A)
                 (A) (A) (A) (A) (A) (A) (A) (A) (A) (A) (A) (A)
                 (A) (A) (A) (A) (A) (A) (A) (A) (A) (A) (A) (A)
                 (A) (A) (A) (A) (A) (A) (A) (A) (A) (A) (A) (A)
                 (A) (A) (A) (A) (A) (A) (A) (A) (A) (A) (A) (A)
                 (A) (A) (A) (A) (A) (A) (A) (A) (A) (A) (A) (A)
                 (A) (A) (A) (A) (A) (A) (A) (A) (A) (A) (A) (A)
                 (A) (A) (A) (A) (A) (A) (A) (A) (A) (A) (A) (A)
                 (A) (A) (A) (A) (A) (A) (A) (A) (A) (A) (A) (A)
                 (A) (A) (A) (A) (A) (A) (A) (A) (A) (A) (A) (A)
                 (A) (A) (A) (A) (A) (A) (A) (A) (A) (A) (A) (A)
                 (A) (A) (A) (A) (A) (A) (A) (A) (A) (A) (A) (A)
                 (A) (A) (A) (A) (A) (A) (A) (A) (A) (A) (A) (A)
                 (A) (A) (A) (A) (A) (A) (A) (A) (A) (A) (A) (A)
                 (A) (A) (A) (A) (A) (A) (A) (A) (A) (A) (A) (A)
                 (A) (A) (A) (A) (A) (A) (A) (A) (A)
 The electronic state is 1-A.
 Alpha  occ. eigenvalues --  -19.33507 -19.28379 -19.27263 -10.44892 -10.36093
 Alpha  occ. eigenvalues --  -10.35346 -10.32370 -10.31449 -10.30665 -10.30585
 Alpha  occ. eigenvalues --  -10.30566 -10.30528 -10.30411 -10.29030 -10.28852
 Alpha  occ. eigenvalues --   -1.21767  -1.13676  -1.11773  -0.96118  -0.91500
 Alpha  occ. eigenvalues --   -0.86902  -0.85076  -0.84622  -0.77402  -0.76530
 Alpha  occ. eigenvalues --   -0.72472  -0.69945  -0.67920  -0.65374  -0.62161
 Alpha  occ. eigenvalues --   -0.59851  -0.59000  -0.58202  -0.55463  -0.55349
 Alpha  occ. eigenvalues --   -0.53363  -0.52747  -0.51110  -0.51008  -0.50426
 Alpha  occ. eigenvalues --   -0.49172  -0.47831  -0.47082  -0.46845  -0.45923
 Alpha  occ. eigenvalues --   -0.45555  -0.44382  -0.42483  -0.42141  -0.41914
 Alpha  occ. eigenvalues --   -0.41596  -0.39360  -0.36859  -0.36157  -0.33141
 Alpha  occ. eigenvalues --   -0.32447
 Alpha virt. eigenvalues --    0.04977   0.05114   0.06168   0.06990   0.08043
 Alpha virt. eigenvalues --    0.08262   0.08645   0.09322   0.09637   0.10382
 Alpha virt. eigenvalues --    0.10612   0.10949   0.12031   0.12132   0.12689
 Alpha virt. eigenvalues --    0.13103   0.13633   0.14295   0.14446   0.15555
 Alpha virt. eigenvalues --    0.15820   0.16402   0.17000   0.17527   0.17791
 Alpha virt. eigenvalues --    0.18862   0.19198   0.19520   0.19888   0.20209
 Alpha virt. eigenvalues --    0.20589   0.21151   0.21526   0.21867   0.22578
 Alpha virt. eigenvalues --    0.22825   0.23491   0.24197   0.24486   0.25066
 Alpha virt. eigenvalues --    0.25305   0.25744   0.26149   0.26398   0.26995
 Alpha virt. eigenvalues --    0.27621   0.27964   0.28323   0.28856   0.29112
 Alpha virt. eigenvalues --    0.29562   0.29933   0.30150   0.30853   0.31158
 Alpha virt. eigenvalues --    0.31298   0.32119   0.32262   0.33155   0.33338
 Alpha virt. eigenvalues --    0.33896   0.34320   0.34809   0.35330   0.36287
 Alpha virt. eigenvalues --    0.36638   0.37171   0.38040   0.38569   0.38740
 Alpha virt. eigenvalues --    0.38909   0.39277   0.40102   0.40860   0.41583
 Alpha virt. eigenvalues --    0.42462   0.43436   0.43739   0.44244   0.44844
 Alpha virt. eigenvalues --    0.45554   0.46098   0.47057   0.47765   0.47832
 Alpha virt. eigenvalues --    0.48670   0.49441   0.51414   0.53120   0.54001
 Alpha virt. eigenvalues --    0.56495   0.58012   0.61339   0.65681   0.70139
 Alpha virt. eigenvalues --    0.72835   0.73811   0.74776   0.76090   0.76804
 Alpha virt. eigenvalues --    0.77814   0.78283   0.78943   0.79381   0.79999
 Alpha virt. eigenvalues --    0.81971   0.82904   0.83639   0.83782   0.84620
 Alpha virt. eigenvalues --    0.85809   0.86799   0.87771   0.88789   0.89531
 Alpha virt. eigenvalues --    0.90414   0.91188   0.94261   0.95205   0.96439
 Alpha virt. eigenvalues --    0.97674   0.98894   1.00224   1.01290   1.02220
 Alpha virt. eigenvalues --    1.04008   1.04521   1.05010   1.06632   1.07134
 Alpha virt. eigenvalues --    1.08927   1.09698   1.11744   1.12245   1.12310
 Alpha virt. eigenvalues --    1.13155   1.13963   1.17017   1.18768   1.19675
 Alpha virt. eigenvalues --    1.20429   1.21435   1.22703   1.24365   1.25021
 Alpha virt. eigenvalues --    1.25264   1.26246   1.27810   1.28982   1.31881
 Alpha virt. eigenvalues --    1.32979   1.33591   1.35567   1.36694   1.37679
 Alpha virt. eigenvalues --    1.38803   1.40622   1.42265   1.42468   1.44627
 Alpha virt. eigenvalues --    1.45872   1.47366   1.48344   1.49911   1.50196
 Alpha virt. eigenvalues --    1.51345   1.51466   1.52481   1.53818   1.55526
 Alpha virt. eigenvalues --    1.58048   1.58444   1.62934   1.64438   1.65481
 Alpha virt. eigenvalues --    1.70033   1.70935   1.73553   1.76380   1.76940
 Alpha virt. eigenvalues --    1.80282   1.82411   1.83224   1.87912   1.88190
 Alpha virt. eigenvalues --    1.90659   1.91501   1.91761   1.92873   1.93732
 Alpha virt. eigenvalues --    1.96726   1.98094   1.99060   1.99720   2.01259
 Alpha virt. eigenvalues --    2.01697   2.03334   2.03651   2.04366   2.05766
 Alpha virt. eigenvalues --    2.08253   2.08667   2.10413   2.11154   2.11550
 Alpha virt. eigenvalues --    2.13340   2.14222   2.15172   2.17045   2.17419
 Alpha virt. eigenvalues --    2.19546   2.19726   2.21081   2.21652   2.24810
 Alpha virt. eigenvalues --    2.25311   2.26158   2.27754   2.29554   2.30528
 Alpha virt. eigenvalues --    2.32176   2.36028   2.36683   2.38848   2.39755
 Alpha virt. eigenvalues --    2.41704   2.42476   2.44035   2.48075   2.48671
 Alpha virt. eigenvalues --    2.49519   2.50482   2.51323   2.53600   2.55361
 Alpha virt. eigenvalues --    2.56002   2.56554   2.57138   2.59990   2.60206
 Alpha virt. eigenvalues --    2.61715   2.64656   2.65072   2.66649   2.68923
 Alpha virt. eigenvalues --    2.69421   2.69825   2.71372   2.73160   2.74239
 Alpha virt. eigenvalues --    2.75431   2.79013   2.79855   2.81163   2.83632
 Alpha virt. eigenvalues --    2.84659   2.85664   2.86583   2.88118   2.88984
 Alpha virt. eigenvalues --    2.90460   2.92105   2.92964   2.96224   2.97875
 Alpha virt. eigenvalues --    2.98601   3.00759   3.03597   3.08183   3.10165
 Alpha virt. eigenvalues --    3.13594   3.15832   3.15980   3.19159   3.26246
 Alpha virt. eigenvalues --    3.29153   3.30346   3.36284   3.37437   3.39026
 Alpha virt. eigenvalues --    3.39304   3.43550   3.45582   3.50930   3.52343
 Alpha virt. eigenvalues --    3.53846   3.57988   3.58650   3.60419   3.62749
 Alpha virt. eigenvalues --    3.64659   3.65796   3.73212   3.99615   4.39279
 Alpha virt. eigenvalues --    4.41658   4.43061   4.50357   4.53251   4.56762
 Alpha virt. eigenvalues --    4.57764   4.62487   4.64865   4.69871   4.72978
 Alpha virt. eigenvalues --    4.78407   4.83100   4.94945   5.00465
          Condensed to atoms (all electrons):
              1          2          3          4          5          6
     1  C   20.326725  -0.669823  -1.480743  -6.777328  -9.501802   0.853746
     2  C   -0.669823   8.511090   0.277855  -0.802810  -1.537996   0.657514
     3  C   -1.480743   0.277855   6.755156   0.321891   0.090418   0.259682
     4  C   -6.777328  -0.802810   0.321891  16.132425   0.543128  -1.069283
     5  C   -9.501802  -1.537996   0.090418   0.543128  18.497086  -0.539257
     6  C    0.853746   0.657514   0.259682  -1.069283  -0.539257   5.630363
     7  C    4.461307  -0.866389  -0.485587  -2.878487  -2.931237   0.153520
     8  C   -2.164781   0.391419   0.126603   0.574978   2.060304  -0.057513
     9  C    0.833096  -0.110133   0.048008  -0.093720  -0.958847   0.021432
    10  O   -0.052144   0.020483   0.000530   0.012265   0.031577  -0.001385
    11  C   -0.032889   0.020306   0.008645  -0.033248   0.074456  -0.004646
    12  O   -0.204428   0.171979  -0.010946  -0.051046   0.086374   0.005586
    13  C    0.118257  -0.060203  -0.069941  -0.011573  -0.099334   0.011363
    14  O   -0.006154  -0.039452   0.011114   0.078801  -0.061156  -0.007943
    15  C    0.010147  -0.006878   0.000140   0.009725  -0.013646  -0.000033
    16  H    0.160122   0.007178   0.052657   0.108951   0.022439  -0.008463
    17  H    0.012904   0.254237  -0.010016   0.020270   0.021033   0.027186
    18  H    0.018126  -0.000307   0.271219   0.029146  -0.000486   0.012958
    19  H    0.054466  -0.000093   0.000213   0.139191   0.106407  -0.009329
    20  H   -0.016024   0.030842   0.033580   0.009054   0.001451   0.266695
    21  H    0.170050   0.016342   0.050523  -0.183588  -0.088644   0.000792
    22  H    0.001851   0.000850  -0.002672   0.028531  -0.005465   0.000124
    23  H    0.001738  -0.002318  -0.000657  -0.002069   0.000554   0.000433
    24  H    0.000740  -0.003997   0.000286  -0.002465   0.007078  -0.000338
    25  H    0.003966   0.016406   0.008854  -0.064558  -0.003104  -0.002696
    26  H    0.050995   0.000149   0.003250  -0.045544  -0.010866   0.000967
    27  H    0.004590  -0.000541  -0.001010  -0.016625  -0.003600   0.000194
    28  H    0.039893   0.002421  -0.006154  -0.002897  -0.016742   0.000054
    29  H   -0.000068   0.000020  -0.000005  -0.000255   0.000434   0.000011
    30  H    0.000050  -0.000134  -0.000005   0.000000  -0.000052  -0.000001
    31  H    0.000250  -0.000201  -0.000005   0.000893  -0.001041  -0.000006
              7          8          9         10         11         12
     1  C    4.461307  -2.164781   0.833096  -0.052144  -0.032889  -0.204428
     2  C   -0.866389   0.391419  -0.110133   0.020483   0.020306   0.171979
     3  C   -0.485587   0.126603   0.048008   0.000530   0.008645  -0.010946
     4  C   -2.878487   0.574978  -0.093720   0.012265  -0.033248  -0.051046
     5  C   -2.931237   2.060304  -0.958847   0.031577   0.074456   0.086374
     6  C    0.153520  -0.057513   0.021432  -0.001385  -0.004646   0.005586
     7  C    9.662453  -2.043129   0.514670  -0.005915  -0.086431   0.214796
     8  C   -2.043129   8.652515  -1.570055  -0.261481   0.142783   0.112956
     9  C    0.514670  -1.570055   6.815758   0.363847  -0.227920  -0.205730
    10  O   -0.005915  -0.261481   0.363847   8.379510   0.048263  -0.000598
    11  C   -0.086431   0.142783  -0.227920   0.048263   5.197849   0.004506
    12  O    0.214796   0.112956  -0.205730  -0.000598   0.004506   8.144561
    13  C    0.200054   0.005398  -0.181544   0.000090  -0.024914   0.028000
    14  O    0.013936  -0.199573   0.651978  -0.164066   0.002218  -0.015940
    15  C    0.002150  -0.052264   0.020221  -0.053422   0.212774  -0.001734
    16  H   -0.033428   0.007587  -0.006576  -0.000037   0.000003   0.000314
    17  H    0.000909  -0.001737   0.002046  -0.000047   0.000017   0.000005
    18  H   -0.004502   0.000567  -0.000905  -0.000002  -0.000010   0.000024
    19  H    0.026521  -0.003866   0.005484  -0.000835  -0.003216   0.004826
    20  H    0.000301   0.000302  -0.000165   0.000005   0.000046  -0.000003
    21  H    0.325564   0.035132   0.030013  -0.000958   0.000435  -0.053573
    22  H    0.001474   0.299105  -0.011378   0.003911  -0.002891  -0.005517
    23  H    0.005045  -0.008604   0.017071  -0.061733   0.413472  -0.000007
    24  H   -0.003150   0.012575  -0.009846  -0.036246   0.397793   0.000033
    25  H    0.013637  -0.048479   0.056831   0.000502   0.001954   0.257376
    26  H   -0.013002  -0.038504   0.007704   0.000470   0.000091   0.000248
    27  H    0.029201  -0.089948   0.021758   0.001207  -0.001427  -0.000382
    28  H    0.000361  -0.063098  -0.021672  -0.001175  -0.001495  -0.000778
    29  H   -0.000871   0.004297   0.005900  -0.003649  -0.047035   0.000001
    30  H    0.000210   0.002129   0.005864   0.006896  -0.045095   0.000001
    31  H    0.001763  -0.008355   0.003574  -0.006277  -0.047431  -0.000017
             13         14         15         16         17         18
     1  C    0.118257  -0.006154   0.010147   0.160122   0.012904   0.018126
     2  C   -0.060203  -0.039452  -0.006878   0.007178   0.254237  -0.000307
     3  C   -0.069941   0.011114   0.000140   0.052657  -0.010016   0.271219
     4  C   -0.011573   0.078801   0.009725   0.108951   0.020270   0.029146
     5  C   -0.099334  -0.061156  -0.013646   0.022439   0.021033  -0.000486
     6  C    0.011363  -0.007943  -0.000033  -0.008463   0.027186   0.012958
     7  C    0.200054   0.013936   0.002150  -0.033428   0.000909  -0.004502
     8  C    0.005398  -0.199573  -0.052264   0.007587  -0.001737   0.000567
     9  C   -0.181544   0.651978   0.020221  -0.006576   0.002046  -0.000905
    10  O    0.000090  -0.164066  -0.053422  -0.000037  -0.000047  -0.000002
    11  C   -0.024914   0.002218   0.212774   0.000003   0.000017  -0.000010
    12  O    0.028000  -0.015940  -0.001734   0.000314   0.000005   0.000024
    13  C    5.494548   0.006123  -0.004454   0.005429  -0.000020   0.000682
    14  O    0.006123   8.207135  -0.028191   0.000036  -0.000041   0.000002
    15  C   -0.004454  -0.028191   5.273609   0.000006   0.000086  -0.000002
    16  H    0.005429   0.000036   0.000006   0.512174   0.000011  -0.004008
    17  H   -0.000020  -0.000041   0.000086   0.000011   0.498497  -0.000123
    18  H    0.000682   0.000002  -0.000002  -0.004008  -0.000123   0.497754
    19  H   -0.000970  -0.000992  -0.000304  -0.000116  -0.004327   0.000012
    20  H   -0.000074   0.000001   0.000001  -0.000124  -0.003857  -0.003875
    21  H   -0.041218   0.000047   0.000127   0.001799   0.000002   0.000000
    22  H   -0.004013  -0.006881   0.000815  -0.000017   0.000000   0.000000
    23  H    0.003069  -0.000218  -0.033833   0.000000   0.000000   0.000000
    24  H   -0.004525   0.003222  -0.028247   0.000000  -0.000001   0.000000
    25  H   -0.007208   0.029208   0.000761  -0.000011   0.000001   0.000000
    26  H    0.399253  -0.000240  -0.000095  -0.000286   0.000000   0.000000
    27  H    0.419705  -0.001038  -0.000634   0.000033   0.000000   0.000000
    28  H    0.429038  -0.000060  -0.000039  -0.000509   0.000000  -0.000011
    29  H   -0.001623  -0.000525   0.406709   0.000000   0.000000   0.000000
    30  H    0.000103  -0.000286   0.394665   0.000000   0.000000   0.000000
    31  H    0.000103   0.001913   0.418415   0.000000   0.000000   0.000000
             19         20         21         22         23         24
     1  C    0.054466  -0.016024   0.170050   0.001851   0.001738   0.000740
     2  C   -0.000093   0.030842   0.016342   0.000850  -0.002318  -0.003997
     3  C    0.000213   0.033580   0.050523  -0.002672  -0.000657   0.000286
     4  C    0.139191   0.009054  -0.183588   0.028531  -0.002069  -0.002465
     5  C    0.106407   0.001451  -0.088644  -0.005465   0.000554   0.007078
     6  C   -0.009329   0.266695   0.000792   0.000124   0.000433  -0.000338
     7  C    0.026521   0.000301   0.325564   0.001474   0.005045  -0.003150
     8  C   -0.003866   0.000302   0.035132   0.299105  -0.008604   0.012575
     9  C    0.005484  -0.000165   0.030013  -0.011378   0.017071  -0.009846
    10  O   -0.000835   0.000005  -0.000958   0.003911  -0.061733  -0.036246
    11  C   -0.003216   0.000046   0.000435  -0.002891   0.413472   0.397793
    12  O    0.004826  -0.000003  -0.053573  -0.005517  -0.000007   0.000033
    13  C   -0.000970  -0.000074  -0.041218  -0.004013   0.003069  -0.004525
    14  O   -0.000992   0.000001   0.000047  -0.006881  -0.000218   0.003222
    15  C   -0.000304   0.000001   0.000127   0.000815  -0.033833  -0.028247
    16  H   -0.000116  -0.000124   0.001799  -0.000017   0.000000   0.000000
    17  H   -0.004327  -0.003857   0.000002   0.000000   0.000000  -0.000001
    18  H    0.000012  -0.003875   0.000000   0.000000   0.000000   0.000000
    19  H    0.520532  -0.000129  -0.000035  -0.000016   0.000000  -0.000072
    20  H   -0.000129   0.499817   0.000000   0.000000   0.000000   0.000000
    21  H   -0.000035   0.000000   0.570108  -0.006155   0.000000   0.000000
    22  H   -0.000016   0.000000  -0.006155   0.489804   0.000003  -0.000017
    23  H    0.000000   0.000000   0.000000   0.000003   0.525678  -0.030660
    24  H   -0.000072   0.000000   0.000000  -0.000017  -0.030660   0.518420
    25  H   -0.001041   0.000000   0.006201  -0.001051   0.000000  -0.000014
    26  H    0.000000   0.000000   0.003707  -0.002862  -0.000001   0.000001
    27  H    0.000000   0.000000   0.000106  -0.003693   0.000013  -0.000004
    28  H   -0.000001   0.000000  -0.000352   0.003804   0.000025  -0.000007
    29  H    0.000000   0.000000   0.000000  -0.000006  -0.004918   0.003763
    30  H    0.000000   0.000000   0.000000  -0.000001  -0.001174  -0.001190
    31  H    0.000000   0.000000   0.000000   0.000006   0.003915  -0.004715
             25         26         27         28         29         30
     1  C    0.003966   0.050995   0.004590   0.039893  -0.000068   0.000050
     2  C    0.016406   0.000149  -0.000541   0.002421   0.000020  -0.000134
     3  C    0.008854   0.003250  -0.001010  -0.006154  -0.000005  -0.000005
     4  C   -0.064558  -0.045544  -0.016625  -0.002897  -0.000255   0.000000
     5  C   -0.003104  -0.010866  -0.003600  -0.016742   0.000434  -0.000052
     6  C   -0.002696   0.000967   0.000194   0.000054   0.000011  -0.000001
     7  C    0.013637  -0.013002   0.029201   0.000361  -0.000871   0.000210
     8  C   -0.048479  -0.038504  -0.089948  -0.063098   0.004297   0.002129
     9  C    0.056831   0.007704   0.021758  -0.021672   0.005900   0.005864
    10  O    0.000502   0.000470   0.001207  -0.001175  -0.003649   0.006896
    11  C    0.001954   0.000091  -0.001427  -0.001495  -0.047035  -0.045095
    12  O    0.257376   0.000248  -0.000382  -0.000778   0.000001   0.000001
    13  C   -0.007208   0.399253   0.419705   0.429038  -0.001623   0.000103
    14  O    0.029208  -0.000240  -0.001038  -0.000060  -0.000525  -0.000286
    15  C    0.000761  -0.000095  -0.000634  -0.000039   0.406709   0.394665
    16  H   -0.000011  -0.000286   0.000033  -0.000509   0.000000   0.000000
    17  H    0.000001   0.000000   0.000000   0.000000   0.000000   0.000000
    18  H    0.000000   0.000000   0.000000  -0.000011   0.000000   0.000000
    19  H   -0.001041   0.000000   0.000000  -0.000001   0.000000   0.000000
    20  H    0.000000   0.000000   0.000000   0.000000   0.000000   0.000000
    21  H    0.006201   0.003707   0.000106  -0.000352   0.000000   0.000000
    22  H   -0.001051  -0.002862  -0.003693   0.003804  -0.000006  -0.000001
    23  H    0.000000  -0.000001   0.000013   0.000025  -0.004918  -0.001174
    24  H   -0.000014   0.000001  -0.000004  -0.000007   0.003763  -0.001190
    25  H    0.346883  -0.000002  -0.000002  -0.000006   0.000000   0.000000
    26  H   -0.000002   0.524132  -0.024142  -0.026648   0.000000   0.000000
    27  H   -0.000002  -0.024142   0.513165  -0.024029  -0.000001   0.000000
    28  H   -0.000006  -0.026648  -0.024029   0.503312  -0.000001   0.000000
    29  H    0.000000   0.000000  -0.000001  -0.000001   0.514420  -0.022377
    30  H    0.000000   0.000000   0.000000   0.000000  -0.022377   0.502732
    31  H    0.000003   0.000000   0.000000   0.000000  -0.029124  -0.021635
             31
     1  C    0.000250
     2  C   -0.000201
     3  C   -0.000005
     4  C    0.000893
     5  C   -0.001041
     6  C   -0.000006
     7  C    0.001763
     8  C   -0.008355
     9  C    0.003574
    10  O   -0.006277
    11  C   -0.047431
    12  O   -0.000017
    13  C    0.000103
    14  O    0.001913
    15  C    0.418415
    16  H    0.000000
    17  H    0.000000
    18  H    0.000000
    19  H    0.000000
    20  H    0.000000
    21  H    0.000000
    22  H    0.000006
    23  H    0.003915
    24  H   -0.004715
    25  H    0.000003
    26  H    0.000000
    27  H    0.000000
    28  H    0.000000
    29  H   -0.029124
    30  H   -0.021635
    31  H    0.508082
 Mulliken atomic charges:
              1
     1  C   -0.216836
     2  C   -0.277819
     3  C   -0.252886
     4  C    0.026245
     5  C    0.230535
     6  C   -0.201726
     7  C   -0.275745
     8  C    0.182736
     9  C   -0.026764
    10  O   -0.219587
    11  C    0.033035
    12  O   -0.480885
    13  C   -0.609602
    14  O   -0.472980
    15  C   -0.526575
    16  H    0.174834
    17  H    0.182966
    18  H    0.183743
    19  H    0.167689
    20  H    0.182155
    21  H    0.163575
    22  H    0.222356
    23  H    0.175175
    24  H    0.181585
    25  H    0.385586
    26  H    0.171226
    27  H    0.177103
    28  H    0.186769
    29  H    0.174902
    30  H    0.179301
    31  H    0.179890
 Sum of Mulliken atomic charges =   0.00000
 Mulliken charges with hydrogens summed into heavy atoms:
              1
     1  C   -0.042002
     2  C   -0.094853
     3  C   -0.069143
     4  C    0.026245
     5  C    0.398224
     6  C   -0.019572
     7  C   -0.112170
     8  C    0.405093
     9  C   -0.026764
    10  O   -0.219587
    11  C    0.389795
    12  O   -0.095299
    13  C   -0.074505
    14  O   -0.472980
    15  C    0.007518
 Sum of Mulliken charges with hydrogens summed into heavy atoms =   0.00000
 Electronic spatial extent (au):  <R**2>=           3458.8269
 Charge=              0.0000 electrons
 Dipole moment (field-independent basis, Debye):
    X=             -1.8187    Y=             -1.9363    Z=              3.7635  Tot=              4.6066
 Quadrupole moment (field-independent basis, Debye-Ang):
   XX=            -82.7495   YY=            -84.0627   ZZ=            -94.5669
   XY=             -0.5903   XZ=              3.0374   YZ=              8.6283
 Traceless Quadrupole moment (field-independent basis, Debye-Ang):
   XX=              4.3769   YY=              3.0636   ZZ=             -7.4405
   XY=             -0.5903   XZ=              3.0374   YZ=              8.6283
 Octapole moment (field-independent basis, Debye-Ang**2):
  XXX=            -43.1483  YYY=            -14.1937  ZZZ=              3.1498  XYY=            -12.7666
  XXY=            -26.0084  XXZ=             26.4338  XZZ=             -1.6990  YZZ=             -8.8525
  YYZ=             12.5403  XYZ=              9.6993
 Hexadecapole moment (field-independent basis, Debye-Ang**3):
 XXXX=          -2852.0012 YYYY=          -1003.7791 ZZZZ=           -681.8536 XXXY=              9.9222
 XXXZ=             62.4403 YYYX=              0.6240 YYYZ=             42.9037 ZZZX=             13.8954
 ZZZY=             14.6415 XXYY=           -575.9405 XXZZ=           -603.6547 YYZZ=           -301.3180
 XXYZ=             -4.2675 YYXZ=              3.0894 ZZXY=             -7.8969
 N-N= 1.025047232631D+03 E-N=-3.661830460059D+03  KE= 6.858927136346D+02
 1\1\GINC-COMPUTE-8-12\SP\RwB97XD\6-31+G(d,p)\C12H16O3\ELUCIANO.IQUIR\1
 7-May-2022\0\\# wb97xd/6-31+g** scrf=(pcm,solvent=chloroform,smd,dovac
 uum) nmr\\comment\\0,1\C,0,2.111866858,0.703830668,1.671630215\C,0,3.0
 82957294,-0.783419271,-0.472134386\C,0,3.134941621,-0.22553831,1.87116
 7981\C,0,1.553762193,0.900969828,0.397175812\C,0,2.059562624,0.1459964
 94,-0.672521721\C,0,3.618679763,-0.970562653,0.799303572\C,0,0.4244781
 22,1.900046191,0.216422352\C,0,-1.003932651,1.330908512,0.353119348\C,
 0,-1.250058754,0.275108431,-0.709392991\O,0,-1.789895187,-0.865017254,
 -0.208879835\C,0,-2.033135235,-1.918441266,-1.152943026\O,0,0.57929120
 8,2.614603866,-1.014664689\C,0,-1.305231358,0.858735526,1.776954705\O,
 0,-1.001064831,0.469131955,-1.896315479\C,0,-3.401353894,-1.747644154,
 -1.78529297\H,0,1.754033601,1.278241086,2.523722101\H,0,3.465102149,-1
 .356558035,-1.312997392\H,0,3.556783914,-0.364428491,2.863192124\H,0,1
 .669444696,0.278016203,-1.679348052\H,0,4.41744145,-1.691175896,0.9526
 5331\H,0,0.548903007,2.673903663,0.984960672\H,0,-1.71819273,2.1336299
 51,0.122574637\H,0,-1.999632088,-2.860567568,-0.596094034\H,0,-1.24269
 8849,-1.964431636,-1.910892856\H,0,0.205426143,2.060332464,-1.72835942
 1\H,0,-1.092187149,1.64921653,2.504123259\H,0,-2.363862259,0.5946921,1
 .879727762\H,0,-0.721663468,-0.026592822,2.049571371\H,0,-4.178237499,
 -1.705441142,-1.01483028\H,0,-3.621419094,-2.576840658,-2.463545295\H,
 0,-3.460109597,-0.810704312,-2.348086794\\Version=EM64L-G09RevC.01\Sta
 te=1-A\HF=-692.4467732\RMSD=8.521e-09\Dipole=-0.8627928,-1.3250447,0.8
 857619\Quadrupole=2.5397676,-2.9411875,0.4014199,-2.7966645,1.8191118,
 7.1323899\PG=C01 [X(C12H16O3)]\\@


 "WHERE SHALL I START, PLEASE YOUR MAJESTY?" HE ASKED.
 "BEGIN AT THE BEGINNING," THE KING SAID GRAVELY,
 "AND GO ON TILL YOU COME TO THE END: THEN STOP." 

                                      -- LEWIS CARROLL
 Job cpu time:  0 days  2 hours  3 minutes 36.3 seconds.
 File lengths (MBytes):  RWF=    122 Int=      0 D2E=      0 Chk=      9 Scr=      1
 Normal termination of Gaussian 09 at Tue May 17 19:47:26 2022.
