 Entering Gaussian System, Link 0=g09
 Input=/home/eluciano.iquir/wb9/73a_013.gjc
 Output=/home/eluciano.iquir/wb9/73a_013.log
 Initial command:
 /share/apps/Gaussian09/EM64T.SSE4.2-enabled/g09/l1.exe /tmp/Gau-29528.inp -scrdir=/tmp/
 Entering Link 1 = /share/apps/Gaussian09/EM64T.SSE4.2-enabled/g09/l1.exe PID=     29529.
  
 Copyright (c) 1988,1990,1992,1993,1995,1998,2003,2009,2011,
            Gaussian, Inc.  All Rights Reserved.
  
 This is part of the Gaussian(R) 09 program.  It is based on
 the Gaussian(R) 03 system (copyright 2003, Gaussian, Inc.),
 the Gaussian(R) 98 system (copyright 1998, Gaussian, Inc.),
 the Gaussian(R) 94 system (copyright 1995, Gaussian, Inc.),
 the Gaussian 92(TM) system (copyright 1992, Gaussian, Inc.),
 the Gaussian 90(TM) system (copyright 1990, Gaussian, Inc.),
 the Gaussian 88(TM) system (copyright 1988, Gaussian, Inc.),
 the Gaussian 86(TM) system (copyright 1986, Carnegie Mellon
 University), and the Gaussian 82(TM) system (copyright 1983,
 Carnegie Mellon University). Gaussian is a federally registered
 trademark of Gaussian, Inc.
  
 This software contains proprietary and confidential information,
 including trade secrets, belonging to Gaussian, Inc.
  
 This software is provided under written license and may be
 used, copied, transmitted, or stored only in accord with that
 written license.
  
 The following legend is applicable only to US Government
 contracts under FAR:
  
                    RESTRICTED RIGHTS LEGEND
  
 Use, reproduction and disclosure by the US Government is
 subject to restrictions as set forth in subparagraphs (a)
 and (c) of the Commercial Computer Software - Restricted
 Rights clause in FAR 52.227-19.
  
 Gaussian, Inc.
 340 Quinnipiac St., Bldg. 40, Wallingford CT 06492
  
  
 ---------------------------------------------------------------
 Warning -- This program may not be used in any manner that
 competes with the business of Gaussian, Inc. or will provide
 assistance to any competitor of Gaussian, Inc.  The licensee
 of this program is prohibited from giving any competitor of
 Gaussian, Inc. access to this program.  By using this program,
 the user acknowledges that Gaussian, Inc. is engaged in the
 business of creating and licensing software in the field of
 computational chemistry and represents and warrants to the
 licensee that it is not a competitor of Gaussian, Inc. and that
 it will not use this program in any manner prohibited above.
 ---------------------------------------------------------------
  

 Cite this work as:
 Gaussian 09, Revision C.01,
 M. J. Frisch, G. W. Trucks, H. B. Schlegel, G. E. Scuseria, 
 M. A. Robb, J. R. Cheeseman, G. Scalmani, V. Barone, B. Mennucci, 
 G. A. Petersson, H. Nakatsuji, M. Caricato, X. Li, H. P. Hratchian, 
 A. F. Izmaylov, J. Bloino, G. Zheng, J. L. Sonnenberg, M. Hada, 
 M. Ehara, K. Toyota, R. Fukuda, J. Hasegawa, M. Ishida, T. Nakajima, 
 Y. Honda, O. Kitao, H. Nakai, T. Vreven, J. A. Montgomery, Jr., 
 J. E. Peralta, F. Ogliaro, M. Bearpark, J. J. Heyd, E. Brothers, 
 K. N. Kudin, V. N. Staroverov, T. Keith, R. Kobayashi, J. Normand, 
 K. Raghavachari, A. Rendell, J. C. Burant, S. S. Iyengar, J. Tomasi, 
 M. Cossi, N. Rega, J. M. Millam, M. Klene, J. E. Knox, J. B. Cross, 
 V. Bakken, C. Adamo, J. Jaramillo, R. Gomperts, R. E. Stratmann, 
 O. Yazyev, A. J. Austin, R. Cammi, C. Pomelli, J. W. Ochterski, 
 R. L. Martin, K. Morokuma, V. G. Zakrzewski, G. A. Voth, 
 P. Salvador, J. J. Dannenberg, S. Dapprich, A. D. Daniels, 
 O. Farkas, J. B. Foresman, J. V. Ortiz, J. Cioslowski, 
 and D. J. Fox, Gaussian, Inc., Wallingford CT, 2010.
 
 ******************************************
 Gaussian 09:  EM64L-G09RevC.01 23-Sep-2011
                17-May-2022 
 ******************************************
 %nprocshared=4
 Will use up to    4 processors via shared memory.
 ----------------------------------------------------------------
 # wb97xd/6-31+g** scrf=(pcm,solvent=chloroform,smd,dovacuum) nmr
 ----------------------------------------------------------------
 1/38=1/1;
 2/12=2,17=6,18=5,40=1/2;
 3/5=1,6=6,7=111,11=2,16=1,25=1,30=1,70=32101,72=7,74=-58/1,2,8,3;
 4//1;
 5/5=2,38=5,53=7/2;
 8/6=1,10=90,11=11/1;
 10/13=100,45=16/2;
 6/7=2,8=2,9=2,10=2,28=1/1;
 99/9=1/99;
 -------
 comment
 -------
 Charge =  0 Multiplicity = 1
 Symbolic Z-Matrix:
 6                    -0.01041   2.32341  -0.06426 
 6                     2.07973   3.10161   1.60848 
 6                     0.05216   3.63316   0.415 
 6                     0.97608   1.38661   0.28251 
 6                     2.01901   1.7917    1.13004 
 6                     1.09746   4.02187   1.24981 
 6                     0.87805  -0.03636  -0.24146 
 6                     0.11525  -0.96243   0.72156 
 6                    -0.46798  -2.11887  -0.06867 
 8                    -1.45901  -1.66384  -0.89329 
 6                    -2.08949  -2.68767  -1.67307 
 8                     2.18215  -0.54472  -0.52728 
 6                     0.95726  -1.49367   1.88344 
 8                    -0.14185  -3.29324   0.03539 
 6                    -3.14183  -2.034    -2.54722 
 1                    -0.83788   2.03863  -0.71145 
 1                     2.8928    3.40237   2.26442 
 1                    -0.71656   4.35035   0.13842 
 1                     2.79135   1.08462   1.42824 
 1                     1.14489   5.04128   1.62392 
 1                     0.37186   0.0091   -1.21366 
 1                    -0.74473  -0.43473   1.15721 
 1                    -2.5625   -3.41926  -1.00856 
 1                    -1.34374  -3.18614  -2.30242 
 1                     2.68078   0.17391  -0.95468 
 1                     1.31949  -0.67974   2.51768 
 1                     0.36069  -2.16106   2.51598 
 1                     1.82104  -2.06887   1.5333 
 1                    -3.88371  -1.51293  -1.93306 
 1                    -3.6535   -2.77776  -3.16437 
 1                    -2.68685  -1.28334  -3.20193 
 
                          Input orientation:                          
 ---------------------------------------------------------------------
 Center     Atomic      Atomic             Coordinates (Angstroms)
 Number     Number       Type             X           Y           Z
 ---------------------------------------------------------------------
      1          6           0       -0.010412    2.323413   -0.064263
      2          6           0        2.079729    3.101612    1.608484
      3          6           0        0.052162    3.633155    0.414999
      4          6           0        0.976082    1.386605    0.282511
      5          6           0        2.019015    1.791705    1.130039
      6          6           0        1.097457    4.021873    1.249805
      7          6           0        0.878049   -0.036361   -0.241463
      8          6           0        0.115252   -0.962425    0.721556
      9          6           0       -0.467978   -2.118874   -0.068667
     10          8           0       -1.459010   -1.663843   -0.893289
     11          6           0       -2.089489   -2.687675   -1.673074
     12          8           0        2.182148   -0.544719   -0.527276
     13          6           0        0.957258   -1.493667    1.883436
     14          8           0       -0.141853   -3.293236    0.035386
     15          6           0       -3.141832   -2.034003   -2.547224
     16          1           0       -0.837879    2.038633   -0.711450
     17          1           0        2.892799    3.402375    2.264419
     18          1           0       -0.716556    4.350346    0.138419
     19          1           0        2.791351    1.084618    1.428238
     20          1           0        1.144895    5.041279    1.623918
     21          1           0        0.371856    0.009099   -1.213655
     22          1           0       -0.744733   -0.434734    1.157214
     23          1           0       -2.562505   -3.419258   -1.008561
     24          1           0       -1.343741   -3.186138   -2.302420
     25          1           0        2.680778    0.173908   -0.954678
     26          1           0        1.319495   -0.679735    2.517684
     27          1           0        0.360688   -2.161061    2.515983
     28          1           0        1.821036   -2.068870    1.533296
     29          1           0       -3.883714   -1.512927   -1.933057
     30          1           0       -3.653497   -2.777756   -3.164373
     31          1           0       -2.686851   -1.283338   -3.201934
 ---------------------------------------------------------------------
                    Distance matrix (angstroms):
                    1          2          3          4          5
     1  C    0.000000
     2  C    2.787896   0.000000
     3  C    1.396077   2.412047   0.000000
     4  C    1.403934   2.432589   2.432728   0.000000
     5  C    2.414051   1.395870   2.787603   1.403609   0.000000
     6  C    2.416384   1.392979   1.393070   2.809808   2.416043
     7  C    2.527706   3.835781   3.818165   1.519537   2.554338
     8  C    3.380834   4.600240   4.606226   2.540026   3.372892
     9  C    4.465793   6.046249   5.795716   3.807496   4.786926
    10  O    4.322491   6.441358   5.661576   4.076446   5.303897
    11  C    5.658784   7.852823   6.992825   5.460934   6.693436
    12  O    3.639764   4.227019   4.783237   2.416685   2.869178
    13  C    4.393178   4.738367   5.409234   3.295342   3.533921
    14  O    5.619071   6.950118   6.939499   4.817859   5.632427
    15  C    5.912527   8.420758   7.147941   6.055179   7.402206
    16  H    1.088418   3.876139   2.145591   2.168768   3.407917
    17  H    3.874991   1.087103   3.397475   3.415420   2.155128
    18  H    2.155963   3.397004   1.087100   3.416071   3.874700
    19  H    3.407645   2.146429   3.876190   2.167738   1.088759
    20  H    3.401689   2.153245   2.153686   3.896731   3.401138
    21  H    2.612141   4.521608   3.986038   2.121586   3.373977
    22  H    3.104611   4.548293   4.211134   2.653976   3.549094
    23  H    6.354774   8.421461   7.655033   6.106127   7.260720
    24  H    6.094446   8.157887   7.472327   5.742250   6.918729
    25  H    3.557487   3.937322   4.555439   2.430486   2.720522
    26  H    4.177799   3.962724   4.962705   3.063281   2.919401
    27  H    5.187090   5.610204   6.171084   4.237104   4.505025
    28  H    5.019816   5.177496   6.073928   3.770772   3.886625
    29  H    5.763017   8.330614   6.891055   6.077306   7.425992
    30  H    6.993189   9.498264   8.224573   7.117298   8.455728
    31  H    5.478774   8.067726   6.690015   5.717258   7.096975
                    6          7          8          9         10
     6  C    0.000000
     7  C    4.329120   0.000000
     8  C    5.107543   1.538460   0.000000
     9  C    6.472846   2.485660   1.517230   0.000000
    10  O    6.592096   2.921544   2.361782   1.367187   0.000000
    11  C    7.982347   4.229096   3.683968   2.350947   1.433109
    12  O    5.018798   1.428563   2.450738   3.116321   3.826805
    13  C    5.553586   2.577830   1.530084   2.496576   3.684768
    14  O    7.518080   3.424044   2.443279   1.223238   2.291782
    15  C    8.310394   5.046440   4.737278   3.646909   2.388391
    16  H    3.394891   2.733294   3.459525   4.223134   3.758616
    17  H    2.153247   4.707820   5.398766   6.871849   7.387552
    18  H    2.152607   4.682977   5.409019   6.477306   6.147042
    19  H    3.395376   2.775828   3.442570   4.808983   5.568581
    20  H    1.086923   5.416021   6.157832   7.532198   7.620716
    21  H    4.764188   1.097022   2.180538   2.558239   2.500687
    22  H    4.823233   2.179087   1.099014   2.101359   2.495088
    23  H    8.594531   4.885677   4.024887   2.638454   2.076649
    24  H    8.398403   4.370925   4.027157   2.625960   2.077576
    25  H    4.708873   1.950057   3.268477   3.994563   4.529784
    26  H    4.874622   2.867349   2.180869   3.457657   4.508136
    27  H    6.354110   3.519307   2.171851   2.714569   3.896366
    28  H    6.140121   2.858336   2.189256   2.794347   4.100130
    29  H    8.097943   5.264610   4.831330   3.938321   2.642552
    30  H    9.396355   6.049261   5.709584   4.490552   3.348791
    31  H    7.892036   4.798735   4.832033   3.929234   2.642389
                   11         12         13         14         15
    11  C    0.000000
    12  O    4.914467   0.000000
    13  C    4.832917   2.865726   0.000000
    14  O    2.660606   3.643064   2.803887   0.000000
    15  C    1.516197   5.885824   6.060137   4.153965   0.000000
    16  H    4.982894   3.978466   4.736359   5.428724   5.026394
    17  H    8.798622   4.886526   5.278512   7.681726   9.440493
    18  H    7.395958   5.727766   6.324494   7.665850   7.338567
    19  H    6.904413   2.617232   3.196663   5.450626   7.793123
    20  H    9.003784   6.075106   6.542788   8.581568   9.264669
    21  H    3.679928   2.013700   3.491844   3.567831   4.277695
    22  H    3.859358   3.378792   2.132020   3.129377   4.693252
    23  H    1.095690   5.568333   4.945733   2.639179   2.149892
    24  H    1.095757   4.749749   5.067588   2.630844   2.149530
    25  H    5.608939   0.973514   3.715672   4.579144   6.427587
    26  H    5.763284   3.167677   1.093604   3.889438   6.884096
    27  H    4.881485   3.897654   1.096097   2.772676   6.157911
    28  H    5.094697   2.588319   1.095249   2.756037   6.425101
    29  H    2.160293   6.301454   6.164495   4.587570   1.095039
    30  H    2.162917   6.781998   6.956172   4.778685   1.093546
    31  H    2.160189   5.604151   6.259773   4.582243   1.095058
                   16         17         18         19         20
    16  H    0.000000
    17  H    4.963220   0.000000
    18  H    2.465971   4.294877   0.000000
    19  H    4.319690   2.466067   4.963267   0.000000
    20  H    4.289665   2.480206   2.479737   4.290021   0.000000
    21  H    2.415508   5.474165   4.675379   3.740360   5.828572
    22  H    3.101311   5.401939   4.892416   3.858209   5.811646
    23  H    5.731595   9.327777   8.067827   7.408553   9.604970
    24  H    5.485008   9.067127   7.946675   7.018272   9.449859
    25  H    3.989650   4.564048   5.493575   2.553410   5.718339
    26  H    4.740369   4.382129   5.925211   2.542872   5.793040
    27  H    5.430500   6.117736   7.015105   4.198303   7.299622
    28  H    5.383335   5.622966   7.042116   3.301066   7.142801
    29  H    4.835598   9.364835   6.978529   7.912144   8.994253
    30  H    6.094436  10.512840   8.387128   8.806025  10.348412
    31  H    4.544964   9.108755   6.839475   7.553569   8.830171
                   21         22         23         24         25
    21  H    0.000000
    22  H    2.657965   0.000000
    23  H    4.517318   4.111236   0.000000
    24  H    3.786584   4.460729   1.792708   0.000000
    25  H    2.329239   4.069971   6.356553   5.413231   0.000000
    26  H    3.910934   2.484339   5.916866   6.050478   3.826107
    27  H    4.315081   2.459353   4.748740   5.212761   4.783346
    28  H    3.736820   3.065128   5.244046   5.096746   3.458212
    29  H    4.576458   4.534917   2.496875   3.063907   6.848007
    30  H    5.270231   5.711986   2.499863   2.498943   7.329265
    31  H    3.870314   4.847074   3.064066   2.496742   5.998764
                   26         27         28         29         30
    26  H    0.000000
    27  H    1.764551   0.000000
    28  H    1.774897   1.762609   0.000000
    29  H    6.897585   6.182960   6.698422   0.000000
    30  H    7.836971   6.982868   7.248526   1.780150   0.000000
    31  H    7.009221   6.538538   6.584870   1.759329   1.780197
                   31
    31  H    0.000000
 Stoichiometry    C12H16O3
 Framework group  C1[X(C12H16O3)]
 Deg. of freedom    87
 Full point group                 C1      NOp   1
 Largest Abelian subgroup         C1      NOp   1
 Largest concise Abelian subgroup C1      NOp   1
                         Standard orientation:                         
 ---------------------------------------------------------------------
 Center     Atomic      Atomic             Coordinates (Angstroms)
 Number     Number       Type             X           Y           Z
 ---------------------------------------------------------------------
      1          6           0       -1.836626    1.490521    0.004916
      2          6           0       -3.996221   -0.268922   -0.108562
      3          6           0       -3.106103    1.961381   -0.335306
      4          6           0       -1.631946    0.133074    0.298983
      5          6           0       -2.727732   -0.741510    0.232096
      6          6           0       -4.185156    1.082048   -0.390650
      7          6           0       -0.237943   -0.356848    0.653557
      8          6           0        0.544271   -0.837133   -0.581079
      9          6           0        2.030016   -0.723579   -0.295327
     10          8           0        2.386329    0.593583   -0.209749
     11          6           0        3.780846    0.808936    0.040743
     12          8           0       -0.315563   -1.378421    1.649125
     13          6           0        0.203922   -2.260512   -1.027522
     14          8           0        2.813090   -1.658073   -0.196202
     15          6           0        4.018347    2.303649    0.131724
     16          1           0       -1.005953    2.193052    0.037872
     17          1           0       -4.836474   -0.956981   -0.156946
     18          1           0       -3.252893    3.014953   -0.559417
     19          1           0       -2.598249   -1.802175    0.440953
     20          1           0       -5.173018    1.448850   -0.657081
     21          1           0        0.285128    0.475201    1.140946
     22          1           0        0.353060   -0.173272   -1.435805
     23          1           0        4.372542    0.389366   -0.780471
     24          1           0        4.065752    0.331231    0.984835
     25          1           0       -0.988789   -1.097518    2.293789
     26          1           0       -0.846346   -2.345825   -1.320147
     27          1           0        0.809836   -2.545759   -1.895238
     28          1           0        0.403472   -2.995070   -0.240010
     29          1           0        3.718222    2.798920   -0.797653
     30          1           0        5.073005    2.520328    0.323009
     31          1           0        3.415815    2.741370    0.934536
 ---------------------------------------------------------------------
 Rotational constants (GHZ):      1.0544343      0.3220804      0.2708340
 Standard basis: 6-31+G(d,p) (6D, 7F)
 There are   365 symmetry adapted basis functions of A   symmetry.
 Integral buffers will be    131072 words long.
 Raffenetti 2 integral format.
 Two-electron integral symmetry is turned on.
   365 basis functions,   592 primitive gaussians,   365 cartesian basis functions
    56 alpha electrons       56 beta electrons
       nuclear repulsion energy       992.2264904293 Hartrees.
 NAtoms=   31 NActive=   31 NUniq=   31 SFac= 1.00D+00 NAtFMM=   60 NAOKFM=F Big=F
 Nuclear repulsion after empirical dispersion term =      992.2062115683 Hartrees.
 ------------------------------------------------------------------------------
 Polarizable Continuum Model (PCM)
 =================================
 Model                : C-PCM.
 Atomic radii         : SMD-Coulomb.
 Polarization charges : Total charges.
 Charge compensation  : None.
 Solution method      : Matrix inversion.
 Cavity type          : VdW (van der Waals Surface) (Alpha=1.000).
 Cavity algorithm     : GePol (No added spheres)
                        Default sphere list used, NSphG=   31.
                        Lebedev-Laikov grids with approx.  5.0 points / Ang**2.
                        Smoothing algorithm: Karplus/York (Gamma=1.0000).
                        Polarization charges: spherical gaussians, with
                                              point-specific exponents (IZeta= 3).
                        Self-potential: point-specific (ISelfS= 7).
                        Self-field    : sphere-specific E.n sum rule (ISelfD= 2).
 Solvent              : Chloroform, Eps=   4.711300 Eps(inf)=   2.090627
 ------------------------------------------------------------------------------
 ------------------------------------------------------------------------------
 Atomic radii for non-electrostatic terms: SMD-CDS.
 ------------------------------------------------------------------------------
 Nuclear repulsion after PCM non-electrostatic terms =      992.1996600102 Hartrees.
 One-electron integrals computed using PRISM.
 NBasis=   365 RedAO= T  NBF=   365
 NBsUse=   365 1.00D-06 NBFU=   365
 Harris functional with IExCor= 4639 diagonalized for initial guess.
 ExpMin= 4.38D-02 ExpMax= 5.48D+03 ExpMxC= 8.25D+02 IAcc=2 IRadAn=         4 AccDes= 0.00D+00
 HarFok:  IExCor= 4639 AccDes= 0.00D+00 IRadAn=         4 IDoV= 1
 ScaDFX=  1.000000  1.000000  1.000000  1.000000
 FoFCou: FMM=F IPFlag=           0 FMFlag=      100000 FMFlg1=           0
         NFxFlg=           0 DoJE=T BraDBF=F KetDBF=T FulRan=T
         Omega=  0.000000  0.000000  1.000000  0.000000  0.000000 ICntrl=     500 IOpCl=  0
         NMat0=    1 NMatS0=    1 NMatT0=    0 NMatD0=    1 NMtDS0=    0 NMtDT0=    0
         I1Cent=           4 NGrid=           0.
 Petite list used in FoFCou.
 Initial guess orbital symmetries:
       Occupied  (A) (A) (A) (A) (A) (A) (A) (A) (A) (A) (A) (A)
                 (A) (A) (A) (A) (A) (A) (A) (A) (A) (A) (A) (A)
                 (A) (A) (A) (A) (A) (A) (A) (A) (A) (A) (A) (A)
                 (A) (A) (A) (A) (A) (A) (A) (A) (A) (A) (A) (A)
                 (A) (A) (A) (A) (A) (A) (A) (A)
       Virtual   (A) (A) (A) (A) (A) (A) (A) (A) (A) (A) (A) (A)
                 (A) (A) (A) (A) (A) (A) (A) (A) (A) (A) (A) (A)
                 (A) (A) (A) (A) (A) (A) (A) (A) (A) (A) (A) (A)
                 (A) (A) (A) (A) (A) (A) (A) (A) (A) (A) (A) (A)
                 (A) (A) (A) (A) (A) (A) (A) (A) (A) (A) (A) (A)
                 (A) (A) (A) (A) (A) (A) (A) (A) (A) (A) (A) (A)
                 (A) (A) (A) (A) (A) (A) (A) (A) (A) (A) (A) (A)
                 (A) (A) (A) (A) (A) (A) (A) (A) (A) (A) (A) (A)
                 (A) (A) (A) (A) (A) (A) (A) (A) (A) (A) (A) (A)
                 (A) (A) (A) (A) (A) (A) (A) (A) (A) (A) (A) (A)
                 (A) (A) (A) (A) (A) (A) (A) (A) (A) (A) (A) (A)
                 (A) (A) (A) (A) (A) (A) (A) (A) (A) (A) (A) (A)
                 (A) (A) (A) (A) (A) (A) (A) (A) (A) (A) (A) (A)
                 (A) (A) (A) (A) (A) (A) (A) (A) (A) (A) (A) (A)
                 (A) (A) (A) (A) (A) (A) (A) (A) (A) (A) (A) (A)
                 (A) (A) (A) (A) (A) (A) (A) (A) (A) (A) (A) (A)
                 (A) (A) (A) (A) (A) (A) (A) (A) (A) (A) (A) (A)
                 (A) (A) (A) (A) (A) (A) (A) (A) (A) (A) (A) (A)
                 (A) (A) (A) (A) (A) (A) (A) (A) (A) (A) (A) (A)
                 (A) (A) (A) (A) (A) (A) (A) (A) (A) (A) (A) (A)
                 (A) (A) (A) (A) (A) (A) (A) (A) (A) (A) (A) (A)
                 (A) (A) (A) (A) (A) (A) (A) (A) (A) (A) (A) (A)
                 (A) (A) (A) (A) (A) (A) (A) (A) (A) (A) (A) (A)
                 (A) (A) (A) (A) (A) (A) (A) (A) (A) (A) (A) (A)
                 (A) (A) (A) (A) (A) (A) (A) (A) (A) (A) (A) (A)
                 (A) (A) (A) (A) (A) (A) (A) (A) (A)
 The electronic state of the initial guess is 1-A.
 Requested convergence on RMS density matrix=1.00D-08 within 128 cycles.
 Requested convergence on MAX density matrix=1.00D-06.
 Requested convergence on             energy=1.00D-06.
 No special actions if energy rises.
 FoFJK:  IHMeth= 1 ICntrl=     0 DoSepK=T KAlg= 1 I1Cent= 0 FoldK=F
 FoFJK:  IHMeth= 1 ICntrl=     0 DoSepK=T KAlg= 1 I1Cent= 0 FoldK=F
 FoFJK:  IHMeth= 1 ICntrl=     0 DoSepK=T KAlg= 1 I1Cent= 0 FoldK=F
 FoFJK:  IHMeth= 1 ICntrl=     0 DoSepK=T KAlg= 1 I1Cent= 0 FoldK=F
 FoFJK:  IHMeth= 1 ICntrl=     0 DoSepK=T KAlg= 1 I1Cent= 0 FoldK=F
 FoFJK:  IHMeth= 1 ICntrl=     0 DoSepK=T KAlg= 1 I1Cent= 0 FoldK=F
 FoFJK:  IHMeth= 1 ICntrl=     0 DoSepK=T KAlg= 1 I1Cent= 0 FoldK=F
 FoFJK:  IHMeth= 1 ICntrl=     0 DoSepK=T KAlg= 1 I1Cent= 0 FoldK=F
 FoFJK:  IHMeth= 1 ICntrl=     0 DoSepK=T KAlg= 1 I1Cent= 0 FoldK=F
 FoFJK:  IHMeth= 1 ICntrl=     0 DoSepK=T KAlg= 1 I1Cent= 0 FoldK=F
 FoFJK:  IHMeth= 1 ICntrl=     0 DoSepK=T KAlg= 1 I1Cent= 0 FoldK=F
 FoFJK:  IHMeth= 1 ICntrl=     0 DoSepK=T KAlg= 1 I1Cent= 0 FoldK=F
 FoFJK:  IHMeth= 1 ICntrl=     0 DoSepK=T KAlg= 1 I1Cent= 0 FoldK=F
 FoFJK:  IHMeth= 1 ICntrl=     0 DoSepK=T KAlg= 1 I1Cent= 0 FoldK=F
 FoFJK:  IHMeth= 1 ICntrl=     0 DoSepK=T KAlg= 1 I1Cent= 0 FoldK=F
 FoFJK:  IHMeth= 1 ICntrl=     0 DoSepK=T KAlg= 1 I1Cent= 0 FoldK=F
 Error on total polarization charges =  0.04020
 SCF Done:  E(RwB97XD) =  -692.442216853     A.U. after   16 cycles
             Convg  =    0.2740D-08             -V/T =  2.0096
 SMD-CDS (non-electrostatic) energy       (kcal/mol) =      -4.11
 (included in total energy above)
 Range of M.O.s used for correlation:     1   365
 NBasis=   365 NAE=    56 NBE=    56 NFC=     0 NFV=     0
 NROrb=    365 NOA=    56 NOB=    56 NVA=   309 NVB=   309

 **** Warning!!: The largest alpha MO coefficient is  0.12411843D+03

 NEqPCM:  Using equilibrium solvation (IEInf=0, Eps=   4.7113, EpsInf=   2.0906)
          Differentiating once with respect to magnetic field using GIAOs.
          Electric field/nuclear overlap derivatives assumed to be zero.
 FoFCou: FMM=F IPFlag=           0 FMFlag=    10101102 FMFlg1=           0
         NFxFlg=    40000000 DoJE=F BraDBF=F KetDBF=T FulRan=T
         Omega=  0.000000  0.000000  1.000000  0.000000  0.000000 ICntrl=    6100 IOpCl=  0
         NMat0=    1 NMatS0=    1 NMatT0=    0 NMatD0=    1 NMtDS0=    0 NMtDT0=    0
         I1Cent=           7 NGrid=        2338.
 Symmetry not used in FoFCou.
 FoFJK:  IHMeth= 1 ICntrl=  6127 DoSepK=T KAlg= 1 I1Cent= 0 FoldK=F
 FoFJK:  IHMeth= 1 ICntrl=     0 DoSepK=T KAlg= 1 I1Cent= 0 FoldK=F
          There are     3 degrees of freedom in the 1st order CPHF.  IDoFFX=0.
      3 vectors produced by pass  0 Test12= 5.77D-13 3.33D-08 XBig12= 2.06D+02 2.92D+00.
 AX will form     3 AO Fock derivatives at one time.
 FoFJK:  IHMeth= 1 ICntrl=     0 DoSepK=T KAlg= 1 I1Cent= 0 FoldK=F
      3 vectors produced by pass  1 Test12= 5.77D-13 3.33D-08 XBig12= 1.58D+00 3.36D-01.
 FoFJK:  IHMeth= 1 ICntrl=     0 DoSepK=T KAlg= 1 I1Cent= 0 FoldK=F
      3 vectors produced by pass  2 Test12= 5.77D-13 3.33D-08 XBig12= 2.98D-02 7.41D-02.
 FoFJK:  IHMeth= 1 ICntrl=     0 DoSepK=T KAlg= 1 I1Cent= 0 FoldK=F
      3 vectors produced by pass  3 Test12= 5.77D-13 3.33D-08 XBig12= 5.46D-04 7.22D-03.
 FoFJK:  IHMeth= 1 ICntrl=     0 DoSepK=T KAlg= 1 I1Cent= 0 FoldK=F
      3 vectors produced by pass  4 Test12= 5.77D-13 3.33D-08 XBig12= 6.84D-06 5.50D-04.
 FoFJK:  IHMeth= 1 ICntrl=     0 DoSepK=T KAlg= 1 I1Cent= 0 FoldK=F
      3 vectors produced by pass  5 Test12= 5.77D-13 3.33D-08 XBig12= 9.40D-08 8.37D-05.
 FoFJK:  IHMeth= 1 ICntrl=     0 DoSepK=T KAlg= 1 I1Cent= 0 FoldK=F
      3 vectors produced by pass  6 Test12= 5.77D-13 3.33D-08 XBig12= 1.31D-09 1.34D-05.
 FoFJK:  IHMeth= 1 ICntrl=     0 DoSepK=T KAlg= 1 I1Cent= 0 FoldK=F
      3 vectors produced by pass  7 Test12= 5.77D-13 3.33D-08 XBig12= 1.70D-11 1.39D-06.
 FoFJK:  IHMeth= 1 ICntrl=     0 DoSepK=T KAlg= 1 I1Cent= 0 FoldK=F
      3 vectors produced by pass  8 Test12= 5.77D-13 3.33D-08 XBig12= 1.79D-13 7.77D-08.
 FoFJK:  IHMeth= 1 ICntrl=     0 DoSepK=T KAlg= 1 I1Cent= 0 FoldK=F
 Inverted reduced A of dimension    27 with in-core refinement.
 Calculating GIAO nuclear magnetic shielding tensors.
 SCF GIAO Magnetic shielding tensor (ppm):
      1  C    Isotropic =    71.9158   Anisotropy =   164.1657
   XX=    14.1435   YX=   -41.7680   ZX=   -23.9273
   XY=   -46.3276   YY=    25.5588   ZY=    19.9645
   XZ=   -14.3763   YZ=    12.3744   ZZ=   176.0450
   Eigenvalues:   -24.6361    59.0238   181.3596
      2  C    Isotropic =    69.9363   Anisotropy =   176.1185
   XX=     8.6485   YX=   -47.1180   ZX=   -28.3352
   XY=   -49.7575   YY=    22.9643   ZY=    19.6683
   XZ=   -29.7549   YZ=    16.3665   ZZ=   178.1962
   Eigenvalues:   -33.6764    56.1368   187.3486
      3  C    Isotropic =    70.1475   Anisotropy =   174.4624
   XX=    59.7393   YX=     5.1310   ZX=   -26.0591
   XY=     8.1299   YY=   -22.9012   ZY=    39.8735
   XZ=   -25.6633   YZ=    42.4047   ZZ=   173.6044
   Eigenvalues:   -32.6647    56.6515   186.4558
      4  C    Isotropic =    49.5885   Anisotropy =   184.5199
   XX=   -18.1052   YX=     9.4350   ZX=   -42.5228
   XY=     6.5538   YY=     6.1599   ZY=    24.6174
   XZ=   -46.7807   YZ=    10.0188   ZZ=   160.7108
   Eigenvalues:   -32.3319     8.4956   172.6018
      5  C    Isotropic =    73.4450   Anisotropy =   177.8963
   XX=    58.2567   YX=     2.7404   ZX=   -29.1587
   XY=     2.6715   YY=   -18.5790   ZY=    42.0210
   XZ=   -17.3223   YZ=    37.5892   ZZ=   180.6573
   Eigenvalues:   -26.8373    55.1298   192.0425
      6  C    Isotropic =    72.0676   Anisotropy =   176.4739
   XX=    -8.8803   YX=    21.3831   ZX=   -43.8760
   XY=    21.1670   YY=    51.4620   ZY=    29.4644
   XZ=   -49.9368   YZ=    32.8226   ZZ=   173.6212
   Eigenvalues:   -30.1953    56.6813   189.7169
      7  C    Isotropic =   121.3608   Anisotropy =    36.1232
   XX=   111.0057   YX=    -1.4467   ZX=    -0.0459
   XY=     1.3979   YY=   134.2718   ZY=   -18.9124
   XZ=    -3.3308   YZ=   -15.5371   ZZ=   118.8050
   Eigenvalues:   107.1267   111.5129   145.4430
      8  C    Isotropic =   149.5781   Anisotropy =    20.6365
   XX=   162.6681   YX=     8.6850   ZX=     0.9678
   XY=    -5.5362   YY=   145.0757   ZY=     1.8638
   XZ=    -8.0764   YZ=     0.7835   ZZ=   140.9905
   Eigenvalues:   139.9439   145.4547   163.3358
      9  C    Isotropic =    17.5007   Anisotropy =    95.9893
   XX=     1.7062   YX=   -34.9422   ZX=   -15.9750
   XY=   -68.6926   YY=   -26.8471   ZY=   -12.6372
   XZ=   -18.1500   YZ=    -1.7642   ZZ=    77.6432
   Eigenvalues:   -68.0995    39.1081    81.4936
     10  O    Isotropic =   133.2802   Anisotropy =   175.3709
   XX=   -11.1829   YX=    30.8677   ZX=   -32.8361
   XY=   167.6225   YY=   212.4843   ZY=    18.1170
   XZ=   -16.3849   YZ=    -1.7118   ZZ=   198.5393
   Eigenvalues:   -51.5560   201.2025   250.1941
     11  C    Isotropic =   136.4831   Anisotropy =    58.6142
   XX=   171.7897   YX=     4.9882   ZX=    10.2247
   XY=    14.9374   YY=   122.0392   ZY=     2.9263
   XZ=    10.4933   YZ=     0.8195   ZZ=   115.6204
   Eigenvalues:   113.7696   120.1205   175.5592
     12  O    Isotropic =   290.3073   Anisotropy =    77.8335
   XX=   308.9590   YX=   -24.8385   ZX=   -25.2704
   XY=   -21.5254   YY=   247.8133   ZY=     1.0952
   XZ=   -33.6955   YZ=   -17.8797   ZZ=   314.1497
   Eigenvalues:   235.7487   292.9769   342.1963
     13  C    Isotropic =   188.0785   Anisotropy =    10.5337
   XX=   189.7009   YX=     4.1276   ZX=     1.8773
   XY=     2.4335   YY=   190.9906   ZY=     4.1615
   XZ=    -0.5091   YZ=     4.8638   ZZ=   183.5441
   Eigenvalues:   181.3355   187.7991   195.1010
     14  O    Isotropic =   -54.0887   Anisotropy =   578.1178
   XX=  -171.8174   YX=    46.7993   ZX=   -86.3908
   XY=    38.7888   YY=  -309.2744   ZY=   -16.4755
   XZ=   -65.0151   YZ=   -23.7566   ZZ=   318.8257
   Eigenvalues:  -321.5121  -172.0772   331.3231
     15  C    Isotropic =   182.3379   Anisotropy =    23.2759
   XX=   182.8226   YX=     1.4433   ZX=     2.5717
   XY=     8.8329   YY=   195.8889   ZY=     2.2102
   XZ=     2.3291   YZ=     1.0637   ZZ=   168.3021
   Eigenvalues:   167.8763   181.2822   197.8552
     16  H    Isotropic =    23.7548   Anisotropy =     8.0784
   XX=    25.4373   YX=    -3.5385   ZX=     1.2275
   XY=    -2.8063   YY=    26.0058   ZY=    -1.0307
   XZ=     1.1587   YZ=    -0.7848   ZZ=    19.8214
   Eigenvalues:    19.5643    22.5597    29.1404
     17  H    Isotropic =    23.6636   Anisotropy =     5.1866
   XX=    25.6130   YX=    -1.3488   ZX=     1.1393
   XY=    -1.5158   YY=    24.8741   ZY=    -1.2075
   XZ=     1.1132   YZ=    -1.1812   ZZ=    20.5037
   Eigenvalues:    20.0895    23.7799    27.1213
     18  H    Isotropic =    23.8174   Anisotropy =     5.0505
   XX=    26.9423   YX=     0.0364   ZX=     1.2089
   XY=     0.0849   YY=    23.8519   ZY=    -0.4298
   XZ=     1.3038   YZ=    -0.4903   ZZ=    20.6580
   Eigenvalues:    20.3548    23.9130    27.1844
     19  H    Isotropic =    23.3727   Anisotropy =     9.7729
   XX=    29.7105   YX=     1.2949   ZX=     1.2840
   XY=     0.6082   YY=    20.8706   ZY=    -0.0438
   XZ=     0.5613   YZ=    -0.5215   ZZ=    19.5371
   Eigenvalues:    19.3600    20.8702    29.8880
     20  H    Isotropic =    23.7788   Anisotropy =     4.2900
   XX=    24.7368   YX=     0.8456   ZX=     0.6143
   XY=     0.7671   YY=    26.2457   ZY=    -0.8199
   XZ=     0.3274   YZ=    -0.7043   ZZ=    20.3540
   Eigenvalues:    20.1845    24.5132    26.6389
     21  H    Isotropic =    26.1535   Anisotropy =     6.6791
   XX=    25.9372   YX=     1.7521   ZX=     0.2335
   XY=     3.2074   YY=    29.2888   ZY=    -0.0734
   XZ=     0.3214   YZ=    -0.3260   ZZ=    23.2345
   Eigenvalues:    23.1559    24.6984    30.6062
     22  H    Isotropic =    28.8544   Anisotropy =     4.8654
   XX=    27.7338   YX=     0.0822   ZX=     0.7533
   XY=     0.7155   YY=    30.2787   ZY=    -2.4678
   XZ=    -1.8227   YZ=    -2.4174   ZZ=    28.5506
   Eigenvalues:    26.7754    27.6898    32.0979
     23  H    Isotropic =    27.4669   Anisotropy =     6.8695
   XX=    30.5951   YX=    -0.1501   ZX=    -3.4290
   XY=     1.1012   YY=    27.4393   ZY=     2.0676
   XZ=    -3.1576   YZ=     2.0146   ZZ=    24.3663
   Eigenvalues:    22.1426    28.2115    32.0466
     24  H    Isotropic =    27.4344   Anisotropy =     6.3238
   XX=    28.2592   YX=     0.2785   ZX=     4.4383
   XY=     1.4592   YY=    27.6066   ZY=    -1.6021
   XZ=     3.8744   YZ=    -1.8735   ZZ=    26.4374
   Eigenvalues:    22.3987    28.2543    31.6503
     25  H    Isotropic =    30.0006   Anisotropy =    16.2422
   XX=    30.3474   YX=    -2.9799   ZX=    -8.8347
   XY=    -1.7828   YY=    24.7271   ZY=    -0.5523
   XZ=    -6.8379   YZ=    -1.3775   ZZ=    34.9272
   Eigenvalues:    22.1018    27.0712    40.8287
     26  H    Isotropic =    30.5696   Anisotropy =     9.3780
   XX=    35.8130   YX=     0.9045   ZX=     2.7011
   XY=     1.4302   YY=    28.8101   ZY=     2.4760
   XZ=     1.2951   YZ=     5.3054   ZZ=    27.0857
   Eigenvalues:    23.9023    30.9848    36.8216
     27  H    Isotropic =    30.7324   Anisotropy =    10.6534
   XX=    29.4941   YX=    -0.6717   ZX=    -3.1400
   XY=    -1.3643   YY=    29.5472   ZY=     4.0427
   XZ=    -3.5545   YZ=     5.5762   ZZ=    33.1559
   Eigenvalues:    25.7864    28.5762    37.8347
     28  H    Isotropic =    29.7954   Anisotropy =     7.8817
   XX=    26.8219   YX=    -0.9371   ZX=     0.3339
   XY=    -1.2622   YY=    33.8491   ZY=    -2.8797
   XZ=    -0.1802   YZ=    -2.2669   ZZ=    28.7152
   Eigenvalues:    26.5763    27.7601    35.0499
     29  H    Isotropic =    30.2681   Anisotropy =     8.3240
   XX=    27.5497   YX=     0.5713   ZX=     1.4301
   XY=    -0.0175   YY=    31.8620   ZY=    -4.4058
   XZ=     0.7564   YZ=    -3.8870   ZZ=    31.3925
   Eigenvalues:    26.5107    28.4762    35.8174
     30  H    Isotropic =    30.3496   Anisotropy =    10.9079
   XX=    35.4578   YX=     3.5985   ZX=     1.7082
   XY=     4.1246   YY=    29.4030   ZY=     0.7608
   XZ=     1.6082   YZ=     0.6655   ZZ=    26.1881
   Eigenvalues:    25.8994    27.5279    37.6215
     31  H    Isotropic =    30.2284   Anisotropy =     7.8471
   XX=    28.9901   YX=    -0.4479   ZX=    -2.6547
   XY=    -1.2350   YY=    31.3277   ZY=     3.9278
   XZ=    -2.3463   YZ=     3.5698   ZZ=    30.3673
   Eigenvalues:    26.2456    28.9797    35.4598
 End of Minotr Frequency-dependent properties file   721 does not exist.
 End of Minotr Frequency-dependent properties file   722 does not exist.

 **********************************************************************

            Population analysis using the SCF density.

 **********************************************************************

 Orbital symmetries:
       Occupied  (A) (A) (A) (A) (A) (A) (A) (A) (A) (A) (A) (A)
                 (A) (A) (A) (A) (A) (A) (A) (A) (A) (A) (A) (A)
                 (A) (A) (A) (A) (A) (A) (A) (A) (A) (A) (A) (A)
                 (A) (A) (A) (A) (A) (A) (A) (A) (A) (A) (A) (A)
                 (A) (A) (A) (A) (A) (A) (A) (A)
       Virtual   (A) (A) (A) (A) (A) (A) (A) (A) (A) (A) (A) (A)
                 (A) (A) (A) (A) (A) (A) (A) (A) (A) (A) (A) (A)
                 (A) (A) (A) (A) (A) (A) (A) (A) (A) (A) (A) (A)
                 (A) (A) (A) (A) (A) (A) (A) (A) (A) (A) (A) (A)
                 (A) (A) (A) (A) (A) (A) (A) (A) (A) (A) (A) (A)
                 (A) (A) (A) (A) (A) (A) (A) (A) (A) (A) (A) (A)
                 (A) (A) (A) (A) (A) (A) (A) (A) (A) (A) (A) (A)
                 (A) (A) (A) (A) (A) (A) (A) (A) (A) (A) (A) (A)
                 (A) (A) (A) (A) (A) (A) (A) (A) (A) (A) (A) (A)
                 (A) (A) (A) (A) (A) (A) (A) (A) (A) (A) (A) (A)
                 (A) (A) (A) (A) (A) (A) (A) (A) (A) (A) (A) (A)
                 (A) (A) (A) (A) (A) (A) (A) (A) (A) (A) (A) (A)
                 (A) (A) (A) (A) (A) (A) (A) (A) (A) (A) (A) (A)
                 (A) (A) (A) (A) (A) (A) (A) (A) (A) (A) (A) (A)
                 (A) (A) (A) (A) (A) (A) (A) (A) (A) (A) (A) (A)
                 (A) (A) (A) (A) (A) (A) (A) (A) (A) (A) (A) (A)
                 (A) (A) (A) (A) (A) (A) (A) (A) (A) (A) (A) (A)
                 (A) (A) (A) (A) (A) (A) (A) (A) (A) (A) (A) (A)
                 (A) (A) (A) (A) (A) (A) (A) (A) (A) (A) (A) (A)
                 (A) (A) (A) (A) (A) (A) (A) (A) (A) (A) (A) (A)
                 (A) (A) (A) (A) (A) (A) (A) (A) (A) (A) (A) (A)
                 (A) (A) (A) (A) (A) (A) (A) (A) (A) (A) (A) (A)
                 (A) (A) (A) (A) (A) (A) (A) (A) (A) (A) (A) (A)
                 (A) (A) (A) (A) (A) (A) (A) (A) (A) (A) (A) (A)
                 (A) (A) (A) (A) (A) (A) (A) (A) (A) (A) (A) (A)
                 (A) (A) (A) (A) (A) (A) (A) (A) (A)
 The electronic state is 1-A.
 Alpha  occ. eigenvalues --  -19.32609 -19.28279 -19.27587 -10.43754 -10.36255
 Alpha  occ. eigenvalues --  -10.34950 -10.32103 -10.31656 -10.30849 -10.30808
 Alpha  occ. eigenvalues --  -10.30783 -10.30750 -10.30608 -10.28816 -10.28447
 Alpha  occ. eigenvalues --   -1.20870  -1.13197  -1.12364  -0.96319  -0.91349
 Alpha  occ. eigenvalues --   -0.86816  -0.85273  -0.84839  -0.78061  -0.75441
 Alpha  occ. eigenvalues --   -0.70328  -0.70085  -0.67936  -0.65074  -0.62521
 Alpha  occ. eigenvalues --   -0.59582  -0.58988  -0.58347  -0.56706  -0.54964
 Alpha  occ. eigenvalues --   -0.53656  -0.53228  -0.51166  -0.50397  -0.50097
 Alpha  occ. eigenvalues --   -0.48858  -0.47889  -0.47008  -0.45680  -0.44872
 Alpha  occ. eigenvalues --   -0.44222  -0.43862  -0.43297  -0.43029  -0.42518
 Alpha  occ. eigenvalues --   -0.40795  -0.38889  -0.37510  -0.35814  -0.33420
 Alpha  occ. eigenvalues --   -0.32448
 Alpha virt. eigenvalues --    0.04694   0.05189   0.06304   0.07332   0.07977
 Alpha virt. eigenvalues --    0.08080   0.08645   0.09510   0.09578   0.10286
 Alpha virt. eigenvalues --    0.10842   0.11170   0.11428   0.12160   0.13010
 Alpha virt. eigenvalues --    0.13025   0.13965   0.14252   0.14679   0.14946
 Alpha virt. eigenvalues --    0.15491   0.16520   0.17165   0.17304   0.18169
 Alpha virt. eigenvalues --    0.18360   0.19091   0.19284   0.19625   0.19955
 Alpha virt. eigenvalues --    0.20568   0.21341   0.22331   0.22495   0.22904
 Alpha virt. eigenvalues --    0.23246   0.23556   0.24620   0.24782   0.24923
 Alpha virt. eigenvalues --    0.25481   0.25859   0.26155   0.26540   0.27033
 Alpha virt. eigenvalues --    0.27212   0.27640   0.28183   0.28298   0.28759
 Alpha virt. eigenvalues --    0.29630   0.29871   0.30562   0.30943   0.31313
 Alpha virt. eigenvalues --    0.31605   0.31863   0.32817   0.33091   0.33842
 Alpha virt. eigenvalues --    0.34166   0.34341   0.34852   0.34977   0.36150
 Alpha virt. eigenvalues --    0.36571   0.36991   0.37653   0.38236   0.38788
 Alpha virt. eigenvalues --    0.39122   0.39432   0.40313   0.40704   0.41802
 Alpha virt. eigenvalues --    0.42016   0.43119   0.43701   0.43753   0.43877
 Alpha virt. eigenvalues --    0.45332   0.45441   0.46590   0.47422   0.47895
 Alpha virt. eigenvalues --    0.48514   0.49844   0.51158   0.51959   0.52653
 Alpha virt. eigenvalues --    0.54402   0.56179   0.60424   0.66453   0.69941
 Alpha virt. eigenvalues --    0.73788   0.74524   0.74692   0.75783   0.76913
 Alpha virt. eigenvalues --    0.77008   0.78335   0.78990   0.79804   0.81022
 Alpha virt. eigenvalues --    0.81571   0.83051   0.83493   0.83770   0.84113
 Alpha virt. eigenvalues --    0.84568   0.85504   0.86679   0.87948   0.89220
 Alpha virt. eigenvalues --    0.89934   0.91004   0.91635   0.93765   0.95015
 Alpha virt. eigenvalues --    0.96042   0.98901   1.00552   1.01897   1.02112
 Alpha virt. eigenvalues --    1.02803   1.03907   1.05670   1.06079   1.06430
 Alpha virt. eigenvalues --    1.08278   1.09007   1.09941   1.10945   1.13006
 Alpha virt. eigenvalues --    1.13922   1.14949   1.17269   1.18770   1.19650
 Alpha virt. eigenvalues --    1.20255   1.21083   1.22508   1.22873   1.23846
 Alpha virt. eigenvalues --    1.24334   1.25868   1.26709   1.28063   1.30652
 Alpha virt. eigenvalues --    1.31187   1.32752   1.33624   1.35734   1.37326
 Alpha virt. eigenvalues --    1.38127   1.39517   1.42414   1.43276   1.43800
 Alpha virt. eigenvalues --    1.45904   1.47842   1.48835   1.49063   1.49713
 Alpha virt. eigenvalues --    1.50175   1.51255   1.52376   1.54541   1.55966
 Alpha virt. eigenvalues --    1.56431   1.57976   1.59335   1.61731   1.62973
 Alpha virt. eigenvalues --    1.68328   1.69813   1.71397   1.76378   1.77620
 Alpha virt. eigenvalues --    1.80726   1.82765   1.84105   1.85755   1.87096
 Alpha virt. eigenvalues --    1.89086   1.90725   1.91184   1.93393   1.95272
 Alpha virt. eigenvalues --    1.96744   1.97972   1.99120   2.01026   2.01669
 Alpha virt. eigenvalues --    2.02955   2.03478   2.04199   2.05110   2.05926
 Alpha virt. eigenvalues --    2.06647   2.07911   2.09232   2.09926   2.10963
 Alpha virt. eigenvalues --    2.12107   2.13570   2.13805   2.16361   2.17922
 Alpha virt. eigenvalues --    2.18465   2.20294   2.20709   2.20850   2.21845
 Alpha virt. eigenvalues --    2.24395   2.26352   2.26925   2.28062   2.29635
 Alpha virt. eigenvalues --    2.30989   2.34581   2.37046   2.38967   2.39765
 Alpha virt. eigenvalues --    2.41035   2.41499   2.44376   2.47486   2.48715
 Alpha virt. eigenvalues --    2.48886   2.49920   2.52423   2.53459   2.55036
 Alpha virt. eigenvalues --    2.56075   2.57092   2.57963   2.59656   2.60757
 Alpha virt. eigenvalues --    2.62967   2.64825   2.65503   2.67280   2.68690
 Alpha virt. eigenvalues --    2.69916   2.70933   2.72545   2.73323   2.74894
 Alpha virt. eigenvalues --    2.76362   2.78351   2.79741   2.81717   2.82740
 Alpha virt. eigenvalues --    2.84457   2.85959   2.87330   2.88311   2.88583
 Alpha virt. eigenvalues --    2.90965   2.91910   2.94063   2.96296   2.97612
 Alpha virt. eigenvalues --    2.99303   3.00171   3.01209   3.05970   3.10987
 Alpha virt. eigenvalues --    3.14075   3.14914   3.17078   3.21569   3.27590
 Alpha virt. eigenvalues --    3.29235   3.32242   3.36642   3.37055   3.38385
 Alpha virt. eigenvalues --    3.39098   3.43977   3.45020   3.49291   3.52352
 Alpha virt. eigenvalues --    3.53730   3.56921   3.59302   3.60405   3.62734
 Alpha virt. eigenvalues --    3.63822   3.64822   3.67288   3.99397   4.40390
 Alpha virt. eigenvalues --    4.40655   4.41841   4.46501   4.50409   4.55157
 Alpha virt. eigenvalues --    4.56491   4.60588   4.62071   4.66296   4.74892
 Alpha virt. eigenvalues --    4.78107   4.82793   4.95090   4.97645
          Condensed to atoms (all electrons):
              1          2          3          4          5          6
     1  C   14.355003  -0.816090  -0.360233  -2.979326  -6.509827   0.090456
     2  C   -0.816090   8.658788   0.563168   1.413374  -1.874464   0.612025
     3  C   -0.360233   0.563168   6.651709   0.274210  -0.741191   0.445340
     4  C   -2.979326   1.413374   0.274210  20.685645  -3.437380  -0.948929
     5  C   -6.509827  -1.874464  -0.741191  -3.437380  16.855001   0.139769
     6  C    0.090456   0.612025   0.445340  -0.948929   0.139769   5.401079
     7  C    2.440481  -2.873503  -0.965401  -9.769176   1.131391   0.111646
     8  C   -0.400510   0.102890   0.115122   0.366241   0.541835  -0.002432
     9  C   -0.077125  -0.034359  -0.042100  -0.942878   0.196973   0.012372
    10  O    0.057168   0.003969   0.017155   0.023706  -0.046071  -0.000447
    11  C    0.033399   0.004224   0.008151   0.034254  -0.021523  -0.000375
    12  O   -0.141722   0.228992   0.012485   0.198195   0.073827   0.006120
    13  C   -0.073710   0.068791  -0.012080   0.673715  -0.311987  -0.015351
    14  O   -0.000181   0.000564  -0.000165  -0.023955  -0.004279  -0.000090
    15  C   -0.007258  -0.000276  -0.000620  -0.010890   0.004629   0.000271
    16  H    0.185869   0.010119   0.041295   0.120887   0.011877  -0.012742
    17  H    0.007069   0.272277  -0.003962   0.032907   0.017393   0.009951
    18  H    0.041948  -0.005766   0.254063   0.011255   0.003122   0.024354
    19  H    0.048509  -0.036549  -0.001098   0.141343   0.192494  -0.012811
    20  H   -0.012688   0.027142   0.029286   0.008955  -0.002020   0.272519
    21  H    0.161709   0.027118   0.062226   0.176041  -0.099888   0.000268
    22  H   -0.080797   0.011342  -0.001469   0.069421   0.045376  -0.000927
    23  H    0.000797   0.000000   0.000084   0.000706  -0.000328   0.000000
    24  H    0.000161   0.000001   0.000007  -0.000126  -0.000121   0.000000
    25  H    0.014794  -0.000119   0.000457   0.035797  -0.050866  -0.001020
    26  H    0.043260  -0.015043  -0.003338   0.021612  -0.084145  -0.000947
    27  H   -0.011447   0.000021  -0.000519   0.010217   0.011515   0.000153
    28  H   -0.010438   0.006874  -0.000937  -0.042971   0.041217   0.000689
    29  H    0.000178   0.000007   0.000092   0.000424  -0.000106  -0.000004
    30  H   -0.000091   0.000000  -0.000017   0.000184   0.000005   0.000000
    31  H    0.002716  -0.000003   0.000667  -0.003147  -0.000366   0.000019
              7          8          9         10         11         12
     1  C    2.440481  -0.400510  -0.077125   0.057168   0.033399  -0.141722
     2  C   -2.873503   0.102890  -0.034359   0.003969   0.004224   0.228992
     3  C   -0.965401   0.115122  -0.042100   0.017155   0.008151   0.012485
     4  C   -9.769176   0.366241  -0.942878   0.023706   0.034254   0.198195
     5  C    1.131391   0.541835   0.196973  -0.046071  -0.021523   0.073827
     6  C    0.111646  -0.002432   0.012372  -0.000447  -0.000375   0.006120
     7  C   16.785929  -1.019618   0.928337  -0.099869  -0.050056  -0.242912
     8  C   -1.019618   8.623998  -1.820048  -0.314739  -0.058237  -0.186687
     9  C    0.928337  -1.820048   7.150328   0.304538  -0.109841   0.116937
    10  O   -0.099869  -0.314739   0.304538   8.511191   0.032179  -0.000965
    11  C   -0.050056  -0.058237  -0.109841   0.032179   5.330041  -0.000535
    12  O   -0.242912  -0.186687   0.116937  -0.000965  -0.000535   8.294477
    13  C   -0.427624  -0.378319  -0.065327   0.043823  -0.007005  -0.014752
    14  O   -0.005435  -0.078170   0.535485  -0.149127  -0.046625   0.000006
    15  C    0.003420  -0.083133   0.099365  -0.022882   0.106721   0.000397
    16  H   -0.056937   0.022819  -0.008423   0.000030   0.000365   0.000459
    17  H   -0.009038  -0.000486  -0.000063   0.000000   0.000001   0.000126
    18  H   -0.002169  -0.000334   0.000079  -0.000005  -0.000004   0.000015
    19  H   -0.014699  -0.018833   0.011389  -0.000017   0.000117   0.005184
    20  H    0.003507  -0.000149  -0.000054   0.000000   0.000000  -0.000005
    21  H   -0.024385   0.078267  -0.090669   0.012331   0.006866  -0.047383
    22  H   -0.098010   0.382893  -0.044692   0.000714   0.002084   0.008710
    23  H   -0.002614  -0.004302  -0.009165  -0.041517   0.408515   0.000020
    24  H    0.005343  -0.016891  -0.013945  -0.041598   0.405721  -0.000103
    25  H   -0.006638   0.015990  -0.006739   0.000056   0.000476   0.248884
    26  H    0.098509  -0.095408  -0.018500  -0.000199  -0.000386  -0.005668
    27  H   -0.004011  -0.165613   0.070570  -0.000776   0.001753   0.000796
    28  H   -0.022508  -0.047746   0.008305   0.000401   0.000794   0.005370
    29  H    0.000285  -0.004407  -0.001110  -0.002831  -0.060965  -0.000002
    30  H   -0.000050   0.000101   0.001741   0.006769  -0.059913   0.000000
    31  H    0.000781  -0.005715   0.000584  -0.002746  -0.057416   0.000004
             13         14         15         16         17         18
     1  C   -0.073710  -0.000181  -0.007258   0.185869   0.007069   0.041948
     2  C    0.068791   0.000564  -0.000276   0.010119   0.272277  -0.005766
     3  C   -0.012080  -0.000165  -0.000620   0.041295  -0.003962   0.254063
     4  C    0.673715  -0.023955  -0.010890   0.120887   0.032907   0.011255
     5  C   -0.311987  -0.004279   0.004629   0.011877   0.017393   0.003122
     6  C   -0.015351  -0.000090   0.000271  -0.012742   0.009951   0.024354
     7  C   -0.427624  -0.005435   0.003420  -0.056937  -0.009038  -0.002169
     8  C   -0.378319  -0.078170  -0.083133   0.022819  -0.000486  -0.000334
     9  C   -0.065327   0.535485   0.099365  -0.008423  -0.000063   0.000079
    10  O    0.043823  -0.149127  -0.022882   0.000030   0.000000  -0.000005
    11  C   -0.007005  -0.046625   0.106721   0.000365   0.000001  -0.000004
    12  O   -0.014752   0.000006   0.000397   0.000459   0.000126   0.000015
    13  C    5.833260   0.019652   0.002725   0.002109   0.000493   0.000143
    14  O    0.019652   8.208711   0.015978   0.000048   0.000000   0.000000
    15  C    0.002725   0.015978   5.344039  -0.000350   0.000000   0.000007
    16  H    0.002109   0.000048  -0.000350   0.505355   0.000011  -0.003962
    17  H    0.000493   0.000000   0.000000   0.000011   0.496116  -0.000122
    18  H    0.000143   0.000000   0.000007  -0.003962  -0.000122   0.496296
    19  H    0.003440  -0.000021   0.000006  -0.000110  -0.004073   0.000011
    20  H   -0.000054   0.000000   0.000000  -0.000120  -0.003854  -0.003869
    21  H   -0.020146   0.001930  -0.004052   0.001730   0.000002  -0.000002
    22  H   -0.002265   0.003526  -0.000598   0.000091   0.000000   0.000002
    23  H    0.001960   0.002232  -0.025050   0.000000   0.000000   0.000000
    24  H    0.000868   0.002964  -0.011977   0.000000   0.000000   0.000000
    25  H    0.005096  -0.000020  -0.000045   0.000034  -0.000001   0.000000
    26  H    0.418605   0.001998  -0.000120  -0.000003  -0.000008   0.000000
    27  H    0.451705  -0.003277   0.000385   0.000000   0.000000   0.000000
    28  H    0.422716  -0.000823   0.000033   0.000000   0.000000   0.000000
    29  H    0.000294  -0.000075   0.431024  -0.000001   0.000000   0.000000
    30  H    0.000039   0.000117   0.418205   0.000000   0.000000   0.000000
    31  H   -0.000081  -0.000158   0.427424  -0.000001   0.000000   0.000000
             19         20         21         22         23         24
     1  C    0.048509  -0.012688   0.161709  -0.080797   0.000797   0.000161
     2  C   -0.036549   0.027142   0.027118   0.011342   0.000000   0.000001
     3  C   -0.001098   0.029286   0.062226  -0.001469   0.000084   0.000007
     4  C    0.141343   0.008955   0.176041   0.069421   0.000706  -0.000126
     5  C    0.192494  -0.002020  -0.099888   0.045376  -0.000328  -0.000121
     6  C   -0.012811   0.272519   0.000268  -0.000927   0.000000   0.000000
     7  C   -0.014699   0.003507  -0.024385  -0.098010  -0.002614   0.005343
     8  C   -0.018833  -0.000149   0.078267   0.382893  -0.004302  -0.016891
     9  C    0.011389  -0.000054  -0.090669  -0.044692  -0.009165  -0.013945
    10  O   -0.000017   0.000000   0.012331   0.000714  -0.041517  -0.041598
    11  C    0.000117   0.000000   0.006866   0.002084   0.408515   0.405721
    12  O    0.005184  -0.000005  -0.047383   0.008710   0.000020  -0.000103
    13  C    0.003440  -0.000054  -0.020146  -0.002265   0.001960   0.000868
    14  O   -0.000021   0.000000   0.001930   0.003526   0.002232   0.002964
    15  C    0.000006   0.000000  -0.004052  -0.000598  -0.025050  -0.011977
    16  H   -0.000110  -0.000120   0.001730   0.000091   0.000000   0.000000
    17  H   -0.004073  -0.003854   0.000002   0.000000   0.000000   0.000000
    18  H    0.000011  -0.003869  -0.000002   0.000002   0.000000   0.000000
    19  H    0.501460  -0.000119  -0.000043   0.000065   0.000000   0.000000
    20  H   -0.000119   0.498816   0.000000   0.000000   0.000000   0.000000
    21  H   -0.000043   0.000000   0.596503   0.001061  -0.000011   0.000072
    22  H    0.000065   0.000000   0.001061   0.488635   0.000042  -0.000020
    23  H    0.000000   0.000000  -0.000011   0.000042   0.530114  -0.033864
    24  H    0.000000   0.000000   0.000072  -0.000020  -0.033864   0.531934
    25  H   -0.000956   0.000000  -0.004691  -0.000107   0.000000   0.000001
    26  H   -0.000022   0.000000  -0.000127  -0.002628   0.000000   0.000000
    27  H    0.000039   0.000000  -0.000071  -0.003554  -0.000004   0.000001
    28  H    0.000014   0.000000  -0.000025   0.003640   0.000000  -0.000002
    29  H    0.000000   0.000000   0.000005  -0.000008  -0.005162   0.004024
    30  H    0.000000   0.000000  -0.000001   0.000000  -0.001652  -0.001699
    31  H    0.000000   0.000000  -0.000004   0.000005   0.003983  -0.005218
             25         26         27         28         29         30
     1  C    0.014794   0.043260  -0.011447  -0.010438   0.000178  -0.000091
     2  C   -0.000119  -0.015043   0.000021   0.006874   0.000007   0.000000
     3  C    0.000457  -0.003338  -0.000519  -0.000937   0.000092  -0.000017
     4  C    0.035797   0.021612   0.010217  -0.042971   0.000424   0.000184
     5  C   -0.050866  -0.084145   0.011515   0.041217  -0.000106   0.000005
     6  C   -0.001020  -0.000947   0.000153   0.000689  -0.000004   0.000000
     7  C   -0.006638   0.098509  -0.004011  -0.022508   0.000285  -0.000050
     8  C    0.015990  -0.095408  -0.165613  -0.047746  -0.004407   0.000101
     9  C   -0.006739  -0.018500   0.070570   0.008305  -0.001110   0.001741
    10  O    0.000056  -0.000199  -0.000776   0.000401  -0.002831   0.006769
    11  C    0.000476  -0.000386   0.001753   0.000794  -0.060965  -0.059913
    12  O    0.248884  -0.005668   0.000796   0.005370  -0.000002   0.000000
    13  C    0.005096   0.418605   0.451705   0.422716   0.000294   0.000039
    14  O   -0.000020   0.001998  -0.003277  -0.000823  -0.000075   0.000117
    15  C   -0.000045  -0.000120   0.000385   0.000033   0.431024   0.418205
    16  H    0.000034  -0.000003   0.000000   0.000000  -0.000001   0.000000
    17  H   -0.000001  -0.000008   0.000000   0.000000   0.000000   0.000000
    18  H    0.000000   0.000000   0.000000   0.000000   0.000000   0.000000
    19  H   -0.000956  -0.000022   0.000039   0.000014   0.000000   0.000000
    20  H    0.000000   0.000000   0.000000   0.000000   0.000000   0.000000
    21  H   -0.004691  -0.000127  -0.000071  -0.000025   0.000005  -0.000001
    22  H   -0.000107  -0.002628  -0.003554   0.003640  -0.000008   0.000000
    23  H    0.000000   0.000000  -0.000004   0.000000  -0.005162  -0.001652
    24  H    0.000001   0.000000   0.000001  -0.000002   0.004024  -0.001699
    25  H    0.350744  -0.000021  -0.000005   0.000032   0.000000   0.000000
    26  H   -0.000021   0.522386  -0.025235  -0.024886   0.000000   0.000000
    27  H   -0.000005  -0.025235   0.519777  -0.024878   0.000000   0.000000
    28  H    0.000032  -0.024886  -0.024878   0.497954   0.000000   0.000000
    29  H    0.000000   0.000000   0.000000   0.000000   0.514407  -0.022777
    30  H    0.000000   0.000000   0.000000   0.000000  -0.022777   0.500866
    31  H    0.000000   0.000000   0.000000   0.000000  -0.028749  -0.022684
             31
     1  C    0.002716
     2  C   -0.000003
     3  C    0.000667
     4  C   -0.003147
     5  C   -0.000366
     6  C    0.000019
     7  C    0.000781
     8  C   -0.005715
     9  C    0.000584
    10  O   -0.002746
    11  C   -0.057416
    12  O    0.000004
    13  C   -0.000081
    14  O   -0.000158
    15  C    0.427424
    16  H   -0.000001
    17  H    0.000000
    18  H    0.000000
    19  H    0.000000
    20  H    0.000000
    21  H   -0.000004
    22  H    0.000005
    23  H    0.003983
    24  H   -0.005218
    25  H    0.000000
    26  H    0.000000
    27  H    0.000000
    28  H    0.000000
    29  H   -0.028749
    30  H   -0.022684
    31  H    0.514853
 Mulliken atomic charges:
              1
     1  C   -0.002073
     2  C   -0.355514
     3  C   -0.342390
     4  C   -0.140311
     5  C   -0.081861
     6  C   -0.130955
     7  C    0.185026
     8  C    0.451622
     9  C   -0.151964
    10  O   -0.290243
    11  C    0.097218
    12  O   -0.560270
    13  C   -0.620734
    14  O   -0.480810
    15  C   -0.687377
    16  H    0.179548
    17  H    0.185262
    18  H    0.184935
    19  H    0.185280
    20  H    0.182708
    21  H    0.165367
    22  H    0.217467
    23  H    0.175215
    24  H    0.174468
    25  H    0.398866
    26  H    0.170315
    27  H    0.172460
    28  H    0.187176
    29  H    0.175457
    30  H    0.180857
    31  H    0.175254
 Sum of Mulliken atomic charges =   0.00000
 Mulliken charges with hydrogens summed into heavy atoms:
              1
     1  C    0.177475
     2  C   -0.170253
     3  C   -0.157454
     4  C   -0.140311
     5  C    0.103419
     6  C    0.051753
     7  C    0.350393
     8  C    0.669089
     9  C   -0.151964
    10  O   -0.290243
    11  C    0.446902
    12  O   -0.161404
    13  C   -0.090783
    14  O   -0.480810
    15  C   -0.155809
 Sum of Mulliken charges with hydrogens summed into heavy atoms =   0.00000
 Electronic spatial extent (au):  <R**2>=           4116.3554
 Charge=              0.0000 electrons
 Dipole moment (field-independent basis, Debye):
    X=             -1.9155    Y=              3.8974    Z=             -0.3079  Tot=              4.3536
 Quadrupole moment (field-independent basis, Debye-Ang):
   XX=            -80.5516   YY=            -92.4589   ZZ=            -88.7664
   XY=             12.0161   XZ=             -0.4565   YZ=              1.3673
 Traceless Quadrupole moment (field-independent basis, Debye-Ang):
   XX=              6.7073   YY=             -5.1999   ZZ=             -1.5074
   XY=             12.0161   XZ=             -0.4565   YZ=              1.3673
 Octapole moment (field-independent basis, Debye-Ang**2):
  XXX=              9.1244  YYY=             19.5589  ZZZ=             13.1791  XYY=            -18.2029
  XXY=             37.9714  XXZ=             -2.6655  XZZ=             15.1945  YZZ=             -4.4087
  YYZ=             -5.7324  XYZ=              9.1252
 Hexadecapole moment (field-independent basis, Debye-Ang**3):
 XXXX=          -3605.0431 YYYY=          -1165.1674 ZZZZ=           -308.8558 XXXY=            151.9107
 XXXZ=             64.5679 YYYX=             18.2693 YYYZ=            -10.7625 ZZZX=            -36.7169
 ZZZY=             -8.1269 XXYY=           -850.4247 XXZZ=           -750.5165 YYZZ=           -260.5236
 XXYZ=            -28.6857 YYXZ=             10.2712 ZZXY=             14.5620
 N-N= 9.921996600102D+02 E-N=-3.596158999864D+03  KE= 6.858891831212D+02
 1\1\GINC-COMPUTE-5-22\SP\RwB97XD\6-31+G(d,p)\C12H16O3\ELUCIANO.IQUIR\1
 7-May-2022\0\\# wb97xd/6-31+g** scrf=(pcm,solvent=chloroform,smd,dovac
 uum) nmr\\comment\\0,1\C,0,-0.010411725,2.32341312,-0.064263197\C,0,2.
 079728789,3.101611677,1.608484205\C,0,0.052162279,3.633155162,0.414998
 76\C,0,0.976082045,1.386605453,0.282511229\C,0,2.019014884,1.791704578
 ,1.130038721\C,0,1.097456583,4.021872665,1.249805269\C,0,0.878048755,-
 0.036361286,-0.241462641\C,0,0.115252033,-0.962425069,0.721556025\C,0,
 -0.467978059,-2.11887442,-0.068667411\O,0,-1.459010139,-1.663842618,-0
 .893289026\C,0,-2.089488543,-2.687674552,-1.673074378\O,0,2.182147955,
 -0.544719303,-0.527276089\C,0,0.957258167,-1.493666717,1.883435704\O,0
 ,-0.141852594,-3.293236288,0.035385741\C,0,-3.14183244,-2.034003347,-2
 .547224472\H,0,-0.837879166,2.038633055,-0.711450096\H,0,2.892799203,3
 .402374813,2.26441934\H,0,-0.716555564,4.350346194,0.138418698\H,0,2.7
 91350885,1.084618139,1.428237595\H,0,1.144894533,5.041279453,1.6239184
 57\H,0,0.371855581,0.009098843,-1.213655128\H,0,-0.744733335,-0.434733
 985,1.157214221\H,0,-2.562504823,-3.419257752,-1.008561236\H,0,-1.3437
 40507,-3.1861379,-2.302420486\H,0,2.680778291,0.173908443,-0.95467795\
 H,0,1.319494927,-0.679735406,2.517683569\H,0,0.360688035,-2.161061495,
 2.515983492\H,0,1.821036163,-2.068870381,1.533296146\H,0,-3.883713742,
 -1.512926631,-1.933057334\H,0,-3.653497299,-2.777756376,-3.164373442\H
 ,0,-2.686851173,-1.283338068,-3.201934287\\Version=EM64L-G09RevC.01\St
 ate=1-A\HF=-692.4422169\RMSD=2.740e-09\Dipole=-0.7523385,1.4898807,-0.
 3847491\Quadrupole=3.7274683,-6.2028271,2.4753588,6.4315483,4.2472216,
 3.5836318\PG=C01 [X(C12H16O3)]\\@


 THE UNDERLYING PHYSICAL LAWS NECESSARY FOR THE 
 MATHEMATICAL THEORY OF A LARGE PART OF PHYSICS AND THE
 WHOLE OF CHEMISTRY ARE THUS COMPLETELY KNOWN, AND THE
 DIFFICULTY IS ONLY THAT THE EXACT APPLICATION OF THESE
 LAWS LEADS TO EQUATIONS MUCH TOO COMPLICATED 
 TO BE SOLUBLE.

                                        -- P. A. M. DIRAC, 1929
 Job cpu time:  0 days  0 hours 43 minutes 20.3 seconds.
 File lengths (MBytes):  RWF=    126 Int=      0 D2E=      0 Chk=      9 Scr=      1
 Normal termination of Gaussian 09 at Tue May 17 17:08:30 2022.
