 Entering Gaussian System, Link 0=g09
 Input=/home/eluciano.iquir/wb9/73a_010.gjc
 Output=/home/eluciano.iquir/wb9/73a_010.log
 Initial command:
 /share/apps/Gaussian09/EM64T.SSE4.2-enabled/g09/l1.exe /tmp/Gau-29069.inp -scrdir=/tmp/
 Entering Link 1 = /share/apps/Gaussian09/EM64T.SSE4.2-enabled/g09/l1.exe PID=     29070.
  
 Copyright (c) 1988,1990,1992,1993,1995,1998,2003,2009,2011,
            Gaussian, Inc.  All Rights Reserved.
  
 This is part of the Gaussian(R) 09 program.  It is based on
 the Gaussian(R) 03 system (copyright 2003, Gaussian, Inc.),
 the Gaussian(R) 98 system (copyright 1998, Gaussian, Inc.),
 the Gaussian(R) 94 system (copyright 1995, Gaussian, Inc.),
 the Gaussian 92(TM) system (copyright 1992, Gaussian, Inc.),
 the Gaussian 90(TM) system (copyright 1990, Gaussian, Inc.),
 the Gaussian 88(TM) system (copyright 1988, Gaussian, Inc.),
 the Gaussian 86(TM) system (copyright 1986, Carnegie Mellon
 University), and the Gaussian 82(TM) system (copyright 1983,
 Carnegie Mellon University). Gaussian is a federally registered
 trademark of Gaussian, Inc.
  
 This software contains proprietary and confidential information,
 including trade secrets, belonging to Gaussian, Inc.
  
 This software is provided under written license and may be
 used, copied, transmitted, or stored only in accord with that
 written license.
  
 The following legend is applicable only to US Government
 contracts under FAR:
  
                    RESTRICTED RIGHTS LEGEND
  
 Use, reproduction and disclosure by the US Government is
 subject to restrictions as set forth in subparagraphs (a)
 and (c) of the Commercial Computer Software - Restricted
 Rights clause in FAR 52.227-19.
  
 Gaussian, Inc.
 340 Quinnipiac St., Bldg. 40, Wallingford CT 06492
  
  
 ---------------------------------------------------------------
 Warning -- This program may not be used in any manner that
 competes with the business of Gaussian, Inc. or will provide
 assistance to any competitor of Gaussian, Inc.  The licensee
 of this program is prohibited from giving any competitor of
 Gaussian, Inc. access to this program.  By using this program,
 the user acknowledges that Gaussian, Inc. is engaged in the
 business of creating and licensing software in the field of
 computational chemistry and represents and warrants to the
 licensee that it is not a competitor of Gaussian, Inc. and that
 it will not use this program in any manner prohibited above.
 ---------------------------------------------------------------
  

 Cite this work as:
 Gaussian 09, Revision C.01,
 M. J. Frisch, G. W. Trucks, H. B. Schlegel, G. E. Scuseria, 
 M. A. Robb, J. R. Cheeseman, G. Scalmani, V. Barone, B. Mennucci, 
 G. A. Petersson, H. Nakatsuji, M. Caricato, X. Li, H. P. Hratchian, 
 A. F. Izmaylov, J. Bloino, G. Zheng, J. L. Sonnenberg, M. Hada, 
 M. Ehara, K. Toyota, R. Fukuda, J. Hasegawa, M. Ishida, T. Nakajima, 
 Y. Honda, O. Kitao, H. Nakai, T. Vreven, J. A. Montgomery, Jr., 
 J. E. Peralta, F. Ogliaro, M. Bearpark, J. J. Heyd, E. Brothers, 
 K. N. Kudin, V. N. Staroverov, T. Keith, R. Kobayashi, J. Normand, 
 K. Raghavachari, A. Rendell, J. C. Burant, S. S. Iyengar, J. Tomasi, 
 M. Cossi, N. Rega, J. M. Millam, M. Klene, J. E. Knox, J. B. Cross, 
 V. Bakken, C. Adamo, J. Jaramillo, R. Gomperts, R. E. Stratmann, 
 O. Yazyev, A. J. Austin, R. Cammi, C. Pomelli, J. W. Ochterski, 
 R. L. Martin, K. Morokuma, V. G. Zakrzewski, G. A. Voth, 
 P. Salvador, J. J. Dannenberg, S. Dapprich, A. D. Daniels, 
 O. Farkas, J. B. Foresman, J. V. Ortiz, J. Cioslowski, 
 and D. J. Fox, Gaussian, Inc., Wallingford CT, 2010.
 
 ******************************************
 Gaussian 09:  EM64L-G09RevC.01 23-Sep-2011
                17-May-2022 
 ******************************************
 %nprocshared=4
 Will use up to    4 processors via shared memory.
 ----------------------------------------------------------------
 # wb97xd/6-31+g** scrf=(pcm,solvent=chloroform,smd,dovacuum) nmr
 ----------------------------------------------------------------
 1/38=1/1;
 2/12=2,17=6,18=5,40=1/2;
 3/5=1,6=6,7=111,11=2,16=1,25=1,30=1,70=32101,72=7,74=-58/1,2,8,3;
 4//1;
 5/5=2,38=5,53=7/2;
 8/6=1,10=90,11=11/1;
 10/13=100,45=16/2;
 6/7=2,8=2,9=2,10=2,28=1/1;
 99/9=1/99;
 -------
 comment
 -------
 Charge =  0 Multiplicity = 1
 Symbolic Z-Matrix:
 6                     1.45046   0.37772  -1.33286 
 6                     0.05391   2.73371  -1.85372 
 6                     1.21051   0.77261  -2.65032 
 6                     0.99428   1.15667  -0.25781 
 6                     0.29177   2.33923  -0.53607 
 6                     0.51232   1.94981  -2.91018 
 6                     1.22739   0.69531   1.16885 
 6                    -0.02822   0.06198   1.78718 
 6                    -0.34482  -1.22089   1.05333 
 8                    -1.63294  -1.2122    0.61428 
 6                    -2.05149  -2.36608  -0.12836 
 8                     1.63034   1.83399   1.93878 
 6                     0.14142  -0.25978   3.27163 
 8                     0.45132  -2.13834   0.8979 
 6                    -1.67771  -2.21263  -1.59091 
 1                     1.99114  -0.54955  -1.15108 
 1                    -0.4869    3.65484  -2.05373 
 1                     1.56861   0.16012  -3.47364 
 1                    -0.06648   2.96353   0.28031 
 1                     0.32777   2.25802  -3.93571 
 1                     2.07015  -0.0082    1.18184 
 1                    -0.87541   0.75427   1.69539 
 1                    -3.14028  -2.42981  -0.03203 
 1                    -1.63596  -3.28601   0.2986 
 1                     2.21168   1.50911   2.64668 
 1                     0.26307   0.65302   3.86336 
 1                    -0.73531  -0.79259   3.65649 
 1                     1.01543  -0.89783   3.44345 
 1                    -2.08261  -1.2796   -1.99643 
 1                    -2.06207  -3.05066  -2.17912 
 1                    -0.59138  -2.16976  -1.7161 
 
                          Input orientation:                          
 ---------------------------------------------------------------------
 Center     Atomic      Atomic             Coordinates (Angstroms)
 Number     Number       Type             X           Y           Z
 ---------------------------------------------------------------------
      1          6           0        1.450459    0.377720   -1.332858
      2          6           0        0.053906    2.733713   -1.853720
      3          6           0        1.210514    0.772607   -2.650325
      4          6           0        0.994280    1.156665   -0.257815
      5          6           0        0.291772    2.339230   -0.536071
      6          6           0        0.512323    1.949812   -2.910180
      7          6           0        1.227388    0.695312    1.168845
      8          6           0       -0.028224    0.061978    1.787183
      9          6           0       -0.344821   -1.220885    1.053334
     10          8           0       -1.632944   -1.212204    0.614277
     11          6           0       -2.051489   -2.366085   -0.128356
     12          8           0        1.630337    1.833987    1.938781
     13          6           0        0.141418   -0.259776    3.271634
     14          8           0        0.451320   -2.138338    0.897903
     15          6           0       -1.677713   -2.212632   -1.590911
     16          1           0        1.991144   -0.549551   -1.151081
     17          1           0       -0.486898    3.654836   -2.053734
     18          1           0        1.568612    0.160121   -3.473641
     19          1           0       -0.066485    2.963526    0.280310
     20          1           0        0.327771    2.258025   -3.935707
     21          1           0        2.070150   -0.008201    1.181837
     22          1           0       -0.875408    0.754272    1.695390
     23          1           0       -3.140275   -2.429814   -0.032029
     24          1           0       -1.635958   -3.286006    0.298602
     25          1           0        2.211678    1.509114    2.646684
     26          1           0        0.263070    0.653017    3.863362
     27          1           0       -0.735307   -0.792595    3.656493
     28          1           0        1.015432   -0.897829    3.443447
     29          1           0       -2.082606   -1.279602   -1.996432
     30          1           0       -2.062069   -3.050663   -2.179120
     31          1           0       -0.591378   -2.169755   -1.716104
 ---------------------------------------------------------------------
                    Distance matrix (angstroms):
                    1          2          3          4          5
     1  C    0.000000
     2  C    2.787896   0.000000
     3  C    1.396148   2.412106   0.000000
     4  C    1.403771   2.432755   2.432768   0.000000
     5  C    2.413493   1.395850   2.787196   1.403354   0.000000
     6  C    2.416509   1.393109   1.393128   2.810054   2.415923
     7  C    2.531629   3.829888   3.819990   1.517414   2.546484
     8  C    3.467111   4.516757   4.661646   2.534930   3.268911
     9  C    3.387106   4.924307   4.484436   3.027383   3.950427
    10  O    3.978262   4.950427   4.762599   3.643404   4.200061
    11  C    4.609005   5.780788   5.181928   4.658673   5.272294
    12  O    3.585623   4.204486   4.728919   2.385029   2.858656
    13  C    4.829217   5.936151   6.105602   3.897523   4.612597
    14  O    3.507865   5.609478   4.651870   3.533770   4.704290
    15  C    4.069641   5.247276   4.286708   4.502095   5.070601
    16  H    1.088675   3.876392   2.145977   2.168602   3.407515
    17  H    3.874598   1.086712   3.397701   3.414685   2.154170
    18  H    2.155055   3.397331   1.086841   3.415333   3.874036
    19  H    3.404383   2.149742   3.875496   2.163226   1.088380
    20  H    3.401587   2.153125   2.153580   3.896680   3.400796
    21  H    2.618520   4.560476   4.004261   2.141730   3.409438
    22  H    3.836891   4.168692   4.820440   2.733617   2.975536
    23  H    5.536177   6.339035   6.003361   5.477989   5.897184
    24  H    5.060684   6.612499   5.768094   5.192791   6.004673
    25  H    4.206692   5.138994   5.440870   3.168973   3.808551
    26  H    5.337264   6.087534   6.583317   4.215735   4.711597
    27  H    5.571430   6.589397   6.783216   4.702434   5.332992
    28  H    4.962798   6.494044   6.321587   4.233288   5.180617
    29  H    3.958484   4.548818   3.934943   4.292484   4.567960
    30  H    4.980745   6.167839   5.054624   5.543852   6.106645
    31  H    3.287189   4.947659   3.574504   3.963079   4.743773
                    6          7          8          9         10
     6  C    0.000000
     7  C    4.327070   0.000000
     8  C    5.091299   1.536234   0.000000
     9  C    5.147568   2.481329   1.511458   0.000000
    10  O    5.198298   3.482479   2.361011   1.360921   0.000000
    11  C    5.739219   4.669680   3.695724   2.370778   1.434616
    12  O    4.977528   1.432393   2.431836   3.743997   4.656457
    13  C    6.575307   2.552106   1.528364   2.465970   3.334220
    14  O    5.587323   2.950468   2.421192   1.224630   2.298331
    15  C    4.884943   4.950960   4.393880   3.122850   2.421923
    16  H    3.395313   2.741362   3.617349   3.281291   4.085292
    17  H    2.153845   4.699210   5.279361   5.783314   5.667431
    18  H    2.153190   4.685675   5.498708   5.105087   5.370690
    19  H    3.397331   2.758333   3.269727   4.264310   4.472365
    20  H    1.086628   5.413671   6.140100   6.119291   6.048904
    21  H    4.796378   1.097883   2.185073   2.705403   3.935054
    22  H    4.956449   2.168519   1.097915   2.143596   2.368479
    23  H    6.387985   5.503180   4.382171   3.233278   2.042629
    24  H    6.505781   4.980659   4.001209   2.549780   2.097693
    25  H    5.827585   1.953230   2.801804   4.065384   5.130046
    26  H    6.901063   2.862187   2.178232   3.431806   4.198865
    27  H    7.224857   3.500632   2.173609   2.666898   3.199516
    28  H    6.980741   2.785110   2.180288   2.768988   3.888050
    29  H    4.242370   4.987516   4.509552   3.510615   2.650007
    30  H    5.671569   6.005141   5.436600   4.092161   3.371519
    31  H    4.428861   4.454150   4.191754   2.937845   2.726250
                   11         12         13         14         15
    11  C    0.000000
    12  O    5.955627   0.000000
    13  C    4.561283   2.894343   0.000000
    14  O    2.714614   4.272338   3.042964   0.000000
    15  C    1.517341   6.306904   5.546821   3.276049   0.000000
    16  H    4.548477   3.919016   4.802693   3.015566   4.052135
    17  H    6.512028   4.872202   6.639165   6.569115   6.004950
    18  H    5.538753   5.665682   6.907383   5.063759   4.439961
    19  H    5.701930   2.627848   4.402377   5.165129   5.734992
    20  H    6.445090   6.032088   7.636740   6.535063   5.432017
    21  H    4.925863   2.039622   2.854916   2.690485   5.156950
    22  H    3.800768   2.739303   2.132316   3.280760   4.499553
    23  H    1.094896   6.694986   5.137389   3.721464   2.148574
    24  H    1.095999   6.290723   4.599570   2.456224   2.173507
    25  H    6.394732   0.971919   2.793835   4.411462   6.850983
    26  H    5.514160   2.639720   1.094593   4.076891   6.459696
    27  H    4.305030   3.930107   1.095745   3.290733   5.517234
    28  H    4.931486   3.178828   1.095688   2.887365   5.858882
    29  H    2.161278   6.242298   5.808514   3.941495   1.094957
    30  H    2.162034   7.379077   6.508081   4.076461   1.093625
    31  H    2.165967   5.858682   5.390968   2.814470   1.094366
                   16         17         18         19         20
    16  H    0.000000
    17  H    4.963098   0.000000
    18  H    2.465046   4.295846   0.000000
    19  H    4.315603   2.470307   4.962335   0.000000
    20  H    4.289922   2.481247   2.480804   4.292781   0.000000
    21  H    2.396208   5.515910   4.685441   3.769499   5.861819
    22  H    4.244935   4.756064   5.748489   2.745471   5.951316
    23  H    5.578452   6.939068   6.381699   6.215615   7.017256
    24  H    4.769238   7.418161   6.031159   6.443620   7.247198
    25  H    4.325477   5.829268   6.300135   3.592362   6.887513
    26  H    5.438478   6.677229   7.468534   4.276134   7.962770
    27  H    5.532212   7.242102   7.553444   5.094544   8.250934
    28  H    4.709883   7.294022   7.019357   5.107450   8.055073
    29  H    4.224101   5.186351   4.193607   5.220386   4.699522
    30  H    4.872469   6.889165   5.016648   6.797178   6.081044
    31  H    3.100602   5.835304   3.630815   5.532790   5.037530
                   21         22         23         24         25
    21  H    0.000000
    22  H    3.085679   0.000000
    23  H    5.872497   4.272237   0.000000
    24  H    5.025868   4.342038   1.762201   0.000000
    25  H    2.113776   3.317355   7.164779   6.581107   0.000000
    26  H    3.300503   2.450813   6.021684   5.641783   2.451588
    27  H    3.822274   2.501670   4.697824   4.278282   3.873280
    28  H    2.649292   3.059480   5.629904   4.756396   2.803428
    29  H    5.381751   4.384463   2.510086   3.080963   6.912043
    30  H    6.134154   5.558553   2.481528   2.525087   7.895876
    31  H    4.489334   4.502099   3.066043   2.529072   6.358075
                   26         27         28         29         30
    26  H    0.000000
    27  H    1.768995   0.000000
    28  H    1.774119   1.766790   0.000000
    29  H    6.601090   5.831633   6.271831   0.000000
    30  H    7.458894   6.396369   6.761580   1.780577   0.000000
    31  H    6.310988   5.548160   5.551631   1.759181   1.775757
                   31
    31  H    0.000000
 Stoichiometry    C12H16O3
 Framework group  C1[X(C12H16O3)]
 Deg. of freedom    87
 Full point group                 C1      NOp   1
 Largest Abelian subgroup         C1      NOp   1
 Largest concise Abelian subgroup C1      NOp   1
                         Standard orientation:                         
 ---------------------------------------------------------------------
 Center     Atomic      Atomic             Coordinates (Angstroms)
 Number     Number       Type             X           Y           Z
 ---------------------------------------------------------------------
      1          6           0        1.487974   -0.353387    1.195669
      2          6           0        3.048752   -0.255173   -1.112293
      3          6           0        2.500926   -1.293025    0.995076
      4          6           0        1.242087    0.648295    0.243437
      5          6           0        2.035301    0.683908   -0.913691
      6          6           0        3.280419   -1.243804   -0.158515
      7          6           0        0.112169    1.638691    0.455445
      8          6           0       -1.131882    1.287257   -0.374522
      9          6           0       -1.709756   -0.014412    0.131666
     10          8           0       -1.854490   -0.900242   -0.891302
     11          6           0       -2.367308   -2.192112   -0.536041
     12          8           0        0.592234    2.937989    0.090595
     13          6           0       -2.217318    2.360420   -0.296777
     14          8           0       -2.015935   -0.222737    1.298959
     15          6           0       -1.239391   -3.094894   -0.072240
     16          1           0        0.884981   -0.413872    2.100077
     17          1           0        3.658445   -0.211741   -2.010809
     18          1           0        2.680607   -2.063857    1.739896
     19          1           0        1.868323    1.454798   -1.663636
     20          1           0        4.070231   -1.973891   -0.313209
     21          1           0       -0.127845    1.680497    1.525956
     22          1           0       -0.853137    1.177252   -1.430750
     23          1           0       -2.827060   -2.611625   -1.436837
     24          1           0       -3.155929   -2.112506    0.220896
     25          1           0        0.114235    3.583373    0.637975
     26          1           0       -1.882517    3.296323   -0.755174
     27          1           0       -3.122513    2.036471   -0.822453
     28          1           0       -2.497246    2.569174    0.741777
     29          1           0       -0.450987   -3.147237   -0.830269
     30          1           0       -1.608118   -4.105306    0.125558
     31          1           0       -0.777782   -2.708521    0.841691
 ---------------------------------------------------------------------
 Rotational constants (GHZ):      0.7036287      0.5355815      0.3596437
 Standard basis: 6-31+G(d,p) (6D, 7F)
 There are   365 symmetry adapted basis functions of A   symmetry.
 Integral buffers will be    131072 words long.
 Raffenetti 2 integral format.
 Two-electron integral symmetry is turned on.
   365 basis functions,   592 primitive gaussians,   365 cartesian basis functions
    56 alpha electrons       56 beta electrons
       nuclear repulsion energy      1026.9068417942 Hartrees.
 NAtoms=   31 NActive=   31 NUniq=   31 SFac= 1.00D+00 NAtFMM=   60 NAOKFM=F Big=F
 Nuclear repulsion after empirical dispersion term =     1026.8847473740 Hartrees.
 ------------------------------------------------------------------------------
 Polarizable Continuum Model (PCM)
 =================================
 Model                : C-PCM.
 Atomic radii         : SMD-Coulomb.
 Polarization charges : Total charges.
 Charge compensation  : None.
 Solution method      : Matrix inversion.
 Cavity type          : VdW (van der Waals Surface) (Alpha=1.000).
 Cavity algorithm     : GePol (No added spheres)
                        Default sphere list used, NSphG=   31.
                        Lebedev-Laikov grids with approx.  5.0 points / Ang**2.
                        Smoothing algorithm: Karplus/York (Gamma=1.0000).
                        Polarization charges: spherical gaussians, with
                                              point-specific exponents (IZeta= 3).
                        Self-potential: point-specific (ISelfS= 7).
                        Self-field    : sphere-specific E.n sum rule (ISelfD= 2).
 Solvent              : Chloroform, Eps=   4.711300 Eps(inf)=   2.090627
 ------------------------------------------------------------------------------
 ------------------------------------------------------------------------------
 Atomic radii for non-electrostatic terms: SMD-CDS.
 ------------------------------------------------------------------------------
 Nuclear repulsion after PCM non-electrostatic terms =     1026.8782017826 Hartrees.
 One-electron integrals computed using PRISM.
 NBasis=   365 RedAO= T  NBF=   365
 NBsUse=   365 1.00D-06 NBFU=   365
 Harris functional with IExCor= 4639 diagonalized for initial guess.
 ExpMin= 4.38D-02 ExpMax= 5.48D+03 ExpMxC= 8.25D+02 IAcc=2 IRadAn=         4 AccDes= 0.00D+00
 HarFok:  IExCor= 4639 AccDes= 0.00D+00 IRadAn=         4 IDoV= 1
 ScaDFX=  1.000000  1.000000  1.000000  1.000000
 FoFCou: FMM=F IPFlag=           0 FMFlag=      100000 FMFlg1=           0
         NFxFlg=           0 DoJE=T BraDBF=F KetDBF=T FulRan=T
         Omega=  0.000000  0.000000  1.000000  0.000000  0.000000 ICntrl=     500 IOpCl=  0
         NMat0=    1 NMatS0=    1 NMatT0=    0 NMatD0=    1 NMtDS0=    0 NMtDT0=    0
         I1Cent=           4 NGrid=           0.
 Petite list used in FoFCou.
 Initial guess orbital symmetries:
       Occupied  (A) (A) (A) (A) (A) (A) (A) (A) (A) (A) (A) (A)
                 (A) (A) (A) (A) (A) (A) (A) (A) (A) (A) (A) (A)
                 (A) (A) (A) (A) (A) (A) (A) (A) (A) (A) (A) (A)
                 (A) (A) (A) (A) (A) (A) (A) (A) (A) (A) (A) (A)
                 (A) (A) (A) (A) (A) (A) (A) (A)
       Virtual   (A) (A) (A) (A) (A) (A) (A) (A) (A) (A) (A) (A)
                 (A) (A) (A) (A) (A) (A) (A) (A) (A) (A) (A) (A)
                 (A) (A) (A) (A) (A) (A) (A) (A) (A) (A) (A) (A)
                 (A) (A) (A) (A) (A) (A) (A) (A) (A) (A) (A) (A)
                 (A) (A) (A) (A) (A) (A) (A) (A) (A) (A) (A) (A)
                 (A) (A) (A) (A) (A) (A) (A) (A) (A) (A) (A) (A)
                 (A) (A) (A) (A) (A) (A) (A) (A) (A) (A) (A) (A)
                 (A) (A) (A) (A) (A) (A) (A) (A) (A) (A) (A) (A)
                 (A) (A) (A) (A) (A) (A) (A) (A) (A) (A) (A) (A)
                 (A) (A) (A) (A) (A) (A) (A) (A) (A) (A) (A) (A)
                 (A) (A) (A) (A) (A) (A) (A) (A) (A) (A) (A) (A)
                 (A) (A) (A) (A) (A) (A) (A) (A) (A) (A) (A) (A)
                 (A) (A) (A) (A) (A) (A) (A) (A) (A) (A) (A) (A)
                 (A) (A) (A) (A) (A) (A) (A) (A) (A) (A) (A) (A)
                 (A) (A) (A) (A) (A) (A) (A) (A) (A) (A) (A) (A)
                 (A) (A) (A) (A) (A) (A) (A) (A) (A) (A) (A) (A)
                 (A) (A) (A) (A) (A) (A) (A) (A) (A) (A) (A) (A)
                 (A) (A) (A) (A) (A) (A) (A) (A) (A) (A) (A) (A)
                 (A) (A) (A) (A) (A) (A) (A) (A) (A) (A) (A) (A)
                 (A) (A) (A) (A) (A) (A) (A) (A) (A) (A) (A) (A)
                 (A) (A) (A) (A) (A) (A) (A) (A) (A) (A) (A) (A)
                 (A) (A) (A) (A) (A) (A) (A) (A) (A) (A) (A) (A)
                 (A) (A) (A) (A) (A) (A) (A) (A) (A) (A) (A) (A)
                 (A) (A) (A) (A) (A) (A) (A) (A) (A) (A) (A) (A)
                 (A) (A) (A) (A) (A) (A) (A) (A) (A) (A) (A) (A)
                 (A) (A) (A) (A) (A) (A) (A) (A) (A)
 The electronic state of the initial guess is 1-A.
 Requested convergence on RMS density matrix=1.00D-08 within 128 cycles.
 Requested convergence on MAX density matrix=1.00D-06.
 Requested convergence on             energy=1.00D-06.
 No special actions if energy rises.
 FoFJK:  IHMeth= 1 ICntrl=     0 DoSepK=T KAlg= 1 I1Cent= 0 FoldK=F
 FoFJK:  IHMeth= 1 ICntrl=     0 DoSepK=T KAlg= 1 I1Cent= 0 FoldK=F
 FoFJK:  IHMeth= 1 ICntrl=     0 DoSepK=T KAlg= 1 I1Cent= 0 FoldK=F
 FoFJK:  IHMeth= 1 ICntrl=     0 DoSepK=T KAlg= 1 I1Cent= 0 FoldK=F
 FoFJK:  IHMeth= 1 ICntrl=     0 DoSepK=T KAlg= 1 I1Cent= 0 FoldK=F
 FoFJK:  IHMeth= 1 ICntrl=     0 DoSepK=T KAlg= 1 I1Cent= 0 FoldK=F
 FoFJK:  IHMeth= 1 ICntrl=     0 DoSepK=T KAlg= 1 I1Cent= 0 FoldK=F
 FoFJK:  IHMeth= 1 ICntrl=     0 DoSepK=T KAlg= 1 I1Cent= 0 FoldK=F
 FoFJK:  IHMeth= 1 ICntrl=     0 DoSepK=T KAlg= 1 I1Cent= 0 FoldK=F
 FoFJK:  IHMeth= 1 ICntrl=     0 DoSepK=T KAlg= 1 I1Cent= 0 FoldK=F
 FoFJK:  IHMeth= 1 ICntrl=     0 DoSepK=T KAlg= 1 I1Cent= 0 FoldK=F
 FoFJK:  IHMeth= 1 ICntrl=     0 DoSepK=T KAlg= 1 I1Cent= 0 FoldK=F
 FoFJK:  IHMeth= 1 ICntrl=     0 DoSepK=T KAlg= 1 I1Cent= 0 FoldK=F
 FoFJK:  IHMeth= 1 ICntrl=     0 DoSepK=T KAlg= 1 I1Cent= 0 FoldK=F
 FoFJK:  IHMeth= 1 ICntrl=     0 DoSepK=T KAlg= 1 I1Cent= 0 FoldK=F
 FoFJK:  IHMeth= 1 ICntrl=     0 DoSepK=T KAlg= 1 I1Cent= 0 FoldK=F
 Error on total polarization charges =  0.03780
 SCF Done:  E(RwB97XD) =  -692.446427050     A.U. after   16 cycles
             Convg  =    0.3547D-08             -V/T =  2.0095
 SMD-CDS (non-electrostatic) energy       (kcal/mol) =      -4.11
 (included in total energy above)
 Range of M.O.s used for correlation:     1   365
 NBasis=   365 NAE=    56 NBE=    56 NFC=     0 NFV=     0
 NROrb=    365 NOA=    56 NOB=    56 NVA=   309 NVB=   309

 **** Warning!!: The largest alpha MO coefficient is  0.14057239D+03

 NEqPCM:  Using equilibrium solvation (IEInf=0, Eps=   4.7113, EpsInf=   2.0906)
          Differentiating once with respect to magnetic field using GIAOs.
          Electric field/nuclear overlap derivatives assumed to be zero.
 FoFCou: FMM=F IPFlag=           0 FMFlag=    10101102 FMFlg1=           0
         NFxFlg=    40000000 DoJE=F BraDBF=F KetDBF=T FulRan=T
         Omega=  0.000000  0.000000  1.000000  0.000000  0.000000 ICntrl=    6100 IOpCl=  0
         NMat0=    1 NMatS0=    1 NMatT0=    0 NMatD0=    1 NMtDS0=    0 NMtDT0=    0
         I1Cent=           7 NGrid=        2269.
 Symmetry not used in FoFCou.
 FoFJK:  IHMeth= 1 ICntrl=  6127 DoSepK=T KAlg= 1 I1Cent= 0 FoldK=F
 FoFJK:  IHMeth= 1 ICntrl=     0 DoSepK=T KAlg= 1 I1Cent= 0 FoldK=F
          There are     3 degrees of freedom in the 1st order CPHF.  IDoFFX=0.
      3 vectors produced by pass  0 Test12= 5.77D-13 3.33D-08 XBig12= 1.13D+02 1.64D+00.
 AX will form     3 AO Fock derivatives at one time.
 FoFJK:  IHMeth= 1 ICntrl=     0 DoSepK=T KAlg= 1 I1Cent= 0 FoldK=F
      3 vectors produced by pass  1 Test12= 5.77D-13 3.33D-08 XBig12= 8.23D-01 2.55D-01.
 FoFJK:  IHMeth= 1 ICntrl=     0 DoSepK=T KAlg= 1 I1Cent= 0 FoldK=F
      3 vectors produced by pass  2 Test12= 5.77D-13 3.33D-08 XBig12= 1.41D-02 3.85D-02.
 FoFJK:  IHMeth= 1 ICntrl=     0 DoSepK=T KAlg= 1 I1Cent= 0 FoldK=F
      3 vectors produced by pass  3 Test12= 5.77D-13 3.33D-08 XBig12= 2.40D-04 4.74D-03.
 FoFJK:  IHMeth= 1 ICntrl=     0 DoSepK=T KAlg= 1 I1Cent= 0 FoldK=F
      3 vectors produced by pass  4 Test12= 5.77D-13 3.33D-08 XBig12= 3.44D-06 4.64D-04.
 FoFJK:  IHMeth= 1 ICntrl=     0 DoSepK=T KAlg= 1 I1Cent= 0 FoldK=F
      3 vectors produced by pass  5 Test12= 5.77D-13 3.33D-08 XBig12= 4.96D-08 4.74D-05.
 FoFJK:  IHMeth= 1 ICntrl=     0 DoSepK=T KAlg= 1 I1Cent= 0 FoldK=F
      3 vectors produced by pass  6 Test12= 5.77D-13 3.33D-08 XBig12= 7.40D-10 8.56D-06.
 FoFJK:  IHMeth= 1 ICntrl=     0 DoSepK=T KAlg= 1 I1Cent= 0 FoldK=F
      3 vectors produced by pass  7 Test12= 5.77D-13 3.33D-08 XBig12= 9.54D-12 8.89D-07.
 FoFJK:  IHMeth= 1 ICntrl=     0 DoSepK=T KAlg= 1 I1Cent= 0 FoldK=F
      2 vectors produced by pass  8 Test12= 5.77D-13 3.33D-08 XBig12= 9.80D-14 8.64D-08.
 FoFJK:  IHMeth= 1 ICntrl=     0 DoSepK=T KAlg= 1 I1Cent= 0 FoldK=F
 Inverted reduced A of dimension    26 with in-core refinement.
 Calculating GIAO nuclear magnetic shielding tensors.
 SCF GIAO Magnetic shielding tensor (ppm):
      1  C    Isotropic =    69.5581   Anisotropy =   162.6153
   XX=    82.5616   YX=    49.3723   ZX=    72.7388
   XY=    39.2384   YY=   103.7789   ZY=    35.9522
   XZ=    73.7277   YZ=    42.0510   ZZ=    22.3338
   Eigenvalues:   -27.2822    57.9883   177.9684
      2  C    Isotropic =    70.1940   Anisotropy =   178.1464
   XX=    85.5106   YX=    50.4424   ZX=    79.2425
   XY=    48.7694   YY=   103.8406   ZY=    41.2437
   XZ=    82.3636   YZ=    41.4606   ZZ=    21.2308
   Eigenvalues:   -33.9453    55.5690   188.9583
      3  C    Isotropic =    71.1251   Anisotropy =   176.2231
   XX=   110.4484   YX=    61.2334   ZX=    30.0287
   XY=    63.0583   YY=    58.7691   ZY=    80.1153
   XZ=    29.1577   YZ=    79.8617   ZZ=    44.1578
   Eigenvalues:   -32.3106    57.0786   188.6071
      4  C    Isotropic =    52.9152   Anisotropy =   185.2892
   XX=    57.6616   YX=    89.7973   ZX=    47.1080
   XY=    89.3322   YY=    53.5726   ZY=    41.4987
   XZ=    52.6517   YZ=    37.8759   ZZ=    47.5114
   Eigenvalues:   -34.6736    16.9779   176.4414
      5  C    Isotropic =    72.2583   Anisotropy =   178.5695
   XX=   107.7391   YX=    65.0939   ZX=    32.6575
   XY=    60.9001   YY=    66.8383   ZY=    73.6380
   XZ=    32.5943   YZ=    82.0812   ZZ=    42.1975
   Eigenvalues:   -26.7886    52.2588   191.3046
      6  C    Isotropic =    71.4500   Anisotropy =   176.1447
   XX=    68.7868   YX=    92.7417   ZX=    48.7734
   XY=    95.8500   YY=    61.6649   ZY=    29.7874
   XZ=    49.8335   YZ=    27.0415   ZZ=    83.8983
   Eigenvalues:   -31.0428    56.5130   188.8798
      7  C    Isotropic =   118.9217   Anisotropy =    29.9100
   XX=   117.6373   YX=     4.1411   ZX=     1.2255
   XY=    10.1968   YY=   128.8210   ZY=   -12.4662
   XZ=    -1.6622   YZ=   -16.8853   ZZ=   110.3069
   Eigenvalues:   101.4987   116.4048   138.8617
      8  C    Isotropic =   144.7836   Anisotropy =    27.1811
   XX=   150.7144   YX=    10.3117   ZX=    -2.4628
   XY=    16.2918   YY=   147.4746   ZY=    -5.2071
   XZ=     2.8800   YZ=    -5.1399   ZZ=   136.1618
   Eigenvalues:   131.7421   139.7043   162.9044
      9  C    Isotropic =    19.2662   Anisotropy =   104.2312
   XX=    76.0162   YX=   -35.6153   ZX=    -7.1755
   XY=   -42.5028   YY=   -36.5126   ZY=   -28.9927
   XZ=    -9.6623   YZ=   -60.4012   ZZ=    18.2952
   Eigenvalues:   -71.5071    40.5521    88.7537
     10  O    Isotropic =   124.2267   Anisotropy =   145.0277
   XX=   181.5963   YX=   -73.0919   ZX=    39.0616
   XY=   -50.5768   YY=   123.1894   ZY=    36.5172
   XZ=    85.0093   YZ=   168.8134   ZZ=    67.8944
   Eigenvalues:   -44.2569   196.0252   220.9119
     11  C    Isotropic =   138.2641   Anisotropy =    65.4200
   XX=   135.4820   YX=    14.5151   ZX=     6.1315
   XY=    18.9547   YY=   173.0697   ZY=   -18.1279
   XZ=     4.2873   YZ=   -14.4747   ZZ=   106.2407
   Eigenvalues:   100.0663   132.8486   181.8774
     12  O    Isotropic =   297.7794   Anisotropy =    46.8050
   XX=   296.6132   YX=   -22.4290   ZX=   -22.5039
   XY=    -7.9539   YY=   318.4795   ZY=     4.6175
   XZ=   -22.5392   YZ=    -4.0030   ZZ=   278.2455
   Eigenvalues:   261.8413   302.5142   328.9827
     13  C    Isotropic =   180.2441   Anisotropy =    27.0087
   XX=   185.6444   YX=   -15.8259   ZX=    -0.8650
   XY=   -12.8735   YY=   181.5610   ZY=    -0.4266
   XZ=    -4.6913   YZ=    -0.0574   ZZ=   173.5269
   Eigenvalues:   168.3186   174.1638   198.2499
     14  O    Isotropic =   -30.0973   Anisotropy =   562.8287
   XX=   269.6928   YX=  -162.8392   ZX=    80.0487
   XY=  -159.7740   YY=  -110.8268   ZY=   -46.9391
   XZ=    83.6685   YZ=   -76.6559   ZZ=  -249.1579
   Eigenvalues:  -273.7156  -161.6982   345.1219
     15  C    Isotropic =   181.7592   Anisotropy =    23.6544
   XX=   189.4432   YX=    -6.7931   ZX=     4.3975
   XY=    -1.4773   YY=   190.9094   ZY=    -8.1349
   XZ=     5.8998   YZ=    -9.5855   ZZ=   164.9249
   Eigenvalues:   161.6809   186.0679   197.5287
     16  H    Isotropic =    24.0303   Anisotropy =     7.1913
   XX=    24.7057   YX=    -3.0949   ZX=     2.0679
   XY=    -3.2191   YY=    24.3121   ZY=    -1.7792
   XZ=     1.6404   YZ=    -1.7936   ZZ=    23.0730
   Eigenvalues:    21.3442    21.9221    28.8245
     17  H    Isotropic =    23.6599   Anisotropy =     4.9109
   XX=    23.9959   YX=    -2.6246   ZX=    -1.0979
   XY=    -2.7929   YY=    24.2953   ZY=    -1.5500
   XZ=    -0.7169   YZ=    -1.6191   ZZ=    22.6885
   Eigenvalues:    20.1892    23.8567    26.9339
     18  H    Isotropic =    23.9017   Anisotropy =     4.8300
   XX=    25.2187   YX=    -2.3124   ZX=    -1.5324
   XY=    -2.5829   YY=    22.7460   ZY=    -0.4495
   XZ=    -1.5162   YZ=    -0.2147   ZZ=    23.7404
   Eigenvalues:    20.8096    23.7738    27.1217
     19  H    Isotropic =    23.4683   Anisotropy =     9.3734
   XX=    25.4218   YX=    -2.1517   ZX=    -4.6656
   XY=    -3.0562   YY=    22.0597   ZY=     1.1649
   XZ=    -4.0064   YZ=     1.2443   ZZ=    22.9235
   Eigenvalues:    19.4529    21.2348    29.7173
     20  H    Isotropic =    23.8660   Anisotropy =     4.0363
   XX=    23.6095   YX=    -1.1706   ZX=    -1.6768
   XY=    -1.2009   YY=    22.8877   ZY=    -1.9545
   XZ=    -1.5269   YZ=    -2.0683   ZZ=    25.1009
   Eigenvalues:    20.5556    24.4856    26.5569
     21  H    Isotropic =    26.7485   Anisotropy =     6.2095
   XX=    23.5713   YX=     1.1543   ZX=    -0.4772
   XY=    -0.2777   YY=    27.8780   ZY=    -2.7558
   XZ=    -1.1369   YZ=    -2.0368   ZZ=    28.7963
   Eigenvalues:    23.4477    25.9096    30.8881
     22  H    Isotropic =    28.6692   Anisotropy =     3.8456
   XX=    28.7506   YX=    -2.4735   ZX=    -1.4434
   XY=     0.3429   YY=    27.5577   ZY=     1.4168
   XZ=    -0.5358   YZ=     1.5632   ZZ=    29.6992
   Eigenvalues:    26.6415    28.1330    31.2329
     23  H    Isotropic =    28.1135   Anisotropy =     9.2113
   XX=    28.3061   YX=     2.6154   ZX=     5.5021
   XY=     2.7168   YY=    28.9408   ZY=     2.0237
   XZ=     4.2225   YZ=     0.8623   ZZ=    27.0936
   Eigenvalues:    22.7126    27.3736    34.2544
     24  H    Isotropic =    27.1860   Anisotropy =     7.0126
   XX=    30.2809   YX=     1.4093   ZX=    -2.7941
   XY=     2.5832   YY=    27.7050   ZY=    -1.5356
   XZ=    -1.2194   YZ=     0.4804   ZZ=    23.5721
   Eigenvalues:    23.0175    26.6794    31.8611
     25  H    Isotropic =    28.9567   Anisotropy =    19.0571
   XX=    25.6381   YX=    -2.8339   ZX=    -5.2359
   XY=    -4.2327   YY=    36.2094   ZY=     7.2106
   XZ=    -4.3494   YZ=     7.5343   ZZ=    25.0226
   Eigenvalues:    19.7241    25.4845    41.6614
     26  H    Isotropic =    30.0277   Anisotropy =     9.0933
   XX=    28.7767   YX=    -1.3179   ZX=     0.2017
   XY=     0.0812   YY=    34.1170   ZY=    -3.9770
   XZ=     0.3782   YZ=    -4.2378   ZZ=    27.1894
   Eigenvalues:    25.2803    28.7129    36.0899
     27  H    Isotropic =    30.4538   Anisotropy =     9.7092
   XX=    34.8756   YX=    -1.1441   ZX=     4.4588
   XY=    -0.9237   YY=    28.6012   ZY=     0.1412
   XZ=     3.9167   YZ=     0.1635   ZZ=    27.8846
   Eigenvalues:    25.8036    28.6312    36.9266
     28  H    Isotropic =    30.4853   Anisotropy =     8.5189
   XX=    29.7118   YX=    -3.2191   ZX=    -3.8079
   XY=    -2.2866   YY=    29.1286   ZY=     2.5792
   XZ=    -2.7224   YZ=     1.3039   ZZ=    32.6155
   Eigenvalues:    26.5026    28.7887    36.1646
     29  H    Isotropic =    31.3576   Anisotropy =     6.4970
   XX=    33.8359   YX=    -0.3335   ZX=    -4.0621
   XY=    -0.8261   YY=    30.6115   ZY=     1.5408
   XZ=    -1.7771   YZ=     1.9860   ZZ=    29.6252
   Eigenvalues:    27.5339    30.8499    35.6889
     30  H    Isotropic =    30.9500   Anisotropy =    11.7589
   XX=    28.2248   YX=     1.4617   ZX=    -0.2346
   XY=     2.2947   YY=    38.0597   ZY=    -2.3251
   XZ=     0.1755   YZ=    -2.0625   ZZ=    26.5655
   Eigenvalues:    26.1082    27.9525    38.7892
     31  H    Isotropic =    30.8093   Anisotropy =     6.0661
   XX=    30.8450   YX=     0.4891   ZX=     3.5859
   XY=     1.0037   YY=    30.9972   ZY=    -0.0106
   XZ=     4.0563   YZ=     1.6361   ZZ=    30.5858
   Eigenvalues:    26.8910    30.6836    34.8534
 End of Minotr Frequency-dependent properties file   721 does not exist.
 End of Minotr Frequency-dependent properties file   722 does not exist.

 **********************************************************************

            Population analysis using the SCF density.

 **********************************************************************

 Orbital symmetries:
       Occupied  (A) (A) (A) (A) (A) (A) (A) (A) (A) (A) (A) (A)
                 (A) (A) (A) (A) (A) (A) (A) (A) (A) (A) (A) (A)
                 (A) (A) (A) (A) (A) (A) (A) (A) (A) (A) (A) (A)
                 (A) (A) (A) (A) (A) (A) (A) (A) (A) (A) (A) (A)
                 (A) (A) (A) (A) (A) (A) (A) (A)
       Virtual   (A) (A) (A) (A) (A) (A) (A) (A) (A) (A) (A) (A)
                 (A) (A) (A) (A) (A) (A) (A) (A) (A) (A) (A) (A)
                 (A) (A) (A) (A) (A) (A) (A) (A) (A) (A) (A) (A)
                 (A) (A) (A) (A) (A) (A) (A) (A) (A) (A) (A) (A)
                 (A) (A) (A) (A) (A) (A) (A) (A) (A) (A) (A) (A)
                 (A) (A) (A) (A) (A) (A) (A) (A) (A) (A) (A) (A)
                 (A) (A) (A) (A) (A) (A) (A) (A) (A) (A) (A) (A)
                 (A) (A) (A) (A) (A) (A) (A) (A) (A) (A) (A) (A)
                 (A) (A) (A) (A) (A) (A) (A) (A) (A) (A) (A) (A)
                 (A) (A) (A) (A) (A) (A) (A) (A) (A) (A) (A) (A)
                 (A) (A) (A) (A) (A) (A) (A) (A) (A) (A) (A) (A)
                 (A) (A) (A) (A) (A) (A) (A) (A) (A) (A) (A) (A)
                 (A) (A) (A) (A) (A) (A) (A) (A) (A) (A) (A) (A)
                 (A) (A) (A) (A) (A) (A) (A) (A) (A) (A) (A) (A)
                 (A) (A) (A) (A) (A) (A) (A) (A) (A) (A) (A) (A)
                 (A) (A) (A) (A) (A) (A) (A) (A) (A) (A) (A) (A)
                 (A) (A) (A) (A) (A) (A) (A) (A) (A) (A) (A) (A)
                 (A) (A) (A) (A) (A) (A) (A) (A) (A) (A) (A) (A)
                 (A) (A) (A) (A) (A) (A) (A) (A) (A) (A) (A) (A)
                 (A) (A) (A) (A) (A) (A) (A) (A) (A) (A) (A) (A)
                 (A) (A) (A) (A) (A) (A) (A) (A) (A) (A) (A) (A)
                 (A) (A) (A) (A) (A) (A) (A) (A) (A) (A) (A) (A)
                 (A) (A) (A) (A) (A) (A) (A) (A) (A) (A) (A) (A)
                 (A) (A) (A) (A) (A) (A) (A) (A) (A) (A) (A) (A)
                 (A) (A) (A) (A) (A) (A) (A) (A) (A) (A) (A) (A)
                 (A) (A) (A) (A) (A) (A) (A) (A) (A)
 The electronic state is 1-A.
 Alpha  occ. eigenvalues --  -19.32924 -19.28310 -19.27631 -10.44058 -10.36064
 Alpha  occ. eigenvalues --  -10.34988 -10.31615 -10.31443 -10.30596 -10.30560
 Alpha  occ. eigenvalues --  -10.30506 -10.30495 -10.30400 -10.29270 -10.28582
 Alpha  occ. eigenvalues --   -1.21033  -1.13112  -1.12577  -0.96148  -0.91353
 Alpha  occ. eigenvalues --   -0.86707  -0.85318  -0.84601  -0.77975  -0.76246
 Alpha  occ. eigenvalues --   -0.70706  -0.70181  -0.67445  -0.64419  -0.62005
 Alpha  occ. eigenvalues --   -0.60556  -0.59229  -0.57881  -0.55760  -0.54536
 Alpha  occ. eigenvalues --   -0.53642  -0.53136  -0.51678  -0.51526  -0.50210
 Alpha  occ. eigenvalues --   -0.49096  -0.47415  -0.46563  -0.46207  -0.45128
 Alpha  occ. eigenvalues --   -0.44811  -0.43984  -0.43867  -0.42283  -0.41764
 Alpha  occ. eigenvalues --   -0.40570  -0.38868  -0.37301  -0.35960  -0.33129
 Alpha  occ. eigenvalues --   -0.32619
 Alpha virt. eigenvalues --    0.04964   0.05484   0.06258   0.07277   0.07474
 Alpha virt. eigenvalues --    0.08188   0.08593   0.09547   0.09885   0.10194
 Alpha virt. eigenvalues --    0.10827   0.11030   0.11831   0.12545   0.12710
 Alpha virt. eigenvalues --    0.13248   0.13487   0.14429   0.14645   0.15721
 Alpha virt. eigenvalues --    0.16173   0.16238   0.16929   0.17303   0.18171
 Alpha virt. eigenvalues --    0.18823   0.19080   0.19356   0.19880   0.20574
 Alpha virt. eigenvalues --    0.20813   0.21419   0.21923   0.22244   0.22777
 Alpha virt. eigenvalues --    0.23089   0.23831   0.24033   0.24509   0.25094
 Alpha virt. eigenvalues --    0.25294   0.25731   0.26294   0.26597   0.27103
 Alpha virt. eigenvalues --    0.27670   0.27814   0.27985   0.29360   0.29422
 Alpha virt. eigenvalues --    0.29770   0.30350   0.30789   0.31196   0.31320
 Alpha virt. eigenvalues --    0.31397   0.32228   0.33014   0.33113   0.33720
 Alpha virt. eigenvalues --    0.34132   0.34384   0.35385   0.35752   0.35906
 Alpha virt. eigenvalues --    0.36179   0.37081   0.37907   0.38215   0.39128
 Alpha virt. eigenvalues --    0.39486   0.39815   0.41024   0.41456   0.41993
 Alpha virt. eigenvalues --    0.42778   0.43407   0.43995   0.44410   0.44984
 Alpha virt. eigenvalues --    0.45318   0.45568   0.46688   0.47684   0.48666
 Alpha virt. eigenvalues --    0.49404   0.50509   0.50744   0.53130   0.55077
 Alpha virt. eigenvalues --    0.55683   0.56418   0.61960   0.66380   0.69591
 Alpha virt. eigenvalues --    0.73215   0.73907   0.75253   0.75608   0.76551
 Alpha virt. eigenvalues --    0.77004   0.78994   0.79292   0.81037   0.81070
 Alpha virt. eigenvalues --    0.81436   0.82613   0.83672   0.84253   0.85362
 Alpha virt. eigenvalues --    0.85796   0.86891   0.87322   0.88943   0.89964
 Alpha virt. eigenvalues --    0.90845   0.91512   0.93323   0.95652   0.97724
 Alpha virt. eigenvalues --    0.98629   0.98720   1.00097   1.01052   1.02724
 Alpha virt. eigenvalues --    1.03394   1.04414   1.05039   1.06757   1.08198
 Alpha virt. eigenvalues --    1.08987   1.09502   1.10794   1.11613   1.13166
 Alpha virt. eigenvalues --    1.14662   1.15508   1.16832   1.18455   1.19546
 Alpha virt. eigenvalues --    1.20493   1.21766   1.22948   1.23336   1.24461
 Alpha virt. eigenvalues --    1.25652   1.27674   1.27829   1.30146   1.30874
 Alpha virt. eigenvalues --    1.32457   1.34105   1.35817   1.36330   1.37562
 Alpha virt. eigenvalues --    1.40356   1.42434   1.42679   1.43700   1.44945
 Alpha virt. eigenvalues --    1.45969   1.47400   1.48023   1.50315   1.50961
 Alpha virt. eigenvalues --    1.51153   1.53877   1.54935   1.55239   1.56958
 Alpha virt. eigenvalues --    1.57516   1.59635   1.61994   1.62709   1.65622
 Alpha virt. eigenvalues --    1.69702   1.70969   1.72362   1.73985   1.76775
 Alpha virt. eigenvalues --    1.77226   1.79880   1.84996   1.85249   1.87232
 Alpha virt. eigenvalues --    1.88369   1.89728   1.92571   1.94123   1.96238
 Alpha virt. eigenvalues --    1.98054   1.98193   1.99858   2.00254   2.01160
 Alpha virt. eigenvalues --    2.02106   2.03104   2.03880   2.05351   2.06320
 Alpha virt. eigenvalues --    2.07673   2.09194   2.10051   2.10387   2.10873
 Alpha virt. eigenvalues --    2.12059   2.13643   2.15351   2.16162   2.18158
 Alpha virt. eigenvalues --    2.19234   2.20829   2.21786   2.22490   2.23128
 Alpha virt. eigenvalues --    2.24940   2.26640   2.27020   2.28014   2.30013
 Alpha virt. eigenvalues --    2.31830   2.36320   2.38047   2.38901   2.39806
 Alpha virt. eigenvalues --    2.40505   2.42739   2.44679   2.46933   2.48416
 Alpha virt. eigenvalues --    2.49516   2.50080   2.51063   2.52098   2.55003
 Alpha virt. eigenvalues --    2.56227   2.56842   2.57581   2.59977   2.61378
 Alpha virt. eigenvalues --    2.62749   2.64042   2.65009   2.66397   2.68782
 Alpha virt. eigenvalues --    2.70007   2.72067   2.73276   2.73625   2.74295
 Alpha virt. eigenvalues --    2.76536   2.79009   2.81414   2.82180   2.83505
 Alpha virt. eigenvalues --    2.84712   2.84743   2.85861   2.88872   2.89948
 Alpha virt. eigenvalues --    2.91376   2.92702   2.94418   2.95347   2.96600
 Alpha virt. eigenvalues --    2.98080   3.00565   3.03715   3.07609   3.08903
 Alpha virt. eigenvalues --    3.11720   3.14550   3.16980   3.19188   3.25624
 Alpha virt. eigenvalues --    3.27891   3.31483   3.36908   3.37672   3.38374
 Alpha virt. eigenvalues --    3.39447   3.43261   3.45176   3.49320   3.52457
 Alpha virt. eigenvalues --    3.54347   3.58309   3.59336   3.60431   3.62479
 Alpha virt. eigenvalues --    3.62825   3.66477   3.68145   3.99924   4.42483
 Alpha virt. eigenvalues --    4.44836   4.46174   4.52053   4.53513   4.56243
 Alpha virt. eigenvalues --    4.58848   4.62525   4.63701   4.68533   4.72562
 Alpha virt. eigenvalues --    4.76170   4.83086   4.95169   4.98000
          Condensed to atoms (all electrons):
              1          2          3          4          5          6
     1  C   18.549723  -0.843172  -2.339357  -6.261902  -7.841942   0.240716
     2  C   -0.843172   6.795440   0.462061   0.374335  -0.285821   0.199477
     3  C   -2.339357   0.462061   7.196429   1.476743   0.201753   0.203907
     4  C   -6.261902   0.374335   1.476743  17.438254  -1.135473  -1.038431
     5  C   -7.841942  -0.285821   0.201753  -1.135473  16.664633   0.660626
     6  C    0.240716   0.199477   0.203907  -1.038431   0.660626   5.525614
     7  C    5.438733  -1.023850  -1.491383  -6.225911  -2.948431   0.136577
     8  C   -0.744765   0.172660   0.223477   0.927711   0.347080  -0.055062
     9  C   -0.656539   0.010556  -0.040515   0.505587   0.529047   0.024709
    10  O    0.017218   0.002802   0.014107   0.039972  -0.053844  -0.003437
    11  C    0.065589  -0.000759  -0.014614  -0.017872  -0.031438  -0.000485
    12  O   -0.069257   0.068315  -0.034301   0.198964   0.001454  -0.001668
    13  C    0.150950  -0.013852  -0.039717  -0.416711  -0.102364   0.009966
    14  O    0.018722  -0.005445  -0.001318   0.000865  -0.022582   0.002648
    15  C   -0.005749  -0.001272   0.011805  -0.007595   0.006938  -0.004171
    16  H    0.150391   0.007389   0.059309   0.124425  -0.015018  -0.013332
    17  H    0.004587   0.265386  -0.003810   0.040873   0.015802   0.002107
    18  H    0.052480  -0.004410   0.238990   0.008538  -0.003363   0.029493
    19  H    0.026993  -0.021768  -0.002395   0.032170   0.234776  -0.012055
    20  H    0.011998   0.020232   0.014202  -0.003327  -0.005995   0.288518
    21  H    0.163982   0.000455   0.050057   0.061287  -0.182446  -0.005274
    22  H    0.073496  -0.023185   0.002059   0.064649  -0.134872  -0.003308
    23  H    0.000206   0.000254   0.001068   0.000381  -0.001713  -0.000074
    24  H   -0.004302   0.000182  -0.000143   0.005772   0.000843  -0.000247
    25  H    0.014318  -0.008001   0.001354  -0.048700   0.013009   0.001019
    26  H   -0.004694   0.003726   0.000324  -0.001591   0.015755  -0.000034
    27  H    0.000485  -0.000168  -0.000241  -0.003199  -0.003529   0.000024
    28  H    0.013799  -0.001204  -0.000060  -0.019165  -0.016405  -0.000036
    29  H    0.000411  -0.000142  -0.000723  -0.000191   0.003750  -0.001422
    30  H   -0.000589  -0.000075  -0.000510  -0.000140   0.000128   0.000543
    31  H   -0.012028   0.002388   0.014455   0.004405  -0.004664  -0.002307
              7          8          9         10         11         12
     1  C    5.438733  -0.744765  -0.656539   0.017218   0.065589  -0.069257
     2  C   -1.023850   0.172660   0.010556   0.002802  -0.000759   0.068315
     3  C   -1.491383   0.223477  -0.040515   0.014107  -0.014614  -0.034301
     4  C   -6.225911   0.927711   0.505587   0.039972  -0.017872   0.198964
     5  C   -2.948431   0.347080   0.529047  -0.053844  -0.031438   0.001454
     6  C    0.136577  -0.055062   0.024709  -0.003437  -0.000485  -0.001668
     7  C   13.520087  -1.833551  -0.378218  -0.035787  -0.006427  -0.072250
     8  C   -1.833551   8.444124  -0.893768  -0.162800   0.013206  -0.014182
     9  C   -0.378218  -0.893768   6.519183   0.278567  -0.171415   0.045353
    10  O   -0.035787  -0.162800   0.278567   8.353480   0.086161  -0.002689
    11  C   -0.006427   0.013206  -0.171415   0.086161   5.126496  -0.000733
    12  O   -0.072250  -0.014182   0.045353  -0.002689  -0.000733   8.325766
    13  C    0.554600  -0.593794  -0.175756  -0.030945  -0.021039  -0.075162
    14  O    0.014862  -0.128134   0.680697  -0.163152  -0.008579  -0.002721
    15  C   -0.003629   0.015585  -0.070433  -0.037336   0.300816  -0.000230
    16  H    0.001508  -0.006599   0.007777  -0.000409  -0.004001  -0.000101
    17  H    0.001813  -0.000245   0.000150  -0.000012  -0.000046   0.000025
    18  H    0.003485  -0.001318   0.001238  -0.000043  -0.000023   0.000013
    19  H    0.039523   0.009597  -0.003940  -0.000343   0.000056   0.002488
    20  H    0.001617  -0.000403  -0.000224   0.000008   0.000095  -0.000004
    21  H    0.234485   0.047216  -0.020947   0.000829   0.000600  -0.049811
    22  H    0.050301   0.333852  -0.027394  -0.000432   0.000545  -0.004196
    23  H   -0.001270  -0.002668   0.018861  -0.059037   0.413765  -0.000001
    24  H   -0.004130   0.008130  -0.001215  -0.036333   0.403810  -0.000002
    25  H    0.087730  -0.077234  -0.005696   0.000045   0.000033   0.243474
    26  H   -0.060717  -0.025355  -0.009960  -0.000069   0.000038   0.013435
    27  H    0.041536  -0.175022   0.027907   0.003711   0.000823   0.000188
    28  H    0.057956  -0.087465  -0.012665   0.000019  -0.000763  -0.007544
    29  H   -0.001052   0.001887   0.003615  -0.003686  -0.036251  -0.000002
    30  H    0.000260   0.000754   0.009911   0.006448  -0.048051   0.000000
    31  H   -0.006196   0.002990   0.000431  -0.006509  -0.045203   0.000004
             13         14         15         16         17         18
     1  C    0.150950   0.018722  -0.005749   0.150391   0.004587   0.052480
     2  C   -0.013852  -0.005445  -0.001272   0.007389   0.265386  -0.004410
     3  C   -0.039717  -0.001318   0.011805   0.059309  -0.003810   0.238990
     4  C   -0.416711   0.000865  -0.007595   0.124425   0.040873   0.008538
     5  C   -0.102364  -0.022582   0.006938  -0.015018   0.015802  -0.003363
     6  C    0.009966   0.002648  -0.004171  -0.013332   0.002107   0.029493
     7  C    0.554600   0.014862  -0.003629   0.001508   0.001813   0.003485
     8  C   -0.593794  -0.128134   0.015585  -0.006599  -0.000245  -0.001318
     9  C   -0.175756   0.680697  -0.070433   0.007777   0.000150   0.001238
    10  O   -0.030945  -0.163152  -0.037336  -0.000409  -0.000012  -0.000043
    11  C   -0.021039  -0.008579   0.300816  -0.004001  -0.000046  -0.000023
    12  O   -0.075162  -0.002721  -0.000230  -0.000101   0.000025   0.000013
    13  C    6.105014  -0.047785  -0.000376   0.000410   0.000124   0.000075
    14  O   -0.047785   8.109224  -0.026241   0.000501   0.000002  -0.000032
    15  C   -0.000376  -0.026241   5.184265   0.001849   0.000046   0.000881
    16  H    0.000410   0.000501   0.001849   0.514325   0.000012  -0.003856
    17  H    0.000124   0.000002   0.000046   0.000012   0.496614  -0.000123
    18  H    0.000075  -0.000032   0.000881  -0.003856  -0.000123   0.501415
    19  H    0.013436  -0.000045   0.000093  -0.000111  -0.003891   0.000011
    20  H   -0.000028   0.000001   0.000040  -0.000126  -0.003804  -0.003782
    21  H   -0.043511   0.006373  -0.000317   0.002262   0.000002  -0.000007
    22  H   -0.037523   0.007164  -0.000446   0.000002   0.000002   0.000000
    23  H    0.000172   0.000136  -0.037872   0.000000   0.000000   0.000000
    24  H   -0.000431   0.000864  -0.040479  -0.000001   0.000000   0.000000
    25  H    0.035413   0.000018   0.000033  -0.000001   0.000000   0.000000
    26  H    0.435151   0.000408  -0.000003   0.000000   0.000000   0.000000
    27  H    0.465314  -0.000366   0.000545   0.000000   0.000000   0.000000
    28  H    0.421845   0.002164  -0.000089   0.000001   0.000000   0.000000
    29  H   -0.000149  -0.000613   0.397705  -0.000010   0.000000  -0.000009
    30  H    0.000312  -0.000412   0.395135   0.000003   0.000000   0.000001
    31  H   -0.000467   0.001369   0.413133   0.000176   0.000000  -0.000026
             19         20         21         22         23         24
     1  C    0.026993   0.011998   0.163982   0.073496   0.000206  -0.004302
     2  C   -0.021768   0.020232   0.000455  -0.023185   0.000254   0.000182
     3  C   -0.002395   0.014202   0.050057   0.002059   0.001068  -0.000143
     4  C    0.032170  -0.003327   0.061287   0.064649   0.000381   0.005772
     5  C    0.234776  -0.005995  -0.182446  -0.134872  -0.001713   0.000843
     6  C   -0.012055   0.288518  -0.005274  -0.003308  -0.000074  -0.000247
     7  C    0.039523   0.001617   0.234485   0.050301  -0.001270  -0.004130
     8  C    0.009597  -0.000403   0.047216   0.333852  -0.002668   0.008130
     9  C   -0.003940  -0.000224  -0.020947  -0.027394   0.018861  -0.001215
    10  O   -0.000343   0.000008   0.000829  -0.000432  -0.059037  -0.036333
    11  C    0.000056   0.000095   0.000600   0.000545   0.413765   0.403810
    12  O    0.002488  -0.000004  -0.049811  -0.004196  -0.000001  -0.000002
    13  C    0.013436  -0.000028  -0.043511  -0.037523   0.000172  -0.000431
    14  O   -0.000045   0.000001   0.006373   0.007164   0.000136   0.000864
    15  C    0.000093   0.000040  -0.000317  -0.000446  -0.037872  -0.040479
    16  H   -0.000111  -0.000126   0.002262   0.000002   0.000000  -0.000001
    17  H   -0.003891  -0.003804   0.000002   0.000002   0.000000   0.000000
    18  H    0.000011  -0.003782  -0.000007   0.000000   0.000000   0.000000
    19  H    0.504485  -0.000119  -0.000048  -0.000255   0.000000   0.000000
    20  H   -0.000119   0.499703   0.000000   0.000000   0.000000   0.000000
    21  H   -0.000048   0.000000   0.567179   0.003609   0.000000  -0.000002
    22  H   -0.000255   0.000000   0.003609   0.498903  -0.000025  -0.000012
    23  H    0.000000   0.000000   0.000000  -0.000025   0.527414  -0.031553
    24  H    0.000000   0.000000  -0.000002  -0.000012  -0.031553   0.522046
    25  H    0.000058   0.000000  -0.008835   0.000001   0.000000   0.000000
    26  H   -0.000004   0.000000   0.000109  -0.003625   0.000000   0.000000
    27  H    0.000002   0.000000  -0.000020  -0.002394   0.000001  -0.000004
    28  H   -0.000001   0.000000   0.002326   0.003878   0.000000  -0.000005
    29  H    0.000000  -0.000001  -0.000001  -0.000011  -0.004938   0.003765
    30  H    0.000000   0.000000   0.000000   0.000000  -0.001302  -0.000867
    31  H    0.000000  -0.000001   0.000009  -0.000004   0.003940  -0.005141
             25         26         27         28         29         30
     1  C    0.014318  -0.004694   0.000485   0.013799   0.000411  -0.000589
     2  C   -0.008001   0.003726  -0.000168  -0.001204  -0.000142  -0.000075
     3  C    0.001354   0.000324  -0.000241  -0.000060  -0.000723  -0.000510
     4  C   -0.048700  -0.001591  -0.003199  -0.019165  -0.000191  -0.000140
     5  C    0.013009   0.015755  -0.003529  -0.016405   0.003750   0.000128
     6  C    0.001019  -0.000034   0.000024  -0.000036  -0.001422   0.000543
     7  C    0.087730  -0.060717   0.041536   0.057956  -0.001052   0.000260
     8  C   -0.077234  -0.025355  -0.175022  -0.087465   0.001887   0.000754
     9  C   -0.005696  -0.009960   0.027907  -0.012665   0.003615   0.009911
    10  O    0.000045  -0.000069   0.003711   0.000019  -0.003686   0.006448
    11  C    0.000033   0.000038   0.000823  -0.000763  -0.036251  -0.048051
    12  O    0.243474   0.013435   0.000188  -0.007544  -0.000002   0.000000
    13  C    0.035413   0.435151   0.465314   0.421845  -0.000149   0.000312
    14  O    0.000018   0.000408  -0.000366   0.002164  -0.000613  -0.000412
    15  C    0.000033  -0.000003   0.000545  -0.000089   0.397705   0.395135
    16  H   -0.000001   0.000000   0.000000   0.000001  -0.000010   0.000003
    17  H    0.000000   0.000000   0.000000   0.000000   0.000000   0.000000
    18  H    0.000000   0.000000   0.000000   0.000000  -0.000009   0.000001
    19  H    0.000058  -0.000004   0.000002  -0.000001   0.000000   0.000000
    20  H    0.000000   0.000000   0.000000   0.000000  -0.000001   0.000000
    21  H   -0.008835   0.000109  -0.000020   0.002326  -0.000001   0.000000
    22  H    0.000001  -0.003625  -0.002394   0.003878  -0.000011   0.000000
    23  H    0.000000   0.000000   0.000001   0.000000  -0.004938  -0.001302
    24  H    0.000000   0.000000  -0.000004  -0.000005   0.003765  -0.000867
    25  H    0.348395  -0.001496   0.000000   0.000400   0.000000   0.000000
    26  H   -0.001496   0.500703  -0.022873  -0.025707   0.000000   0.000000
    27  H    0.000000  -0.022873   0.509282  -0.023693   0.000000   0.000000
    28  H    0.000400  -0.025707  -0.023693   0.507887   0.000000   0.000000
    29  H    0.000000   0.000000   0.000000   0.000000   0.514417  -0.023212
    30  H    0.000000   0.000000   0.000000   0.000000  -0.023212   0.507689
    31  H    0.000000   0.000000   0.000000   0.000000  -0.029110  -0.022856
             31
     1  C   -0.012028
     2  C    0.002388
     3  C    0.014455
     4  C    0.004405
     5  C   -0.004664
     6  C   -0.002307
     7  C   -0.006196
     8  C    0.002990
     9  C    0.000431
    10  O   -0.006509
    11  C   -0.045203
    12  O    0.000004
    13  C   -0.000467
    14  O    0.001369
    15  C    0.413133
    16  H    0.000176
    17  H    0.000000
    18  H   -0.000026
    19  H    0.000000
    20  H   -0.000001
    21  H    0.000009
    22  H   -0.000004
    23  H    0.003940
    24  H   -0.005141
    25  H    0.000000
    26  H    0.000000
    27  H    0.000000
    28  H    0.000000
    29  H   -0.029110
    30  H   -0.022856
    31  H    0.511418
 Mulliken atomic charges:
              1
     1  C   -0.210502
     2  C   -0.152533
     3  C   -0.203013
     4  C   -0.124723
     5  C    0.094308
     6  C   -0.184602
     7  C   -0.092272
     8  C    0.254097
     9  C   -0.194904
    10  O   -0.206504
    11  C   -0.004335
    12  O   -0.564625
    13  C   -0.593169
    14  O   -0.438593
    15  C   -0.492632
    16  H    0.173228
    17  H    0.184388
    18  H    0.180371
    19  H    0.181284
    20  H    0.181402
    21  H    0.170438
    22  H    0.199221
    23  H    0.174257
    24  H    0.179454
    25  H    0.404662
    26  H    0.186480
    27  H    0.181692
    28  H    0.184528
    29  H    0.175975
    30  H    0.176830
    31  H    0.179793
 Sum of Mulliken atomic charges =   0.00000
 Mulliken charges with hydrogens summed into heavy atoms:
              1
     1  C   -0.037274
     2  C    0.031855
     3  C   -0.022643
     4  C   -0.124723
     5  C    0.275592
     6  C   -0.003200
     7  C    0.078166
     8  C    0.453318
     9  C   -0.194904
    10  O   -0.206504
    11  C    0.349376
    12  O   -0.159963
    13  C   -0.040470
    14  O   -0.438593
    15  C    0.039966
 Sum of Mulliken charges with hydrogens summed into heavy atoms =   0.00000
 Electronic spatial extent (au):  <R**2>=           3287.2994
 Charge=              0.0000 electrons
 Dipole moment (field-independent basis, Debye):
    X=             -1.2533    Y=             -0.7616    Z=             -0.8322  Tot=              1.6863
 Quadrupole moment (field-independent basis, Debye-Ang):
   XX=            -88.5856   YY=            -78.1904   ZZ=            -89.8211
   XY=             -5.8858   XZ=              2.3738   YZ=              2.7252
 Traceless Quadrupole moment (field-independent basis, Debye-Ang):
   XX=             -3.0533   YY=              7.3420   ZZ=             -4.2887
   XY=             -5.8858   XZ=              2.3738   YZ=              2.7252
 Octapole moment (field-independent basis, Debye-Ang**2):
  XXX=            -21.2680  YYY=              5.3960  ZZZ=             -3.3197  XYY=            -34.9307
  XXY=            -27.9545  XXZ=            -26.6627  XZZ=              9.4539  YZZ=              6.3123
  YYZ=             14.7271  XYZ=             -8.0298
 Hexadecapole moment (field-independent basis, Debye-Ang**3):
 XXXX=          -2220.8341 YYYY=          -1516.5989 ZZZZ=           -439.1510 XXXY=            -30.2714
 XXXZ=            -25.5976 YYYX=             -2.6716 YYYZ=             61.8766 ZZZX=             -0.4582
 ZZZY=              0.7397 XXYY=           -604.9124 XXZZ=           -451.1761 YYZZ=           -332.7166
 XXYZ=              1.1216 YYXZ=             15.4912 ZZXY=             -0.1652
 N-N= 1.026878201783D+03 E-N=-3.665905107703D+03  KE= 6.859206839296D+02
 1\1\GINC-COMPUTE-5-22\SP\RwB97XD\6-31+G(d,p)\C12H16O3\ELUCIANO.IQUIR\1
 7-May-2022\0\\# wb97xd/6-31+g** scrf=(pcm,solvent=chloroform,smd,dovac
 uum) nmr\\comment\\0,1\C,0,1.450459462,0.377719842,-1.332858234\C,0,0.
 053906291,2.733713081,-1.853720092\C,0,1.210513787,0.772607149,-2.6503
 24748\C,0,0.994280482,1.156665061,-0.257814622\C,0,0.291771806,2.33922
 9538,-0.536070644\C,0,0.512323311,1.949811915,-2.910179609\C,0,1.22738
 7645,0.695311861,1.168845403\C,0,-0.028224232,0.061977826,1.787183236\
 C,0,-0.344821034,-1.220885248,1.053334395\O,0,-1.632943666,-1.21220392
 7,0.61427672\C,0,-2.051488673,-2.366084639,-0.128355601\O,0,1.63033672
 7,1.833987497,1.938780957\C,0,0.141417729,-0.25977645,3.271633787\O,0,
 0.451320476,-2.138337654,0.897902898\C,0,-1.677713384,-2.212631599,-1.
 590910583\H,0,1.99114382,-0.549550805,-1.151081299\H,0,-0.486898191,3.
 654836013,-2.053734105\H,0,1.568611898,0.160120924,-3.47364141\H,0,-0.
 066484681,2.963526478,0.280309845\H,0,0.327770979,2.258024778,-3.93570
 6554\H,0,2.070150305,-0.008200756,1.181837496\H,0,-0.875407732,0.75427
 1943,1.695389769\H,0,-3.140275491,-2.429814046,-0.032028907\H,0,-1.635
 957851,-3.286005944,0.298602062\H,0,2.211678264,1.509113954,2.64668375
 4\H,0,0.26306974,0.653016879,3.863361666\H,0,-0.735306642,-0.792594965
 ,3.656492741\H,0,1.015431822,-0.897828786,3.443447077\H,0,-2.082606015
 ,-1.279601594,-1.996431583\H,0,-2.062068835,-3.050662868,-2.179119662\
 H,0,-0.591378118,-2.16975546,-1.716104152\\Version=EM64L-G09RevC.01\St
 ate=1-A\HF=-692.4464271\RMSD=3.547e-09\Dipole=-0.5647865,-0.326538,0.1
 205372\Quadrupole=-0.3050379,-6.0487835,6.3538214,1.0544767,2.9033988,
 0.9271974\PG=C01 [X(C12H16O3)]\\@


 UNLESS WE CHANGE DIRECTIONS, WE WILL WIND UP WHERE WE ARE HEADED.
     -- CONFUCIUS
 Job cpu time:  0 days  0 hours 47 minutes  1.4 seconds.
 File lengths (MBytes):  RWF=    123 Int=      0 D2E=      0 Chk=      9 Scr=      1
 Normal termination of Gaussian 09 at Tue May 17 16:35:18 2022.
