 Entering Gaussian System, Link 0=g09
 Input=/home/eluciano.iquir/wb9/73a_021.gjc
 Output=/home/eluciano.iquir/wb9/73a_021.log
 Initial command:
 /share/apps/Gaussian09/EM64T.SSE4.2-enabled/g09/l1.exe /tmp/Gau-51315.inp -scrdir=/tmp/
 Entering Link 1 = /share/apps/Gaussian09/EM64T.SSE4.2-enabled/g09/l1.exe PID=     51316.
  
 Copyright (c) 1988,1990,1992,1993,1995,1998,2003,2009,2011,
            Gaussian, Inc.  All Rights Reserved.
  
 This is part of the Gaussian(R) 09 program.  It is based on
 the Gaussian(R) 03 system (copyright 2003, Gaussian, Inc.),
 the Gaussian(R) 98 system (copyright 1998, Gaussian, Inc.),
 the Gaussian(R) 94 system (copyright 1995, Gaussian, Inc.),
 the Gaussian 92(TM) system (copyright 1992, Gaussian, Inc.),
 the Gaussian 90(TM) system (copyright 1990, Gaussian, Inc.),
 the Gaussian 88(TM) system (copyright 1988, Gaussian, Inc.),
 the Gaussian 86(TM) system (copyright 1986, Carnegie Mellon
 University), and the Gaussian 82(TM) system (copyright 1983,
 Carnegie Mellon University). Gaussian is a federally registered
 trademark of Gaussian, Inc.
  
 This software contains proprietary and confidential information,
 including trade secrets, belonging to Gaussian, Inc.
  
 This software is provided under written license and may be
 used, copied, transmitted, or stored only in accord with that
 written license.
  
 The following legend is applicable only to US Government
 contracts under FAR:
  
                    RESTRICTED RIGHTS LEGEND
  
 Use, reproduction and disclosure by the US Government is
 subject to restrictions as set forth in subparagraphs (a)
 and (c) of the Commercial Computer Software - Restricted
 Rights clause in FAR 52.227-19.
  
 Gaussian, Inc.
 340 Quinnipiac St., Bldg. 40, Wallingford CT 06492
  
  
 ---------------------------------------------------------------
 Warning -- This program may not be used in any manner that
 competes with the business of Gaussian, Inc. or will provide
 assistance to any competitor of Gaussian, Inc.  The licensee
 of this program is prohibited from giving any competitor of
 Gaussian, Inc. access to this program.  By using this program,
 the user acknowledges that Gaussian, Inc. is engaged in the
 business of creating and licensing software in the field of
 computational chemistry and represents and warrants to the
 licensee that it is not a competitor of Gaussian, Inc. and that
 it will not use this program in any manner prohibited above.
 ---------------------------------------------------------------
  

 Cite this work as:
 Gaussian 09, Revision C.01,
 M. J. Frisch, G. W. Trucks, H. B. Schlegel, G. E. Scuseria, 
 M. A. Robb, J. R. Cheeseman, G. Scalmani, V. Barone, B. Mennucci, 
 G. A. Petersson, H. Nakatsuji, M. Caricato, X. Li, H. P. Hratchian, 
 A. F. Izmaylov, J. Bloino, G. Zheng, J. L. Sonnenberg, M. Hada, 
 M. Ehara, K. Toyota, R. Fukuda, J. Hasegawa, M. Ishida, T. Nakajima, 
 Y. Honda, O. Kitao, H. Nakai, T. Vreven, J. A. Montgomery, Jr., 
 J. E. Peralta, F. Ogliaro, M. Bearpark, J. J. Heyd, E. Brothers, 
 K. N. Kudin, V. N. Staroverov, T. Keith, R. Kobayashi, J. Normand, 
 K. Raghavachari, A. Rendell, J. C. Burant, S. S. Iyengar, J. Tomasi, 
 M. Cossi, N. Rega, J. M. Millam, M. Klene, J. E. Knox, J. B. Cross, 
 V. Bakken, C. Adamo, J. Jaramillo, R. Gomperts, R. E. Stratmann, 
 O. Yazyev, A. J. Austin, R. Cammi, C. Pomelli, J. W. Ochterski, 
 R. L. Martin, K. Morokuma, V. G. Zakrzewski, G. A. Voth, 
 P. Salvador, J. J. Dannenberg, S. Dapprich, A. D. Daniels, 
 O. Farkas, J. B. Foresman, J. V. Ortiz, J. Cioslowski, 
 and D. J. Fox, Gaussian, Inc., Wallingford CT, 2010.
 
 ******************************************
 Gaussian 09:  EM64L-G09RevC.01 23-Sep-2011
                17-May-2022 
 ******************************************
 %nprocshared=4
 Will use up to    4 processors via shared memory.
 ----------------------------------------------------------------
 # wb97xd/6-31+g** scrf=(pcm,solvent=chloroform,smd,dovacuum) nmr
 ----------------------------------------------------------------
 1/38=1/1;
 2/12=2,17=6,18=5,40=1/2;
 3/5=1,6=6,7=111,11=2,16=1,25=1,30=1,70=32101,72=7,74=-58/1,2,8,3;
 4//1;
 5/5=2,38=5,53=7/2;
 8/6=1,10=90,11=11/1;
 10/13=100,45=16/2;
 6/7=2,8=2,9=2,10=2,28=1/1;
 99/9=1/99;
 -------
 comment
 -------
 Charge =  0 Multiplicity = 1
 Symbolic Z-Matrix:
 6                    -0.47775   2.8933    0.34636 
 6                     1.56467   3.22595   2.21285 
 6                    -0.42295   4.05109   1.1251 
 6                     0.49028   1.88513   0.48944 
 6                     1.51054   2.06765   1.43504 
 6                     0.59805   4.21681   2.05799 
 6                     0.39236   0.62525  -0.35261 
 6                    -0.59725  -0.38745   0.25169 
 6                    -1.10747  -1.29804  -0.8431 
 8                    -0.07957  -1.92661  -1.4828 
 6                    -0.45776  -2.84423  -2.52163 
 8                     1.69497   0.05656  -0.51398 
 6                    -0.03704  -1.22755   1.39761 
 8                    -2.29375  -1.4507   -1.10164 
 6                    -0.73577  -4.21377  -1.93147 
 1                    -1.28437   2.78339  -0.37553 
 1                     2.36414   3.35352   2.93786 
 1                    -1.17715   4.82415   1.00307 
 1                     2.27554   1.30485   1.56729 
 1                     0.64201   5.11837   2.66304 
 1                     0.06784   0.92569  -1.35774 
 1                    -1.48151   0.14897   0.62232 
 1                     0.38734  -2.90644  -3.21496 
 1                    -1.31529  -2.46945  -3.09196 
 1                     1.59418  -0.72173  -1.0922 
 1                     0.26327  -0.59674   2.2396 
 1                    -0.79387  -1.9317    1.76142 
 1                     0.82961  -1.82105   1.08778 
 1                     0.13109  -4.5718   -1.36637 
 1                    -0.96664  -4.93614  -2.71943 
 1                    -1.57775  -4.17729  -1.23303 
 
                          Input orientation:                          
 ---------------------------------------------------------------------
 Center     Atomic      Atomic             Coordinates (Angstroms)
 Number     Number       Type             X           Y           Z
 ---------------------------------------------------------------------
      1          6           0       -0.477755    2.893297    0.346364
      2          6           0        1.564670    3.225952    2.212846
      3          6           0       -0.422953    4.051095    1.125101
      4          6           0        0.490284    1.885129    0.489436
      5          6           0        1.510545    2.067646    1.435044
      6          6           0        0.598047    4.216814    2.057988
      7          6           0        0.392364    0.625254   -0.352612
      8          6           0       -0.597246   -0.387452    0.251692
      9          6           0       -1.107469   -1.298040   -0.843105
     10          8           0       -0.079566   -1.926610   -1.482795
     11          6           0       -0.457762   -2.844231   -2.521629
     12          8           0        1.694967    0.056563   -0.513982
     13          6           0       -0.037043   -1.227545    1.397606
     14          8           0       -2.293747   -1.450699   -1.101636
     15          6           0       -0.735771   -4.213772   -1.931471
     16          1           0       -1.284368    2.783390   -0.375535
     17          1           0        2.364142    3.353516    2.937863
     18          1           0       -1.177150    4.824153    1.003073
     19          1           0        2.275542    1.304849    1.567286
     20          1           0        0.642014    5.118367    2.663037
     21          1           0        0.067840    0.925691   -1.357742
     22          1           0       -1.481513    0.148975    0.622322
     23          1           0        0.387343   -2.906436   -3.214958
     24          1           0       -1.315287   -2.469451   -3.091964
     25          1           0        1.594181   -0.721727   -1.092198
     26          1           0        0.263271   -0.596737    2.239600
     27          1           0       -0.793875   -1.931703    1.761420
     28          1           0        0.829606   -1.821054    1.087776
     29          1           0        0.131087   -4.571803   -1.366368
     30          1           0       -0.966643   -4.936144   -2.719427
     31          1           0       -1.577753   -4.177286   -1.233031
 ---------------------------------------------------------------------
                    Distance matrix (angstroms):
                    1          2          3          4          5
     1  C    0.000000
     2  C    2.786739   0.000000
     3  C    1.396400   2.411367   0.000000
     4  C    1.404981   2.433568   2.435052   0.000000
     5  C    2.412521   1.396273   2.787211   1.403004   0.000000
     6  C    2.416341   1.392892   1.392903   2.812245   2.416533
     7  C    2.527784   3.836600   3.819000   1.518525   2.554709
     8  C    3.284289   4.645072   4.527022   2.530586   3.445376
     9  C    4.402122   6.078294   5.740700   3.802767   4.834439
    10  O    5.170675   6.550586   6.530850   4.329409   5.195799
    11  C    6.414437   7.959434   7.800344   5.686136   6.607271
    12  O    3.675319   4.183012   4.809206   2.408685   2.806629
    13  C    4.275591   4.802472   5.299738   3.285055   3.640703
    14  O    4.925935   6.909720   6.223180   4.627103   5.769414
    15  C    7.467632   8.821388   8.817512   6.675372   7.472321
    16  H    1.088045   3.874609   2.144999   2.168971   3.406174
    17  H    3.873506   1.086774   3.397148   3.415011   2.154195
    18  H    2.156067   3.396376   1.086887   3.417897   3.874097
    19  H    3.405064   2.147725   3.875469   2.164632   1.088378
    20  H    3.401734   2.152951   2.153711   3.898896   3.401354
    21  H    2.659535   4.503421   4.021634   2.123923   3.344415
    22  H    2.935130   4.612676   4.074295   2.630565   3.646125
    23  H    6.860634   8.273653   8.240141   6.057410   6.901130
    24  H    6.425156   8.298962   7.816484   5.920209   7.004597
    25  H    4.408035   5.148626   5.636051   3.242815   3.764910
    26  H    4.039034   4.038230   4.828597   3.045368   3.049908
    27  H    5.038149   5.689282   6.027965   4.223176   4.627274
    28  H    4.948130   5.222870   6.004367   3.769475   3.963112
    29  H    7.683219   8.698903   8.992705   6.727927   7.337104
    30  H    8.422483   9.866847   9.790120   7.677838   8.511707
    31  H    7.327866   8.749675   8.637164   6.632989   7.460254
                    6          7          8          9         10
     6  C    0.000000
     7  C    4.330427   0.000000
     8  C    5.088290   1.539508   0.000000
     9  C    6.460552   2.487799   1.512639   0.000000
    10  O    7.123059   2.830556   2.376015   1.364144   0.000000
    11  C    8.482097   4.179076   3.707630   2.372819   1.436744
    12  O    5.012579   1.430463   2.457162   3.130003   2.832057
    13  C    5.520913   2.584670   1.527318   2.484264   2.964323
    14  O    7.103970   3.476466   2.416631   1.223682   2.296600
    15  C    9.421764   5.213603   4.407507   3.134358   2.421368
    16  H    3.394145   2.733040   3.304510   4.111931   4.986148
    17  H    2.153730   4.707287   5.475416   6.927104   7.307097
    18  H    2.152447   4.683162   5.297329   6.394878   7.277158
    19  H    3.396221   2.773845   3.584353   4.902018   5.029101
    20  H    1.086653   5.417059   6.137132   7.518244   8.206114
    21  H    4.772821   1.098119   2.181046   2.567329   2.858844
    22  H    4.788843   2.165353   1.098658   2.093140   3.271854
    23  H    8.865046   4.545974   4.396857   3.232196   2.044126
    24  H    8.653842   4.471837   4.003790   2.544162   2.100263
    25  H    5.941812   1.950822   2.592321   2.773643   2.098985
    26  H    4.828594   2.868709   2.176251   3.445842   3.967661
    27  H    6.311074   3.523397   2.168560   2.698782   3.321927
    28  H    6.119704   2.872337   2.188643   2.784620   2.728658
    29  H    9.443731   5.301450   4.545039   3.539118   2.656120
    30  H   10.442633   6.194987   5.445603   4.095878   3.372455
    31  H    9.275011   5.265063   4.186721   2.943343   2.715232
                   11         12         13         14         15
    11  C    0.000000
    12  O    4.132735   0.000000
    13  C    4.260408   2.881485   0.000000
    14  O    2.707240   4.304302   3.374718   0.000000
    15  C    1.516977   5.114052   4.526425   3.278794   0.000000
    16  H    6.079400   4.041187   4.559325   4.412888   7.189031
    17  H    8.728188   4.820054   5.396685   7.816263   9.517549
    18  H    8.470251   5.768918   6.170782   6.711956   9.512647
    19  H    6.434675   2.495388   3.433637   5.966121   7.194754
    20  H    9.565209   6.068279   6.506384   8.120596  10.492693
    21  H    3.980351   2.028511   3.498481   3.360047   5.233453
    22  H    4.460019   3.374870   2.140646   2.488114   5.109946
    23  H    1.094887   4.217169   4.926918   3.711272   2.148919
    24  H    1.095943   4.699827   4.830370   2.440624   2.173761
    25  H    3.280056   0.974796   3.019249   3.955689   4.281056
    26  H    5.314172   3.171556   1.094104   4.293187   5.610603
    27  H    4.392060   3.914715   1.095899   3.267732   4.341505
    28  H    3.966360   2.615324   1.095138   3.832235   4.158288
    29  H    2.160064   4.959240   4.341875   3.961211   1.094975
    30  H    2.161986   6.072502   5.618525   4.065314   1.093617
    31  H    2.166079   5.399371   4.242053   2.822089   1.094570
                   16         17         18         19         20
    16  H    0.000000
    17  H    4.961378   0.000000
    18  H    2.465110   4.294989   0.000000
    19  H    4.316665   2.466448   4.962350   0.000000
    20  H    4.289054   2.481119   2.480202   4.290920   0.000000
    21  H    2.498849   5.442386   4.724559   3.684223   5.837369
    22  H    2.823956   5.515422   4.700521   4.042829   5.776568
    23  H    6.575033   8.997329   8.944351   6.646057   9.950534
    24  H    5.913737   9.154450   8.365708   6.989135   9.722451
    25  H    4.591894   5.782892   6.544250   3.412348   7.008217
    26  H    4.545258   4.528325   5.743679   2.849083   5.743270
    27  H    5.199929   6.268224   6.809081   4.464782   7.251081
    28  H    5.273620   5.705594   6.942119   3.477345   7.118440
    29  H    7.555404   9.291051   9.778022   6.909418  10.506976
    30  H    8.073783  10.574381  10.448192   8.236363  11.517460
    31  H    7.019429   9.468256   9.283671   7.262470  10.320653
                   21         22         23         24         25
    21  H    0.000000
    22  H    2.631433   0.000000
    23  H    4.270425   5.249083   0.000000
    24  H    4.055559   4.547495   1.762110   0.000000
    25  H    2.261463   3.627339   3.276511   3.939366   0.000000
    26  H    3.911119   2.493180   5.924720   5.867238   3.589961
    27  H    4.316993   2.469739   5.206700   4.910844   3.912798
    28  H    3.755723   3.072284   4.459503   4.742490   2.558394
    29  H    5.497865   5.370392   2.501280   3.080513   4.127821
    30  H    6.106181   6.106620   2.489687   2.518910   5.192977
    31  H    5.363199   4.708304   3.066708   2.537956   4.692749
                   26         27         28         29         30
    26  H    0.000000
    27  H    1.768714   0.000000
    28  H    1.773806   1.761173   0.000000
    29  H    5.368578   4.196277   3.751983   0.000000
    30  H    6.703365   5.397639   5.236897   1.780035   0.000000
    31  H    5.316848   3.824114   4.090642   1.758851   1.777271
                   31
    31  H    0.000000
 Stoichiometry    C12H16O3
 Framework group  C1[X(C12H16O3)]
 Deg. of freedom    87
 Full point group                 C1      NOp   1
 Largest Abelian subgroup         C1      NOp   1
 Largest concise Abelian subgroup C1      NOp   1
                         Standard orientation:                         
 ---------------------------------------------------------------------
 Center     Atomic      Atomic             Coordinates (Angstroms)
 Number     Number       Type             X           Y           Z
 ---------------------------------------------------------------------
      1          6           0        2.433185    1.234771   -0.448810
      2          6           0        3.956899   -0.993595    0.242993
      3          6           0        3.802829    1.369363   -0.212396
      4          6           0        1.806027   -0.018075   -0.343831
      5          6           0        2.587362   -1.129220    0.007297
      6          6           0        4.563954    0.255261    0.133499
      7          6           0        0.310555   -0.131408   -0.581818
      8          6           0       -0.495928    0.257940    0.670411
      9          6           0       -1.880023    0.702259    0.252154
     10          8           0       -2.514420   -0.267472   -0.467603
     11          6           0       -3.853870    0.040395   -0.886325
     12          8           0       -0.004002   -1.456330   -1.019835
     13          6           0       -0.607219   -0.837388    1.728982
     14          8           0       -2.360256    1.790126    0.540809
     15          6           0       -4.839371   -0.329402    0.206037
     16          1           0        1.856977    2.118020   -0.716574
     17          1           0        4.548521   -1.865258    0.509951
     18          1           0        4.275895    2.344074   -0.298836
     19          1           0        2.129928   -2.112929    0.094698
     20          1           0        5.630122    0.359254    0.315950
     21          1           0        0.059777    0.531117   -1.420887
     22          1           0       -0.034330    1.138614    1.137732
     23          1           0       -4.053584   -0.558457   -1.780901
     24          1           0       -3.949155    1.093152   -1.175661
     25          1           0       -0.961658   -1.474499   -1.200920
     26          1           0        0.378642   -1.119515    2.110486
     27          1           0       -1.206610   -0.489605    2.577965
     28          1           0       -1.094870   -1.737686    1.340412
     29          1           0       -4.729989   -1.383520    0.481431
     30          1           0       -5.867430   -0.155330   -0.123797
     31          1           0       -4.659209    0.256567    1.112825
 ---------------------------------------------------------------------
 Rotational constants (GHZ):      1.6166839      0.2796942      0.2661510
 Standard basis: 6-31+G(d,p) (6D, 7F)
 There are   365 symmetry adapted basis functions of A   symmetry.
 Integral buffers will be    131072 words long.
 Raffenetti 2 integral format.
 Two-electron integral symmetry is turned on.
   365 basis functions,   592 primitive gaussians,   365 cartesian basis functions
    56 alpha electrons       56 beta electrons
       nuclear repulsion energy       998.7157992464 Hartrees.
 NAtoms=   31 NActive=   31 NUniq=   31 SFac= 1.00D+00 NAtFMM=   60 NAOKFM=F Big=F
 Nuclear repulsion after empirical dispersion term =      998.6947410683 Hartrees.
 ------------------------------------------------------------------------------
 Polarizable Continuum Model (PCM)
 =================================
 Model                : C-PCM.
 Atomic radii         : SMD-Coulomb.
 Polarization charges : Total charges.
 Charge compensation  : None.
 Solution method      : Matrix inversion.
 Cavity type          : VdW (van der Waals Surface) (Alpha=1.000).
 Cavity algorithm     : GePol (No added spheres)
                        Default sphere list used, NSphG=   31.
                        Lebedev-Laikov grids with approx.  5.0 points / Ang**2.
                        Smoothing algorithm: Karplus/York (Gamma=1.0000).
                        Polarization charges: spherical gaussians, with
                                              point-specific exponents (IZeta= 3).
                        Self-potential: point-specific (ISelfS= 7).
                        Self-field    : sphere-specific E.n sum rule (ISelfD= 2).
 Solvent              : Chloroform, Eps=   4.711300 Eps(inf)=   2.090627
 ------------------------------------------------------------------------------
 ------------------------------------------------------------------------------
 Atomic radii for non-electrostatic terms: SMD-CDS.
 ------------------------------------------------------------------------------
 Nuclear repulsion after PCM non-electrostatic terms =      998.6880839069 Hartrees.
 One-electron integrals computed using PRISM.
 NBasis=   365 RedAO= T  NBF=   365
 NBsUse=   365 1.00D-06 NBFU=   365
 Harris functional with IExCor= 4639 diagonalized for initial guess.
 ExpMin= 4.38D-02 ExpMax= 5.48D+03 ExpMxC= 8.25D+02 IAcc=2 IRadAn=         4 AccDes= 0.00D+00
 HarFok:  IExCor= 4639 AccDes= 0.00D+00 IRadAn=         4 IDoV= 1
 ScaDFX=  1.000000  1.000000  1.000000  1.000000
 FoFCou: FMM=F IPFlag=           0 FMFlag=      100000 FMFlg1=           0
         NFxFlg=           0 DoJE=T BraDBF=F KetDBF=T FulRan=T
         Omega=  0.000000  0.000000  1.000000  0.000000  0.000000 ICntrl=     500 IOpCl=  0
         NMat0=    1 NMatS0=    1 NMatT0=    0 NMatD0=    1 NMtDS0=    0 NMtDT0=    0
         I1Cent=           4 NGrid=           0.
 Petite list used in FoFCou.
 Initial guess orbital symmetries:
       Occupied  (A) (A) (A) (A) (A) (A) (A) (A) (A) (A) (A) (A)
                 (A) (A) (A) (A) (A) (A) (A) (A) (A) (A) (A) (A)
                 (A) (A) (A) (A) (A) (A) (A) (A) (A) (A) (A) (A)
                 (A) (A) (A) (A) (A) (A) (A) (A) (A) (A) (A) (A)
                 (A) (A) (A) (A) (A) (A) (A) (A)
       Virtual   (A) (A) (A) (A) (A) (A) (A) (A) (A) (A) (A) (A)
                 (A) (A) (A) (A) (A) (A) (A) (A) (A) (A) (A) (A)
                 (A) (A) (A) (A) (A) (A) (A) (A) (A) (A) (A) (A)
                 (A) (A) (A) (A) (A) (A) (A) (A) (A) (A) (A) (A)
                 (A) (A) (A) (A) (A) (A) (A) (A) (A) (A) (A) (A)
                 (A) (A) (A) (A) (A) (A) (A) (A) (A) (A) (A) (A)
                 (A) (A) (A) (A) (A) (A) (A) (A) (A) (A) (A) (A)
                 (A) (A) (A) (A) (A) (A) (A) (A) (A) (A) (A) (A)
                 (A) (A) (A) (A) (A) (A) (A) (A) (A) (A) (A) (A)
                 (A) (A) (A) (A) (A) (A) (A) (A) (A) (A) (A) (A)
                 (A) (A) (A) (A) (A) (A) (A) (A) (A) (A) (A) (A)
                 (A) (A) (A) (A) (A) (A) (A) (A) (A) (A) (A) (A)
                 (A) (A) (A) (A) (A) (A) (A) (A) (A) (A) (A) (A)
                 (A) (A) (A) (A) (A) (A) (A) (A) (A) (A) (A) (A)
                 (A) (A) (A) (A) (A) (A) (A) (A) (A) (A) (A) (A)
                 (A) (A) (A) (A) (A) (A) (A) (A) (A) (A) (A) (A)
                 (A) (A) (A) (A) (A) (A) (A) (A) (A) (A) (A) (A)
                 (A) (A) (A) (A) (A) (A) (A) (A) (A) (A) (A) (A)
                 (A) (A) (A) (A) (A) (A) (A) (A) (A) (A) (A) (A)
                 (A) (A) (A) (A) (A) (A) (A) (A) (A) (A) (A) (A)
                 (A) (A) (A) (A) (A) (A) (A) (A) (A) (A) (A) (A)
                 (A) (A) (A) (A) (A) (A) (A) (A) (A) (A) (A) (A)
                 (A) (A) (A) (A) (A) (A) (A) (A) (A) (A) (A) (A)
                 (A) (A) (A) (A) (A) (A) (A) (A) (A) (A) (A) (A)
                 (A) (A) (A) (A) (A) (A) (A) (A) (A) (A) (A) (A)
                 (A) (A) (A) (A) (A) (A) (A) (A) (A)
 The electronic state of the initial guess is 1-A.
 Requested convergence on RMS density matrix=1.00D-08 within 128 cycles.
 Requested convergence on MAX density matrix=1.00D-06.
 Requested convergence on             energy=1.00D-06.
 No special actions if energy rises.
 FoFJK:  IHMeth= 1 ICntrl=     0 DoSepK=T KAlg= 1 I1Cent= 0 FoldK=F
 FoFJK:  IHMeth= 1 ICntrl=     0 DoSepK=T KAlg= 1 I1Cent= 0 FoldK=F
 FoFJK:  IHMeth= 1 ICntrl=     0 DoSepK=T KAlg= 1 I1Cent= 0 FoldK=F
 FoFJK:  IHMeth= 1 ICntrl=     0 DoSepK=T KAlg= 1 I1Cent= 0 FoldK=F
 FoFJK:  IHMeth= 1 ICntrl=     0 DoSepK=T KAlg= 1 I1Cent= 0 FoldK=F
 FoFJK:  IHMeth= 1 ICntrl=     0 DoSepK=T KAlg= 1 I1Cent= 0 FoldK=F
 FoFJK:  IHMeth= 1 ICntrl=     0 DoSepK=T KAlg= 1 I1Cent= 0 FoldK=F
 FoFJK:  IHMeth= 1 ICntrl=     0 DoSepK=T KAlg= 1 I1Cent= 0 FoldK=F
 FoFJK:  IHMeth= 1 ICntrl=     0 DoSepK=T KAlg= 1 I1Cent= 0 FoldK=F
 FoFJK:  IHMeth= 1 ICntrl=     0 DoSepK=T KAlg= 1 I1Cent= 0 FoldK=F
 FoFJK:  IHMeth= 1 ICntrl=     0 DoSepK=T KAlg= 1 I1Cent= 0 FoldK=F
 FoFJK:  IHMeth= 1 ICntrl=     0 DoSepK=T KAlg= 1 I1Cent= 0 FoldK=F
 FoFJK:  IHMeth= 1 ICntrl=     0 DoSepK=T KAlg= 1 I1Cent= 0 FoldK=F
 FoFJK:  IHMeth= 1 ICntrl=     0 DoSepK=T KAlg= 1 I1Cent= 0 FoldK=F
 FoFJK:  IHMeth= 1 ICntrl=     0 DoSepK=T KAlg= 1 I1Cent= 0 FoldK=F
 FoFJK:  IHMeth= 1 ICntrl=     0 DoSepK=T KAlg= 1 I1Cent= 0 FoldK=F
 Error on total polarization charges =  0.04051
 SCF Done:  E(RwB97XD) =  -692.445009661     A.U. after   16 cycles
             Convg  =    0.2930D-08             -V/T =  2.0095
 SMD-CDS (non-electrostatic) energy       (kcal/mol) =      -4.18
 (included in total energy above)
 Range of M.O.s used for correlation:     1   365
 NBasis=   365 NAE=    56 NBE=    56 NFC=     0 NFV=     0
 NROrb=    365 NOA=    56 NOB=    56 NVA=   309 NVB=   309

 **** Warning!!: The largest alpha MO coefficient is  0.12849181D+03

 NEqPCM:  Using equilibrium solvation (IEInf=0, Eps=   4.7113, EpsInf=   2.0906)
          Differentiating once with respect to magnetic field using GIAOs.
          Electric field/nuclear overlap derivatives assumed to be zero.
 FoFCou: FMM=F IPFlag=           0 FMFlag=    10101102 FMFlg1=           0
         NFxFlg=    40000000 DoJE=F BraDBF=F KetDBF=T FulRan=T
         Omega=  0.000000  0.000000  1.000000  0.000000  0.000000 ICntrl=    6100 IOpCl=  0
         NMat0=    1 NMatS0=    1 NMatT0=    0 NMatD0=    1 NMtDS0=    0 NMtDT0=    0
         I1Cent=           7 NGrid=        2262.
 Symmetry not used in FoFCou.
 FoFJK:  IHMeth= 1 ICntrl=  6127 DoSepK=T KAlg= 1 I1Cent= 0 FoldK=F
 FoFJK:  IHMeth= 1 ICntrl=     0 DoSepK=T KAlg= 1 I1Cent= 0 FoldK=F
          There are     3 degrees of freedom in the 1st order CPHF.  IDoFFX=0.
      3 vectors produced by pass  0 Test12= 5.77D-13 3.33D-08 XBig12= 1.51D+02 1.82D+00.
 AX will form     3 AO Fock derivatives at one time.
 FoFJK:  IHMeth= 1 ICntrl=     0 DoSepK=T KAlg= 1 I1Cent= 0 FoldK=F
      3 vectors produced by pass  1 Test12= 5.77D-13 3.33D-08 XBig12= 1.28D+00 3.06D-01.
 FoFJK:  IHMeth= 1 ICntrl=     0 DoSepK=T KAlg= 1 I1Cent= 0 FoldK=F
      3 vectors produced by pass  2 Test12= 5.77D-13 3.33D-08 XBig12= 2.62D-02 5.69D-02.
 FoFJK:  IHMeth= 1 ICntrl=     0 DoSepK=T KAlg= 1 I1Cent= 0 FoldK=F
      3 vectors produced by pass  3 Test12= 5.77D-13 3.33D-08 XBig12= 3.94D-04 4.55D-03.
 FoFJK:  IHMeth= 1 ICntrl=     0 DoSepK=T KAlg= 1 I1Cent= 0 FoldK=F
      3 vectors produced by pass  4 Test12= 5.77D-13 3.33D-08 XBig12= 5.27D-06 4.46D-04.
 FoFJK:  IHMeth= 1 ICntrl=     0 DoSepK=T KAlg= 1 I1Cent= 0 FoldK=F
      3 vectors produced by pass  5 Test12= 5.77D-13 3.33D-08 XBig12= 7.93D-08 5.77D-05.
 FoFJK:  IHMeth= 1 ICntrl=     0 DoSepK=T KAlg= 1 I1Cent= 0 FoldK=F
      3 vectors produced by pass  6 Test12= 5.77D-13 3.33D-08 XBig12= 1.02D-09 8.78D-06.
 FoFJK:  IHMeth= 1 ICntrl=     0 DoSepK=T KAlg= 1 I1Cent= 0 FoldK=F
      3 vectors produced by pass  7 Test12= 5.77D-13 3.33D-08 XBig12= 1.33D-11 9.79D-07.
 FoFJK:  IHMeth= 1 ICntrl=     0 DoSepK=T KAlg= 1 I1Cent= 0 FoldK=F
      2 vectors produced by pass  8 Test12= 5.77D-13 3.33D-08 XBig12= 1.45D-13 7.65D-08.
 FoFJK:  IHMeth= 1 ICntrl=     0 DoSepK=T KAlg= 1 I1Cent= 0 FoldK=F
 Inverted reduced A of dimension    26 with in-core refinement.
 Calculating GIAO nuclear magnetic shielding tensors.
 SCF GIAO Magnetic shielding tensor (ppm):
      1  C    Isotropic =    72.2425   Anisotropy =   167.8150
   XX=    38.4222   YX=    28.0815   ZX=   -31.9187
   XY=    36.4214   YY=     6.4952   ZY=    37.6201
   XZ=   -25.4081   YZ=    42.5129   ZZ=   171.8100
   Eigenvalues:   -25.7659    58.3741   184.1191
      2  C    Isotropic =    70.2383   Anisotropy =   173.6988
   XX=    34.9912   YX=    34.4021   ZX=   -35.7504
   XY=    35.6929   YY=     3.9023   ZY=    39.4889
   XZ=   -35.8314   YZ=    40.3016   ZZ=   171.8214
   Eigenvalues:   -32.6594    57.3367   186.0375
      3  C    Isotropic =    70.1997   Anisotropy =   174.0001
   XX=    45.2537   YX=   -38.5154   ZX=   -19.7504
   XY=   -39.2934   YY=   -12.0476   ZY=    28.4720
   XZ=   -19.5164   YZ=    28.1741   ZZ=   177.3930
   Eigenvalues:   -33.0536    57.4529   186.1998
      4  C    Isotropic =    53.0783   Anisotropy =   179.2889
   XX=   -26.8077   YX=   -10.6447   ZX=   -36.3807
   XY=   -10.4886   YY=    29.1875   ZY=    28.3366
   XZ=   -36.6886   YZ=    39.7262   ZZ=   156.8550
   Eigenvalues:   -34.0857    20.7163   172.6042
      5  C    Isotropic =    73.5102   Anisotropy =   183.2754
   XX=    45.2810   YX=   -32.7187   ZX=   -24.3350
   XY=   -31.7015   YY=   -12.3740   ZY=    29.0213
   XZ=   -14.8643   YZ=    29.2093   ZZ=   187.6235
   Eigenvalues:   -28.4488    53.2855   195.6938
      6  C    Isotropic =    73.1979   Anisotropy =   177.7098
   XX=   -20.5350   YX=   -11.2844   ZX=   -37.7472
   XY=   -13.0608   YY=    60.2716   ZY=    21.0900
   XZ=   -43.3351   YZ=    20.3806   ZZ=   179.8570
   Eigenvalues:   -29.1588    57.0813   191.6711
      7  C    Isotropic =   123.8538   Anisotropy =    41.0349
   XX=   119.6462   YX=    16.3796   ZX=     1.7135
   XY=    10.4214   YY=   143.1291   ZY=    11.9607
   XZ=    -1.6677   YZ=     8.1677   ZZ=   108.7862
   Eigenvalues:   104.9112   115.4399   151.2104
      8  C    Isotropic =   145.6946   Anisotropy =    27.8278
   XX=   163.7547   YX=    -1.2286   ZX=     1.1193
   XY=    -2.4849   YY=   141.0727   ZY=     8.3181
   XZ=    -5.9517   YZ=     9.5021   ZZ=   132.2563
   Eigenvalues:   126.6922   146.1451   164.2465
      9  C    Isotropic =    18.4533   Anisotropy =   101.5639
   XX=   -11.8837   YX=   -13.7525   ZX=   -49.7771
   XY=   -51.0063   YY=    28.6428   ZY=   -48.6951
   XZ=   -62.7979   YZ=   -41.9238   ZZ=    38.6007
   Eigenvalues:   -74.9520    44.1493    86.1626
     10  O    Isotropic =   143.9421   Anisotropy =   149.3511
   XX=    89.1030   YX=    65.7172   ZX=   -54.1191
   XY=   165.8556   YY=   111.7402   ZY=    13.2014
   XZ=    11.0954   YZ=   -22.3288   ZZ=   230.9831
   Eigenvalues:   -16.5892   204.9060   243.5095
     11  C    Isotropic =   137.6031   Anisotropy =    67.0121
   XX=   177.7381   YX=   -10.4835   ZX=    13.3149
   XY=    -4.8434   YY=   102.6190   ZY=   -11.7968
   XZ=    11.6674   YZ=   -10.2567   ZZ=   132.4523
   Eigenvalues:    98.8312   131.7003   182.2778
     12  O    Isotropic =   303.3813   Anisotropy =    70.1577
   XX=   347.4437   YX=     9.7990   ZX=    14.1456
   XY=    -6.0337   YY=   282.7902   ZY=    11.4909
   XZ=    11.8700   YZ=    15.8071   ZZ=   279.9102
   Eigenvalues:   266.7087   293.2822   350.1531
     13  C    Isotropic =   186.8688   Anisotropy =    16.0996
   XX=   182.2121   YX=    -1.3751   ZX=     1.9868
   XY=     0.4714   YY=   188.4926   ZY=    -7.9779
   XZ=     1.5786   YZ=    -8.4297   ZZ=   189.9016
   Eigenvalues:   180.4804   182.5241   197.6019
     14  O    Isotropic =   -43.8453   Anisotropy =   521.4720
   XX=   -86.6320   YX=    69.3440   ZX=  -142.0903
   XY=    44.8606   YY=  -184.3115   ZY=  -203.0481
   XZ=  -145.7533   YZ=  -217.1013   ZZ=   139.4074
   Eigenvalues:  -288.6107  -146.7280   303.8027
     15  C    Isotropic =   181.6076   Anisotropy =    26.0739
   XX=   194.0941   YX=     0.2176   ZX=    -4.6168
   XY=     1.5472   YY=   166.4204   ZY=    -8.8014
   XZ=   -10.1339   YZ=   -10.0593   ZZ=   184.3084
   Eigenvalues:   162.2197   183.6129   198.9902
     16  H    Isotropic =    23.8558   Anisotropy =     8.8490
   XX=    27.4085   YX=     3.7936   ZX=    -0.0533
   XY=     3.2826   YY=    24.2953   ZY=    -0.8833
   XZ=    -0.1163   YZ=    -1.0887   ZZ=    19.8637
   Eigenvalues:    19.5751    22.2372    29.7551
     17  H    Isotropic =    23.7885   Anisotropy =     5.0987
   XX=    26.5921   YX=     1.2451   ZX=     0.6922
   XY=     1.3308   YY=    24.2437   ZY=    -0.3609
   XZ=     0.5874   YZ=    -0.4625   ZZ=    20.5295
   Eigenvalues:    20.3812    23.7966    27.1876
     18  H    Isotropic =    23.8077   Anisotropy =     4.9213
   XX=    26.7111   YX=    -0.6093   ZX=     1.1376
   XY=    -0.4195   YY=    23.9768   ZY=    -0.9017
   XZ=     1.2457   YZ=    -0.8488   ZZ=    20.7352
   Eigenvalues:    20.3433    23.9913    27.0885
     19  H    Isotropic =    23.3334   Anisotropy =    10.3875
   XX=    28.7742   YX=    -3.4693   ZX=     1.7174
   XY=    -2.6800   YY=    22.1999   ZY=    -0.8666
   XZ=     1.6492   YZ=    -0.0950   ZZ=    19.0260
   Eigenvalues:    18.7430    20.9987    30.2584
     20  H    Isotropic =    23.6827   Anisotropy =     4.3667
   XX=    24.5575   YX=    -0.0173   ZX=     0.6135
   XY=     0.0289   YY=    26.3311   ZY=    -1.2070
   XZ=     0.4445   YZ=    -1.3682   ZZ=    20.1594
   Eigenvalues:    19.8442    24.6100    26.5938
     21  H    Isotropic =    26.4510   Anisotropy =     6.0797
   XX=    25.5542   YX=     1.3581   ZX=    -0.2439
   XY=     2.1488   YY=    28.4707   ZY=    -3.3843
   XZ=     1.4775   YZ=    -2.4197   ZZ=    25.3280
   Eigenvalues:    22.8032    26.0456    30.5041
     22  H    Isotropic =    28.9515   Anisotropy =     5.6254
   XX=    29.5997   YX=     2.3692   ZX=     0.8958
   XY=    -0.0647   YY=    31.8058   ZY=     1.5383
   XZ=    -3.1361   YZ=     2.8744   ZZ=    25.4491
   Eigenvalues:    24.3710    29.7818    32.7018
     23  H    Isotropic =    27.6403   Anisotropy =     7.8498
   XX=    28.7787   YX=     0.9709   ZX=     2.2369
   XY=    -0.0961   YY=    22.8962   ZY=     1.4325
   XZ=     1.8178   YZ=     3.1123   ZZ=    31.2460
   Eigenvalues:    22.3169    27.7305    32.8735
     24  H    Isotropic =    26.7690   Anisotropy =     6.5353
   XX=    27.8822   YX=    -1.8952   ZX=     1.6443
   XY=    -0.3242   YY=    26.7815   ZY=    -2.9333
   XZ=     2.2736   YZ=    -3.9837   ZZ=    25.6433
   Eigenvalues:    22.5789    26.6022    31.1258
     25  H    Isotropic =    28.3563   Anisotropy =    20.8257
   XX=    41.4126   YX=    -0.2379   ZX=     4.0557
   XY=     0.8969   YY=    23.3283   ZY=     3.4819
   XZ=     4.1151   YZ=     4.7085   ZZ=    20.3281
   Eigenvalues:    17.0441    25.7847    42.2401
     26  H    Isotropic =    30.5789   Anisotropy =     9.1776
   XX=    34.0787   YX=    -2.2782   ZX=     2.8764
   XY=    -3.1948   YY=    26.4519   ZY=    -2.4014
   XZ=     1.0470   YZ=    -4.3981   ZZ=    31.2060
   Eigenvalues:    24.4122    30.6272    36.6973
     27  H    Isotropic =    30.7648   Anisotropy =    10.1530
   XX=    29.3824   YX=    -1.2775   ZX=    -3.5565
   XY=    -1.3089   YY=    27.3317   ZY=     0.1175
   XZ=    -4.3121   YZ=     0.1056   ZZ=    35.5804
   Eigenvalues:    26.2643    28.4966    37.5335
     28  H    Isotropic =    30.0914   Anisotropy =     6.6552
   XX=    28.7358   YX=     3.2217   ZX=     0.4840
   XY=     3.0493   YY=    32.8253   ZY=     0.5772
   XZ=    -0.0188   YZ=    -1.1878   ZZ=    28.7130
   Eigenvalues:    26.9670    28.7789    34.5281
     29  H    Isotropic =    30.3924   Anisotropy =     8.0517
   XX=    29.5032   YX=     1.7199   ZX=    -1.2669
   XY=     1.1473   YY=    34.1815   ZY=    -2.1640
   XZ=    -1.0761   YZ=    -3.6432   ZZ=    27.4924
   Eigenvalues:    26.2844    29.1325    35.7601
     30  H    Isotropic =    30.5412   Anisotropy =    11.7223
   XX=    38.2491   YX=    -0.7534   ZX=     1.4063
   XY=    -0.5011   YY=    26.5683   ZY=    -0.3423
   XZ=     0.3919   YZ=    -0.4785   ZZ=    26.8060
   Eigenvalues:    26.2598    27.0077    38.3560
     31  H    Isotropic =    30.3098   Anisotropy =     6.3786
   XX=    30.0901   YX=     0.9366   ZX=    -1.5488
   XY=     1.2122   YY=    28.1558   ZY=     2.4286
   XZ=    -2.1213   YZ=     3.7144   ZZ=    32.6837
   Eigenvalues:    25.8266    30.5407    34.5622
 End of Minotr Frequency-dependent properties file   721 does not exist.
 End of Minotr Frequency-dependent properties file   722 does not exist.

 **********************************************************************

            Population analysis using the SCF density.

 **********************************************************************

 Orbital symmetries:
       Occupied  (A) (A) (A) (A) (A) (A) (A) (A) (A) (A) (A) (A)
                 (A) (A) (A) (A) (A) (A) (A) (A) (A) (A) (A) (A)
                 (A) (A) (A) (A) (A) (A) (A) (A) (A) (A) (A) (A)
                 (A) (A) (A) (A) (A) (A) (A) (A) (A) (A) (A) (A)
                 (A) (A) (A) (A) (A) (A) (A) (A)
       Virtual   (A) (A) (A) (A) (A) (A) (A) (A) (A) (A) (A) (A)
                 (A) (A) (A) (A) (A) (A) (A) (A) (A) (A) (A) (A)
                 (A) (A) (A) (A) (A) (A) (A) (A) (A) (A) (A) (A)
                 (A) (A) (A) (A) (A) (A) (A) (A) (A) (A) (A) (A)
                 (A) (A) (A) (A) (A) (A) (A) (A) (A) (A) (A) (A)
                 (A) (A) (A) (A) (A) (A) (A) (A) (A) (A) (A) (A)
                 (A) (A) (A) (A) (A) (A) (A) (A) (A) (A) (A) (A)
                 (A) (A) (A) (A) (A) (A) (A) (A) (A) (A) (A) (A)
                 (A) (A) (A) (A) (A) (A) (A) (A) (A) (A) (A) (A)
                 (A) (A) (A) (A) (A) (A) (A) (A) (A) (A) (A) (A)
                 (A) (A) (A) (A) (A) (A) (A) (A) (A) (A) (A) (A)
                 (A) (A) (A) (A) (A) (A) (A) (A) (A) (A) (A) (A)
                 (A) (A) (A) (A) (A) (A) (A) (A) (A) (A) (A) (A)
                 (A) (A) (A) (A) (A) (A) (A) (A) (A) (A) (A) (A)
                 (A) (A) (A) (A) (A) (A) (A) (A) (A) (A) (A) (A)
                 (A) (A) (A) (A) (A) (A) (A) (A) (A) (A) (A) (A)
                 (A) (A) (A) (A) (A) (A) (A) (A) (A) (A) (A) (A)
                 (A) (A) (A) (A) (A) (A) (A) (A) (A) (A) (A) (A)
                 (A) (A) (A) (A) (A) (A) (A) (A) (A) (A) (A) (A)
                 (A) (A) (A) (A) (A) (A) (A) (A) (A) (A) (A) (A)
                 (A) (A) (A) (A) (A) (A) (A) (A) (A) (A) (A) (A)
                 (A) (A) (A) (A) (A) (A) (A) (A) (A) (A) (A) (A)
                 (A) (A) (A) (A) (A) (A) (A) (A) (A) (A) (A) (A)
                 (A) (A) (A) (A) (A) (A) (A) (A) (A) (A) (A) (A)
                 (A) (A) (A) (A) (A) (A) (A) (A) (A) (A) (A) (A)
                 (A) (A) (A) (A) (A) (A) (A) (A) (A)
 The electronic state is 1-A.
 Alpha  occ. eigenvalues --  -19.33720 -19.27947 -19.27831 -10.44323 -10.36233
 Alpha  occ. eigenvalues --  -10.35502 -10.31904 -10.31645 -10.30674 -10.30571
 Alpha  occ. eigenvalues --  -10.30498 -10.30408 -10.30352 -10.29201 -10.28921
 Alpha  occ. eigenvalues --   -1.21665  -1.13143  -1.12594  -0.96130  -0.91502
 Alpha  occ. eigenvalues --   -0.87063  -0.85217  -0.84571  -0.78198  -0.76235
 Alpha  occ. eigenvalues --   -0.71913  -0.69941  -0.67134  -0.65483  -0.61056
 Alpha  occ. eigenvalues --   -0.60037  -0.59771  -0.58321  -0.56014  -0.54753
 Alpha  occ. eigenvalues --   -0.54463  -0.52794  -0.52013  -0.50394  -0.50101
 Alpha  occ. eigenvalues --   -0.49627  -0.48655  -0.46656  -0.46525  -0.45678
 Alpha  occ. eigenvalues --   -0.44668  -0.44315  -0.43181  -0.42401  -0.42104
 Alpha  occ. eigenvalues --   -0.40906  -0.39443  -0.36924  -0.36262  -0.33130
 Alpha  occ. eigenvalues --   -0.32288
 Alpha virt. eigenvalues --    0.05035   0.05570   0.06456   0.06801   0.07962
 Alpha virt. eigenvalues --    0.08137   0.08868   0.09223   0.09974   0.10339
 Alpha virt. eigenvalues --    0.10745   0.10842   0.11082   0.12007   0.12876
 Alpha virt. eigenvalues --    0.13276   0.13935   0.14237   0.14469   0.15147
 Alpha virt. eigenvalues --    0.15799   0.15960   0.16593   0.17087   0.17998
 Alpha virt. eigenvalues --    0.18496   0.18623   0.19075   0.19794   0.20469
 Alpha virt. eigenvalues --    0.20622   0.20979   0.21332   0.21985   0.22433
 Alpha virt. eigenvalues --    0.23122   0.23574   0.24281   0.24499   0.25160
 Alpha virt. eigenvalues --    0.25386   0.25567   0.25983   0.26637   0.26884
 Alpha virt. eigenvalues --    0.27251   0.27782   0.28535   0.29103   0.29156
 Alpha virt. eigenvalues --    0.29663   0.30035   0.30219   0.30862   0.31173
 Alpha virt. eigenvalues --    0.31689   0.32448   0.32868   0.33542   0.33616
 Alpha virt. eigenvalues --    0.34098   0.34487   0.34775   0.35168   0.36107
 Alpha virt. eigenvalues --    0.36205   0.37499   0.38005   0.38563   0.38805
 Alpha virt. eigenvalues --    0.38980   0.39571   0.40150   0.40810   0.41309
 Alpha virt. eigenvalues --    0.42181   0.42718   0.43227   0.43718   0.44344
 Alpha virt. eigenvalues --    0.45071   0.46105   0.46413   0.47824   0.48272
 Alpha virt. eigenvalues --    0.48951   0.49369   0.50818   0.51535   0.53834
 Alpha virt. eigenvalues --    0.56974   0.60180   0.60573   0.66494   0.69908
 Alpha virt. eigenvalues --    0.73201   0.74063   0.74982   0.75370   0.76652
 Alpha virt. eigenvalues --    0.77609   0.78326   0.79375   0.79653   0.80864
 Alpha virt. eigenvalues --    0.81486   0.82561   0.83429   0.83479   0.83977
 Alpha virt. eigenvalues --    0.85598   0.85758   0.87337   0.87889   0.89166
 Alpha virt. eigenvalues --    0.90029   0.91125   0.91960   0.92597   0.96115
 Alpha virt. eigenvalues --    0.96342   0.97963   0.99056   1.00223   1.02721
 Alpha virt. eigenvalues --    1.02879   1.04569   1.05063   1.06802   1.07185
 Alpha virt. eigenvalues --    1.08088   1.09141   1.10318   1.12034   1.12191
 Alpha virt. eigenvalues --    1.14493   1.14592   1.16940   1.18014   1.18924
 Alpha virt. eigenvalues --    1.20472   1.21492   1.22227   1.23297   1.24082
 Alpha virt. eigenvalues --    1.25619   1.27084   1.28951   1.29415   1.31163
 Alpha virt. eigenvalues --    1.31616   1.32611   1.34092   1.35509   1.37731
 Alpha virt. eigenvalues --    1.38713   1.41443   1.42161   1.43290   1.44182
 Alpha virt. eigenvalues --    1.45647   1.46884   1.47313   1.48910   1.50070
 Alpha virt. eigenvalues --    1.50716   1.51638   1.52920   1.53139   1.56200
 Alpha virt. eigenvalues --    1.58292   1.61095   1.62078   1.62954   1.66406
 Alpha virt. eigenvalues --    1.67341   1.69378   1.70772   1.75180   1.76434
 Alpha virt. eigenvalues --    1.77761   1.81986   1.84698   1.86242   1.87851
 Alpha virt. eigenvalues --    1.90276   1.91674   1.92628   1.93481   1.94553
 Alpha virt. eigenvalues --    1.95853   1.97524   1.98624   2.00563   2.00863
 Alpha virt. eigenvalues --    2.01498   2.03358   2.04884   2.05514   2.06469
 Alpha virt. eigenvalues --    2.08202   2.09420   2.10117   2.10990   2.11611
 Alpha virt. eigenvalues --    2.12161   2.14007   2.14295   2.17318   2.17900
 Alpha virt. eigenvalues --    2.19512   2.20344   2.21279   2.22797   2.24506
 Alpha virt. eigenvalues --    2.26317   2.27203   2.28544   2.29783   2.30415
 Alpha virt. eigenvalues --    2.31362   2.36010   2.37862   2.39672   2.40195
 Alpha virt. eigenvalues --    2.40740   2.44041   2.44974   2.48150   2.48244
 Alpha virt. eigenvalues --    2.48830   2.49740   2.51121   2.52373   2.53107
 Alpha virt. eigenvalues --    2.56039   2.56564   2.57319   2.60161   2.61693
 Alpha virt. eigenvalues --    2.62745   2.64372   2.64647   2.67599   2.68707
 Alpha virt. eigenvalues --    2.68869   2.70649   2.73046   2.73310   2.74160
 Alpha virt. eigenvalues --    2.76021   2.77687   2.81074   2.82199   2.82729
 Alpha virt. eigenvalues --    2.84230   2.85361   2.85960   2.86767   2.89204
 Alpha virt. eigenvalues --    2.91310   2.92342   2.94185   2.95309   2.96732
 Alpha virt. eigenvalues --    2.99181   3.00376   3.01256   3.07126   3.10091
 Alpha virt. eigenvalues --    3.12655   3.16098   3.18028   3.20780   3.25331
 Alpha virt. eigenvalues --    3.27771   3.30098   3.36785   3.37290   3.38493
 Alpha virt. eigenvalues --    3.38862   3.43364   3.45102   3.51179   3.52807
 Alpha virt. eigenvalues --    3.53852   3.56900   3.58845   3.60606   3.62751
 Alpha virt. eigenvalues --    3.65109   3.66241   3.71787   3.99706   4.40373
 Alpha virt. eigenvalues --    4.41497   4.43462   4.45173   4.50507   4.56092
 Alpha virt. eigenvalues --    4.59236   4.61269   4.63308   4.65612   4.75381
 Alpha virt. eigenvalues --    4.80502   4.82209   4.96305   4.99019
          Condensed to atoms (all electrons):
              1          2          3          4          5          6
     1  C   13.861376   0.550140  -0.402012  -2.096114  -7.277788   0.062179
     2  C    0.550140   6.435184  -0.102018   0.245178  -1.166473   0.537046
     3  C   -0.402012  -0.102018   6.208984  -0.156132   0.080224   0.483559
     4  C   -2.096114   0.245178  -0.156132  13.482802  -1.749061  -0.466159
     5  C   -7.277788  -1.166473   0.080224  -1.749061  15.964012   0.074171
     6  C    0.062179   0.537046   0.483559  -0.466159   0.074171   5.251882
     7  C    1.358278  -0.644745  -0.131531  -3.867192  -0.272912  -0.066273
     8  C   -0.186782   0.114255   0.039617   0.680082   0.288890  -0.014956
     9  C   -0.224080  -0.058141   0.005266  -0.488866   0.284305   0.002047
    10  O   -0.021079  -0.001128  -0.000204  -0.006069   0.022405  -0.000246
    11  C   -0.002538  -0.000846   0.000747  -0.031483  -0.000278  -0.000286
    12  O   -0.016800   0.064160  -0.025431   0.248608  -0.184083  -0.000349
    13  C    0.109441   0.031229  -0.068072   0.151519  -0.194530   0.013885
    14  O   -0.027974   0.000130  -0.003891   0.050889   0.008621   0.000073
    15  C   -0.001424  -0.000289  -0.000131  -0.006073   0.001379   0.000027
    16  H    0.178195   0.002397   0.021753   0.093631   0.028665  -0.010717
    17  H    0.003090   0.274080  -0.004328   0.022715   0.021710   0.015327
    18  H    0.041010  -0.004067   0.258496   0.010705   0.000805   0.022270
    19  H    0.046471  -0.008557  -0.007072   0.058343   0.214995  -0.001392
    20  H   -0.010784   0.027430   0.024306   0.009392   0.001074   0.272505
    21  H    0.210766  -0.001478   0.045420  -0.044909  -0.178286  -0.000492
    22  H   -0.027961   0.004833  -0.008842   0.012530   0.010952  -0.000604
    23  H   -0.000007   0.000013   0.000004   0.001186  -0.000028  -0.000001
    24  H   -0.000702  -0.000004  -0.000043  -0.002227   0.000263  -0.000002
    25  H   -0.005632  -0.008793   0.003311  -0.004731   0.013486  -0.000259
    26  H    0.039418  -0.017669  -0.000246   0.009381  -0.057409  -0.000749
    27  H   -0.010245  -0.002402  -0.000225   0.002352   0.008656   0.000069
    28  H   -0.005501   0.008000  -0.001929  -0.023417   0.024789   0.000762
    29  H   -0.000022  -0.000001  -0.000001  -0.000420   0.000044   0.000000
    30  H    0.000008   0.000000   0.000001   0.000042  -0.000012   0.000000
    31  H   -0.000006   0.000003   0.000001   0.000241  -0.000002   0.000000
              7          8          9         10         11         12
     1  C    1.358278  -0.186782  -0.224080  -0.021079  -0.002538  -0.016800
     2  C   -0.644745   0.114255  -0.058141  -0.001128  -0.000846   0.064160
     3  C   -0.131531   0.039617   0.005266  -0.000204   0.000747  -0.025431
     4  C   -3.867192   0.680082  -0.488866  -0.006069  -0.031483   0.248608
     5  C   -0.272912   0.288890   0.284305   0.022405  -0.000278  -0.184083
     6  C   -0.066273  -0.014956   0.002047  -0.000246  -0.000286  -0.000349
     7  C   10.062514  -1.427330   0.452879   0.032130   0.022657   0.073183
     8  C   -1.427330   8.526528  -1.024240  -0.499368  -0.138385  -0.180866
     9  C    0.452879  -1.024240   6.238452   0.367866  -0.023892   0.003995
    10  O    0.032130  -0.499368   0.367866   8.586038   0.065880   0.023916
    11  C    0.022657  -0.138385  -0.023892   0.065880   5.178535   0.002074
    12  O    0.073183  -0.180866   0.003995   0.023916   0.002074   8.379518
    13  C   -0.027144  -0.251858  -0.289762   0.028571  -0.009383   0.041134
    14  O   -0.090254   0.096921   0.477306  -0.146758   0.007959  -0.000608
    15  C    0.000299  -0.057554   0.025060  -0.056487   0.274982   0.001934
    16  H   -0.012503   0.015782   0.000339  -0.000001   0.000074   0.000399
    17  H   -0.006568   0.000180  -0.000026   0.000000   0.000000   0.000072
    18  H   -0.002434  -0.000279   0.000046   0.000000   0.000000   0.000017
    19  H    0.019420  -0.010605   0.002440   0.000004   0.000052  -0.000332
    20  H    0.002405  -0.000181  -0.000032   0.000000   0.000000   0.000000
    21  H    0.253193   0.030502   0.015321   0.000848   0.003030  -0.056685
    22  H    0.002126   0.262007  -0.018473   0.016322   0.004517   0.008725
    23  H    0.000192  -0.004896   0.008170  -0.059210   0.422113   0.000535
    24  H   -0.001180   0.007663   0.000302  -0.043646   0.401696  -0.000260
    25  H    0.061279  -0.038544   0.005113   0.016098   0.001384   0.212569
    26  H    0.080796  -0.087164  -0.028463  -0.001146  -0.000499  -0.006152
    27  H    0.020565  -0.121325   0.036174  -0.002775  -0.001694   0.000401
    28  H   -0.037673  -0.078833  -0.013759   0.012219   0.006934   0.008030
    29  H   -0.000297   0.004824   0.007809  -0.006505  -0.046962  -0.000060
    30  H    0.000078   0.004119   0.003499   0.007311  -0.048292   0.000000
    31  H   -0.000430  -0.008717   0.003764  -0.006089  -0.042492   0.000016
             13         14         15         16         17         18
     1  C    0.109441  -0.027974  -0.001424   0.178195   0.003090   0.041010
     2  C    0.031229   0.000130  -0.000289   0.002397   0.274080  -0.004067
     3  C   -0.068072  -0.003891  -0.000131   0.021753  -0.004328   0.258496
     4  C    0.151519   0.050889  -0.006073   0.093631   0.022715   0.010705
     5  C   -0.194530   0.008621   0.001379   0.028665   0.021710   0.000805
     6  C    0.013885   0.000073   0.000027  -0.010717   0.015327   0.022270
     7  C   -0.027144  -0.090254   0.000299  -0.012503  -0.006568  -0.002434
     8  C   -0.251858   0.096921  -0.057554   0.015782   0.000180  -0.000279
     9  C   -0.289762   0.477306   0.025060   0.000339  -0.000026   0.000046
    10  O    0.028571  -0.146758  -0.056487  -0.000001   0.000000   0.000000
    11  C   -0.009383   0.007959   0.274982   0.000074   0.000000   0.000000
    12  O    0.041134  -0.000608   0.001934   0.000399   0.000072   0.000017
    13  C    5.806928  -0.037352   0.003770   0.000599   0.000148   0.000150
    14  O   -0.037352   8.199954  -0.041993  -0.000034   0.000000   0.000000
    15  C    0.003770  -0.041993   5.215841  -0.000020   0.000000   0.000000
    16  H    0.000599  -0.000034  -0.000020   0.506970   0.000012  -0.003923
    17  H    0.000148   0.000000   0.000000   0.000012   0.497594  -0.000123
    18  H    0.000150   0.000000   0.000000  -0.003923  -0.000123   0.497094
    19  H    0.004230   0.000001   0.000003  -0.000108  -0.004049   0.000011
    20  H   -0.000026   0.000000   0.000000  -0.000120  -0.003847  -0.003871
    21  H   -0.015480   0.000198   0.000515   0.001000   0.000002  -0.000004
    22  H    0.034500  -0.008936  -0.000423   0.000155   0.000000   0.000003
    23  H    0.002544   0.000536  -0.038995   0.000000   0.000000   0.000000
    24  H   -0.001087   0.000024  -0.029845   0.000000   0.000000   0.000000
    25  H   -0.013046   0.000518  -0.000788  -0.000004   0.000000   0.000000
    26  H    0.432194   0.000084  -0.000368  -0.000004  -0.000007   0.000000
    27  H    0.428275   0.000640  -0.000487   0.000001   0.000000   0.000000
    28  H    0.459957   0.000004  -0.001323   0.000000   0.000000   0.000000
    29  H   -0.002072  -0.000528   0.406305   0.000000   0.000000   0.000000
    30  H   -0.000032  -0.000127   0.397714   0.000000   0.000000   0.000000
    31  H    0.002797   0.001657   0.413159   0.000000   0.000000   0.000000
             19         20         21         22         23         24
     1  C    0.046471  -0.010784   0.210766  -0.027961  -0.000007  -0.000702
     2  C   -0.008557   0.027430  -0.001478   0.004833   0.000013  -0.000004
     3  C   -0.007072   0.024306   0.045420  -0.008842   0.000004  -0.000043
     4  C    0.058343   0.009392  -0.044909   0.012530   0.001186  -0.002227
     5  C    0.214995   0.001074  -0.178286   0.010952  -0.000028   0.000263
     6  C   -0.001392   0.272505  -0.000492  -0.000604  -0.000001  -0.000002
     7  C    0.019420   0.002405   0.253193   0.002126   0.000192  -0.001180
     8  C   -0.010605  -0.000181   0.030502   0.262007  -0.004896   0.007663
     9  C    0.002440  -0.000032   0.015321  -0.018473   0.008170   0.000302
    10  O    0.000004   0.000000   0.000848   0.016322  -0.059210  -0.043646
    11  C    0.000052   0.000000   0.003030   0.004517   0.422113   0.401696
    12  O   -0.000332   0.000000  -0.056685   0.008725   0.000535  -0.000260
    13  C    0.004230  -0.000026  -0.015480   0.034500   0.002544  -0.001087
    14  O    0.000001   0.000000   0.000198  -0.008936   0.000536   0.000024
    15  C    0.000003   0.000000   0.000515  -0.000423  -0.038995  -0.029845
    16  H   -0.000108  -0.000120   0.001000   0.000155   0.000000   0.000000
    17  H   -0.004049  -0.003847   0.000002   0.000000   0.000000   0.000000
    18  H    0.000011  -0.003871  -0.000004   0.000003   0.000000   0.000000
    19  H    0.501228  -0.000117  -0.000036   0.000036   0.000000   0.000000
    20  H   -0.000117   0.500543   0.000000   0.000000   0.000000   0.000000
    21  H   -0.000036   0.000000   0.583844   0.000386   0.000010  -0.000013
    22  H    0.000036   0.000000   0.000386   0.512111   0.000003   0.000001
    23  H    0.000000   0.000000   0.000010   0.000003   0.524123  -0.030173
    24  H    0.000000   0.000000  -0.000013   0.000001  -0.030173   0.519192
    25  H   -0.000012   0.000000  -0.005707  -0.000185  -0.000093   0.000023
    26  H   -0.000077   0.000000  -0.000135  -0.003258   0.000000   0.000000
    27  H    0.000015   0.000000  -0.000077  -0.003371   0.000000  -0.000002
    28  H   -0.000040   0.000000  -0.000066   0.003823   0.000002  -0.000004
    29  H    0.000000   0.000000   0.000000   0.000000  -0.004877   0.003812
    30  H    0.000000   0.000000   0.000000   0.000000  -0.001264  -0.000916
    31  H    0.000000   0.000000   0.000000   0.000003   0.003895  -0.004701
             25         26         27         28         29         30
     1  C   -0.005632   0.039418  -0.010245  -0.005501  -0.000022   0.000008
     2  C   -0.008793  -0.017669  -0.002402   0.008000  -0.000001   0.000000
     3  C    0.003311  -0.000246  -0.000225  -0.001929  -0.000001   0.000001
     4  C   -0.004731   0.009381   0.002352  -0.023417  -0.000420   0.000042
     5  C    0.013486  -0.057409   0.008656   0.024789   0.000044  -0.000012
     6  C   -0.000259  -0.000749   0.000069   0.000762   0.000000   0.000000
     7  C    0.061279   0.080796   0.020565  -0.037673  -0.000297   0.000078
     8  C   -0.038544  -0.087164  -0.121325  -0.078833   0.004824   0.004119
     9  C    0.005113  -0.028463   0.036174  -0.013759   0.007809   0.003499
    10  O    0.016098  -0.001146  -0.002775   0.012219  -0.006505   0.007311
    11  C    0.001384  -0.000499  -0.001694   0.006934  -0.046962  -0.048292
    12  O    0.212569  -0.006152   0.000401   0.008030  -0.000060   0.000000
    13  C   -0.013046   0.432194   0.428275   0.459957  -0.002072  -0.000032
    14  O    0.000518   0.000084   0.000640   0.000004  -0.000528  -0.000127
    15  C   -0.000788  -0.000368  -0.000487  -0.001323   0.406305   0.397714
    16  H   -0.000004  -0.000004   0.000001   0.000000   0.000000   0.000000
    17  H    0.000000  -0.000007   0.000000   0.000000   0.000000   0.000000
    18  H    0.000000   0.000000   0.000000   0.000000   0.000000   0.000000
    19  H   -0.000012  -0.000077   0.000015  -0.000040   0.000000   0.000000
    20  H    0.000000   0.000000   0.000000   0.000000   0.000000   0.000000
    21  H   -0.005707  -0.000135  -0.000077  -0.000066   0.000000   0.000000
    22  H   -0.000185  -0.003258  -0.003371   0.003823   0.000000   0.000000
    23  H   -0.000093   0.000000   0.000000   0.000002  -0.004877  -0.001264
    24  H    0.000023   0.000000  -0.000002  -0.000004   0.003812  -0.000916
    25  H    0.346711   0.000318   0.000020  -0.001382  -0.000010   0.000000
    26  H    0.000318   0.503677  -0.022326  -0.023287   0.000001   0.000000
    27  H    0.000020  -0.022326   0.515587  -0.026942  -0.000013   0.000000
    28  H   -0.001382  -0.023287  -0.026942   0.504624  -0.000009  -0.000001
    29  H   -0.000010   0.000001  -0.000013  -0.000009   0.515112  -0.022212
    30  H    0.000000   0.000000   0.000000  -0.000001  -0.022212   0.502274
    31  H    0.000000   0.000000  -0.000022   0.000006  -0.028964  -0.021580
             31
     1  C   -0.000006
     2  C    0.000003
     3  C    0.000001
     4  C    0.000241
     5  C   -0.000002
     6  C    0.000000
     7  C   -0.000430
     8  C   -0.008717
     9  C    0.003764
    10  O   -0.006089
    11  C   -0.042492
    12  O    0.000016
    13  C    0.002797
    14  O    0.001657
    15  C    0.413159
    16  H    0.000000
    17  H    0.000000
    18  H    0.000000
    19  H    0.000000
    20  H    0.000000
    21  H    0.000000
    22  H    0.000003
    23  H    0.003895
    24  H   -0.004701
    25  H    0.000000
    26  H    0.000000
    27  H   -0.000022
    28  H    0.000006
    29  H   -0.028964
    30  H   -0.021580
    31  H    0.506847
 Mulliken atomic charges:
              1
     1  C   -0.142923
     2  C   -0.277470
     3  C   -0.259581
     4  C   -0.136744
     5  C    0.031417
     6  C   -0.173317
     7  C    0.146467
     8  C    0.060512
     9  C    0.229580
    10  O   -0.328896
    11  C   -0.045605
    12  O   -0.597661
    13  C   -0.642028
    14  O   -0.487063
    15  C   -0.504788
    16  H    0.177461
    17  H    0.184018
    18  H    0.184092
    19  H    0.185146
    20  H    0.181324
    21  H    0.158332
    22  H    0.199020
    23  H    0.176217
    24  H    0.181827
    25  H    0.418358
    26  H    0.183088
    27  H    0.179151
    28  H    0.185018
    29  H    0.175045
    30  H    0.179390
    31  H    0.180613
 Sum of Mulliken atomic charges =   0.00000
 Mulliken charges with hydrogens summed into heavy atoms:
              1
     1  C    0.034538
     2  C   -0.093452
     3  C   -0.075488
     4  C   -0.136744
     5  C    0.216563
     6  C    0.008007
     7  C    0.304800
     8  C    0.259531
     9  C    0.229580
    10  O   -0.328896
    11  C    0.312440
    12  O   -0.179303
    13  C   -0.094771
    14  O   -0.487063
    15  C    0.030259
 Sum of Mulliken charges with hydrogens summed into heavy atoms =   0.00000
 Electronic spatial extent (au):  <R**2>=           4219.3165
 Charge=              0.0000 electrons
 Dipole moment (field-independent basis, Debye):
    X=             -1.7090    Y=             -0.6590    Z=             -0.2967  Tot=              1.8555
 Quadrupole moment (field-independent basis, Debye-Ang):
   XX=            -74.0928   YY=            -93.9624   ZZ=            -91.1948
   XY=              9.0360   XZ=              8.5008   YZ=             -5.7559
 Traceless Quadrupole moment (field-independent basis, Debye-Ang):
   XX=             12.3239   YY=             -7.5458   ZZ=             -4.7781
   XY=              9.0360   XZ=              8.5008   YZ=             -5.7559
 Octapole moment (field-independent basis, Debye-Ang**2):
  XXX=            -45.2760  YYY=             -8.9887  ZZZ=             -1.9657  XYY=             17.3100
  XXY=            -17.1814  XXZ=            -13.0826  XZZ=            -31.3992  YZZ=              0.0676
  YYZ=             -4.5147  XYZ=             -2.6403
 Hexadecapole moment (field-independent basis, Debye-Ang**3):
 XXXX=          -4063.7711 YYYY=           -630.1275 ZZZZ=           -414.4642 XXXY=             48.8094
 XXXZ=            152.3811 YYYX=             43.7871 YYYZ=            -16.6506 ZZZX=             18.7948
 ZZZY=              6.5589 XXYY=           -859.1630 XXZZ=           -877.0526 YYZZ=           -182.2212
 XXYZ=            -27.5339 YYXZ=             21.7017 ZZXY=              2.1220
 N-N= 9.986880839069D+02 E-N=-3.608939848731D+03  KE= 6.859070686354D+02
 1\1\GINC-COMPUTE-8-12\SP\RwB97XD\6-31+G(d,p)\C12H16O3\ELUCIANO.IQUIR\1
 7-May-2022\0\\# wb97xd/6-31+g** scrf=(pcm,solvent=chloroform,smd,dovac
 uum) nmr\\comment\\0,1\C,0,-0.477754921,2.8932968,0.346363687\C,0,1.56
 4669706,3.225951848,2.212845657\C,0,-0.422952514,4.051094817,1.1251013
 08\C,0,0.490283551,1.885128735,0.489436209\C,0,1.5105448,2.067646283,1
 .435043706\C,0,0.5980465,4.216813538,2.057988098\C,0,0.392363997,0.625
 254146,-0.352611849\C,0,-0.597245994,-0.387452414,0.25169189\C,0,-1.10
 7469194,-1.298039541,-0.843104989\O,0,-0.079566273,-1.926610317,-1.482
 795331\C,0,-0.457762101,-2.844230536,-2.521628889\O,0,1.694967084,0.05
 6563284,-0.513981619\C,0,-0.037042898,-1.227545091,1.397605609\O,0,-2.
 293747118,-1.45069923,-1.101636177\C,0,-0.735771097,-4.213772084,-1.93
 147145\H,0,-1.284368413,2.783389596,-0.375534573\H,0,2.364141739,3.353
 516389,2.937862933\H,0,-1.177150092,4.824152675,1.00307304\H,0,2.27554
 1981,1.304849456,1.567285725\H,0,0.642013783,5.118366519,2.663037316\H
 ,0,0.067840037,0.925690875,-1.357742316\H,0,-1.481512775,0.148974543,0
 .622322109\H,0,0.38734298,-2.90643566,-3.214957908\H,0,-1.315286805,-2
 .469451328,-3.091964083\H,0,1.594180666,-0.721726534,-1.092197896\H,0,
 0.263270936,-0.596736697,2.239600266\H,0,-0.793874694,-1.931703438,1.7
 61420459\H,0,0.8296064,-1.821053798,1.087775845\H,0,0.131087017,-4.571
 803156,-1.36636805\H,0,-0.966643323,-4.936143613,-2.719427341\H,0,-1.5
 77752967,-4.177286066,-1.233031386\\Version=EM64L-G09RevC.01\State=1-A
 \HF=-692.4450097\RMSD=2.930e-09\Dipole=0.1476986,-0.6335078,-0.3313424
 \Quadrupole=-11.0227446,7.0030434,4.0197012,-5.4111176,0.3765776,6.681
 2408\PG=C01 [X(C12H16O3)]\\@


 NATURE GIVES TO EVERY TIME AND SEASON SOME BEAUTY OF ITS OWN.

                                                    --DICKENS
 Job cpu time:  0 days  2 hours  2 minutes 36.6 seconds.
 File lengths (MBytes):  RWF=    123 Int=      0 D2E=      0 Chk=      9 Scr=      1
 Normal termination of Gaussian 09 at Tue May 17 15:46:41 2022.
