 Entering Gaussian System, Link 0=g09
 Input=/home/eluciano.iquir/wb9/73a_016.gjc
 Output=/home/eluciano.iquir/wb9/73a_016.log
 Initial command:
 /share/apps/Gaussian09/EM64T.SSE4.2-enabled/g09/l1.exe /tmp/Gau-30005.inp -scrdir=/tmp/
 Entering Link 1 = /share/apps/Gaussian09/EM64T.SSE4.2-enabled/g09/l1.exe PID=     30006.
  
 Copyright (c) 1988,1990,1992,1993,1995,1998,2003,2009,2011,
            Gaussian, Inc.  All Rights Reserved.
  
 This is part of the Gaussian(R) 09 program.  It is based on
 the Gaussian(R) 03 system (copyright 2003, Gaussian, Inc.),
 the Gaussian(R) 98 system (copyright 1998, Gaussian, Inc.),
 the Gaussian(R) 94 system (copyright 1995, Gaussian, Inc.),
 the Gaussian 92(TM) system (copyright 1992, Gaussian, Inc.),
 the Gaussian 90(TM) system (copyright 1990, Gaussian, Inc.),
 the Gaussian 88(TM) system (copyright 1988, Gaussian, Inc.),
 the Gaussian 86(TM) system (copyright 1986, Carnegie Mellon
 University), and the Gaussian 82(TM) system (copyright 1983,
 Carnegie Mellon University). Gaussian is a federally registered
 trademark of Gaussian, Inc.
  
 This software contains proprietary and confidential information,
 including trade secrets, belonging to Gaussian, Inc.
  
 This software is provided under written license and may be
 used, copied, transmitted, or stored only in accord with that
 written license.
  
 The following legend is applicable only to US Government
 contracts under FAR:
  
                    RESTRICTED RIGHTS LEGEND
  
 Use, reproduction and disclosure by the US Government is
 subject to restrictions as set forth in subparagraphs (a)
 and (c) of the Commercial Computer Software - Restricted
 Rights clause in FAR 52.227-19.
  
 Gaussian, Inc.
 340 Quinnipiac St., Bldg. 40, Wallingford CT 06492
  
  
 ---------------------------------------------------------------
 Warning -- This program may not be used in any manner that
 competes with the business of Gaussian, Inc. or will provide
 assistance to any competitor of Gaussian, Inc.  The licensee
 of this program is prohibited from giving any competitor of
 Gaussian, Inc. access to this program.  By using this program,
 the user acknowledges that Gaussian, Inc. is engaged in the
 business of creating and licensing software in the field of
 computational chemistry and represents and warrants to the
 licensee that it is not a competitor of Gaussian, Inc. and that
 it will not use this program in any manner prohibited above.
 ---------------------------------------------------------------
  

 Cite this work as:
 Gaussian 09, Revision C.01,
 M. J. Frisch, G. W. Trucks, H. B. Schlegel, G. E. Scuseria, 
 M. A. Robb, J. R. Cheeseman, G. Scalmani, V. Barone, B. Mennucci, 
 G. A. Petersson, H. Nakatsuji, M. Caricato, X. Li, H. P. Hratchian, 
 A. F. Izmaylov, J. Bloino, G. Zheng, J. L. Sonnenberg, M. Hada, 
 M. Ehara, K. Toyota, R. Fukuda, J. Hasegawa, M. Ishida, T. Nakajima, 
 Y. Honda, O. Kitao, H. Nakai, T. Vreven, J. A. Montgomery, Jr., 
 J. E. Peralta, F. Ogliaro, M. Bearpark, J. J. Heyd, E. Brothers, 
 K. N. Kudin, V. N. Staroverov, T. Keith, R. Kobayashi, J. Normand, 
 K. Raghavachari, A. Rendell, J. C. Burant, S. S. Iyengar, J. Tomasi, 
 M. Cossi, N. Rega, J. M. Millam, M. Klene, J. E. Knox, J. B. Cross, 
 V. Bakken, C. Adamo, J. Jaramillo, R. Gomperts, R. E. Stratmann, 
 O. Yazyev, A. J. Austin, R. Cammi, C. Pomelli, J. W. Ochterski, 
 R. L. Martin, K. Morokuma, V. G. Zakrzewski, G. A. Voth, 
 P. Salvador, J. J. Dannenberg, S. Dapprich, A. D. Daniels, 
 O. Farkas, J. B. Foresman, J. V. Ortiz, J. Cioslowski, 
 and D. J. Fox, Gaussian, Inc., Wallingford CT, 2010.
 
 ******************************************
 Gaussian 09:  EM64L-G09RevC.01 23-Sep-2011
                17-May-2022 
 ******************************************
 %nprocshared=4
 Will use up to    4 processors via shared memory.
 ----------------------------------------------------------------
 # wb97xd/6-31+g** scrf=(pcm,solvent=chloroform,smd,dovacuum) nmr
 ----------------------------------------------------------------
 1/38=1/1;
 2/12=2,17=6,18=5,40=1/2;
 3/5=1,6=6,7=111,11=2,16=1,25=1,30=1,70=32101,72=7,74=-58/1,2,8,3;
 4//1;
 5/5=2,38=5,53=7/2;
 8/6=1,10=90,11=11/1;
 10/13=100,45=16/2;
 6/7=2,8=2,9=2,10=2,28=1/1;
 99/9=1/99;
 -------
 comment
 -------
 Charge =  0 Multiplicity = 1
 Symbolic Z-Matrix:
 6                    -0.33074   2.86726  -0.09655 
 6                     1.4468    3.2891    2.00934 
 6                    -0.24134   4.12493   0.50279 
 6                     0.47294   1.80478   0.34617 
 6                     1.35895   2.03094   1.41111 
 6                     0.64796   4.33561   1.55418 
 6                     0.34668   0.44289  -0.31493 
 6                    -0.68827  -0.4562    0.38138 
 6                    -1.17983  -1.45567  -0.64769 
 8                    -0.72819  -2.71605  -0.41779 
 6                    -1.11294  -3.71199  -1.37606 
 8                     1.62523  -0.19473  -0.37139 
 6                    -0.19308  -1.11221   1.67204 
 8                    -1.89042  -1.1321   -1.59432 
 6                    -0.13293  -3.72794  -2.53412 
 1                    -1.03535   2.72167  -0.91364 
 1                     2.13696   3.45107   2.83343 
 1                    -0.86794   4.94022   0.14997 
 1                     1.98473   1.22305   1.78643 
 1                     0.71593   5.31468   2.02123 
 1                     0.06225   0.61086  -1.36176 
 1                    -1.57824   0.13208   0.64604 
 1                    -2.14139  -3.55687  -1.72164 
 1                    -1.08932  -4.67771  -0.86065 
 1                     2.26378   0.48372  -0.65471 
 1                     0.02929  -0.36151   2.43606 
 1                    -0.95924  -1.77912   2.08356 
 1                     0.70948  -1.71124   1.51152 
 1                    -0.13758  -2.77145  -3.06632 
 1                    -0.38233  -4.52299  -3.24243 
 1                     0.88815  -3.88509  -2.17124 
 
                          Input orientation:                          
 ---------------------------------------------------------------------
 Center     Atomic      Atomic             Coordinates (Angstroms)
 Number     Number       Type             X           Y           Z
 ---------------------------------------------------------------------
      1          6           0       -0.330744    2.867261   -0.096552
      2          6           0        1.446803    3.289104    2.009344
      3          6           0       -0.241342    4.124928    0.502790
      4          6           0        0.472935    1.804783    0.346171
      5          6           0        1.358950    2.030941    1.411110
      6          6           0        0.647963    4.335614    1.554178
      7          6           0        0.346679    0.442893   -0.314927
      8          6           0       -0.688267   -0.456205    0.381382
      9          6           0       -1.179827   -1.455666   -0.647689
     10          8           0       -0.728186   -2.716054   -0.417793
     11          6           0       -1.112940   -3.711987   -1.376061
     12          8           0        1.625234   -0.194727   -0.371392
     13          6           0       -0.193075   -1.112210    1.672039
     14          8           0       -1.890424   -1.132098   -1.594324
     15          6           0       -0.132930   -3.727943   -2.534119
     16          1           0       -1.035351    2.721672   -0.913645
     17          1           0        2.136956    3.451071    2.833429
     18          1           0       -0.867942    4.940221    0.149970
     19          1           0        1.984732    1.223047    1.786433
     20          1           0        0.715928    5.314678    2.021234
     21          1           0        0.062251    0.610859   -1.361763
     22          1           0       -1.578243    0.132079    0.646038
     23          1           0       -2.141389   -3.556867   -1.721635
     24          1           0       -1.089324   -4.677710   -0.860649
     25          1           0        2.263781    0.483719   -0.654712
     26          1           0        0.029290   -0.361511    2.436057
     27          1           0       -0.959235   -1.779124    2.083560
     28          1           0        0.709476   -1.711245    1.511517
     29          1           0       -0.137583   -2.771450   -3.066317
     30          1           0       -0.382330   -4.522989   -3.242430
     31          1           0        0.888152   -3.885086   -2.171245
 ---------------------------------------------------------------------
                    Distance matrix (angstroms):
                    1          2          3          4          5
     1  C    0.000000
     2  C    2.787906   0.000000
     3  C    1.396040   2.412082   0.000000
     4  C    1.403839   2.432647   2.432651   0.000000
     5  C    2.414030   1.395914   2.787608   1.403661   0.000000
     6  C    2.416368   1.393019   1.393079   2.809807   2.416089
     7  C    2.526688   3.835808   3.817304   1.519124   2.554563
     8  C    3.376636   4.608266   4.604482   2.541986   3.381912
     9  C    4.439864   6.039192   5.774719   3.788127   4.779170
    10  O    5.606653   6.832532   6.919791   4.739652   5.498635
    11  C    6.747998   8.187095   8.105985   5.992982   6.845420
    12  O    3.643783   4.223365   4.786200   2.416760   2.863881
    13  C    4.356955   4.708985   5.366292   3.272667   3.515148
    14  O    4.546515   6.608368   5.895224   4.239842   5.440210
    15  C    7.034030   8.507500   8.420341   6.266913   7.138297
    16  H    1.088718   3.876458   2.146127   2.168582   3.407971
    17  H    3.874941   1.087043   3.397391   3.415506   2.155239
    18  H    2.155579   3.397279   1.087112   3.415760   3.874717
    19  H    3.407419   2.146543   3.876088   2.167557   1.088652
    20  H    3.401528   2.153432   2.153496   3.896697   3.401273
    21  H    2.616592   4.522648   3.989662   2.123948   3.374446
    22  H    3.096597   4.579990   4.213153   2.663680   3.580239
    23  H    6.869407   8.582694   8.219988   6.313303   7.300004
    24  H    7.621409   8.839622   8.947875   6.776414   7.494060
    25  H    3.567124   3.954091   4.568791   2.440104   2.735002
    26  H    4.119308   3.939342   4.892739   3.042577   2.922728
    27  H    5.170763   5.610835   6.154026   4.232496   4.510296
    28  H    4.962928   5.078875   5.998541   3.711662   3.799454
    29  H    6.375883   8.062439   7.765907   5.741056   6.734235
    30  H    8.032123   9.589350   9.425126   7.324632   8.224444
    31  H    7.168281   8.322164   8.519773   6.235736   6.932120
                    6          7          8          9         10
     6  C    0.000000
     7  C    4.328695   0.000000
     8  C    5.111016   1.537640   0.000000
     9  C    6.459718   2.458755   1.516424   0.000000
    10  O    7.450400   3.338392   2.397330   1.358458   0.000000
    11  C    8.743623   4.529847   3.724120   2.371916   1.434642
    12  O    5.018651   1.429842   2.446901   3.087827   3.449323
    13  C    5.513622   2.580255   1.530148   2.544165   2.688132
    14  O    6.800907   3.020279   2.409446   1.227095   2.289965
    15  C    9.074409   4.748758   4.417331   3.133345   2.420142
    16  H    3.395365   2.731539   3.449124   4.188288   5.468919
    17  H    2.153137   4.708118   5.409364   6.869883   7.537434
    18  H    2.152979   4.681602   5.404373   6.452976   7.678570
    19  H    3.395433   2.776252   3.455283   4.807795   5.266408
    20  H    1.086889   5.415560   6.161491   7.520279   8.516277
    21  H    4.766505   1.097715   2.177259   2.514594   3.547424
    22  H    4.842563   2.173795   1.099172   2.086480   3.156928
    23  H    8.989031   4.916033   4.018501   2.548138   2.098598
    24  H    9.491552   5.346072   4.418665   3.230343   2.043193
    25  H    4.725162   1.947408   3.266731   3.952176   4.387088
    26  H    4.819071   2.883698   2.178427   3.488356   3.776520
    27  H    6.344553   3.520726   2.172775   2.759167   2.681042
    28  H    6.047321   2.847424   2.192262   2.880443   2.607441
    29  H    8.513308   4.258715   4.189301   2.944032   2.714141
    30  H   10.126390   5.810482   5.455670   4.095992   3.370935
    31  H    9.028642   4.740307   4.556120   3.535512   2.655896
                   11         12         13         14         15
    11  C    0.000000
    12  O    4.569253   0.000000
    13  C    4.110463   2.885071   0.000000
    14  O    2.703322   3.838500   3.681103   0.000000
    15  C    1.517159   4.500238   4.953528   3.272676   0.000000
    16  H    6.450722   3.984737   4.700408   4.005747   6.711023
    17  H    8.921380   4.881042   5.253704   7.538582   9.246685
    18  H    8.789169   5.731967   6.277266   6.400085   9.103935
    19  H    6.629593   2.606824   3.195209   5.656241   6.903910
    20  H    9.816672   6.074952   6.500240   7.837490  10.160748
    21  H    4.479762   2.018098   3.498302   2.627722   4.498634
    22  H    4.368322   3.377015   2.125941   2.591298   5.205967
    23  H    1.095988   5.226336   4.614032   2.441044   2.173316
    24  H    1.094910   5.263586   4.464366   3.708289   2.148778
    25  H    5.433832   0.973807   3.741244   4.555344   5.197546
    26  H    5.202175   3.233670   1.093947   4.530241   6.005150
    27  H    3.965925   3.900844   1.095958   3.848712   5.079727
    28  H    3.957559   2.585301   1.095084   4.091594   4.598248
    29  H    2.166309   4.124276   5.020774   2.815438   1.094593
    30  H    2.162139   5.568395   5.985084   4.060633   1.093619
    31  H    2.160243   4.171512   4.860938   3.953767   1.094980
                   16         17         18         19         20
    16  H    0.000000
    17  H    4.963478   0.000000
    18  H    2.466022   4.295106   0.000000
    19  H    4.319398   2.466467   4.963179   0.000000
    20  H    4.290009   2.480326   2.480019   4.290273   0.000000
    21  H    2.420965   5.474563   4.679100   3.739231   5.830770
    22  H    3.071373   5.440872   4.885575   3.896858   5.832128
    23  H    6.426213   9.389570   8.793468   7.223503  10.043786
    24  H    7.399768   9.493797   9.673415   7.160712  10.555189
    25  H    3.994966   4.581309   5.505962   2.565865   5.735391
    26  H    4.675465   4.374464   5.842909   2.599344   5.732597
    27  H    5.407975   6.124022   6.992618   4.215242   7.289176
    28  H    5.345706   5.516761   6.970226   3.211219   7.044391
    29  H    5.967778   8.871319   8.387360   6.633959   9.591513
    30  H    7.637721  10.336754  10.064618   7.994334  11.211245
    31  H    6.995046   8.968025   9.292898   6.554291  10.111489
                   21         22         23         24         25
    21  H    0.000000
    22  H    2.636611   0.000000
    23  H    4.728157   4.419427   0.000000
    24  H    5.435642   5.063914   1.761939   0.000000
    25  H    2.315777   4.071455   6.072082   6.158415   0.000000
    26  H    3.920463   2.456005   5.675258   5.545191   3.906433
    27  H    4.315751   2.470291   4.363183   4.133653   4.796501
    28  H    3.750574   3.062769   4.689032   4.202710   3.453444
    29  H    3.792816   4.928241   2.537771   3.066693   4.709407
    30  H    5.485522   6.182236   2.518034   2.489309   6.226179
    31  H    4.642294   5.491612   3.080259   2.501265   4.824799
                   26         27         28         29         30
    26  H    0.000000
    27  H    1.763821   0.000000
    28  H    1.771781   1.765343   0.000000
    29  H    6.009307   5.308583   4.774736   0.000000
    30  H    7.052131   6.018951   5.630094   1.777302   0.000000
    31  H    5.863485   5.094240   4.280215   1.758827   1.780023
                   31
    31  H    0.000000
 Stoichiometry    C12H16O3
 Framework group  C1[X(C12H16O3)]
 Deg. of freedom    87
 Full point group                 C1      NOp   1
 Largest Abelian subgroup         C1      NOp   1
 Largest concise Abelian subgroup C1      NOp   1
                         Standard orientation:                         
 ---------------------------------------------------------------------
 Center     Atomic      Atomic             Coordinates (Angstroms)
 Number     Number       Type             X           Y           Z
 ---------------------------------------------------------------------
      1          6           0       -2.407000    1.345147    0.108818
      2          6           0       -3.919211   -0.996669    0.069547
      3          6           0       -3.786109    1.405814   -0.099284
      4          6           0       -1.766626    0.111558    0.306156
      5          6           0       -2.540370   -1.059251    0.278012
      6          6           0       -4.541543    0.235490   -0.117512
      7          6           0       -0.262809    0.072587    0.517704
      8          6           0        0.513515   -0.085249   -0.800152
      9          6           0        1.896343    0.496653   -0.579432
     10          8           0        2.865990   -0.452978   -0.521171
     11          6           0        4.198025    0.015801   -0.267947
     12          8           0        0.075416   -0.966139    1.440256
     13          6           0        0.539682   -1.511187   -1.354563
     14          8           0        2.091529    1.700732   -0.445791
     15          6           0        4.432368    0.139820    1.225865
     16          1           0       -1.833644    2.270638    0.114777
     17          1           0       -4.507032   -1.910856    0.049840
     18          1           0       -4.270719    2.367295   -0.249352
     19          1           0       -2.070491   -2.031920    0.413258
     20          1           0       -5.614989    0.283446   -0.281044
     21          1           0        0.022921    1.006695    1.018482
     22          1           0        0.064951    0.549016   -1.577761
     23          1           0        4.393145    0.961943   -0.785571
     24          1           0        4.883812   -0.727457   -0.687582
     25          1           0       -0.569141   -0.914251    2.168374
     26          1           0       -0.465652   -1.848555   -1.623273
     27          1           0        1.153337   -1.560623   -2.261265
     28          1           0        0.957627   -2.225911   -0.637834
     29          1           0        3.757185    0.878187    1.669795
     30          1           0        5.463318    0.440090    1.433188
     31          1           0        4.234315   -0.813741    1.726343
 ---------------------------------------------------------------------
 Rotational constants (GHZ):      1.5476761      0.2809203      0.2693027
 Standard basis: 6-31+G(d,p) (6D, 7F)
 There are   365 symmetry adapted basis functions of A   symmetry.
 Integral buffers will be    131072 words long.
 Raffenetti 2 integral format.
 Two-electron integral symmetry is turned on.
   365 basis functions,   592 primitive gaussians,   365 cartesian basis functions
    56 alpha electrons       56 beta electrons
       nuclear repulsion energy       996.4521632837 Hartrees.
 NAtoms=   31 NActive=   31 NUniq=   31 SFac= 1.00D+00 NAtFMM=   60 NAOKFM=F Big=F
 Nuclear repulsion after empirical dispersion term =      996.4313651327 Hartrees.
 ------------------------------------------------------------------------------
 Polarizable Continuum Model (PCM)
 =================================
 Model                : C-PCM.
 Atomic radii         : SMD-Coulomb.
 Polarization charges : Total charges.
 Charge compensation  : None.
 Solution method      : Matrix inversion.
 Cavity type          : VdW (van der Waals Surface) (Alpha=1.000).
 Cavity algorithm     : GePol (No added spheres)
                        Default sphere list used, NSphG=   31.
                        Lebedev-Laikov grids with approx.  5.0 points / Ang**2.
                        Smoothing algorithm: Karplus/York (Gamma=1.0000).
                        Polarization charges: spherical gaussians, with
                                              point-specific exponents (IZeta= 3).
                        Self-potential: point-specific (ISelfS= 7).
                        Self-field    : sphere-specific E.n sum rule (ISelfD= 2).
 Solvent              : Chloroform, Eps=   4.711300 Eps(inf)=   2.090627
 ------------------------------------------------------------------------------
 ------------------------------------------------------------------------------
 Atomic radii for non-electrostatic terms: SMD-CDS.
 ------------------------------------------------------------------------------
 Nuclear repulsion after PCM non-electrostatic terms =      996.4248676138 Hartrees.
 One-electron integrals computed using PRISM.
 NBasis=   365 RedAO= T  NBF=   365
 NBsUse=   365 1.00D-06 NBFU=   365
 Harris functional with IExCor= 4639 diagonalized for initial guess.
 ExpMin= 4.38D-02 ExpMax= 5.48D+03 ExpMxC= 8.25D+02 IAcc=2 IRadAn=         4 AccDes= 0.00D+00
 HarFok:  IExCor= 4639 AccDes= 0.00D+00 IRadAn=         4 IDoV= 1
 ScaDFX=  1.000000  1.000000  1.000000  1.000000
 FoFCou: FMM=F IPFlag=           0 FMFlag=      100000 FMFlg1=           0
         NFxFlg=           0 DoJE=T BraDBF=F KetDBF=T FulRan=T
         Omega=  0.000000  0.000000  1.000000  0.000000  0.000000 ICntrl=     500 IOpCl=  0
         NMat0=    1 NMatS0=    1 NMatT0=    0 NMatD0=    1 NMtDS0=    0 NMtDT0=    0
         I1Cent=           4 NGrid=           0.
 Petite list used in FoFCou.
 Initial guess orbital symmetries:
       Occupied  (A) (A) (A) (A) (A) (A) (A) (A) (A) (A) (A) (A)
                 (A) (A) (A) (A) (A) (A) (A) (A) (A) (A) (A) (A)
                 (A) (A) (A) (A) (A) (A) (A) (A) (A) (A) (A) (A)
                 (A) (A) (A) (A) (A) (A) (A) (A) (A) (A) (A) (A)
                 (A) (A) (A) (A) (A) (A) (A) (A)
       Virtual   (A) (A) (A) (A) (A) (A) (A) (A) (A) (A) (A) (A)
                 (A) (A) (A) (A) (A) (A) (A) (A) (A) (A) (A) (A)
                 (A) (A) (A) (A) (A) (A) (A) (A) (A) (A) (A) (A)
                 (A) (A) (A) (A) (A) (A) (A) (A) (A) (A) (A) (A)
                 (A) (A) (A) (A) (A) (A) (A) (A) (A) (A) (A) (A)
                 (A) (A) (A) (A) (A) (A) (A) (A) (A) (A) (A) (A)
                 (A) (A) (A) (A) (A) (A) (A) (A) (A) (A) (A) (A)
                 (A) (A) (A) (A) (A) (A) (A) (A) (A) (A) (A) (A)
                 (A) (A) (A) (A) (A) (A) (A) (A) (A) (A) (A) (A)
                 (A) (A) (A) (A) (A) (A) (A) (A) (A) (A) (A) (A)
                 (A) (A) (A) (A) (A) (A) (A) (A) (A) (A) (A) (A)
                 (A) (A) (A) (A) (A) (A) (A) (A) (A) (A) (A) (A)
                 (A) (A) (A) (A) (A) (A) (A) (A) (A) (A) (A) (A)
                 (A) (A) (A) (A) (A) (A) (A) (A) (A) (A) (A) (A)
                 (A) (A) (A) (A) (A) (A) (A) (A) (A) (A) (A) (A)
                 (A) (A) (A) (A) (A) (A) (A) (A) (A) (A) (A) (A)
                 (A) (A) (A) (A) (A) (A) (A) (A) (A) (A) (A) (A)
                 (A) (A) (A) (A) (A) (A) (A) (A) (A) (A) (A) (A)
                 (A) (A) (A) (A) (A) (A) (A) (A) (A) (A) (A) (A)
                 (A) (A) (A) (A) (A) (A) (A) (A) (A) (A) (A) (A)
                 (A) (A) (A) (A) (A) (A) (A) (A) (A) (A) (A) (A)
                 (A) (A) (A) (A) (A) (A) (A) (A) (A) (A) (A) (A)
                 (A) (A) (A) (A) (A) (A) (A) (A) (A) (A) (A) (A)
                 (A) (A) (A) (A) (A) (A) (A) (A) (A) (A) (A) (A)
                 (A) (A) (A) (A) (A) (A) (A) (A) (A) (A) (A) (A)
                 (A) (A) (A) (A) (A) (A) (A) (A) (A)
 The electronic state of the initial guess is 1-A.
 Requested convergence on RMS density matrix=1.00D-08 within 128 cycles.
 Requested convergence on MAX density matrix=1.00D-06.
 Requested convergence on             energy=1.00D-06.
 No special actions if energy rises.
 FoFJK:  IHMeth= 1 ICntrl=     0 DoSepK=T KAlg= 1 I1Cent= 0 FoldK=F
 FoFJK:  IHMeth= 1 ICntrl=     0 DoSepK=T KAlg= 1 I1Cent= 0 FoldK=F
 FoFJK:  IHMeth= 1 ICntrl=     0 DoSepK=T KAlg= 1 I1Cent= 0 FoldK=F
 FoFJK:  IHMeth= 1 ICntrl=     0 DoSepK=T KAlg= 1 I1Cent= 0 FoldK=F
 FoFJK:  IHMeth= 1 ICntrl=     0 DoSepK=T KAlg= 1 I1Cent= 0 FoldK=F
 FoFJK:  IHMeth= 1 ICntrl=     0 DoSepK=T KAlg= 1 I1Cent= 0 FoldK=F
 FoFJK:  IHMeth= 1 ICntrl=     0 DoSepK=T KAlg= 1 I1Cent= 0 FoldK=F
 FoFJK:  IHMeth= 1 ICntrl=     0 DoSepK=T KAlg= 1 I1Cent= 0 FoldK=F
 FoFJK:  IHMeth= 1 ICntrl=     0 DoSepK=T KAlg= 1 I1Cent= 0 FoldK=F
 FoFJK:  IHMeth= 1 ICntrl=     0 DoSepK=T KAlg= 1 I1Cent= 0 FoldK=F
 FoFJK:  IHMeth= 1 ICntrl=     0 DoSepK=T KAlg= 1 I1Cent= 0 FoldK=F
 FoFJK:  IHMeth= 1 ICntrl=     0 DoSepK=T KAlg= 1 I1Cent= 0 FoldK=F
 FoFJK:  IHMeth= 1 ICntrl=     0 DoSepK=T KAlg= 1 I1Cent= 0 FoldK=F
 FoFJK:  IHMeth= 1 ICntrl=     0 DoSepK=T KAlg= 1 I1Cent= 0 FoldK=F
 FoFJK:  IHMeth= 1 ICntrl=     0 DoSepK=T KAlg= 1 I1Cent= 0 FoldK=F
 FoFJK:  IHMeth= 1 ICntrl=     0 DoSepK=T KAlg= 1 I1Cent= 0 FoldK=F
 Error on total polarization charges =  0.04014
 SCF Done:  E(RwB97XD) =  -692.441799278     A.U. after   16 cycles
             Convg  =    0.2599D-08             -V/T =  2.0096
 SMD-CDS (non-electrostatic) energy       (kcal/mol) =      -4.08
 (included in total energy above)
 Range of M.O.s used for correlation:     1   365
 NBasis=   365 NAE=    56 NBE=    56 NFC=     0 NFV=     0
 NROrb=    365 NOA=    56 NOB=    56 NVA=   309 NVB=   309

 **** Warning!!: The largest alpha MO coefficient is  0.12316101D+03

 NEqPCM:  Using equilibrium solvation (IEInf=0, Eps=   4.7113, EpsInf=   2.0906)
          Differentiating once with respect to magnetic field using GIAOs.
          Electric field/nuclear overlap derivatives assumed to be zero.
 FoFCou: FMM=F IPFlag=           0 FMFlag=    10101102 FMFlg1=           0
         NFxFlg=    40000000 DoJE=F BraDBF=F KetDBF=T FulRan=T
         Omega=  0.000000  0.000000  1.000000  0.000000  0.000000 ICntrl=    6100 IOpCl=  0
         NMat0=    1 NMatS0=    1 NMatT0=    0 NMatD0=    1 NMtDS0=    0 NMtDT0=    0
         I1Cent=           7 NGrid=        2287.
 Symmetry not used in FoFCou.
 FoFJK:  IHMeth= 1 ICntrl=  6127 DoSepK=T KAlg= 1 I1Cent= 0 FoldK=F
 FoFJK:  IHMeth= 1 ICntrl=     0 DoSepK=T KAlg= 1 I1Cent= 0 FoldK=F
          There are     3 degrees of freedom in the 1st order CPHF.  IDoFFX=0.
      3 vectors produced by pass  0 Test12= 5.77D-13 3.33D-08 XBig12= 2.04D+02 3.39D+00.
 AX will form     3 AO Fock derivatives at one time.
 FoFJK:  IHMeth= 1 ICntrl=     0 DoSepK=T KAlg= 1 I1Cent= 0 FoldK=F
      3 vectors produced by pass  1 Test12= 5.77D-13 3.33D-08 XBig12= 1.70D+00 3.86D-01.
 FoFJK:  IHMeth= 1 ICntrl=     0 DoSepK=T KAlg= 1 I1Cent= 0 FoldK=F
      3 vectors produced by pass  2 Test12= 5.77D-13 3.33D-08 XBig12= 3.15D-02 7.99D-02.
 FoFJK:  IHMeth= 1 ICntrl=     0 DoSepK=T KAlg= 1 I1Cent= 0 FoldK=F
      3 vectors produced by pass  3 Test12= 5.77D-13 3.33D-08 XBig12= 5.61D-04 7.40D-03.
 FoFJK:  IHMeth= 1 ICntrl=     0 DoSepK=T KAlg= 1 I1Cent= 0 FoldK=F
      3 vectors produced by pass  4 Test12= 5.77D-13 3.33D-08 XBig12= 7.12D-06 7.28D-04.
 FoFJK:  IHMeth= 1 ICntrl=     0 DoSepK=T KAlg= 1 I1Cent= 0 FoldK=F
      3 vectors produced by pass  5 Test12= 5.77D-13 3.33D-08 XBig12= 9.36D-08 8.15D-05.
 FoFJK:  IHMeth= 1 ICntrl=     0 DoSepK=T KAlg= 1 I1Cent= 0 FoldK=F
      3 vectors produced by pass  6 Test12= 5.77D-13 3.33D-08 XBig12= 1.26D-09 1.23D-05.
 FoFJK:  IHMeth= 1 ICntrl=     0 DoSepK=T KAlg= 1 I1Cent= 0 FoldK=F
      3 vectors produced by pass  7 Test12= 5.77D-13 3.33D-08 XBig12= 1.80D-11 1.24D-06.
 FoFJK:  IHMeth= 1 ICntrl=     0 DoSepK=T KAlg= 1 I1Cent= 0 FoldK=F
      3 vectors produced by pass  8 Test12= 5.77D-13 3.33D-08 XBig12= 1.93D-13 8.82D-08.
 FoFJK:  IHMeth= 1 ICntrl=     0 DoSepK=T KAlg= 1 I1Cent= 0 FoldK=F
 Inverted reduced A of dimension    27 with in-core refinement.
 Calculating GIAO nuclear magnetic shielding tensors.
 SCF GIAO Magnetic shielding tensor (ppm):
      1  C    Isotropic =    71.2960   Anisotropy =   164.1527
   XX=    37.2682   YX=   -35.8905   ZX=   -17.1561
   XY=   -40.1214   YY=    -2.5714   ZY=     9.8202
   XZ=    -6.0309   YZ=     4.4807   ZZ=   179.1911
   Eigenvalues:   -25.5614    58.7182   180.7311
      2  C    Isotropic =    70.3304   Anisotropy =   176.0392
   XX=    33.8205   YX=   -40.3269   ZX=   -20.7217
   XY=   -43.1307   YY=    -6.8444   ZY=     8.5057
   XZ=   -20.3029   YZ=     6.6198   ZZ=   184.0150
   Eigenvalues:   -33.0245    56.3258   187.6898
      3  C    Isotropic =    69.9676   Anisotropy =   174.9394
   XX=    41.8945   YX=    32.1368   ZX=   -23.3748
   XY=    34.1511   YY=   -13.1331   ZY=    20.8482
   XZ=   -24.0708   YZ=    24.6818   ZZ=   181.1413
   Eigenvalues:   -33.1225    56.4314   186.5939
      4  C    Isotropic =    50.0107   Anisotropy =   184.7371
   XX=   -27.6357   YX=     1.0003   ZX=   -30.0619
   XY=    -0.4908   YY=     9.0726   ZY=     5.6185
   XZ=   -30.3111   YZ=   -10.3799   ZZ=   168.5952
   Eigenvalues:   -32.1747     9.0380   173.1687
      5  C    Isotropic =    74.1212   Anisotropy =   179.7922
   XX=    44.1746   YX=    27.4174   ZX=   -26.3415
   XY=    28.0184   YY=   -11.5740   ZY=    22.8187
   XZ=   -14.0110   YZ=    19.3536   ZZ=   189.7629
   Eigenvalues:   -26.4499    54.8308   193.9827
      6  C    Isotropic =    71.9227   Anisotropy =   175.7951
   XX=   -23.9753   YX=     1.8807   ZX=   -31.9027
   XY=     1.6804   YY=    57.1747   ZY=    10.5826
   XZ=   -37.7069   YZ=    11.3776   ZZ=   182.5687
   Eigenvalues:   -29.8269    56.4756   189.1194
      7  C    Isotropic =   119.6490   Anisotropy =    34.2710
   XX=   114.4596   YX=   -10.4965   ZX=     6.3427
   XY=    -7.1735   YY=   130.7399   ZY=   -16.8926
   XZ=     1.7427   YZ=   -12.3533   ZZ=   113.7475
   Eigenvalues:   105.2062   111.2445   142.4963
      8  C    Isotropic =   147.4922   Anisotropy =    24.0317
   XX=   162.3743   YX=     6.7531   ZX=     1.0641
   XY=     0.6884   YY=   142.5756   ZY=     2.2324
   XZ=    -7.4313   YZ=    -5.9362   ZZ=   137.5267
   Eigenvalues:   136.7647   142.1986   163.5134
      9  C    Isotropic =    17.5303   Anisotropy =   101.0351
   XX=   -52.9558   YX=    22.7406   ZX=   -19.0738
   XY=    56.4428   YY=    23.9620   ZY=     4.8131
   XZ=   -21.8832   YZ=    -0.2286   ZZ=    81.5847
   Eigenvalues:   -72.2349    39.9388    84.8871
     10  O    Isotropic =   127.1892   Anisotropy =   184.8779
   XX=    93.0431   YX=   -44.7751   ZX=   -13.6615
   XY=  -173.5815   YY=    46.7359   ZY=   -51.7861
   XZ=   -11.4165   YZ=   -28.2022   ZZ=   241.7885
   Eigenvalues:   -46.9945   178.1209   250.4411
     11  C    Isotropic =   137.2931   Anisotropy =    66.3678
   XX=   174.1078   YX=    20.5377   ZX=     8.2671
   XY=    17.5959   YY=   105.0078   ZY=     4.4116
   XZ=    11.4341   YZ=     7.8336   ZZ=   132.7637
   Eigenvalues:    99.7133   130.6277   181.5383
     12  O    Isotropic =   291.2279   Anisotropy =    79.3681
   XX=   310.5856   YX=    -5.2254   ZX=   -24.8143
   XY=     0.9594   YY=   242.6689   ZY=    -8.1959
   XZ=   -28.1947   YZ=   -28.7111   ZZ=   320.4293
   Eigenvalues:   237.5595   291.9844   344.1400
     13  C    Isotropic =   188.7802   Anisotropy =     9.1724
   XX=   189.6492   YX=     3.2082   ZX=     1.7054
   XY=     0.6870   YY=   192.2042   ZY=     4.8167
   XZ=    -0.7819   YZ=     3.8741   ZZ=   184.4871
   Eigenvalues:   182.5135   188.9319   194.8951
     14  O    Isotropic =   -35.0556   Anisotropy =   534.6658
   XX=  -165.8400   YX=    25.7139   ZX=   -58.6432
   XY=    57.9185   YY=  -247.0353   ZY=   -48.6160
   XZ=   -51.5476   YZ=   -71.6612   ZZ=   307.7086
   Eigenvalues:  -266.8986  -159.6564   321.3883
     15  C    Isotropic =   181.6435   Anisotropy =    25.2358
   XX=   184.3026   YX=     7.2992   ZX=     2.4782
   XY=     7.2472   YY=   164.8306   ZY=     1.7020
   XZ=     8.3763   YZ=     1.1294   ZZ=   195.7973
   Eigenvalues:   162.4097   184.0535   198.4673
     16  H    Isotropic =    23.6501   Anisotropy =     8.4261
   XX=    27.1798   YX=    -3.5286   ZX=     0.7930
   XY=    -2.7827   YY=    24.3372   ZY=    -0.2851
   XZ=     0.7402   YZ=     0.1262   ZZ=    19.4334
   Eigenvalues:    19.3443    22.3386    29.2675
     17  H    Isotropic =    23.7576   Anisotropy =     5.1895
   XX=    26.6858   YX=    -0.9717   ZX=     0.8296
   XY=    -1.1721   YY=    24.1327   ZY=    -0.5842
   XZ=     0.8368   YZ=    -0.5431   ZZ=    20.4543
   Eigenvalues:    20.2965    23.7590    27.2172
     18  H    Isotropic =    23.7825   Anisotropy =     4.8652
   XX=    26.7054   YX=     0.8176   ZX=     0.7126
   XY=     0.8332   YY=    24.2417   ZY=    -0.0147
   XZ=     0.7320   YZ=    -0.0768   ZZ=    20.4003
   Eigenvalues:    20.3136    24.0078    27.0259
     19  H    Isotropic =    23.2478   Anisotropy =    10.1205
   XX=    28.5947   YX=     3.7163   ZX=     0.3278
   XY=     2.9633   YY=    22.0217   ZY=     0.2331
   XZ=     0.0608   YZ=    -0.6363   ZZ=    19.1271
   Eigenvalues:    19.0819    20.6668    29.9948
     20  H    Isotropic =    23.7908   Anisotropy =     4.2364
   XX=    24.5248   YX=     0.1232   ZX=     0.4954
   XY=     0.0624   YY=    26.5884   ZY=    -0.4195
   XZ=     0.2411   YZ=    -0.3669   ZZ=    20.2592
   Eigenvalues:    20.2027    24.5547    26.6151
     21  H    Isotropic =    26.2892   Anisotropy =     5.6830
   XX=    25.4691   YX=    -0.9381   ZX=     0.4474
   XY=     0.1244   YY=    30.0235   ZY=     0.4926
   XZ=     0.7886   YZ=     0.3172   ZZ=    23.3751
   Eigenvalues:    23.1700    25.6198    30.0779
     22  H    Isotropic =    28.9188   Anisotropy =     5.2367
   XX=    28.1189   YX=    -1.9813   ZX=     1.7021
   XY=    -0.5826   YY=    30.0156   ZY=    -2.1329
   XZ=    -0.9609   YZ=    -3.1428   ZZ=    28.6218
   Eigenvalues:    26.4225    27.9239    32.4099
     23  H    Isotropic =    26.8503   Anisotropy =     6.6420
   XX=    28.9257   YX=     3.6400   ZX=    -0.9538
   XY=     1.4806   YY=    25.4021   ZY=    -2.5418
   XZ=    -1.2393   YZ=    -2.5656   ZZ=    26.2232
   Eigenvalues:    22.9122    26.3605    31.2783
     24  H    Isotropic =    27.6520   Anisotropy =     8.2198
   XX=    31.3197   YX=    -2.9537   ZX=    -1.7668
   XY=    -1.1232   YY=    24.5278   ZY=     2.6436
   XZ=    -1.9218   YZ=     3.4383   ZZ=    27.1084
   Eigenvalues:    22.4552    27.3689    33.1319
     25  H    Isotropic =    30.0655   Anisotropy =    16.3772
   XX=    29.9750   YX=    -1.3340   ZX=    -7.7814
   XY=    -0.2399   YY=    23.8446   ZY=    -3.3318
   XZ=    -5.6745   YZ=    -3.4455   ZZ=    36.3770
   Eigenvalues:    21.9168    27.2961    40.9837
     26  H    Isotropic =    30.6115   Anisotropy =     9.4874
   XX=    35.0525   YX=     2.8526   ZX=     1.8009
   XY=     3.1431   YY=    28.9396   ZY=     3.0804
   XZ=    -0.4394   YZ=     5.4392   ZZ=    27.8424
   Eigenvalues:    23.8873    31.0108    36.9364
     27  H    Isotropic =    30.7027   Anisotropy =    10.1647
   XX=    30.0575   YX=     0.2671   ZX=    -3.4850
   XY=    -0.6272   YY=    27.9475   ZY=     2.8980
   XZ=    -4.4301   YZ=     3.8551   ZZ=    34.1031
   Eigenvalues:    25.7522    28.8767    37.4792
     28  H    Isotropic =    29.7742   Anisotropy =     6.7417
   XX=    28.5049   YX=    -2.1438   ZX=     1.2940
   XY=    -2.5922   YY=    32.4898   ZY=    -2.2262
   XZ=     0.4903   YZ=    -1.3662   ZZ=    28.3279
   Eigenvalues:    27.3936    27.6603    34.2687
     29  H    Isotropic =    30.2192   Anisotropy =     5.8750
   XX=    29.9461   YX=    -2.8569   ZX=     0.0268
   XY=    -2.3336   YY=    29.5058   ZY=     2.4619
   XZ=     0.3356   YZ=     3.7066   ZZ=    31.2057
   Eigenvalues:    25.9043    30.6175    34.1359
     30  H    Isotropic =    30.5538   Anisotropy =    11.6502
   XX=    35.7205   YX=     2.5556   ZX=     3.5925
   XY=     2.5658   YY=    27.0183   ZY=     0.9158
   XZ=     4.6399   YZ=     1.0372   ZZ=    28.9227
   Eigenvalues:    26.2980    27.0429    38.3206
     31  H    Isotropic =    30.3402   Anisotropy =     7.8553
   XX=    28.1548   YX=     0.7167   ZX=     1.1764
   XY=     0.1875   YY=    31.7695   ZY=    -3.2727
   XZ=     1.1461   YZ=    -4.9313   ZZ=    31.0962
   Eigenvalues:    26.4947    28.9487    35.5771
 End of Minotr Frequency-dependent properties file   721 does not exist.
 End of Minotr Frequency-dependent properties file   722 does not exist.

 **********************************************************************

            Population analysis using the SCF density.

 **********************************************************************

 Orbital symmetries:
       Occupied  (A) (A) (A) (A) (A) (A) (A) (A) (A) (A) (A) (A)
                 (A) (A) (A) (A) (A) (A) (A) (A) (A) (A) (A) (A)
                 (A) (A) (A) (A) (A) (A) (A) (A) (A) (A) (A) (A)
                 (A) (A) (A) (A) (A) (A) (A) (A) (A) (A) (A) (A)
                 (A) (A) (A) (A) (A) (A) (A) (A)
       Virtual   (A) (A) (A) (A) (A) (A) (A) (A) (A) (A) (A) (A)
                 (A) (A) (A) (A) (A) (A) (A) (A) (A) (A) (A) (A)
                 (A) (A) (A) (A) (A) (A) (A) (A) (A) (A) (A) (A)
                 (A) (A) (A) (A) (A) (A) (A) (A) (A) (A) (A) (A)
                 (A) (A) (A) (A) (A) (A) (A) (A) (A) (A) (A) (A)
                 (A) (A) (A) (A) (A) (A) (A) (A) (A) (A) (A) (A)
                 (A) (A) (A) (A) (A) (A) (A) (A) (A) (A) (A) (A)
                 (A) (A) (A) (A) (A) (A) (A) (A) (A) (A) (A) (A)
                 (A) (A) (A) (A) (A) (A) (A) (A) (A) (A) (A) (A)
                 (A) (A) (A) (A) (A) (A) (A) (A) (A) (A) (A) (A)
                 (A) (A) (A) (A) (A) (A) (A) (A) (A) (A) (A) (A)
                 (A) (A) (A) (A) (A) (A) (A) (A) (A) (A) (A) (A)
                 (A) (A) (A) (A) (A) (A) (A) (A) (A) (A) (A) (A)
                 (A) (A) (A) (A) (A) (A) (A) (A) (A) (A) (A) (A)
                 (A) (A) (A) (A) (A) (A) (A) (A) (A) (A) (A) (A)
                 (A) (A) (A) (A) (A) (A) (A) (A) (A) (A) (A) (A)
                 (A) (A) (A) (A) (A) (A) (A) (A) (A) (A) (A) (A)
                 (A) (A) (A) (A) (A) (A) (A) (A) (A) (A) (A) (A)
                 (A) (A) (A) (A) (A) (A) (A) (A) (A) (A) (A) (A)
                 (A) (A) (A) (A) (A) (A) (A) (A) (A) (A) (A) (A)
                 (A) (A) (A) (A) (A) (A) (A) (A) (A) (A) (A) (A)
                 (A) (A) (A) (A) (A) (A) (A) (A) (A) (A) (A) (A)
                 (A) (A) (A) (A) (A) (A) (A) (A) (A) (A) (A) (A)
                 (A) (A) (A) (A) (A) (A) (A) (A) (A) (A) (A) (A)
                 (A) (A) (A) (A) (A) (A) (A) (A) (A) (A) (A) (A)
                 (A) (A) (A) (A) (A) (A) (A) (A) (A)
 The electronic state is 1-A.
 Alpha  occ. eigenvalues --  -19.32712 -19.28301 -19.27179 -10.43814 -10.36246
 Alpha  occ. eigenvalues --  -10.34936 -10.32084 -10.31605 -10.30789 -10.30773
 Alpha  occ. eigenvalues --  -10.30728 -10.30715 -10.30571 -10.28538 -10.28530
 Alpha  occ. eigenvalues --   -1.20851  -1.13200  -1.12142  -0.96274  -0.91291
 Alpha  occ. eigenvalues --   -0.86769  -0.84923  -0.84777  -0.78000  -0.75787
 Alpha  occ. eigenvalues --   -0.71486  -0.70085  -0.67900  -0.64512  -0.62318
 Alpha  occ. eigenvalues --   -0.59841  -0.58730  -0.57578  -0.56064  -0.54961
 Alpha  occ. eigenvalues --   -0.53378  -0.53033  -0.51689  -0.50691  -0.50187
 Alpha  occ. eigenvalues --   -0.48560  -0.47720  -0.46364  -0.46171  -0.45715
 Alpha  occ. eigenvalues --   -0.45060  -0.44468  -0.42801  -0.42418  -0.41601
 Alpha  occ. eigenvalues --   -0.40614  -0.38715  -0.36936  -0.36109  -0.33368
 Alpha  occ. eigenvalues --   -0.32436
 Alpha virt. eigenvalues --    0.04651   0.05245   0.06502   0.07340   0.07902
 Alpha virt. eigenvalues --    0.08098   0.08637   0.09363   0.09921   0.10180
 Alpha virt. eigenvalues --    0.10345   0.11047   0.11723   0.11847   0.12822
 Alpha virt. eigenvalues --    0.13277   0.14116   0.14392   0.14673   0.15070
 Alpha virt. eigenvalues --    0.15615   0.15884   0.16881   0.17539   0.17990
 Alpha virt. eigenvalues --    0.18486   0.19047   0.19135   0.19550   0.20666
 Alpha virt. eigenvalues --    0.20852   0.20987   0.21273   0.22015   0.22632
 Alpha virt. eigenvalues --    0.22957   0.23699   0.24074   0.24646   0.25076
 Alpha virt. eigenvalues --    0.25470   0.25805   0.25933   0.26085   0.26900
 Alpha virt. eigenvalues --    0.27141   0.27574   0.28117   0.28682   0.28727
 Alpha virt. eigenvalues --    0.29838   0.30027   0.30625   0.30851   0.31090
 Alpha virt. eigenvalues --    0.31927   0.32334   0.33251   0.33324   0.33964
 Alpha virt. eigenvalues --    0.34134   0.34736   0.34893   0.35531   0.35777
 Alpha virt. eigenvalues --    0.36845   0.37089   0.37515   0.38029   0.38702
 Alpha virt. eigenvalues --    0.39074   0.39868   0.40167   0.41080   0.41387
 Alpha virt. eigenvalues --    0.42234   0.42756   0.43150   0.43694   0.44060
 Alpha virt. eigenvalues --    0.44821   0.45636   0.46358   0.46606   0.48952
 Alpha virt. eigenvalues --    0.49545   0.50730   0.51687   0.53204   0.53649
 Alpha virt. eigenvalues --    0.54408   0.56650   0.61811   0.66498   0.70106
 Alpha virt. eigenvalues --    0.72746   0.74354   0.75550   0.75765   0.76995
 Alpha virt. eigenvalues --    0.77266   0.78726   0.80064   0.80369   0.81281
 Alpha virt. eigenvalues --    0.81845   0.82391   0.83430   0.83539   0.84207
 Alpha virt. eigenvalues --    0.84771   0.85634   0.87480   0.88332   0.89078
 Alpha virt. eigenvalues --    0.90256   0.90888   0.92602   0.94448   0.94665
 Alpha virt. eigenvalues --    0.96009   0.97236   0.99295   0.99919   1.02265
 Alpha virt. eigenvalues --    1.03603   1.04820   1.05313   1.06522   1.07010
 Alpha virt. eigenvalues --    1.08900   1.09596   1.10790   1.12364   1.12830
 Alpha virt. eigenvalues --    1.14329   1.14702   1.16466   1.16807   1.18489
 Alpha virt. eigenvalues --    1.19581   1.22044   1.23191   1.23843   1.24762
 Alpha virt. eigenvalues --    1.25521   1.26490   1.27812   1.28530   1.30625
 Alpha virt. eigenvalues --    1.32240   1.33313   1.34980   1.35773   1.36004
 Alpha virt. eigenvalues --    1.38001   1.39658   1.41332   1.42946   1.43887
 Alpha virt. eigenvalues --    1.45796   1.46342   1.48390   1.49041   1.50036
 Alpha virt. eigenvalues --    1.50344   1.50690   1.52782   1.55124   1.56922
 Alpha virt. eigenvalues --    1.58026   1.59224   1.61811   1.63185   1.66373
 Alpha virt. eigenvalues --    1.68003   1.69184   1.74390   1.76423   1.77151
 Alpha virt. eigenvalues --    1.79678   1.81194   1.84407   1.86829   1.88545
 Alpha virt. eigenvalues --    1.88713   1.90800   1.91703   1.92884   1.95040
 Alpha virt. eigenvalues --    1.96547   1.98261   1.99191   2.00525   2.00905
 Alpha virt. eigenvalues --    2.01499   2.02891   2.04985   2.06049   2.06867
 Alpha virt. eigenvalues --    2.07247   2.07714   2.08534   2.10627   2.11267
 Alpha virt. eigenvalues --    2.11861   2.13905   2.14852   2.17801   2.18755
 Alpha virt. eigenvalues --    2.19647   2.20738   2.21470   2.23155   2.23983
 Alpha virt. eigenvalues --    2.25906   2.26484   2.28329   2.29875   2.30722
 Alpha virt. eigenvalues --    2.32755   2.35096   2.36744   2.38859   2.40248
 Alpha virt. eigenvalues --    2.41099   2.43901   2.45673   2.46419   2.48041
 Alpha virt. eigenvalues --    2.48981   2.49827   2.50162   2.53369   2.54280
 Alpha virt. eigenvalues --    2.56097   2.56553   2.57094   2.59677   2.60177
 Alpha virt. eigenvalues --    2.62958   2.64732   2.65072   2.65409   2.68010
 Alpha virt. eigenvalues --    2.68636   2.71592   2.72560   2.73567   2.74850
 Alpha virt. eigenvalues --    2.77254   2.78701   2.79503   2.81587   2.82628
 Alpha virt. eigenvalues --    2.83554   2.86213   2.86470   2.88574   2.88984
 Alpha virt. eigenvalues --    2.90663   2.91930   2.94213   2.96482   2.97432
 Alpha virt. eigenvalues --    2.99257   3.00530   3.02276   3.05284   3.10081
 Alpha virt. eigenvalues --    3.12308   3.14646   3.17158   3.22821   3.24927
 Alpha virt. eigenvalues --    3.28922   3.32521   3.36580   3.37033   3.38261
 Alpha virt. eigenvalues --    3.39478   3.43567   3.44927   3.51568   3.52650
 Alpha virt. eigenvalues --    3.53788   3.56892   3.59270   3.60863   3.62882
 Alpha virt. eigenvalues --    3.65756   3.66658   3.67823   3.99404   4.40399
 Alpha virt. eigenvalues --    4.40871   4.42775   4.48456   4.52113   4.55878
 Alpha virt. eigenvalues --    4.57851   4.59784   4.62376   4.67832   4.72592
 Alpha virt. eigenvalues --    4.78461   4.81457   4.95577   4.97382
          Condensed to atoms (all electrons):
              1          2          3          4          5          6
     1  C   15.293118  -1.314561  -1.010106  -4.618691  -6.414828   0.141655
     2  C   -1.314561   8.815182   0.743774   1.881035  -1.659796   0.560607
     3  C   -1.010106   0.743774   6.829151   0.787114  -0.513857   0.430512
     4  C   -4.618691   1.881035   0.787114  22.579416  -2.756517  -0.972592
     5  C   -6.414828  -1.659796  -0.513857  -2.756517  16.338972   0.141551
     6  C    0.141655   0.560607   0.430512  -0.972592   0.141551   5.358595
     7  C    4.213323  -3.410976  -1.473831 -12.262954   0.509011   0.220264
     8  C   -0.338961   0.295584   0.251000   1.843503   0.160001  -0.042132
     9  C   -0.080496  -0.206271  -0.111749  -2.129233   0.443007   0.027571
    10  O   -0.007650   0.000842  -0.000594  -0.003309   0.009992   0.000199
    11  C   -0.012670   0.002942   0.000697   0.048944   0.014969  -0.000022
    12  O   -0.180669   0.218923   0.021167   0.252051   0.095865   0.002519
    13  C   -0.014966   0.111314  -0.028289   0.814279  -0.347587  -0.006240
    14  O    0.009365  -0.000235   0.001644  -0.024265  -0.015148  -0.000025
    15  C    0.004555  -0.001837  -0.000546  -0.018899  -0.005450   0.000079
    16  H    0.208754   0.011458   0.044657   0.084291  -0.001584  -0.013279
    17  H    0.007217   0.270867  -0.004777   0.033408   0.019035   0.009469
    18  H    0.038708  -0.004481   0.259044   0.009165   0.001323   0.024040
    19  H    0.047301  -0.043776  -0.003562   0.115775   0.218290  -0.009657
    20  H   -0.005873   0.020387   0.024917   0.006385   0.000305   0.276733
    21  H    0.109257   0.028228   0.063046   0.261679  -0.084471  -0.001127
    22  H   -0.091442   0.006681  -0.009776   0.077224   0.055588  -0.000259
    23  H    0.000148  -0.000005   0.000010  -0.001638   0.000152   0.000001
    24  H   -0.000066   0.000006  -0.000002   0.000270   0.000084   0.000000
    25  H    0.016753   0.000397   0.002390   0.052136  -0.050611  -0.001098
    26  H    0.046874  -0.012126  -0.005096  -0.013391  -0.074281   0.000653
    27  H   -0.011015  -0.000238  -0.000024   0.013310   0.010650   0.000045
    28  H   -0.010887   0.006244  -0.001687  -0.055934   0.041490   0.000918
    29  H   -0.000833   0.000047  -0.000011   0.004233   0.000544  -0.000003
    30  H    0.000025  -0.000001   0.000000  -0.000313  -0.000018   0.000000
    31  H    0.000064  -0.000007   0.000000  -0.000585   0.000035   0.000001
              7          8          9         10         11         12
     1  C    4.213323  -0.338961  -0.080496  -0.007650  -0.012670  -0.180669
     2  C   -3.410976   0.295584  -0.206271   0.000842   0.002942   0.218923
     3  C   -1.473831   0.251000  -0.111749  -0.000594   0.000697   0.021167
     4  C  -12.262954   1.843503  -2.129233  -0.003309   0.048944   0.252051
     5  C    0.509011   0.160001   0.443007   0.009992   0.014969   0.095865
     6  C    0.220264  -0.042132   0.027571   0.000199  -0.000022   0.002519
     7  C   19.850744  -2.870101   2.318673  -0.006267  -0.063092  -0.240085
     8  C   -2.870101   9.011338  -2.005644  -0.361122   0.041052  -0.282472
     9  C    2.318673  -2.005644   7.184436   0.401458  -0.134191   0.124130
    10  O   -0.006267  -0.361122   0.401458   8.420970   0.067568   0.011431
    11  C   -0.063092   0.041052  -0.134191   0.067568   5.105893   0.002230
    12  O   -0.240085  -0.282472   0.124130   0.011431   0.002230   8.320181
    13  C   -0.636551  -0.159782  -0.270391   0.028360  -0.014731   0.017627
    14  O   -0.078836  -0.086394   0.661993  -0.163526   0.013531  -0.003602
    15  C    0.044217  -0.043267  -0.021058  -0.056419   0.275585   0.003658
    16  H   -0.034878   0.031124  -0.016201   0.000026  -0.000167   0.000367
    17  H   -0.008660  -0.000594  -0.000212   0.000000   0.000000   0.000125
    18  H   -0.000780  -0.000628   0.000149   0.000000   0.000000   0.000015
    19  H   -0.006283  -0.014749   0.004004  -0.000015  -0.000019   0.005034
    20  H    0.003716  -0.000142   0.000017   0.000000   0.000000  -0.000006
    21  H   -0.094173   0.125431  -0.115951   0.002618   0.001615  -0.048544
    22  H   -0.060081   0.318651  -0.021251   0.007769   0.002487   0.008538
    23  H   -0.001024   0.004549   0.008600  -0.038783   0.405082   0.000016
    24  H   -0.000408  -0.002954   0.005168  -0.063046   0.427470   0.000041
    25  H   -0.033855   0.040638  -0.020301  -0.000138  -0.000001   0.242017
    26  H    0.122814  -0.108570  -0.000005   0.000858  -0.000151  -0.005257
    27  H   -0.008306  -0.110747   0.016575  -0.001372  -0.001228   0.000756
    28  H   -0.001851  -0.070213   0.001945   0.001338  -0.000730   0.005718
    29  H   -0.004875   0.005213  -0.012547  -0.005995  -0.039453   0.000224
    30  H   -0.000553   0.001039   0.008086   0.006960  -0.049588   0.000009
    31  H    0.000841   0.001809   0.010155  -0.005316  -0.040367  -0.000205
             13         14         15         16         17         18
     1  C   -0.014966   0.009365   0.004555   0.208754   0.007217   0.038708
     2  C    0.111314  -0.000235  -0.001837   0.011458   0.270867  -0.004481
     3  C   -0.028289   0.001644  -0.000546   0.044657  -0.004777   0.259044
     4  C    0.814279  -0.024265  -0.018899   0.084291   0.033408   0.009165
     5  C   -0.347587  -0.015148  -0.005450  -0.001584   0.019035   0.001323
     6  C   -0.006240  -0.000025   0.000079  -0.013279   0.009469   0.024040
     7  C   -0.636551  -0.078836   0.044217  -0.034878  -0.008660  -0.000780
     8  C   -0.159782  -0.086394  -0.043267   0.031124  -0.000594  -0.000628
     9  C   -0.270391   0.661993  -0.021058  -0.016201  -0.000212   0.000149
    10  O    0.028360  -0.163526  -0.056419   0.000026   0.000000   0.000000
    11  C   -0.014731   0.013531   0.275585  -0.000167   0.000000   0.000000
    12  O    0.017627  -0.003602   0.003658   0.000367   0.000125   0.000015
    13  C    5.834426   0.012047   0.004685   0.003584   0.000782   0.000164
    14  O    0.012047   8.186236  -0.034064   0.000059   0.000000  -0.000002
    15  C    0.004685  -0.034064   5.206361  -0.000002   0.000000   0.000000
    16  H    0.003584   0.000059  -0.000002   0.503358   0.000011  -0.003958
    17  H    0.000782   0.000000   0.000000   0.000011   0.496433  -0.000122
    18  H    0.000164  -0.000002   0.000000  -0.003958  -0.000122   0.496101
    19  H    0.006056  -0.000018   0.000003  -0.000109  -0.004066   0.000011
    20  H   -0.000067   0.000000   0.000000  -0.000119  -0.003846  -0.003864
    21  H   -0.007588   0.005623  -0.001378   0.001801   0.000002  -0.000003
    22  H    0.009048  -0.007663  -0.000638   0.000123   0.000000   0.000002
    23  H   -0.006230   0.000265  -0.038298   0.000000   0.000000   0.000000
    24  H    0.002491   0.000308  -0.038666   0.000000   0.000000   0.000000
    25  H    0.001908   0.000032  -0.000425   0.000033  -0.000001   0.000000
    26  H    0.407251  -0.000194  -0.000103  -0.000003  -0.000009   0.000000
    27  H    0.453627  -0.000319  -0.000242   0.000000   0.000000   0.000000
    28  H    0.444788  -0.000360   0.000060   0.000000   0.000000   0.000000
    29  H    0.000766   0.002030   0.414177   0.000000   0.000000   0.000000
    30  H   -0.000187  -0.000355   0.398590   0.000000   0.000000   0.000000
    31  H   -0.002404  -0.000542   0.399481   0.000000   0.000000   0.000000
             19         20         21         22         23         24
     1  C    0.047301  -0.005873   0.109257  -0.091442   0.000148  -0.000066
     2  C   -0.043776   0.020387   0.028228   0.006681  -0.000005   0.000006
     3  C   -0.003562   0.024917   0.063046  -0.009776   0.000010  -0.000002
     4  C    0.115775   0.006385   0.261679   0.077224  -0.001638   0.000270
     5  C    0.218290   0.000305  -0.084471   0.055588   0.000152   0.000084
     6  C   -0.009657   0.276733  -0.001127  -0.000259   0.000001   0.000000
     7  C   -0.006283   0.003716  -0.094173  -0.060081  -0.001024  -0.000408
     8  C   -0.014749  -0.000142   0.125431   0.318651   0.004549  -0.002954
     9  C    0.004004   0.000017  -0.115951  -0.021251   0.008600   0.005168
    10  O   -0.000015   0.000000   0.002618   0.007769  -0.038783  -0.063046
    11  C   -0.000019   0.000000   0.001615   0.002487   0.405082   0.427470
    12  O    0.005034  -0.000006  -0.048544   0.008538   0.000016   0.000041
    13  C    0.006056  -0.000067  -0.007588   0.009048  -0.006230   0.002491
    14  O   -0.000018   0.000000   0.005623  -0.007663   0.000265   0.000308
    15  C    0.000003   0.000000  -0.001378  -0.000638  -0.038298  -0.038666
    16  H   -0.000109  -0.000119   0.001801   0.000123   0.000000   0.000000
    17  H   -0.004066  -0.003846   0.000002   0.000000   0.000000   0.000000
    18  H    0.000011  -0.003864  -0.000003   0.000002   0.000000   0.000000
    19  H    0.501339  -0.000119  -0.000042   0.000061   0.000000   0.000000
    20  H   -0.000119   0.499024   0.000000   0.000000   0.000000   0.000000
    21  H   -0.000042   0.000000   0.590867   0.000251   0.000001   0.000000
    22  H    0.000061   0.000000   0.000251   0.493153   0.000009   0.000006
    23  H    0.000000   0.000000   0.000001   0.000009   0.522551  -0.031563
    24  H    0.000000   0.000000   0.000000   0.000006  -0.031563   0.529554
    25  H   -0.000972   0.000000  -0.004939  -0.000129   0.000000   0.000000
    26  H   -0.000131   0.000000  -0.000147  -0.002972   0.000000  -0.000001
    27  H    0.000038   0.000000  -0.000070  -0.003115  -0.000008   0.000017
    28  H   -0.000026   0.000000  -0.000046   0.003703  -0.000005   0.000022
    29  H    0.000000   0.000000   0.000028   0.000000  -0.004852   0.003919
    30  H    0.000000   0.000000   0.000000   0.000000  -0.000997  -0.001120
    31  H    0.000000   0.000000   0.000000   0.000000   0.003806  -0.005058
             25         26         27         28         29         30
     1  C    0.016753   0.046874  -0.011015  -0.010887  -0.000833   0.000025
     2  C    0.000397  -0.012126  -0.000238   0.006244   0.000047  -0.000001
     3  C    0.002390  -0.005096  -0.000024  -0.001687  -0.000011   0.000000
     4  C    0.052136  -0.013391   0.013310  -0.055934   0.004233  -0.000313
     5  C   -0.050611  -0.074281   0.010650   0.041490   0.000544  -0.000018
     6  C   -0.001098   0.000653   0.000045   0.000918  -0.000003   0.000000
     7  C   -0.033855   0.122814  -0.008306  -0.001851  -0.004875  -0.000553
     8  C    0.040638  -0.108570  -0.110747  -0.070213   0.005213   0.001039
     9  C   -0.020301  -0.000005   0.016575   0.001945  -0.012547   0.008086
    10  O   -0.000138   0.000858  -0.001372   0.001338  -0.005995   0.006960
    11  C   -0.000001  -0.000151  -0.001228  -0.000730  -0.039453  -0.049588
    12  O    0.242017  -0.005257   0.000756   0.005718   0.000224   0.000009
    13  C    0.001908   0.407251   0.453627   0.444788   0.000766  -0.000187
    14  O    0.000032  -0.000194  -0.000319  -0.000360   0.002030  -0.000355
    15  C   -0.000425  -0.000103  -0.000242   0.000060   0.414177   0.398590
    16  H    0.000033  -0.000003   0.000000   0.000000   0.000000   0.000000
    17  H   -0.000001  -0.000009   0.000000   0.000000   0.000000   0.000000
    18  H    0.000000   0.000000   0.000000   0.000000   0.000000   0.000000
    19  H   -0.000972  -0.000131   0.000038  -0.000026   0.000000   0.000000
    20  H    0.000000   0.000000   0.000000   0.000000   0.000000   0.000000
    21  H   -0.004939  -0.000147  -0.000070  -0.000046   0.000028   0.000000
    22  H   -0.000129  -0.002972  -0.003115   0.003703   0.000000   0.000000
    23  H    0.000000   0.000000  -0.000008  -0.000005  -0.004852  -0.000997
    24  H    0.000000  -0.000001   0.000017   0.000022   0.003919  -0.001120
    25  H    0.354219  -0.000018  -0.000004  -0.000035   0.000000   0.000000
    26  H   -0.000018   0.521633  -0.024641  -0.024960   0.000000   0.000000
    27  H   -0.000004  -0.024641   0.518737  -0.025365   0.000000   0.000000
    28  H   -0.000035  -0.024960  -0.025365   0.499593   0.000000   0.000000
    29  H    0.000000   0.000000   0.000000   0.000000   0.509364  -0.022257
    30  H    0.000000   0.000000   0.000000   0.000000  -0.022257   0.506851
    31  H    0.000002   0.000000   0.000000  -0.000003  -0.028822  -0.022903
             31
     1  C    0.000064
     2  C   -0.000007
     3  C    0.000000
     4  C   -0.000585
     5  C    0.000035
     6  C    0.000001
     7  C    0.000841
     8  C    0.001809
     9  C    0.010155
    10  O   -0.005316
    11  C   -0.040367
    12  O   -0.000205
    13  C   -0.002404
    14  O   -0.000542
    15  C    0.399481
    16  H    0.000000
    17  H    0.000000
    18  H    0.000000
    19  H    0.000000
    20  H    0.000000
    21  H    0.000000
    22  H    0.000000
    23  H    0.003806
    24  H   -0.005058
    25  H    0.000002
    26  H    0.000000
    27  H    0.000000
    28  H   -0.000003
    29  H   -0.028822
    30  H   -0.022903
    31  H    0.514987
 Mulliken atomic charges:
              1
     1  C   -0.023402
     2  C   -0.320207
     3  C   -0.295215
     4  C   -0.005896
     5  C   -0.136715
     6  C   -0.148978
     7  C    0.014819
     8  C    0.367540
     9  C   -0.070464
    10  O   -0.246838
    11  C   -0.053655
    12  O   -0.571804
    13  C   -0.658192
    14  O   -0.477585
    15  C   -0.490159
    16  H    0.180654
    17  H    0.184939
    18  H    0.185115
    19  H    0.185631
    20  H    0.182552
    21  H    0.168033
    22  H    0.214029
    23  H    0.178212
    24  H    0.173528
    25  H    0.402001
    26  H    0.171972
    27  H    0.172941
    28  H    0.186282
    29  H    0.179102
    30  H    0.176733
    31  H    0.175029
 Sum of Mulliken atomic charges =   0.00000
 Mulliken charges with hydrogens summed into heavy atoms:
              1
     1  C    0.157252
     2  C   -0.135268
     3  C   -0.110100
     4  C   -0.005896
     5  C    0.048916
     6  C    0.033573
     7  C    0.182852
     8  C    0.581568
     9  C   -0.070464
    10  O   -0.246838
    11  C    0.298085
    12  O   -0.169803
    13  C   -0.126996
    14  O   -0.477585
    15  C    0.040704
 Sum of Mulliken charges with hydrogens summed into heavy atoms =   0.00000
 Electronic spatial extent (au):  <R**2>=           4198.0313
 Charge=              0.0000 electrons
 Dipole moment (field-independent basis, Debye):
    X=             -1.0879    Y=             -1.0864    Z=              0.0532  Tot=              1.5384
 Quadrupole moment (field-independent basis, Debye-Ang):
   XX=            -72.8749   YY=            -92.8247   ZZ=            -88.4474
   XY=             -2.9875   XZ=             -0.6788   YZ=              1.0568
 Traceless Quadrupole moment (field-independent basis, Debye-Ang):
   XX=             11.8408   YY=             -8.1090   ZZ=             -3.7317
   XY=             -2.9875   XZ=             -0.6788   YZ=              1.0568
 Octapole moment (field-independent basis, Debye-Ang**2):
  XXX=             53.4738  YYY=             -9.3652  ZZZ=              8.3204  XYY=            -22.5622
  XXY=             -8.2071  XXZ=             -5.6731  XZZ=             19.1434  YZZ=             -2.7191
  YYZ=              2.7418  XYZ=              6.9301
 Hexadecapole moment (field-independent basis, Debye-Ang**3):
 XXXX=          -3884.4976 YYYY=           -641.7876 ZZZZ=           -411.6915 XXXY=             -7.3161
 XXXZ=             40.9863 YYYX=            -29.9384 YYYZ=             -3.7036 ZZZX=            -26.4597
 ZZZY=            -15.3672 XXYY=           -840.3375 XXZZ=           -884.9870 YYZZ=           -186.3147
 XXYZ=             -9.3593 YYXZ=              4.5258 ZZXY=             10.3792
 N-N= 9.964248676138D+02 E-N=-3.604829594850D+03  KE= 6.858850149334D+02
 1\1\GINC-COMPUTE-5-22\SP\RwB97XD\6-31+G(d,p)\C12H16O3\ELUCIANO.IQUIR\1
 7-May-2022\0\\# wb97xd/6-31+g** scrf=(pcm,solvent=chloroform,smd,dovac
 uum) nmr\\comment\\0,1\C,0,-0.330743582,2.867261163,-0.096552036\C,0,1
 .446802855,3.289103844,2.009343875\C,0,-0.241342105,4.124927548,0.5027
 89609\C,0,0.472935167,1.804783248,0.346171182\C,0,1.358950031,2.030941
 049,1.411109856\C,0,0.647963364,4.335613575,1.554177963\C,0,0.34667941
 7,0.442892717,-0.314927198\C,0,-0.68826659,-0.456204549,0.381381854\C,
 0,-1.179827078,-1.455665702,-0.647688741\O,0,-0.728186408,-2.716053685
 ,-0.417792657\C,0,-1.112939764,-3.71198668,-1.376061247\O,0,1.62523427
 9,-0.194726904,-0.371391595\C,0,-0.193075351,-1.11221034,1.672039021\O
 ,0,-1.89042437,-1.132097512,-1.594324008\C,0,-0.132930349,-3.727942523
 ,-2.534118953\H,0,-1.035350722,2.721671716,-0.913644518\H,0,2.13695636
 3,3.451070502,2.833429224\H,0,-0.867942187,4.940221361,0.149969993\H,0
 ,1.984732188,1.223047205,1.786433384\H,0,0.715928401,5.314678244,2.021
 234023\H,0,0.06225097,0.61085892,-1.361763313\H,0,-1.578242908,0.13207
 927,0.646038237\H,0,-2.141388512,-3.556866525,-1.721635386\H,0,-1.0893
 2373,-4.677710085,-0.860649223\H,0,2.263781094,0.483718703,-0.65471190
 1\H,0,0.029289944,-0.361510715,2.436057278\H,0,-0.959235174,-1.7791244
 32,2.083559829\H,0,0.709475891,-1.711244526,1.511516774\H,0,-0.1375830
 8,-2.771450197,-3.066316813\H,0,-0.382330197,-4.522988604,-3.242429778
 \H,0,0.888152142,-3.885086084,-2.171244734\\Version=EM64L-G09RevC.01\S
 tate=1-A\HF=-692.4417993\RMSD=2.599e-09\Dipole=0.3763965,0.2179452,0.4
 208917\Quadrupole=-4.7916074,8.0453843,-3.2537769,2.4285869,-1.291591,
 3.142197\PG=C01 [X(C12H16O3)]\\@


 DEPRESSION IS WAITING FOR YOUR SHIP TO COME IN,
 AND FINDING OUT IT'S THE TITANIC.
 Job cpu time:  0 days  0 hours 43 minutes 39.1 seconds.
 File lengths (MBytes):  RWF=    124 Int=      0 D2E=      0 Chk=      9 Scr=      1
 Normal termination of Gaussian 09 at Tue May 17 17:41:44 2022.
