 Entering Gaussian System, Link 0=g09
 Input=/home/eluciano.iquir/wb9/73a_001.gjc
 Output=/home/eluciano.iquir/wb9/73a_001.log
 Initial command:
 /share/apps/Gaussian09/EM64T.SSE4.2-enabled/g09/l1.exe /tmp/Gau-27643.inp -scrdir=/tmp/
 Entering Link 1 = /share/apps/Gaussian09/EM64T.SSE4.2-enabled/g09/l1.exe PID=     27644.
  
 Copyright (c) 1988,1990,1992,1993,1995,1998,2003,2009,2011,
            Gaussian, Inc.  All Rights Reserved.
  
 This is part of the Gaussian(R) 09 program.  It is based on
 the Gaussian(R) 03 system (copyright 2003, Gaussian, Inc.),
 the Gaussian(R) 98 system (copyright 1998, Gaussian, Inc.),
 the Gaussian(R) 94 system (copyright 1995, Gaussian, Inc.),
 the Gaussian 92(TM) system (copyright 1992, Gaussian, Inc.),
 the Gaussian 90(TM) system (copyright 1990, Gaussian, Inc.),
 the Gaussian 88(TM) system (copyright 1988, Gaussian, Inc.),
 the Gaussian 86(TM) system (copyright 1986, Carnegie Mellon
 University), and the Gaussian 82(TM) system (copyright 1983,
 Carnegie Mellon University). Gaussian is a federally registered
 trademark of Gaussian, Inc.
  
 This software contains proprietary and confidential information,
 including trade secrets, belonging to Gaussian, Inc.
  
 This software is provided under written license and may be
 used, copied, transmitted, or stored only in accord with that
 written license.
  
 The following legend is applicable only to US Government
 contracts under FAR:
  
                    RESTRICTED RIGHTS LEGEND
  
 Use, reproduction and disclosure by the US Government is
 subject to restrictions as set forth in subparagraphs (a)
 and (c) of the Commercial Computer Software - Restricted
 Rights clause in FAR 52.227-19.
  
 Gaussian, Inc.
 340 Quinnipiac St., Bldg. 40, Wallingford CT 06492
  
  
 ---------------------------------------------------------------
 Warning -- This program may not be used in any manner that
 competes with the business of Gaussian, Inc. or will provide
 assistance to any competitor of Gaussian, Inc.  The licensee
 of this program is prohibited from giving any competitor of
 Gaussian, Inc. access to this program.  By using this program,
 the user acknowledges that Gaussian, Inc. is engaged in the
 business of creating and licensing software in the field of
 computational chemistry and represents and warrants to the
 licensee that it is not a competitor of Gaussian, Inc. and that
 it will not use this program in any manner prohibited above.
 ---------------------------------------------------------------
  

 Cite this work as:
 Gaussian 09, Revision C.01,
 M. J. Frisch, G. W. Trucks, H. B. Schlegel, G. E. Scuseria, 
 M. A. Robb, J. R. Cheeseman, G. Scalmani, V. Barone, B. Mennucci, 
 G. A. Petersson, H. Nakatsuji, M. Caricato, X. Li, H. P. Hratchian, 
 A. F. Izmaylov, J. Bloino, G. Zheng, J. L. Sonnenberg, M. Hada, 
 M. Ehara, K. Toyota, R. Fukuda, J. Hasegawa, M. Ishida, T. Nakajima, 
 Y. Honda, O. Kitao, H. Nakai, T. Vreven, J. A. Montgomery, Jr., 
 J. E. Peralta, F. Ogliaro, M. Bearpark, J. J. Heyd, E. Brothers, 
 K. N. Kudin, V. N. Staroverov, T. Keith, R. Kobayashi, J. Normand, 
 K. Raghavachari, A. Rendell, J. C. Burant, S. S. Iyengar, J. Tomasi, 
 M. Cossi, N. Rega, J. M. Millam, M. Klene, J. E. Knox, J. B. Cross, 
 V. Bakken, C. Adamo, J. Jaramillo, R. Gomperts, R. E. Stratmann, 
 O. Yazyev, A. J. Austin, R. Cammi, C. Pomelli, J. W. Ochterski, 
 R. L. Martin, K. Morokuma, V. G. Zakrzewski, G. A. Voth, 
 P. Salvador, J. J. Dannenberg, S. Dapprich, A. D. Daniels, 
 O. Farkas, J. B. Foresman, J. V. Ortiz, J. Cioslowski, 
 and D. J. Fox, Gaussian, Inc., Wallingford CT, 2010.
 
 ******************************************
 Gaussian 09:  EM64L-G09RevC.01 23-Sep-2011
                17-May-2022 
 ******************************************
 %nprocshared=4
 Will use up to    4 processors via shared memory.
 ----------------------------------------------------------------
 # wb97xd/6-31+g** scrf=(pcm,solvent=chloroform,smd,dovacuum) nmr
 ----------------------------------------------------------------
 1/38=1/1;
 2/12=2,17=6,18=5,40=1/2;
 3/5=1,6=6,7=111,11=2,16=1,25=1,30=1,70=32101,72=7,74=-58/1,2,8,3;
 4//1;
 5/5=2,38=5,53=7/2;
 8/6=1,10=90,11=11/1;
 10/13=100,45=16/2;
 6/7=2,8=2,9=2,10=2,28=1/1;
 99/9=1/99;
 -------
 comment
 -------
 Charge =  0 Multiplicity = 1
 Symbolic Z-Matrix:
 6                     1.78348   0.46264  -1.47591 
 6                     0.15395   2.66505  -1.99949 
 6                     1.55082   0.8645   -2.79225 
 6                     1.20551   1.16007  -0.40496 
 6                     0.38436   2.26443  -0.68277 
 6                     0.73773   1.96549  -3.05342 
 6                     1.45149   0.70579   1.02247 
 6                     0.22339   0.04241   1.66077 
 6                    -0.09574  -1.23097   0.91194 
 8                    -1.41993  -1.2768    0.5963 
 6                    -1.81058  -2.44461  -0.13493 
 8                     1.84492   1.84314   1.80077 
 6                     0.44271  -0.30286   3.13312 
 8                     0.72064  -2.10454   0.64721 
 6                    -3.29126  -2.33676  -0.44241 
 1                     2.41255  -0.4072   -1.29277 
 1                    -0.48284   3.52226  -2.20267 
 1                     2.00208   0.315    -3.61458 
 1                    -0.0803    2.81941   0.13053 
 1                     0.55682   2.27655  -4.07902 
 1                     2.30659   0.01842   1.04249 
 1                    -0.63502   0.72425   1.6036 
 1                    -1.62191  -3.33856   0.46987 
 1                    -1.24226  -2.50383  -1.07001 
 1                     2.42583   2.38365   1.23619 
 1                     0.58757   0.59992   3.73488 
 1                    -0.42184  -0.84009   3.53878 
 1                     1.31993  -0.94609   3.26483 
 1                    -3.87213  -2.25547   0.48229 
 1                    -3.63822  -3.20982  -1.00209 
 1                    -3.49834  -1.43539  -1.02875 
 
                          Input orientation:                          
 ---------------------------------------------------------------------
 Center     Atomic      Atomic             Coordinates (Angstroms)
 Number     Number       Type             X           Y           Z
 ---------------------------------------------------------------------
      1          6           0        1.783478    0.462644   -1.475908
      2          6           0        0.153947    2.665050   -1.999494
      3          6           0        1.550822    0.864503   -2.792249
      4          6           0        1.205513    1.160075   -0.404962
      5          6           0        0.384357    2.264433   -0.682774
      6          6           0        0.737733    1.965485   -3.053421
      7          6           0        1.451492    0.705787    1.022469
      8          6           0        0.223387    0.042410    1.660768
      9          6           0       -0.095745   -1.230969    0.911940
     10          8           0       -1.419926   -1.276797    0.596303
     11          6           0       -1.810580   -2.444607   -0.134925
     12          8           0        1.844923    1.843143    1.800768
     13          6           0        0.442712   -0.302861    3.133115
     14          8           0        0.720643   -2.104542    0.647209
     15          6           0       -3.291262   -2.336758   -0.442409
     16          1           0        2.412546   -0.407200   -1.292773
     17          1           0       -0.482835    3.522258   -2.202675
     18          1           0        2.002084    0.314998   -3.614585
     19          1           0       -0.080302    2.819406    0.130534
     20          1           0        0.556823    2.276546   -4.079019
     21          1           0        2.306586    0.018425    1.042486
     22          1           0       -0.635018    0.724245    1.603598
     23          1           0       -1.621908   -3.338565    0.469874
     24          1           0       -1.242260   -2.503832   -1.070010
     25          1           0        2.425831    2.383654    1.236194
     26          1           0        0.587568    0.599921    3.734879
     27          1           0       -0.421844   -0.840094    3.538784
     28          1           0        1.319933   -0.946085    3.264825
     29          1           0       -3.872130   -2.255467    0.482295
     30          1           0       -3.638221   -3.209817   -1.002086
     31          1           0       -3.498344   -1.435388   -1.028752
 ---------------------------------------------------------------------
                    Distance matrix (angstroms):
                    1          2          3          4          5
     1  C    0.000000
     2  C    2.789284   0.000000
     3  C    1.395841   2.412818   0.000000
     4  C    1.402633   2.431722   2.430173   0.000000
     5  C    2.415170   1.395469   2.787531   1.403953   0.000000
     6  C    2.416746   1.393183   1.393373   2.807462   2.415412
     7  C    2.532040   3.828132   3.819310   1.518039   2.544801
     8  C    3.528345   4.503396   4.718822   2.545778   3.233494
     9  C    3.478739   4.870087   4.563244   3.024002   3.871878
    10  O    4.193032   4.975278   4.989268   3.719382   4.175139
    11  C    4.813273   5.783129   5.413927   4.707809   5.224265
    12  O    3.556144   4.239919   4.705320   2.395969   2.911824
    13  C    4.860736   5.935955   6.140081   3.903849   4.599502
    14  O    3.496811   5.484084   4.618906   3.464085   4.579288
    15  C    5.887084   6.269933   6.262236   5.696510   5.893972
    16  H    1.088988   3.878072   2.146677   2.168292   3.409292
    17  H    3.876287   1.087005   3.398091   3.414996   2.155051
    18  H    2.154884   3.398069   1.087120   3.413262   3.874642
    19  H    3.407148   2.148422   3.876193   2.166439   1.088748
    20  H    3.401633   2.153525   2.153527   3.894355   3.400643
    21  H    2.610227   4.570790   3.999027   2.147285   3.422870
    22  H    3.924400   4.167908   4.911318   2.758952   2.939184
    23  H    5.461860   6.730143   6.194630   5.384923   6.061953
    24  H    4.256738   5.434213   4.702456   4.456242   5.052938
    25  H    3.385026   3.963624   4.393383   2.383216   2.804331
    26  H    5.348023   6.110304   6.603125   4.223021   4.725204
    27  H    5.630960   6.579520   6.846827   4.711910   5.301848
    28  H    4.967288   6.489444   6.326112   4.232770   5.173613
    29  H    6.573324   6.824958   7.061534   6.183494   6.317005
    30  H    6.565538   7.063244   6.836003   6.550898   6.800772
    31  H    5.630286   5.576303   5.821812   5.408494   5.374359
                    6          7          8          9         10
     6  C    0.000000
     7  C    4.325410   0.000000
     8  C    5.117260   1.534841   0.000000
     9  C    5.161017   2.481367   1.511318   0.000000
    10  O    5.337450   3.515295   2.360904   1.362051   0.000000
    11  C    5.870301   4.680348   3.680596   2.347234   1.432162
    12  O    4.980360   1.433218   2.427265   3.742508   4.673756
    13  C    6.595883   2.547516   1.528111   2.466767   3.294448
    14  O    5.500916   2.927953   2.425688   1.224623   2.295602
    15  C    6.446665   5.822085   4.736724   3.642577   2.388376
    16  H    3.396250   2.742757   3.703778   3.439605   4.360350
    17  H    2.153392   4.698477   5.247312   5.695948   5.634124
    18  H    2.153508   4.685951   5.573814   5.223057   5.654692
    19  H    3.396459   2.758501   3.185208   4.125091   4.334791
    20  H    1.086894   5.412292   6.168281   6.134996   6.196162
    21  H    4.798833   1.097294   2.173147   2.710945   3.970337
    22  H    5.011282   2.166005   1.097737   2.142911   2.373793
    23  H    6.790763   5.109592   4.031666   2.639424   2.075492
    24  H    5.275328   4.683633   4.011061   2.619695   2.076964
    25  H    4.628752   1.951987   3.242290   4.419161   5.347729
    26  H    6.925917   2.848638   2.178390   3.433374   4.171661
    27  H    7.257621   3.497281   2.173035   2.675711   3.137685
    28  H    6.981149   2.788216   2.180032   2.760684   3.838907
    29  H    7.181125   6.115698   4.841724   3.936404   2.642744
    30  H    7.081010   6.733198   5.707870   4.486476   3.348469
    31  H    5.797376   5.770010   4.823762   3.922468   2.643062
                   11         12         13         14         15
    11  C    0.000000
    12  O    5.957718   0.000000
    13  C    4.510486   2.889062   0.000000
    14  O    2.671043   4.263674   3.082698   0.000000
    15  C    1.516113   6.991696   5.555509   4.163722   0.000000
    16  H    4.829745   3.867329   4.845578   3.083349   6.081097
    17  H    6.453060   4.925996   6.630146   6.421143   6.731558
    18  H    5.853192   5.629029   6.953046   5.065486   6.716697
    19  H    5.547447   2.729334   4.363209   5.015349   6.101194
    20  H    6.591643   6.034810   7.660369   6.446549   7.022483
    21  H    4.940029   2.029217   2.819217   2.679262   6.252017
    22  H    3.800794   2.727804   2.134449   3.279410   4.539991
    23  H    1.095691   6.374973   4.535527   2.653640   2.150028
    24  H    1.095846   6.055431   5.034844   2.638420   2.149467
    25  H    6.568048   0.973833   3.840369   4.837196   7.601655
    26  H    5.476828   2.620559   1.094586   4.106766   6.412421
    27  H    4.242545   3.919016   1.095738   3.356383   5.130640
    28  H    4.858393   3.193567   1.095720   2.924566   6.077885
    29  H    2.160260   7.156931   5.427465   4.598210   1.095031
    30  H    2.162818   7.965755   6.496483   4.789729   1.093549
    31  H    2.160092   6.877895   5.842574   4.588732   1.095057
                   16         17         18         19         20
    16  H    0.000000
    17  H    4.965057   0.000000
    18  H    2.465939   4.295908   0.000000
    19  H    4.318690   2.469797   4.963296   0.000000
    20  H    4.290614   2.480595   2.480353   4.291965   0.000000
    21  H    2.376093   5.530713   4.676428   3.791357   5.864350
    22  H    4.353939   4.726494   5.860992   2.620559   6.010180
    23  H    5.289295   7.450563   6.569980   6.357068   7.547765
    24  H    4.219371   6.178464   4.994640   5.579276   5.928140
    25  H    3.766261   4.645705   5.290459   2.773638   5.635260
    26  H    5.442621   6.703757   7.489770   4.285262   7.991809
    27  H    5.618283   7.210976   7.640703   5.012461   8.288676
    28  H    4.717617   7.287635   7.027229   5.095427   8.056038
    29  H    6.787055   7.216543   7.609080   6.344765   7.807711
    30  H    6.674649   7.531182   7.145803   7.091766   7.560826
    31  H    6.005456   5.920274   6.324957   5.579447   6.287047
                   21         22         23         24         25
    21  H    0.000000
    22  H    3.076698   0.000000
    23  H    5.199070   4.331940   0.000000
    24  H    4.839290   4.235257   1.792248   0.000000
    25  H    2.376142   3.501060   7.050902   6.531538   0.000000
    26  H    3.246867   2.460189   5.572585   6.005706   3.578315
    27  H    3.796431   2.497508   4.135301   4.968106   4.878906
    28  H    2.615828   3.061293   4.710641   5.270883   4.052841
    29  H    6.607642   4.540363   2.497349   3.063911   7.858379
    30  H    7.067004   5.593358   2.499752   2.498731   8.548072
    31  H    6.332520   4.448810   3.064143   2.496636   7.403439
                   26         27         28         29         30
    26  H    0.000000
    27  H    1.769465   0.000000
    28  H    1.774104   1.766373   0.000000
    29  H    6.214616   4.821813   6.034441   0.000000
    30  H    7.403393   6.048154   6.922016   1.780136   0.000000
    31  H    6.597676   5.539098   6.472250   1.759405   1.780134
                   31
    31  H    0.000000
 Stoichiometry    C12H16O3
 Framework group  C1[X(C12H16O3)]
 Deg. of freedom    87
 Full point group                 C1      NOp   1
 Largest Abelian subgroup         C1      NOp   1
 Largest concise Abelian subgroup C1      NOp   1
                         Standard orientation:                         
 ---------------------------------------------------------------------
 Center     Atomic      Atomic             Coordinates (Angstroms)
 Number     Number       Type             X           Y           Z
 ---------------------------------------------------------------------
      1          6           0        1.750008   -0.467030    1.255540
      2          6           0        2.762093   -1.264808   -1.218189
      3          6           0        2.500326   -1.639401    1.150956
      4          6           0        1.499309    0.322216    0.123452
      5          6           0        2.011367   -0.092918   -1.116121
      6          6           0        3.006800   -2.037017   -0.084711
      7          6           0        0.668759    1.587134    0.244333
      8          6           0       -0.732185    1.445365   -0.366398
      9          6           0       -1.509373    0.410686    0.414307
     10          8           0       -2.088505   -0.485954   -0.431759
     11          6           0       -2.832400   -1.518853    0.224614
     12          8           0        1.371103    2.656372   -0.401853
     13          6           0       -1.515669    2.757189   -0.346498
     14          8           0       -1.617133    0.397115    1.634103
     15          6           0       -3.382469   -2.452346   -0.835863
     16          1           0        1.353109   -0.179165    2.227908
     17          1           0        3.154435   -1.575973   -2.182981
     18          1           0        2.686370   -2.244579    2.034685
     19          1           0        1.826383    0.499247   -2.010825
     20          1           0        3.590076   -2.950660   -0.164614
     21          1           0        0.594135    1.872877    1.301138
     22          1           0       -0.647146    1.124888   -1.412863
     23          1           0       -3.658073   -1.074949    0.791847
     24          1           0       -2.175247   -2.075551    0.902196
     25          1           0        2.315493    2.538479   -0.195509
     26          1           0       -1.037551    3.514299   -0.976026
     27          1           0       -2.534649    2.606435   -0.720121
     28          1           0       -1.595030    3.158156    0.670129
     29          1           0       -4.025293   -1.906332   -1.534246
     30          1           0       -3.961252   -3.261298   -0.381490
     31          1           0       -2.568871   -2.887434   -1.425700
 ---------------------------------------------------------------------
 Rotational constants (GHZ):      0.7030707      0.4599804      0.3377568
 Standard basis: 6-31+G(d,p) (6D, 7F)
 There are   365 symmetry adapted basis functions of A   symmetry.
 Integral buffers will be    131072 words long.
 Raffenetti 2 integral format.
 Two-electron integral symmetry is turned on.
   365 basis functions,   592 primitive gaussians,   365 cartesian basis functions
    56 alpha electrons       56 beta electrons
       nuclear repulsion energy      1011.4690683391 Hartrees.
 NAtoms=   31 NActive=   31 NUniq=   31 SFac= 1.00D+00 NAtFMM=   60 NAOKFM=F Big=F
 Nuclear repulsion after empirical dispersion term =     1011.4484652937 Hartrees.
 ------------------------------------------------------------------------------
 Polarizable Continuum Model (PCM)
 =================================
 Model                : C-PCM.
 Atomic radii         : SMD-Coulomb.
 Polarization charges : Total charges.
 Charge compensation  : None.
 Solution method      : Matrix inversion.
 Cavity type          : VdW (van der Waals Surface) (Alpha=1.000).
 Cavity algorithm     : GePol (No added spheres)
                        Default sphere list used, NSphG=   31.
                        Lebedev-Laikov grids with approx.  5.0 points / Ang**2.
                        Smoothing algorithm: Karplus/York (Gamma=1.0000).
                        Polarization charges: spherical gaussians, with
                                              point-specific exponents (IZeta= 3).
                        Self-potential: point-specific (ISelfS= 7).
                        Self-field    : sphere-specific E.n sum rule (ISelfD= 2).
 Solvent              : Chloroform, Eps=   4.711300 Eps(inf)=   2.090627
 ------------------------------------------------------------------------------
 ------------------------------------------------------------------------------
 Atomic radii for non-electrostatic terms: SMD-CDS.
 ------------------------------------------------------------------------------
 Nuclear repulsion after PCM non-electrostatic terms =     1011.4418324649 Hartrees.
 One-electron integrals computed using PRISM.
 NBasis=   365 RedAO= T  NBF=   365
 NBsUse=   365 1.00D-06 NBFU=   365
 Harris functional with IExCor= 4639 diagonalized for initial guess.
 ExpMin= 4.38D-02 ExpMax= 5.48D+03 ExpMxC= 8.25D+02 IAcc=2 IRadAn=         4 AccDes= 0.00D+00
 HarFok:  IExCor= 4639 AccDes= 0.00D+00 IRadAn=         4 IDoV= 1
 ScaDFX=  1.000000  1.000000  1.000000  1.000000
 FoFCou: FMM=F IPFlag=           0 FMFlag=      100000 FMFlg1=           0
         NFxFlg=           0 DoJE=T BraDBF=F KetDBF=T FulRan=T
         Omega=  0.000000  0.000000  1.000000  0.000000  0.000000 ICntrl=     500 IOpCl=  0
         NMat0=    1 NMatS0=    1 NMatT0=    0 NMatD0=    1 NMtDS0=    0 NMtDT0=    0
         I1Cent=           4 NGrid=           0.
 Petite list used in FoFCou.
 Initial guess orbital symmetries:
       Occupied  (A) (A) (A) (A) (A) (A) (A) (A) (A) (A) (A) (A)
                 (A) (A) (A) (A) (A) (A) (A) (A) (A) (A) (A) (A)
                 (A) (A) (A) (A) (A) (A) (A) (A) (A) (A) (A) (A)
                 (A) (A) (A) (A) (A) (A) (A) (A) (A) (A) (A) (A)
                 (A) (A) (A) (A) (A) (A) (A) (A)
       Virtual   (A) (A) (A) (A) (A) (A) (A) (A) (A) (A) (A) (A)
                 (A) (A) (A) (A) (A) (A) (A) (A) (A) (A) (A) (A)
                 (A) (A) (A) (A) (A) (A) (A) (A) (A) (A) (A) (A)
                 (A) (A) (A) (A) (A) (A) (A) (A) (A) (A) (A) (A)
                 (A) (A) (A) (A) (A) (A) (A) (A) (A) (A) (A) (A)
                 (A) (A) (A) (A) (A) (A) (A) (A) (A) (A) (A) (A)
                 (A) (A) (A) (A) (A) (A) (A) (A) (A) (A) (A) (A)
                 (A) (A) (A) (A) (A) (A) (A) (A) (A) (A) (A) (A)
                 (A) (A) (A) (A) (A) (A) (A) (A) (A) (A) (A) (A)
                 (A) (A) (A) (A) (A) (A) (A) (A) (A) (A) (A) (A)
                 (A) (A) (A) (A) (A) (A) (A) (A) (A) (A) (A) (A)
                 (A) (A) (A) (A) (A) (A) (A) (A) (A) (A) (A) (A)
                 (A) (A) (A) (A) (A) (A) (A) (A) (A) (A) (A) (A)
                 (A) (A) (A) (A) (A) (A) (A) (A) (A) (A) (A) (A)
                 (A) (A) (A) (A) (A) (A) (A) (A) (A) (A) (A) (A)
                 (A) (A) (A) (A) (A) (A) (A) (A) (A) (A) (A) (A)
                 (A) (A) (A) (A) (A) (A) (A) (A) (A) (A) (A) (A)
                 (A) (A) (A) (A) (A) (A) (A) (A) (A) (A) (A) (A)
                 (A) (A) (A) (A) (A) (A) (A) (A) (A) (A) (A) (A)
                 (A) (A) (A) (A) (A) (A) (A) (A) (A) (A) (A) (A)
                 (A) (A) (A) (A) (A) (A) (A) (A) (A) (A) (A) (A)
                 (A) (A) (A) (A) (A) (A) (A) (A) (A) (A) (A) (A)
                 (A) (A) (A) (A) (A) (A) (A) (A) (A) (A) (A) (A)
                 (A) (A) (A) (A) (A) (A) (A) (A) (A) (A) (A) (A)
                 (A) (A) (A) (A) (A) (A) (A) (A) (A) (A) (A) (A)
                 (A) (A) (A) (A) (A) (A) (A) (A) (A)
 The electronic state of the initial guess is 1-A.
 Requested convergence on RMS density matrix=1.00D-08 within 128 cycles.
 Requested convergence on MAX density matrix=1.00D-06.
 Requested convergence on             energy=1.00D-06.
 No special actions if energy rises.
 FoFJK:  IHMeth= 1 ICntrl=     0 DoSepK=T KAlg= 1 I1Cent= 0 FoldK=F
 FoFJK:  IHMeth= 1 ICntrl=     0 DoSepK=T KAlg= 1 I1Cent= 0 FoldK=F
 FoFJK:  IHMeth= 1 ICntrl=     0 DoSepK=T KAlg= 1 I1Cent= 0 FoldK=F
 FoFJK:  IHMeth= 1 ICntrl=     0 DoSepK=T KAlg= 1 I1Cent= 0 FoldK=F
 FoFJK:  IHMeth= 1 ICntrl=     0 DoSepK=T KAlg= 1 I1Cent= 0 FoldK=F
 FoFJK:  IHMeth= 1 ICntrl=     0 DoSepK=T KAlg= 1 I1Cent= 0 FoldK=F
 FoFJK:  IHMeth= 1 ICntrl=     0 DoSepK=T KAlg= 1 I1Cent= 0 FoldK=F
 FoFJK:  IHMeth= 1 ICntrl=     0 DoSepK=T KAlg= 1 I1Cent= 0 FoldK=F
 FoFJK:  IHMeth= 1 ICntrl=     0 DoSepK=T KAlg= 1 I1Cent= 0 FoldK=F
 FoFJK:  IHMeth= 1 ICntrl=     0 DoSepK=T KAlg= 1 I1Cent= 0 FoldK=F
 FoFJK:  IHMeth= 1 ICntrl=     0 DoSepK=T KAlg= 1 I1Cent= 0 FoldK=F
 FoFJK:  IHMeth= 1 ICntrl=     0 DoSepK=T KAlg= 1 I1Cent= 0 FoldK=F
 FoFJK:  IHMeth= 1 ICntrl=     0 DoSepK=T KAlg= 1 I1Cent= 0 FoldK=F
 FoFJK:  IHMeth= 1 ICntrl=     0 DoSepK=T KAlg= 1 I1Cent= 0 FoldK=F
 FoFJK:  IHMeth= 1 ICntrl=     0 DoSepK=T KAlg= 1 I1Cent= 0 FoldK=F
 FoFJK:  IHMeth= 1 ICntrl=     0 DoSepK=T KAlg= 1 I1Cent= 0 FoldK=F
 Error on total polarization charges =  0.03950
 SCF Done:  E(RwB97XD) =  -692.446008802     A.U. after   16 cycles
             Convg  =    0.3894D-08             -V/T =  2.0095
 SMD-CDS (non-electrostatic) energy       (kcal/mol) =      -4.16
 (included in total energy above)
 Range of M.O.s used for correlation:     1   365
 NBasis=   365 NAE=    56 NBE=    56 NFC=     0 NFV=     0
 NROrb=    365 NOA=    56 NOB=    56 NVA=   309 NVB=   309

 **** Warning!!: The largest alpha MO coefficient is  0.16836694D+03

 NEqPCM:  Using equilibrium solvation (IEInf=0, Eps=   4.7113, EpsInf=   2.0906)
          Differentiating once with respect to magnetic field using GIAOs.
          Electric field/nuclear overlap derivatives assumed to be zero.
 FoFCou: FMM=F IPFlag=           0 FMFlag=    10101102 FMFlg1=           0
         NFxFlg=    40000000 DoJE=F BraDBF=F KetDBF=T FulRan=T
         Omega=  0.000000  0.000000  1.000000  0.000000  0.000000 ICntrl=    6100 IOpCl=  0
         NMat0=    1 NMatS0=    1 NMatT0=    0 NMatD0=    1 NMtDS0=    0 NMtDT0=    0
         I1Cent=           7 NGrid=        2293.
 Symmetry not used in FoFCou.
 FoFJK:  IHMeth= 1 ICntrl=  6127 DoSepK=T KAlg= 1 I1Cent= 0 FoldK=F
 FoFJK:  IHMeth= 1 ICntrl=     0 DoSepK=T KAlg= 1 I1Cent= 0 FoldK=F
          There are     3 degrees of freedom in the 1st order CPHF.  IDoFFX=0.
      3 vectors produced by pass  0 Test12= 5.77D-13 3.33D-08 XBig12= 1.23D+02 2.33D+00.
 AX will form     3 AO Fock derivatives at one time.
 FoFJK:  IHMeth= 1 ICntrl=     0 DoSepK=T KAlg= 1 I1Cent= 0 FoldK=F
      3 vectors produced by pass  1 Test12= 5.77D-13 3.33D-08 XBig12= 8.68D-01 2.43D-01.
 FoFJK:  IHMeth= 1 ICntrl=     0 DoSepK=T KAlg= 1 I1Cent= 0 FoldK=F
      3 vectors produced by pass  2 Test12= 5.77D-13 3.33D-08 XBig12= 1.46D-02 4.38D-02.
 FoFJK:  IHMeth= 1 ICntrl=     0 DoSepK=T KAlg= 1 I1Cent= 0 FoldK=F
      3 vectors produced by pass  3 Test12= 5.77D-13 3.33D-08 XBig12= 2.61D-04 4.77D-03.
 FoFJK:  IHMeth= 1 ICntrl=     0 DoSepK=T KAlg= 1 I1Cent= 0 FoldK=F
      3 vectors produced by pass  4 Test12= 5.77D-13 3.33D-08 XBig12= 5.91D-06 5.84D-04.
 FoFJK:  IHMeth= 1 ICntrl=     0 DoSepK=T KAlg= 1 I1Cent= 0 FoldK=F
      3 vectors produced by pass  5 Test12= 5.77D-13 3.33D-08 XBig12= 8.73D-08 4.77D-05.
 FoFJK:  IHMeth= 1 ICntrl=     0 DoSepK=T KAlg= 1 I1Cent= 0 FoldK=F
      3 vectors produced by pass  6 Test12= 5.77D-13 3.33D-08 XBig12= 1.05D-09 8.21D-06.
 FoFJK:  IHMeth= 1 ICntrl=     0 DoSepK=T KAlg= 1 I1Cent= 0 FoldK=F
      3 vectors produced by pass  7 Test12= 5.77D-13 3.33D-08 XBig12= 1.41D-11 1.11D-06.
 FoFJK:  IHMeth= 1 ICntrl=     0 DoSepK=T KAlg= 1 I1Cent= 0 FoldK=F
      3 vectors produced by pass  8 Test12= 5.77D-13 3.33D-08 XBig12= 1.57D-13 7.75D-08.
 FoFJK:  IHMeth= 1 ICntrl=     0 DoSepK=T KAlg= 1 I1Cent= 0 FoldK=F
 Inverted reduced A of dimension    27 with in-core refinement.
 Calculating GIAO nuclear magnetic shielding tensors.
 SCF GIAO Magnetic shielding tensor (ppm):
      1  C    Isotropic =    70.0458   Anisotropy =   164.7838
   XX=   129.0673   YX=    66.9134   ZX=    42.9136
   XY=    56.9978   YY=    90.7538   ZY=    -8.6361
   XZ=    44.5735   YZ=    -6.9481   ZZ=    -9.6838
   Eigenvalues:   -28.4259    58.6616   179.9016
      2  C    Isotropic =    69.4743   Anisotropy =   177.1294
   XX=   138.0150   YX=    66.2163   ZX=    43.1459
   XY=    65.5159   YY=    84.0092   ZY=   -10.5470
   XZ=    48.1600   YZ=    -9.9645   ZZ=   -13.6012
   Eigenvalues:   -34.0070    54.8694   187.5606
      3  C    Isotropic =    70.1910   Anisotropy =   173.7910
   XX=   145.1305   YX=    64.2898   ZX=     8.7955
   XY=    64.1690   YY=    62.9869   ZY=    51.4456
   XZ=     6.0769   YZ=    52.5713   ZZ=     2.4556
   Eigenvalues:   -31.8502    56.3715   186.0517
      4  C    Isotropic =    51.0481   Anisotropy =   186.3260
   XX=   113.1761   YX=    92.7261   ZX=    15.8438
   XY=    92.8999   YY=    26.9217   ZY=    11.3976
   XZ=    22.7045   YZ=     8.4519   ZZ=    13.0465
   Eigenvalues:   -32.3874    10.2663   175.2655
      5  C    Isotropic =    72.7187   Anisotropy =   180.8473
   XX=   146.2068   YX=    72.7300   ZX=     9.0580
   XY=    65.9154   YY=    70.3176   ZY=    46.4487
   XZ=     9.8230   YZ=    51.6547   ZZ=     1.6317
   Eigenvalues:   -27.9213    52.7938   193.2836
      6  C    Isotropic =    71.4023   Anisotropy =   177.6497
   XX=   126.6962   YX=    93.8858   ZX=    22.8175
   XY=    98.5352   YY=    28.4053   ZY=     8.4756
   XZ=    23.3925   YZ=     6.2662   ZZ=    59.1054
   Eigenvalues:   -30.8667    55.2381   189.8354
      7  C    Isotropic =   119.4733   Anisotropy =    29.0782
   XX=   113.7255   YX=     3.4649   ZX=    -5.5815
   XY=     9.2001   YY=   123.6923   ZY=   -11.8370
   XZ=    -9.2426   YZ=   -13.5941   ZZ=   121.0021
   Eigenvalues:   108.5700   110.9912   138.8588
      8  C    Isotropic =   146.3182   Anisotropy =    25.9520
   XX=   157.1729   YX=     5.6493   ZX=    -5.7661
   XY=    12.4424   YY=   140.3951   ZY=    -6.2996
   XZ=    -4.6070   YZ=    -6.7270   ZZ=   141.3865
   Eigenvalues:   133.7606   141.5745   163.6195
      9  C    Isotropic =    18.9422   Anisotropy =   103.5836
   XX=    37.7102   YX=   -70.9837   ZX=    -6.4828
   XY=   -71.0685   YY=   -12.6395   ZY=   -10.7100
   XZ=   -21.1934   YZ=   -36.5775   ZZ=    31.7557
   Eigenvalues:   -70.1350    38.9635    87.9979
     10  O    Isotropic =   125.4340   Anisotropy =   174.9721
   XX=   176.8424   YX=   -17.7256   ZX=    42.3702
   XY=   -12.0001   YY=   172.9002   ZY=    51.0755
   XZ=   120.3587   YZ=   159.2471   ZZ=    26.5595
   Eigenvalues:   -55.4906   189.7106   242.0821
     11  C    Isotropic =   137.1624   Anisotropy =    58.7136
   XX=   133.7288   YX=    24.3885   ZX=   -14.9925
   XY=    24.9204   YY=   148.6658   ZY=   -21.0067
   XZ=    -9.6528   YZ=   -13.0216   ZZ=   129.0928
   Eigenvalues:   115.4250   119.7574   176.3049
     12  O    Isotropic =   276.0277   Anisotropy =    60.4846
   XX=   314.6601   YX=     1.6061   ZX=    -7.6445
   XY=   -13.5448   YY=   283.6883   ZY=   -12.2895
   XZ=   -10.2194   YZ=    -8.0368   ZZ=   229.7347
   Eigenvalues:   226.7743   284.9580   316.3508
     13  C    Isotropic =   180.2529   Anisotropy =    27.4230
   XX=   177.5054   YX=   -14.9287   ZX=     0.9357
   XY=   -12.9685   YY=   189.1847   ZY=     0.8470
   XZ=    -1.0900   YZ=     2.1511   ZZ=   174.0685
   Eigenvalues:   168.1237   174.1000   198.5349
     14  O    Isotropic =   -41.1318   Anisotropy =   564.2176
   XX=   161.2683   YX=  -246.1275   ZX=    22.6142
   XY=  -243.0862   YY=   -16.1261   ZY=   -34.4493
   XZ=    -2.9955   YZ=   -65.7139   ZZ=  -268.5376
   Eigenvalues:  -283.7505  -174.6582   335.0133
     15  C    Isotropic =   182.7965   Anisotropy =    23.4623
   XX=   176.7403   YX=    11.0606   ZX=     1.4322
   XY=    11.8392   YY=   185.3448   ZY=     4.2372
   XZ=     5.5418   YZ=    10.1496   ZZ=   186.3044
   Eigenvalues:   168.7107   181.2408   198.4380
     16  H    Isotropic =    23.9079   Anisotropy =     7.6293
   XX=    23.5700   YX=    -3.1068   ZX=     2.1180
   XY=    -3.6409   YY=    24.5552   ZY=    -2.3386
   XZ=     1.6754   YZ=    -1.9579   ZZ=    23.5985
   Eigenvalues:    20.6525    22.0771    28.9941
     17  H    Isotropic =    23.6721   Anisotropy =     4.8438
   XX=    22.5893   YX=    -2.9085   ZX=    -0.4688
   XY=    -2.8485   YY=    24.7886   ZY=    -0.9370
   XZ=    -0.2916   YZ=    -1.1415   ZZ=    23.6382
   Eigenvalues:    20.3546    23.7603    26.9013
     18  H    Isotropic =    23.9618   Anisotropy =     4.7213
   XX=    23.0388   YX=    -2.8297   ZX=    -0.8506
   XY=    -2.9513   YY=    24.4949   ZY=     0.5542
   XZ=    -0.8352   YZ=     0.6579   ZZ=    24.3515
   Eigenvalues:    20.7612    24.0149    27.1093
     19  H    Isotropic =    23.3456   Anisotropy =     9.2391
   XX=    22.9535   YX=    -3.2184   ZX=    -3.6996
   XY=    -3.5285   YY=    23.9423   ZY=     2.8117
   XZ=    -2.5751   YZ=     2.5827   ZZ=    23.1408
   Eigenvalues:    19.7001    20.8316    29.5050
     20  H    Isotropic =    23.7990   Anisotropy =     4.0445
   XX=    22.1431   YX=    -1.9211   ZX=    -0.8052
   XY=    -1.8750   YY=    22.9473   ZY=    -0.6261
   XZ=    -0.7618   YZ=    -0.7780   ZZ=    26.3065
   Eigenvalues:    20.4175    24.4841    26.4953
     21  H    Isotropic =    26.6249   Anisotropy =     5.9145
   XX=    24.0892   YX=     1.2823   ZX=    -0.6547
   XY=     0.5922   YY=    25.8204   ZY=    -1.9897
   XZ=    -0.8905   YZ=    -0.8558   ZZ=    29.9652
   Eigenvalues:    23.6754    25.6315    30.5679
     22  H    Isotropic =    28.5173   Anisotropy =     4.0607
   XX=    28.2407   YX=    -2.0666   ZX=    -0.3453
   XY=     0.5301   YY=    28.0799   ZY=     2.1099
   XZ=    -0.0708   YZ=     2.6123   ZZ=    29.2314
   Eigenvalues:    26.1147    28.2128    31.2245
     23  H    Isotropic =    27.7413   Anisotropy =     7.0717
   XX=    30.1554   YX=     1.5960   ZX=    -3.7672
   XY=     2.9588   YY=    26.3694   ZY=     1.2255
   XZ=    -3.0905   YZ=     2.4174   ZZ=    26.6992
   Eigenvalues:    22.5575    28.2106    32.4558
     24  H    Isotropic =    28.1512   Anisotropy =     5.1348
   XX=    27.1111   YX=     1.8179   ZX=     1.6412
   XY=     2.1242   YY=    29.7826   ZY=    -3.2596
   XZ=     3.2808   YZ=    -2.0436   ZZ=    27.5600
   Eigenvalues:    23.2411    29.6381    31.5744
     25  H    Isotropic =    29.9945   Anisotropy =    14.6856
   XX=    39.3859   YX=     3.6943   ZX=     1.9403
   XY=     0.5010   YY=    27.6775   ZY=    -2.2652
   XZ=     0.2276   YZ=    -1.3806   ZZ=    22.9202
   Eigenvalues:    22.1302    28.0685    39.7849
     26  H    Isotropic =    29.8041   Anisotropy =     9.1138
   XX=    28.3462   YX=    -0.7593   ZX=    -0.9629
   XY=     0.5327   YY=    33.0626   ZY=    -4.8135
   XZ=    -1.0253   YZ=    -4.5561   ZZ=    28.0035
   Eigenvalues:    24.9622    28.5702    35.8800
     27  H    Isotropic =    30.4629   Anisotropy =     9.5371
   XX=    35.0139   YX=    -1.9822   ZX=     3.6663
   XY=    -2.0046   YY=    29.3565   ZY=    -0.8379
   XZ=     3.0779   YZ=    -0.3211   ZZ=    27.0184
   Eigenvalues:    25.7800    28.7878    36.8210
     28  H    Isotropic =    30.3443   Anisotropy =     8.6356
   XX=    27.6238   YX=    -3.0255   ZX=    -1.8990
   XY=    -1.8407   YY=    31.0456   ZY=     4.1228
   XZ=    -0.9707   YZ=     2.8586   ZZ=    32.3634
   Eigenvalues:    26.3297    28.6018    36.1014
     29  H    Isotropic =    30.5102   Anisotropy =     8.8646
   XX=    31.5799   YX=    -0.7812   ZX=     4.8533
   XY=    -0.3723   YY=    28.7355   ZY=    -0.3188
   XZ=     4.9113   YZ=    -1.4378   ZZ=    31.2152
   Eigenvalues:    26.4866    28.6240    36.4199
     30  H    Isotropic =    30.6419   Anisotropy =    11.1308
   XX=    30.4866   YX=     5.4004   ZX=    -1.1046
   XY=     5.6947   YY=    33.6234   ZY=    -1.4608
   XZ=    -0.7701   YZ=    -1.0739   ZZ=    27.8157
   Eigenvalues:    26.2898    27.5735    38.0625
     31  H    Isotropic =    30.7653   Anisotropy =     7.4280
   XX=    31.5555   YX=    -1.3189   ZX=    -1.5976
   XY=    -1.0402   YY=    30.5556   ZY=     4.2073
   XZ=    -2.7818   YZ=     3.7483   ZZ=    30.1848
   Eigenvalues:    26.2594    30.3192    35.7173
 End of Minotr Frequency-dependent properties file   721 does not exist.
 End of Minotr Frequency-dependent properties file   722 does not exist.

 **********************************************************************

            Population analysis using the SCF density.

 **********************************************************************

 Orbital symmetries:
       Occupied  (A) (A) (A) (A) (A) (A) (A) (A) (A) (A) (A) (A)
                 (A) (A) (A) (A) (A) (A) (A) (A) (A) (A) (A) (A)
                 (A) (A) (A) (A) (A) (A) (A) (A) (A) (A) (A) (A)
                 (A) (A) (A) (A) (A) (A) (A) (A) (A) (A) (A) (A)
                 (A) (A) (A) (A) (A) (A) (A) (A)
       Virtual   (A) (A) (A) (A) (A) (A) (A) (A) (A) (A) (A) (A)
                 (A) (A) (A) (A) (A) (A) (A) (A) (A) (A) (A) (A)
                 (A) (A) (A) (A) (A) (A) (A) (A) (A) (A) (A) (A)
                 (A) (A) (A) (A) (A) (A) (A) (A) (A) (A) (A) (A)
                 (A) (A) (A) (A) (A) (A) (A) (A) (A) (A) (A) (A)
                 (A) (A) (A) (A) (A) (A) (A) (A) (A) (A) (A) (A)
                 (A) (A) (A) (A) (A) (A) (A) (A) (A) (A) (A) (A)
                 (A) (A) (A) (A) (A) (A) (A) (A) (A) (A) (A) (A)
                 (A) (A) (A) (A) (A) (A) (A) (A) (A) (A) (A) (A)
                 (A) (A) (A) (A) (A) (A) (A) (A) (A) (A) (A) (A)
                 (A) (A) (A) (A) (A) (A) (A) (A) (A) (A) (A) (A)
                 (A) (A) (A) (A) (A) (A) (A) (A) (A) (A) (A) (A)
                 (A) (A) (A) (A) (A) (A) (A) (A) (A) (A) (A) (A)
                 (A) (A) (A) (A) (A) (A) (A) (A) (A) (A) (A) (A)
                 (A) (A) (A) (A) (A) (A) (A) (A) (A) (A) (A) (A)
                 (A) (A) (A) (A) (A) (A) (A) (A) (A) (A) (A) (A)
                 (A) (A) (A) (A) (A) (A) (A) (A) (A) (A) (A) (A)
                 (A) (A) (A) (A) (A) (A) (A) (A) (A) (A) (A) (A)
                 (A) (A) (A) (A) (A) (A) (A) (A) (A) (A) (A) (A)
                 (A) (A) (A) (A) (A) (A) (A) (A) (A) (A) (A) (A)
                 (A) (A) (A) (A) (A) (A) (A) (A) (A) (A) (A) (A)
                 (A) (A) (A) (A) (A) (A) (A) (A) (A) (A) (A) (A)
                 (A) (A) (A) (A) (A) (A) (A) (A) (A) (A) (A) (A)
                 (A) (A) (A) (A) (A) (A) (A) (A) (A) (A) (A) (A)
                 (A) (A) (A) (A) (A) (A) (A) (A) (A) (A) (A) (A)
                 (A) (A) (A) (A) (A) (A) (A) (A) (A)
 The electronic state is 1-A.
 Alpha  occ. eigenvalues --  -19.32996 -19.28129 -19.27739 -10.44087 -10.35907
 Alpha  occ. eigenvalues --  -10.34996 -10.31848 -10.31519 -10.30837 -10.30779
 Alpha  occ. eigenvalues --  -10.30759 -10.30693 -10.30627 -10.29021 -10.28801
 Alpha  occ. eigenvalues --   -1.21186  -1.12978  -1.12608  -0.96297  -0.91497
 Alpha  occ. eigenvalues --   -0.86895  -0.85458  -0.84828  -0.77747  -0.75685
 Alpha  occ. eigenvalues --   -0.70525  -0.69946  -0.68200  -0.65120  -0.62264
 Alpha  occ. eigenvalues --   -0.60952  -0.58632  -0.57399  -0.56104  -0.55153
 Alpha  occ. eigenvalues --   -0.53465  -0.52936  -0.52267  -0.50630  -0.49804
 Alpha  occ. eigenvalues --   -0.49049  -0.47708  -0.47401  -0.45799  -0.45381
 Alpha  occ. eigenvalues --   -0.44704  -0.43751  -0.43548  -0.43109  -0.42335
 Alpha  occ. eigenvalues --   -0.40029  -0.39004  -0.37488  -0.36091  -0.33393
 Alpha  occ. eigenvalues --   -0.32559
 Alpha virt. eigenvalues --    0.04652   0.05309   0.06582   0.06946   0.07923
 Alpha virt. eigenvalues --    0.08202   0.08611   0.09347   0.09910   0.10360
 Alpha virt. eigenvalues --    0.10702   0.10926   0.11092   0.11995   0.12931
 Alpha virt. eigenvalues --    0.13545   0.13743   0.14062   0.14787   0.15153
 Alpha virt. eigenvalues --    0.15711   0.16302   0.16786   0.17561   0.17940
 Alpha virt. eigenvalues --    0.18778   0.19091   0.19376   0.19548   0.19832
 Alpha virt. eigenvalues --    0.20963   0.21170   0.21399   0.22405   0.22696
 Alpha virt. eigenvalues --    0.23295   0.23632   0.23891   0.24532   0.24950
 Alpha virt. eigenvalues --    0.25452   0.25994   0.26247   0.26675   0.27368
 Alpha virt. eigenvalues --    0.27559   0.27761   0.28316   0.28515   0.29382
 Alpha virt. eigenvalues --    0.29881   0.30220   0.30266   0.30720   0.31150
 Alpha virt. eigenvalues --    0.31455   0.31770   0.32335   0.32752   0.33274
 Alpha virt. eigenvalues --    0.33989   0.34092   0.34600   0.35569   0.36000
 Alpha virt. eigenvalues --    0.36191   0.36905   0.37515   0.37939   0.38866
 Alpha virt. eigenvalues --    0.39642   0.40123   0.40294   0.41059   0.41999
 Alpha virt. eigenvalues --    0.42707   0.43078   0.43793   0.44304   0.44636
 Alpha virt. eigenvalues --    0.44859   0.45766   0.46547   0.47145   0.47722
 Alpha virt. eigenvalues --    0.49048   0.49375   0.51406   0.52668   0.53794
 Alpha virt. eigenvalues --    0.55274   0.55846   0.61776   0.66457   0.69875
 Alpha virt. eigenvalues --    0.72447   0.73721   0.74140   0.74879   0.76153
 Alpha virt. eigenvalues --    0.76646   0.78632   0.79128   0.80560   0.81180
 Alpha virt. eigenvalues --    0.81717   0.82190   0.82941   0.83529   0.84220
 Alpha virt. eigenvalues --    0.85649   0.87071   0.87588   0.89049   0.89369
 Alpha virt. eigenvalues --    0.90935   0.92194   0.92811   0.94253   0.95157
 Alpha virt. eigenvalues --    0.98514   0.98952   1.00464   1.01076   1.02597
 Alpha virt. eigenvalues --    1.02753   1.03703   1.05056   1.06146   1.06960
 Alpha virt. eigenvalues --    1.08548   1.08711   1.09575   1.10440   1.10694
 Alpha virt. eigenvalues --    1.13375   1.14713   1.17785   1.19247   1.19974
 Alpha virt. eigenvalues --    1.20147   1.21437   1.22168   1.22880   1.23362
 Alpha virt. eigenvalues --    1.25417   1.26242   1.27287   1.29377   1.30558
 Alpha virt. eigenvalues --    1.31159   1.33041   1.34890   1.35883   1.36573
 Alpha virt. eigenvalues --    1.39852   1.41881   1.42624   1.44476   1.45253
 Alpha virt. eigenvalues --    1.46434   1.47784   1.48604   1.49649   1.50150
 Alpha virt. eigenvalues --    1.51014   1.52474   1.54125   1.55551   1.56894
 Alpha virt. eigenvalues --    1.57606   1.58224   1.59753   1.62409   1.64404
 Alpha virt. eigenvalues --    1.69287   1.69707   1.73657   1.76245   1.77187
 Alpha virt. eigenvalues --    1.77891   1.79442   1.83414   1.85644   1.87845
 Alpha virt. eigenvalues --    1.88391   1.89833   1.91495   1.94789   1.97044
 Alpha virt. eigenvalues --    1.97671   1.98192   1.99518   2.01570   2.02147
 Alpha virt. eigenvalues --    2.02828   2.03801   2.04238   2.05218   2.06248
 Alpha virt. eigenvalues --    2.06812   2.07640   2.09162   2.10422   2.11541
 Alpha virt. eigenvalues --    2.12309   2.13543   2.13841   2.16207   2.17591
 Alpha virt. eigenvalues --    2.18631   2.19815   2.20584   2.21269   2.22279
 Alpha virt. eigenvalues --    2.22888   2.24352   2.25998   2.27923   2.29641
 Alpha virt. eigenvalues --    2.32057   2.35479   2.37148   2.38551   2.38772
 Alpha virt. eigenvalues --    2.41007   2.42769   2.43607   2.45701   2.48235
 Alpha virt. eigenvalues --    2.49061   2.49937   2.49992   2.52973   2.53834
 Alpha virt. eigenvalues --    2.54969   2.56547   2.58392   2.59737   2.61779
 Alpha virt. eigenvalues --    2.62757   2.64452   2.65035   2.65443   2.68726
 Alpha virt. eigenvalues --    2.69764   2.71917   2.72318   2.73256   2.73734
 Alpha virt. eigenvalues --    2.78194   2.79348   2.80925   2.83402   2.83612
 Alpha virt. eigenvalues --    2.83989   2.84452   2.87214   2.87952   2.90035
 Alpha virt. eigenvalues --    2.90366   2.91811   2.95470   2.96907   2.97764
 Alpha virt. eigenvalues --    2.98606   3.00020   3.01473   3.06192   3.08084
 Alpha virt. eigenvalues --    3.13269   3.13879   3.16406   3.19311   3.26880
 Alpha virt. eigenvalues --    3.28177   3.30834   3.36254   3.37300   3.38296
 Alpha virt. eigenvalues --    3.38556   3.44492   3.45079   3.48724   3.49328
 Alpha virt. eigenvalues --    3.54490   3.58226   3.59023   3.60181   3.62263
 Alpha virt. eigenvalues --    3.63928   3.64130   3.69246   3.99683   4.40753
 Alpha virt. eigenvalues --    4.43334   4.45434   4.52445   4.54952   4.56249
 Alpha virt. eigenvalues --    4.58111   4.61288   4.62619   4.68407   4.71886
 Alpha virt. eigenvalues --    4.77822   4.80558   4.94315   4.97569
          Condensed to atoms (all electrons):
              1          2          3          4          5          6
     1  C   16.692618  -0.938129  -0.724545  -5.264112  -6.850275   0.263999
     2  C   -0.938129   7.127697   0.375214   0.609757  -0.526144   0.379107
     3  C   -0.724545   0.375214   6.531499   0.477276  -0.391003   0.407613
     4  C   -5.264112   0.609757   0.477276  17.482221  -1.530308  -1.140185
     5  C   -6.850275  -0.526144  -0.391003  -1.530308  15.760441   0.456690
     6  C    0.263999   0.379107   0.407613  -1.140185   0.456690   5.569397
     7  C    3.435250  -1.389516  -0.912013  -6.112612  -1.239168  -0.015351
     8  C   -0.960609   0.290141   0.097054   1.190433   0.605863  -0.053594
     9  C   -0.410333  -0.008586   0.017899   0.605608   0.255457   0.028522
    10  O    0.006695   0.007920   0.016728  -0.000577  -0.035384  -0.002429
    11  C    0.046381  -0.008998  -0.006822  -0.062305  -0.016084  -0.004943
    12  O   -0.088905   0.098607   0.018832   0.361438  -0.037797   0.001410
    13  C    0.259304  -0.075503  -0.044856  -0.741442  -0.306646  -0.002662
    14  O    0.011828  -0.002083  -0.000751   0.052451  -0.011086   0.002247
    15  C    0.033389   0.003225   0.003539   0.009163  -0.030979  -0.000247
    16  H    0.192191   0.015623   0.067507   0.097584  -0.027505  -0.015189
    17  H    0.005534   0.275619  -0.001925   0.048606   0.008274  -0.003168
    18  H    0.020588  -0.001214   0.273871   0.011291  -0.001862   0.027091
    19  H    0.026746  -0.032627   0.000305   0.069779   0.237674  -0.014818
    20  H    0.003972   0.016376   0.022929   0.001720  -0.004886   0.284563
    21  H    0.208828   0.005438   0.063648   0.071369  -0.134978   0.001277
    22  H    0.053429  -0.008364   0.006233   0.112128  -0.121863  -0.003977
    23  H   -0.001011   0.000043   0.000469  -0.000215  -0.000106  -0.000017
    24  H    0.006850  -0.000334  -0.002961  -0.001037  -0.000055  -0.000484
    25  H   -0.018157  -0.002102   0.001418   0.049001  -0.039681  -0.004452
    26  H   -0.004362   0.002248   0.000109  -0.006236   0.012235   0.000014
    27  H    0.002264  -0.000581  -0.000216  -0.008623  -0.005248   0.000038
    28  H    0.013556  -0.000398   0.000320  -0.001679  -0.014527  -0.000071
    29  H    0.000169   0.000058   0.000001   0.000229  -0.000259  -0.000003
    30  H    0.000087  -0.000024   0.000015  -0.000121  -0.000028   0.000002
    31  H    0.000310  -0.000608  -0.000217  -0.001345   0.000798   0.000123
              7          8          9         10         11         12
     1  C    3.435250  -0.960609  -0.410333   0.006695   0.046381  -0.088905
     2  C   -1.389516   0.290141  -0.008586   0.007920  -0.008998   0.098607
     3  C   -0.912013   0.097054   0.017899   0.016728  -0.006822   0.018832
     4  C   -6.112612   1.190433   0.605608  -0.000577  -0.062305   0.361438
     5  C   -1.239168   0.605863   0.255457  -0.035384  -0.016084  -0.037797
     6  C   -0.015351  -0.053594   0.028522  -0.002429  -0.004943   0.001410
     7  C   13.590590  -2.035629  -0.607511   0.013173   0.048694  -0.172528
     8  C   -2.035629   9.004459  -0.943541  -0.293994  -0.001129  -0.137098
     9  C   -0.607511  -0.943541   6.481255   0.343495  -0.214330   0.064449
    10  O    0.013173  -0.293994   0.343495   8.413046   0.042337  -0.001863
    11  C    0.048694  -0.001129  -0.214330   0.042337   5.351757  -0.001941
    12  O   -0.172528  -0.137098   0.064449  -0.001863  -0.001941   8.289865
    13  C    1.193296  -1.074233  -0.043432  -0.014352   0.011952  -0.036865
    14  O   -0.047066  -0.036165   0.613378  -0.166688  -0.068600  -0.000860
    15  C   -0.025263  -0.033377   0.023942  -0.014179   0.115275   0.000370
    16  H   -0.014767   0.001481   0.002903  -0.000315  -0.003565  -0.000241
    17  H   -0.006585  -0.000324   0.000742  -0.000015  -0.000031   0.000103
    18  H   -0.002923  -0.000912   0.001236  -0.000028  -0.000065   0.000017
    19  H    0.006744   0.002436   0.004509  -0.000457   0.000575   0.003853
    20  H    0.002569  -0.000235  -0.000366   0.000008   0.000054  -0.000007
    21  H    0.065236   0.081085  -0.022016   0.000456   0.000675  -0.049954
    22  H   -0.042638   0.383951  -0.033560  -0.003505   0.000245   0.001660
    23  H    0.001817  -0.008246   0.010708  -0.044506   0.395078  -0.000002
    24  H   -0.002117  -0.008994  -0.040239  -0.036745   0.413363   0.000007
    25  H    0.021240   0.013914  -0.002702   0.000007   0.000134   0.236212
    26  H   -0.026390  -0.057413  -0.002858   0.000039   0.000280   0.006371
    27  H    0.046334  -0.184201   0.021391   0.004056   0.002881  -0.000290
    28  H    0.016959  -0.061129  -0.005416  -0.000115  -0.001040  -0.002495
    29  H   -0.000564  -0.002663  -0.004627  -0.001924  -0.062052   0.000000
    30  H    0.000160  -0.000289   0.001814   0.006737  -0.056945   0.000000
    31  H    0.001224  -0.005058   0.004659  -0.003309  -0.060238   0.000000
             13         14         15         16         17         18
     1  C    0.259304   0.011828   0.033389   0.192191   0.005534   0.020588
     2  C   -0.075503  -0.002083   0.003225   0.015623   0.275619  -0.001214
     3  C   -0.044856  -0.000751   0.003539   0.067507  -0.001925   0.273871
     4  C   -0.741442   0.052451   0.009163   0.097584   0.048606   0.011291
     5  C   -0.306646  -0.011086  -0.030979  -0.027505   0.008274  -0.001862
     6  C   -0.002662   0.002247  -0.000247  -0.015189  -0.003168   0.027091
     7  C    1.193296  -0.047066  -0.025263  -0.014767  -0.006585  -0.002923
     8  C   -1.074233  -0.036165  -0.033377   0.001481  -0.000324  -0.000912
     9  C   -0.043432   0.613378   0.023942   0.002903   0.000742   0.001236
    10  O   -0.014352  -0.166688  -0.014179  -0.000315  -0.000015  -0.000028
    11  C    0.011952  -0.068600   0.115275  -0.003565  -0.000031  -0.000065
    12  O   -0.036865  -0.000860   0.000370  -0.000241   0.000103   0.000017
    13  C    6.320412  -0.073760  -0.005892  -0.000826   0.000032   0.000054
    14  O   -0.073760   8.135023   0.007960   0.000313   0.000002  -0.000038
    15  C   -0.005892   0.007960   5.318329  -0.000357   0.000041  -0.000083
    16  H   -0.000826   0.000313  -0.000357   0.510193   0.000011  -0.003877
    17  H    0.000032   0.000002   0.000041   0.000011   0.495368  -0.000121
    18  H    0.000054  -0.000038  -0.000083  -0.003877  -0.000121   0.496040
    19  H    0.013703  -0.000078   0.000109  -0.000112  -0.003933   0.000011
    20  H   -0.000023   0.000001   0.000017  -0.000122  -0.003816  -0.003858
    21  H   -0.068382   0.009486   0.000478   0.002889   0.000002  -0.000003
    22  H   -0.057330   0.008173  -0.000279   0.000008   0.000004   0.000000
    23  H   -0.001791   0.001565  -0.023529   0.000001   0.000000   0.000000
    24  H    0.001030   0.004514  -0.003196  -0.000018   0.000000  -0.000001
    25  H   -0.005619   0.000007   0.000003   0.000075  -0.000002   0.000000
    26  H    0.441803   0.000326  -0.000092   0.000000   0.000000   0.000000
    27  H    0.481312  -0.001039  -0.000298   0.000000   0.000000   0.000000
    28  H    0.404567   0.003413   0.000167   0.000001   0.000000   0.000000
    29  H    0.000129  -0.000062   0.435318   0.000000   0.000000   0.000000
    30  H    0.000048   0.000123   0.415408   0.000000   0.000000   0.000000
    31  H    0.000067  -0.000172   0.426947   0.000000   0.000000   0.000000
             19         20         21         22         23         24
     1  C    0.026746   0.003972   0.208828   0.053429  -0.001011   0.006850
     2  C   -0.032627   0.016376   0.005438  -0.008364   0.000043  -0.000334
     3  C    0.000305   0.022929   0.063648   0.006233   0.000469  -0.002961
     4  C    0.069779   0.001720   0.071369   0.112128  -0.000215  -0.001037
     5  C    0.237674  -0.004886  -0.134978  -0.121863  -0.000106  -0.000055
     6  C   -0.014818   0.284563   0.001277  -0.003977  -0.000017  -0.000484
     7  C    0.006744   0.002569   0.065236  -0.042638   0.001817  -0.002117
     8  C    0.002436  -0.000235   0.081085   0.383951  -0.008246  -0.008994
     9  C    0.004509  -0.000366  -0.022016  -0.033560   0.010708  -0.040239
    10  O   -0.000457   0.000008   0.000456  -0.003505  -0.044506  -0.036745
    11  C    0.000575   0.000054   0.000675   0.000245   0.395078   0.413363
    12  O    0.003853  -0.000007  -0.049954   0.001660  -0.000002   0.000007
    13  C    0.013703  -0.000023  -0.068382  -0.057330  -0.001791   0.001030
    14  O   -0.000078   0.000001   0.009486   0.008173   0.001565   0.004514
    15  C    0.000109   0.000017   0.000478  -0.000279  -0.023529  -0.003196
    16  H   -0.000112  -0.000122   0.002889   0.000008   0.000001  -0.000018
    17  H   -0.003933  -0.003816   0.000002   0.000004   0.000000   0.000000
    18  H    0.000011  -0.003858  -0.000003   0.000000   0.000000  -0.000001
    19  H    0.503090  -0.000118  -0.000073  -0.000196   0.000000   0.000000
    20  H   -0.000118   0.498076   0.000000   0.000000   0.000000   0.000000
    21  H   -0.000073   0.000000   0.599225   0.004257   0.000000  -0.000002
    22  H   -0.000196   0.000000   0.004257   0.505249  -0.000005   0.000000
    23  H    0.000000   0.000000   0.000000  -0.000005   0.530112  -0.034112
    24  H    0.000000   0.000000  -0.000002   0.000000  -0.034112   0.529810
    25  H   -0.000523   0.000000  -0.004051  -0.000123   0.000000   0.000000
    26  H    0.000001   0.000000   0.000107  -0.003590   0.000000   0.000000
    27  H    0.000002   0.000000  -0.000053  -0.002933  -0.000007   0.000000
    28  H   -0.000001   0.000000   0.002837   0.003971  -0.000004   0.000001
    29  H    0.000000   0.000000   0.000000   0.000000  -0.005150   0.003962
    30  H    0.000000   0.000000   0.000000   0.000000  -0.001732  -0.001718
    31  H    0.000000   0.000000   0.000000  -0.000005   0.003978  -0.005270
             25         26         27         28         29         30
     1  C   -0.018157  -0.004362   0.002264   0.013556   0.000169   0.000087
     2  C   -0.002102   0.002248  -0.000581  -0.000398   0.000058  -0.000024
     3  C    0.001418   0.000109  -0.000216   0.000320   0.000001   0.000015
     4  C    0.049001  -0.006236  -0.008623  -0.001679   0.000229  -0.000121
     5  C   -0.039681   0.012235  -0.005248  -0.014527  -0.000259  -0.000028
     6  C   -0.004452   0.000014   0.000038  -0.000071  -0.000003   0.000002
     7  C    0.021240  -0.026390   0.046334   0.016959  -0.000564   0.000160
     8  C    0.013914  -0.057413  -0.184201  -0.061129  -0.002663  -0.000289
     9  C   -0.002702  -0.002858   0.021391  -0.005416  -0.004627   0.001814
    10  O    0.000007   0.000039   0.004056  -0.000115  -0.001924   0.006737
    11  C    0.000134   0.000280   0.002881  -0.001040  -0.062052  -0.056945
    12  O    0.236212   0.006371  -0.000290  -0.002495   0.000000   0.000000
    13  C   -0.005619   0.441803   0.481312   0.404567   0.000129   0.000048
    14  O    0.000007   0.000326  -0.001039   0.003413  -0.000062   0.000123
    15  C    0.000003  -0.000092  -0.000298   0.000167   0.435318   0.415408
    16  H    0.000075   0.000000   0.000000   0.000001   0.000000   0.000000
    17  H   -0.000002   0.000000   0.000000   0.000000   0.000000   0.000000
    18  H    0.000000   0.000000   0.000000   0.000000   0.000000   0.000000
    19  H   -0.000523   0.000001   0.000002  -0.000001   0.000000   0.000000
    20  H    0.000000   0.000000   0.000000   0.000000   0.000000   0.000000
    21  H   -0.004051   0.000107  -0.000053   0.002837   0.000000   0.000000
    22  H   -0.000123  -0.003590  -0.002933   0.003971   0.000000   0.000000
    23  H    0.000000   0.000000  -0.000007  -0.000004  -0.005150  -0.001732
    24  H    0.000000   0.000000   0.000000   0.000001   0.003962  -0.001718
    25  H    0.356850  -0.000047  -0.000001  -0.000038   0.000000   0.000000
    26  H   -0.000047   0.495698  -0.023713  -0.023264   0.000000   0.000000
    27  H   -0.000001  -0.023713   0.518044  -0.025677  -0.000002   0.000000
    28  H   -0.000038  -0.023264  -0.025677   0.508461   0.000000   0.000000
    29  H    0.000000   0.000000  -0.000002   0.000000   0.512532  -0.022704
    30  H    0.000000   0.000000   0.000000   0.000000  -0.022704   0.500865
    31  H    0.000000   0.000000   0.000000   0.000000  -0.028681  -0.022634
             31
     1  C    0.000310
     2  C   -0.000608
     3  C   -0.000217
     4  C   -0.001345
     5  C    0.000798
     6  C    0.000123
     7  C    0.001224
     8  C   -0.005058
     9  C    0.004659
    10  O   -0.003309
    11  C   -0.060238
    12  O    0.000000
    13  C    0.000067
    14  O   -0.000172
    15  C    0.426947
    16  H    0.000000
    17  H    0.000000
    18  H    0.000000
    19  H    0.000000
    20  H    0.000000
    21  H    0.000000
    22  H   -0.000005
    23  H    0.003978
    24  H   -0.005270
    25  H    0.000000
    26  H    0.000000
    27  H    0.000000
    28  H    0.000000
    29  H   -0.028681
    30  H   -0.022634
    31  H    0.512292
 Mulliken atomic charges:
              1
     1  C   -0.023554
     2  C   -0.211866
     3  C   -0.297169
     4  C   -0.379257
     5  C   -0.011561
     6  C   -0.160503
     7  C    0.209355
     8  C    0.228017
     9  C   -0.142453
    10  O   -0.234310
    11  C    0.139406
    12  O   -0.552349
    13  C   -0.574095
    14  O   -0.442364
    15  C   -0.655909
    16  H    0.176113
    17  H    0.185580
    18  H    0.184786
    19  H    0.183398
    20  H    0.183146
    21  H    0.162219
    22  H    0.199061
    23  H    0.176666
    24  H    0.177749
    25  H    0.398635
    26  H    0.188732
    27  H    0.176558
    28  H    0.181601
    29  H    0.176293
    30  H    0.180937
    31  H    0.177139
 Sum of Mulliken atomic charges =   0.00000
 Mulliken charges with hydrogens summed into heavy atoms:
              1
     1  C    0.152560
     2  C   -0.026286
     3  C   -0.112383
     4  C   -0.379257
     5  C    0.171837
     6  C    0.022644
     7  C    0.371574
     8  C    0.427078
     9  C   -0.142453
    10  O   -0.234310
    11  C    0.493821
    12  O   -0.153715
    13  C   -0.027204
    14  O   -0.442364
    15  C   -0.121540
 Sum of Mulliken charges with hydrogens summed into heavy atoms =   0.00000
 Electronic spatial extent (au):  <R**2>=           3545.7541
 Charge=              0.0000 electrons
 Dipole moment (field-independent basis, Debye):
    X=              0.4051    Y=             -2.3225    Z=             -1.1868  Tot=              2.6394
 Quadrupole moment (field-independent basis, Debye-Ang):
   XX=            -80.2229   YY=            -87.5018   ZZ=            -91.1509
   XY=              0.7091   XZ=              2.9806   YZ=             -0.5041
 Traceless Quadrupole moment (field-independent basis, Debye-Ang):
   XX=              6.0690   YY=             -1.2099   ZZ=             -4.8590
   XY=              0.7091   XZ=              2.9806   YZ=             -0.5041
 Octapole moment (field-independent basis, Debye-Ang**2):
  XXX=            -34.2899  YYY=            -24.8569  ZZZ=             -9.0324  XYY=             -7.2173
  XXY=            -17.0673  XXZ=             -8.9426  XZZ=             15.6581  YZZ=             -4.2513
  YYZ=              9.1537  XYZ=              7.0730
 Hexadecapole moment (field-independent basis, Debye-Ang**3):
 XXXX=          -2531.8318 YYYY=          -1652.7127 ZZZZ=           -526.5925 XXXY=             63.8794
 XXXZ=            -27.7197 YYYX=             -4.9832 YYYZ=              6.3602 ZZZX=              7.1954
 ZZZY=             -8.7100 XXYY=           -584.3109 XXZZ=           -521.0256 YYZZ=           -350.6641
 XXYZ=             -3.5898 YYXZ=              7.7309 ZZXY=             -9.1606
 N-N= 1.011441832465D+03 E-N=-3.634807744742D+03  KE= 6.859187631700D+02
 1\1\GINC-COMPUTE-5-22\SP\RwB97XD\6-31+G(d,p)\C12H16O3\ELUCIANO.IQUIR\1
 7-May-2022\0\\# wb97xd/6-31+g** scrf=(pcm,solvent=chloroform,smd,dovac
 uum) nmr\\comment\\0,1\C,0,1.783477782,0.462644201,-1.475908429\C,0,0.
 153946689,2.665049675,-1.999493676\C,0,1.550822233,0.864502741,-2.7922
 48888\C,0,1.205512603,1.160074719,-0.40496184\C,0,0.384356652,2.264432
 909,-0.682773972\C,0,0.737732688,1.965485236,-3.053421227\C,0,1.451491
 97,0.705786902,1.022469291\C,0,0.223386847,0.042409965,1.660767623\C,0
 ,-0.095744871,-1.230968669,0.911940011\O,0,-1.419926181,-1.276796944,0
 .596303455\C,0,-1.810580195,-2.444607334,-0.134925004\O,0,1.844922692,
 1.843142586,1.800767631\C,0,0.442711514,-0.30286136,3.133115493\O,0,0.
 720642894,-2.104541574,0.647209444\C,0,-3.291262456,-2.336758313,-0.44
 2409463\H,0,2.412546035,-0.40720002,-1.292773453\H,0,-0.482835035,3.52
 2257921,-2.202674969\H,0,2.002083553,0.314997561,-3.614584677\H,0,-0.0
 80301743,2.819406446,0.130533781\H,0,0.556822768,2.276545936,-4.079018
 998\H,0,2.306586488,0.018424709,1.042485841\H,0,-0.63501846,0.72424512
 1,1.603598042\H,0,-1.621907936,-3.338564683,0.469873909\H,0,-1.2422598
 26,-2.503831742,-1.070009516\H,0,2.425830841,2.383654053,1.236194392\H
 ,0,0.587567651,0.59992094,3.734878741\H,0,-0.421843766,-0.840093946,3.
 538783716\H,0,1.319933434,-0.946085401,3.264825494\H,0,-3.872129974,-2
 .255466974,0.482294624\H,0,-3.638220693,-3.209817044,-1.002085654\H,0,
 -3.498344198,-1.435387619,-1.028751722\\Version=EM64L-G09RevC.01\State
 =1-A\HF=-692.4460088\RMSD=3.894e-09\Dipole=-0.6782358,0.2495788,-0.745
 6686\Quadrupole=0.7812986,-0.9832875,0.2019889,4.0548632,-1.7754993,-1
 .4266466\PG=C01 [X(C12H16O3)]\\@


 ERWIN WITH HIS PSI CAN DO
 CALCULATIONS QUITE A FEW.
 BUT ONE THING HAS NOT BEEN SEEN
 JUST WHAT DOES PSI REALLY MEAN.
 -- WALTER HUCKEL, TRANS. BY FELIX BLOCH
 Job cpu time:  0 days  0 hours 45 minutes  7.1 seconds.
 File lengths (MBytes):  RWF=    124 Int=      0 D2E=      0 Chk=      9 Scr=      1
 Normal termination of Gaussian 09 at Tue May 17 14:53:15 2022.
