 Entering Gaussian System, Link 0=g09
 Input=/home/eluciano.iquir/wb9/73a_018.gjc
 Output=/home/eluciano.iquir/wb9/73a_018.log
 Initial command:
 /share/apps/Gaussian09/EM64T.SSE4.2-enabled/g09/l1.exe /tmp/Gau-30303.inp -scrdir=/tmp/
 Entering Link 1 = /share/apps/Gaussian09/EM64T.SSE4.2-enabled/g09/l1.exe PID=     30304.
  
 Copyright (c) 1988,1990,1992,1993,1995,1998,2003,2009,2011,
            Gaussian, Inc.  All Rights Reserved.
  
 This is part of the Gaussian(R) 09 program.  It is based on
 the Gaussian(R) 03 system (copyright 2003, Gaussian, Inc.),
 the Gaussian(R) 98 system (copyright 1998, Gaussian, Inc.),
 the Gaussian(R) 94 system (copyright 1995, Gaussian, Inc.),
 the Gaussian 92(TM) system (copyright 1992, Gaussian, Inc.),
 the Gaussian 90(TM) system (copyright 1990, Gaussian, Inc.),
 the Gaussian 88(TM) system (copyright 1988, Gaussian, Inc.),
 the Gaussian 86(TM) system (copyright 1986, Carnegie Mellon
 University), and the Gaussian 82(TM) system (copyright 1983,
 Carnegie Mellon University). Gaussian is a federally registered
 trademark of Gaussian, Inc.
  
 This software contains proprietary and confidential information,
 including trade secrets, belonging to Gaussian, Inc.
  
 This software is provided under written license and may be
 used, copied, transmitted, or stored only in accord with that
 written license.
  
 The following legend is applicable only to US Government
 contracts under FAR:
  
                    RESTRICTED RIGHTS LEGEND
  
 Use, reproduction and disclosure by the US Government is
 subject to restrictions as set forth in subparagraphs (a)
 and (c) of the Commercial Computer Software - Restricted
 Rights clause in FAR 52.227-19.
  
 Gaussian, Inc.
 340 Quinnipiac St., Bldg. 40, Wallingford CT 06492
  
  
 ---------------------------------------------------------------
 Warning -- This program may not be used in any manner that
 competes with the business of Gaussian, Inc. or will provide
 assistance to any competitor of Gaussian, Inc.  The licensee
 of this program is prohibited from giving any competitor of
 Gaussian, Inc. access to this program.  By using this program,
 the user acknowledges that Gaussian, Inc. is engaged in the
 business of creating and licensing software in the field of
 computational chemistry and represents and warrants to the
 licensee that it is not a competitor of Gaussian, Inc. and that
 it will not use this program in any manner prohibited above.
 ---------------------------------------------------------------
  

 Cite this work as:
 Gaussian 09, Revision C.01,
 M. J. Frisch, G. W. Trucks, H. B. Schlegel, G. E. Scuseria, 
 M. A. Robb, J. R. Cheeseman, G. Scalmani, V. Barone, B. Mennucci, 
 G. A. Petersson, H. Nakatsuji, M. Caricato, X. Li, H. P. Hratchian, 
 A. F. Izmaylov, J. Bloino, G. Zheng, J. L. Sonnenberg, M. Hada, 
 M. Ehara, K. Toyota, R. Fukuda, J. Hasegawa, M. Ishida, T. Nakajima, 
 Y. Honda, O. Kitao, H. Nakai, T. Vreven, J. A. Montgomery, Jr., 
 J. E. Peralta, F. Ogliaro, M. Bearpark, J. J. Heyd, E. Brothers, 
 K. N. Kudin, V. N. Staroverov, T. Keith, R. Kobayashi, J. Normand, 
 K. Raghavachari, A. Rendell, J. C. Burant, S. S. Iyengar, J. Tomasi, 
 M. Cossi, N. Rega, J. M. Millam, M. Klene, J. E. Knox, J. B. Cross, 
 V. Bakken, C. Adamo, J. Jaramillo, R. Gomperts, R. E. Stratmann, 
 O. Yazyev, A. J. Austin, R. Cammi, C. Pomelli, J. W. Ochterski, 
 R. L. Martin, K. Morokuma, V. G. Zakrzewski, G. A. Voth, 
 P. Salvador, J. J. Dannenberg, S. Dapprich, A. D. Daniels, 
 O. Farkas, J. B. Foresman, J. V. Ortiz, J. Cioslowski, 
 and D. J. Fox, Gaussian, Inc., Wallingford CT, 2010.
 
 ******************************************
 Gaussian 09:  EM64L-G09RevC.01 23-Sep-2011
                17-May-2022 
 ******************************************
 %nprocshared=4
 Will use up to    4 processors via shared memory.
 ----------------------------------------------------------------
 # wb97xd/6-31+g** scrf=(pcm,solvent=chloroform,smd,dovacuum) nmr
 ----------------------------------------------------------------
 1/38=1/1;
 2/12=2,17=6,18=5,40=1/2;
 3/5=1,6=6,7=111,11=2,16=1,25=1,30=1,70=32101,72=7,74=-58/1,2,8,3;
 4//1;
 5/5=2,38=5,53=7/2;
 8/6=1,10=90,11=11/1;
 10/13=100,45=16/2;
 6/7=2,8=2,9=2,10=2,28=1/1;
 99/9=1/99;
 -------
 comment
 -------
 Charge =  0 Multiplicity = 1
 Symbolic Z-Matrix:
 6                     0.1625    2.41713  -0.30225 
 6                     1.18812   3.22568   2.16083 
 6                     0.1658    3.76936   0.04489 
 6                     0.67825   1.45144   0.57662 
 6                     1.18595   1.87324   1.81536 
 6                     0.67953   4.17302   1.27525 
 6                     0.65115  -0.01541   0.18102 
 6                    -0.62555  -0.7269    0.66134 
 6                    -0.88298  -1.92527  -0.23301 
 8                    -1.24124  -1.49996  -1.48212 
 6                    -1.52654  -2.53456  -2.43559 
 8                     1.82474  -0.67408   0.66013 
 6                    -0.58935  -1.16495   2.12688 
 8                    -0.81847  -3.09774   0.10896 
 6                    -0.24604  -2.99007  -3.10981 
 1                    -0.24771   2.12212  -1.26626 
 1                     1.58414   3.53897   3.12354 
 1                    -0.23476   4.50837  -0.64446 
 1                     1.58006   1.14684   2.52418 
 1                     0.68047   5.22576   1.54569 
 1                     0.72759  -0.05923  -0.91251 
 1                    -1.49776  -0.06946   0.53955 
 1                    -2.20168  -2.10325  -3.18192 
 1                    -2.05662  -3.37276  -1.96915 
 1                     2.57268  -0.06951   0.50921 
 1                    -0.49025  -0.3063    2.79687 
 1                    -1.51651  -1.68444   2.39511 
 1                     0.23644  -1.85595   2.32725 
 1                     0.26871  -2.14055  -3.57062 
 1                    -0.4579   -3.73557  -3.88141 
 1                     0.44722  -3.426    -2.38356 
 
                          Input orientation:                          
 ---------------------------------------------------------------------
 Center     Atomic      Atomic             Coordinates (Angstroms)
 Number     Number       Type             X           Y           Z
 ---------------------------------------------------------------------
      1          6           0        0.162503    2.417127   -0.302251
      2          6           0        1.188121    3.225681    2.160827
      3          6           0        0.165797    3.769361    0.044892
      4          6           0        0.678249    1.451439    0.576620
      5          6           0        1.185954    1.873244    1.815355
      6          6           0        0.679534    4.173024    1.275248
      7          6           0        0.651149   -0.015413    0.181019
      8          6           0       -0.625552   -0.726899    0.661335
      9          6           0       -0.882980   -1.925269   -0.233006
     10          8           0       -1.241238   -1.499956   -1.482121
     11          6           0       -1.526541   -2.534561   -2.435595
     12          8           0        1.824741   -0.674084    0.660132
     13          6           0       -0.589354   -1.164949    2.126885
     14          8           0       -0.818472   -3.097740    0.108963
     15          6           0       -0.246042   -2.990072   -3.109812
     16          1           0       -0.247711    2.122124   -1.266258
     17          1           0        1.584139    3.538975    3.123536
     18          1           0       -0.234760    4.508370   -0.644460
     19          1           0        1.580065    1.146839    2.524175
     20          1           0        0.680472    5.225763    1.545690
     21          1           0        0.727588   -0.059231   -0.912505
     22          1           0       -1.497757   -0.069459    0.539545
     23          1           0       -2.201684   -2.103250   -3.181924
     24          1           0       -2.056616   -3.372757   -1.969149
     25          1           0        2.572677   -0.069513    0.509214
     26          1           0       -0.490248   -0.306299    2.796870
     27          1           0       -1.516505   -1.684435    2.395111
     28          1           0        0.236437   -1.855951    2.327248
     29          1           0        0.268709   -2.140549   -3.570621
     30          1           0       -0.457897   -3.735565   -3.881405
     31          1           0        0.447223   -3.425996   -2.383562
 ---------------------------------------------------------------------
                    Distance matrix (angstroms):
                    1          2          3          4          5
     1  C    0.000000
     2  C    2.787904   0.000000
     3  C    1.396086   2.412036   0.000000
     4  C    1.403909   2.432615   2.432716   0.000000
     5  C    2.414025   1.395866   2.787565   1.403620   0.000000
     6  C    2.416402   1.392972   1.393071   2.809824   2.416023
     7  C    2.527761   3.835710   3.818195   1.519503   2.554231
     8  C    3.381483   4.600084   4.606798   2.540124   3.372545
     9  C    4.467016   6.045840   5.797066   3.807241   4.785913
    10  O    4.325057   6.442399   5.663675   4.078428   5.305006
    11  C    5.650066   7.853463   6.982568   5.461019   6.697533
    12  O    3.639341   4.226765   4.782763   2.416458   2.869054
    13  C    4.392864   4.736898   5.408545   3.294787   3.532617
    14  O    5.616509   6.944222   6.937577   4.811851   5.624961
    15  C    6.106317   8.274784   7.470723   5.845606   7.068219
    16  H    1.088399   3.876128   2.145576   2.168737   3.407885
    17  H    3.874998   1.087102   3.397473   3.415439   2.155121
    18  H    2.155973   3.396986   1.087099   3.416057   3.874662
    19  H    3.407609   2.146445   3.876160   2.167723   1.088767
    20  H    3.401708   2.153237   2.153693   3.896746   3.401120
    21  H    2.612294   4.521958   3.986268   2.121804   3.374282
    22  H    3.106154   4.549774   4.212912   2.655090   3.550224
    23  H    5.857961   8.272441   7.106678   5.920852   7.229205
    24  H    6.420731   8.433528   7.746310   6.101908   7.235831
    25  H    3.556795   3.937400   4.554736   2.430369   2.720902
    26  H    4.177042   3.961863   4.961329   3.063419   2.919492
    27  H    5.188221   5.610627   6.172322   4.237636   4.505162
    28  H    5.017860   5.172657   6.071101   3.768119   3.882075
    29  H    5.609450   7.905140   6.928893   5.501791   6.779425
    30  H    7.144989   9.363595   8.492863   6.933241   8.161744
    31  H    6.209268   8.089822   7.599326   5.710116   6.801365
                    6          7          8          9         10
     6  C    0.000000
     7  C    4.329105   0.000000
     8  C    5.107777   1.538467   0.000000
     9  C    6.473442   2.484455   1.517302   0.000000
    10  O    6.593569   2.924214   2.360316   1.367307   0.000000
    11  C    7.976768   4.234986   3.697350   2.374196   1.435590
    12  O    5.018399   1.428536   2.450862   3.113665   3.830345
    13  C    5.552415   2.578114   1.530043   2.496675   3.682676
    14  O    7.514537   3.415511   2.441971   1.223026   2.294165
    15  C    8.449579   4.525827   4.414468   3.132971   2.420793
    16  H    3.394883   2.733428   3.460537   4.225230   3.762068
    17  H    2.153253   4.707712   5.398411   6.871026   7.388210
    18  H    2.152596   4.683040   5.409793   6.479289   6.149362
    19  H    3.395375   2.775625   3.441775   4.806920   5.569172
    20  H    1.086922   5.416006   6.158082   7.532954   7.622067
    21  H    4.764510   1.097068   2.180308   2.556901   2.505279
    22  H    4.824988   2.179279   1.099001   2.102098   2.489831
    23  H    8.219454   4.879253   4.375977   3.235240   2.043465
    24  H    8.657450   4.819436   3.995992   2.546927   2.099862
    25  H    4.708494   1.950104   3.268633   3.992027   4.534041
    26  H    4.873198   2.868811   2.180761   3.457666   4.505393
    27  H    6.355038   3.519454   2.171785   2.714103   3.891367
    28  H    6.136088   2.857597   2.189303   2.795138   4.101408
    29  H    7.969469   4.328656   4.550556   3.537288   2.655585
    30  H    9.509501   5.618969   5.451300   4.094959   3.371667
    31  H    8.437178   4.272088   4.208012   2.940495   2.715350
                   11         12         13         14         15
    11  C    0.000000
    12  O    4.927067   0.000000
    13  C    4.854933   2.867083   0.000000
    14  O    2.700612   3.628288   2.803603   0.000000
    15  C    1.517148   4.885122   5.556251   3.271051   0.000000
    16  H    4.968649   3.978042   4.736559   5.428074   5.434449
    17  H    8.801596   4.886319   5.276768   7.675036   9.210463
    18  H    7.381039   5.727245   6.323972   7.665590   7.893333
    19  H    6.913973   2.617305   3.195087   5.440835   7.224300
    20  H    8.996898   6.074683   6.541517   8.578562   9.488523
    21  H    3.678064   2.013698   3.492111   3.558966   3.790243
    22  H    3.863808   3.379217   2.131887   3.133260   4.838861
    23  H    1.094922   5.745956   5.627030   3.705701   2.148532
    24  H    1.095957   5.409333   4.879012   2.434580   2.173876
    25  H    5.617112   0.973494   3.716891   4.564017   5.438031
    26  H    5.780808   3.171764   1.093610   3.889052   6.492393
    27  H    4.904950   3.898062   1.096093   2.776897   5.798529
    28  H    5.123795   2.588203   1.095244   2.752392   5.575001
    29  H    2.160197   4.740361   5.843769   3.954429   1.094990
    30  H    2.162124   5.933689   6.536429   4.057077   1.093618
    31  H    2.166358   4.328354   5.150821   2.814678   1.094571
                   16         17         18         19         20
    16  H    0.000000
    17  H    4.963208   0.000000
    18  H    2.465962   4.294870   0.000000
    19  H    4.319645   2.466082   4.963237   0.000000
    20  H    4.289657   2.480215   2.479730   4.290026   0.000000
    21  H    2.415504   5.474522   4.675568   3.740601   5.828903
    22  H    3.102672   5.403321   4.894235   3.858902   5.813465
    23  H    5.034042   9.269627   7.349900   7.577881   9.185401
    24  H    5.827513   9.325372   8.196713   7.337721   9.684022
    25  H    3.988754   4.564326   5.492692   2.554381   5.717926
    26  H    4.739734   4.381315   5.923602   2.544045   5.791351
    27  H    5.431883   6.117892   7.016601   4.197799   7.300621
    28  H    5.382636   5.617437   7.039719   3.295583   7.138534
    29  H    4.873105   8.876885   7.281759   7.047915   8.978237
    30  H    6.418387  10.303303   8.859462   8.307986  10.538248
    31  H    5.702012   8.951621   8.151303   6.802943   9.505071
                   21         22         23         24         25
    21  H    0.000000
    22  H    2.657200   0.000000
    23  H    4.231892   4.298971   0.000000
    24  H    4.455080   4.185409   1.761679   0.000000
    25  H    2.329322   4.070546   6.368289   6.203551   0.000000
    26  H    3.911986   2.483281   6.473332   5.879763   3.830267
    27  H    4.314808   2.460005   5.634554   4.710511   4.783931
    28  H    3.737035   3.065104   6.029641   5.100766   3.457546
    29  H    3.407057   4.929835   2.501063   3.080614   5.122744
    30  H    4.871876   5.836647   2.488879   2.518780   6.473164
    31  H    3.684796   4.857349   3.066553   2.538460   4.914436
                   26         27         28         29         30
    26  H    0.000000
    27  H    1.764617   0.000000
    28  H    1.774834   1.762620   0.000000
    29  H    6.669740   6.243796   5.904819   0.000000
    30  H    7.507348   6.687484   6.523989   1.780062   0.000000
    31  H    6.119496   5.452061   4.970030   1.758793   1.777248
                   31
    31  H    0.000000
 Stoichiometry    C12H16O3
 Framework group  C1[X(C12H16O3)]
 Deg. of freedom    87
 Full point group                 C1      NOp   1
 Largest Abelian subgroup         C1      NOp   1
 Largest concise Abelian subgroup C1      NOp   1
                         Standard orientation:                         
 ---------------------------------------------------------------------
 Center     Atomic      Atomic             Coordinates (Angstroms)
 Number     Number       Type             X           Y           Z
 ---------------------------------------------------------------------
      1          6           0        1.962532   -1.446109   -0.165142
      2          6           0        3.978049    0.460879    0.105949
      3          6           0        3.285502   -1.778667   -0.462143
      4          6           0        1.631134   -0.155695    0.277540
      5          6           0        2.655902    0.795142    0.403667
      6          6           0        4.292455   -0.825790   -0.325330
      7          6           0        0.181945    0.185263    0.581661
      8          6           0       -0.550870    0.765564   -0.640268
      9          6           0       -2.038850    0.514110   -0.482502
     10          8           0       -2.295403   -0.823790   -0.599688
     11          6           0       -3.673647   -1.207587   -0.481110
     12          8           0        0.111171    1.071889    1.699517
     13          6           0       -0.293656    2.254543   -0.880718
     14          8           0       -2.893390    1.372327   -0.312155
     15          6           0       -4.035600   -1.407815    0.978560
     16          1           0        1.190089   -2.203752   -0.283141
     17          1           0        4.762232    1.206865    0.207698
     18          1           0        3.530438   -2.781610   -0.802581
     19          1           0        2.428625    1.808263    0.731301
     20          1           0        5.322082   -1.084752   -0.558153
     21          1           0       -0.305570   -0.737449    0.920027
     22          1           0       -0.252140    0.232003   -1.553436
     23          1           0       -3.789238   -2.152784   -1.021569
     24          1           0       -4.334432   -0.478584   -0.963853
     25          1           0        0.759322    0.757435    2.354276
     26          1           0        0.763530    2.448588   -1.082428
     27          1           0       -0.862803    2.607001   -1.748627
     28          1           0       -0.599509    2.866115   -0.025152
     29          1           0       -3.366428   -2.139305    1.443460
     30          1           0       -5.066532   -1.758960    1.077941
     31          1           0       -3.928059   -0.475503    1.541867
 ---------------------------------------------------------------------
 Rotational constants (GHZ):      1.1867472      0.3133892      0.2804663
 Standard basis: 6-31+G(d,p) (6D, 7F)
 There are   365 symmetry adapted basis functions of A   symmetry.
 Integral buffers will be    131072 words long.
 Raffenetti 2 integral format.
 Two-electron integral symmetry is turned on.
   365 basis functions,   592 primitive gaussians,   365 cartesian basis functions
    56 alpha electrons       56 beta electrons
       nuclear repulsion energy       998.1770781899 Hartrees.
 NAtoms=   31 NActive=   31 NUniq=   31 SFac= 1.00D+00 NAtFMM=   60 NAOKFM=F Big=F
 Nuclear repulsion after empirical dispersion term =      998.1562951598 Hartrees.
 ------------------------------------------------------------------------------
 Polarizable Continuum Model (PCM)
 =================================
 Model                : C-PCM.
 Atomic radii         : SMD-Coulomb.
 Polarization charges : Total charges.
 Charge compensation  : None.
 Solution method      : Matrix inversion.
 Cavity type          : VdW (van der Waals Surface) (Alpha=1.000).
 Cavity algorithm     : GePol (No added spheres)
                        Default sphere list used, NSphG=   31.
                        Lebedev-Laikov grids with approx.  5.0 points / Ang**2.
                        Smoothing algorithm: Karplus/York (Gamma=1.0000).
                        Polarization charges: spherical gaussians, with
                                              point-specific exponents (IZeta= 3).
                        Self-potential: point-specific (ISelfS= 7).
                        Self-field    : sphere-specific E.n sum rule (ISelfD= 2).
 Solvent              : Chloroform, Eps=   4.711300 Eps(inf)=   2.090627
 ------------------------------------------------------------------------------
 ------------------------------------------------------------------------------
 Atomic radii for non-electrostatic terms: SMD-CDS.
 ------------------------------------------------------------------------------
 Nuclear repulsion after PCM non-electrostatic terms =      998.1497866880 Hartrees.
 One-electron integrals computed using PRISM.
 NBasis=   365 RedAO= T  NBF=   365
 NBsUse=   365 1.00D-06 NBFU=   365
 Harris functional with IExCor= 4639 diagonalized for initial guess.
 ExpMin= 4.38D-02 ExpMax= 5.48D+03 ExpMxC= 8.25D+02 IAcc=2 IRadAn=         4 AccDes= 0.00D+00
 HarFok:  IExCor= 4639 AccDes= 0.00D+00 IRadAn=         4 IDoV= 1
 ScaDFX=  1.000000  1.000000  1.000000  1.000000
 FoFCou: FMM=F IPFlag=           0 FMFlag=      100000 FMFlg1=           0
         NFxFlg=           0 DoJE=T BraDBF=F KetDBF=T FulRan=T
         Omega=  0.000000  0.000000  1.000000  0.000000  0.000000 ICntrl=     500 IOpCl=  0
         NMat0=    1 NMatS0=    1 NMatT0=    0 NMatD0=    1 NMtDS0=    0 NMtDT0=    0
         I1Cent=           4 NGrid=           0.
 Petite list used in FoFCou.
 Initial guess orbital symmetries:
       Occupied  (A) (A) (A) (A) (A) (A) (A) (A) (A) (A) (A) (A)
                 (A) (A) (A) (A) (A) (A) (A) (A) (A) (A) (A) (A)
                 (A) (A) (A) (A) (A) (A) (A) (A) (A) (A) (A) (A)
                 (A) (A) (A) (A) (A) (A) (A) (A) (A) (A) (A) (A)
                 (A) (A) (A) (A) (A) (A) (A) (A)
       Virtual   (A) (A) (A) (A) (A) (A) (A) (A) (A) (A) (A) (A)
                 (A) (A) (A) (A) (A) (A) (A) (A) (A) (A) (A) (A)
                 (A) (A) (A) (A) (A) (A) (A) (A) (A) (A) (A) (A)
                 (A) (A) (A) (A) (A) (A) (A) (A) (A) (A) (A) (A)
                 (A) (A) (A) (A) (A) (A) (A) (A) (A) (A) (A) (A)
                 (A) (A) (A) (A) (A) (A) (A) (A) (A) (A) (A) (A)
                 (A) (A) (A) (A) (A) (A) (A) (A) (A) (A) (A) (A)
                 (A) (A) (A) (A) (A) (A) (A) (A) (A) (A) (A) (A)
                 (A) (A) (A) (A) (A) (A) (A) (A) (A) (A) (A) (A)
                 (A) (A) (A) (A) (A) (A) (A) (A) (A) (A) (A) (A)
                 (A) (A) (A) (A) (A) (A) (A) (A) (A) (A) (A) (A)
                 (A) (A) (A) (A) (A) (A) (A) (A) (A) (A) (A) (A)
                 (A) (A) (A) (A) (A) (A) (A) (A) (A) (A) (A) (A)
                 (A) (A) (A) (A) (A) (A) (A) (A) (A) (A) (A) (A)
                 (A) (A) (A) (A) (A) (A) (A) (A) (A) (A) (A) (A)
                 (A) (A) (A) (A) (A) (A) (A) (A) (A) (A) (A) (A)
                 (A) (A) (A) (A) (A) (A) (A) (A) (A) (A) (A) (A)
                 (A) (A) (A) (A) (A) (A) (A) (A) (A) (A) (A) (A)
                 (A) (A) (A) (A) (A) (A) (A) (A) (A) (A) (A) (A)
                 (A) (A) (A) (A) (A) (A) (A) (A) (A) (A) (A) (A)
                 (A) (A) (A) (A) (A) (A) (A) (A) (A) (A) (A) (A)
                 (A) (A) (A) (A) (A) (A) (A) (A) (A) (A) (A) (A)
                 (A) (A) (A) (A) (A) (A) (A) (A) (A) (A) (A) (A)
                 (A) (A) (A) (A) (A) (A) (A) (A) (A) (A) (A) (A)
                 (A) (A) (A) (A) (A) (A) (A) (A) (A) (A) (A) (A)
                 (A) (A) (A) (A) (A) (A) (A) (A) (A)
 The electronic state of the initial guess is 1-A.
 Requested convergence on RMS density matrix=1.00D-08 within 128 cycles.
 Requested convergence on MAX density matrix=1.00D-06.
 Requested convergence on             energy=1.00D-06.
 No special actions if energy rises.
 FoFJK:  IHMeth= 1 ICntrl=     0 DoSepK=T KAlg= 1 I1Cent= 0 FoldK=F
 FoFJK:  IHMeth= 1 ICntrl=     0 DoSepK=T KAlg= 1 I1Cent= 0 FoldK=F
 FoFJK:  IHMeth= 1 ICntrl=     0 DoSepK=T KAlg= 1 I1Cent= 0 FoldK=F
 FoFJK:  IHMeth= 1 ICntrl=     0 DoSepK=T KAlg= 1 I1Cent= 0 FoldK=F
 FoFJK:  IHMeth= 1 ICntrl=     0 DoSepK=T KAlg= 1 I1Cent= 0 FoldK=F
 FoFJK:  IHMeth= 1 ICntrl=     0 DoSepK=T KAlg= 1 I1Cent= 0 FoldK=F
 FoFJK:  IHMeth= 1 ICntrl=     0 DoSepK=T KAlg= 1 I1Cent= 0 FoldK=F
 FoFJK:  IHMeth= 1 ICntrl=     0 DoSepK=T KAlg= 1 I1Cent= 0 FoldK=F
 FoFJK:  IHMeth= 1 ICntrl=     0 DoSepK=T KAlg= 1 I1Cent= 0 FoldK=F
 FoFJK:  IHMeth= 1 ICntrl=     0 DoSepK=T KAlg= 1 I1Cent= 0 FoldK=F
 FoFJK:  IHMeth= 1 ICntrl=     0 DoSepK=T KAlg= 1 I1Cent= 0 FoldK=F
 FoFJK:  IHMeth= 1 ICntrl=     0 DoSepK=T KAlg= 1 I1Cent= 0 FoldK=F
 FoFJK:  IHMeth= 1 ICntrl=     0 DoSepK=T KAlg= 1 I1Cent= 0 FoldK=F
 FoFJK:  IHMeth= 1 ICntrl=     0 DoSepK=T KAlg= 1 I1Cent= 0 FoldK=F
 FoFJK:  IHMeth= 1 ICntrl=     0 DoSepK=T KAlg= 1 I1Cent= 0 FoldK=F
 FoFJK:  IHMeth= 1 ICntrl=     0 DoSepK=T KAlg= 1 I1Cent= 0 FoldK=F
 Error on total polarization charges =  0.03983
 SCF Done:  E(RwB97XD) =  -692.441898364     A.U. after   16 cycles
             Convg  =    0.2791D-08             -V/T =  2.0096
 SMD-CDS (non-electrostatic) energy       (kcal/mol) =      -4.08
 (included in total energy above)
 Range of M.O.s used for correlation:     1   365
 NBasis=   365 NAE=    56 NBE=    56 NFC=     0 NFV=     0
 NROrb=    365 NOA=    56 NOB=    56 NVA=   309 NVB=   309

 **** Warning!!: The largest alpha MO coefficient is  0.14111213D+03

 NEqPCM:  Using equilibrium solvation (IEInf=0, Eps=   4.7113, EpsInf=   2.0906)
          Differentiating once with respect to magnetic field using GIAOs.
          Electric field/nuclear overlap derivatives assumed to be zero.
 FoFCou: FMM=F IPFlag=           0 FMFlag=    10101102 FMFlg1=           0
         NFxFlg=    40000000 DoJE=F BraDBF=F KetDBF=T FulRan=T
         Omega=  0.000000  0.000000  1.000000  0.000000  0.000000 ICntrl=    6100 IOpCl=  0
         NMat0=    1 NMatS0=    1 NMatT0=    0 NMatD0=    1 NMtDS0=    0 NMtDT0=    0
         I1Cent=           7 NGrid=        2306.
 Symmetry not used in FoFCou.
 FoFJK:  IHMeth= 1 ICntrl=  6127 DoSepK=T KAlg= 1 I1Cent= 0 FoldK=F
 FoFJK:  IHMeth= 1 ICntrl=     0 DoSepK=T KAlg= 1 I1Cent= 0 FoldK=F
          There are     3 degrees of freedom in the 1st order CPHF.  IDoFFX=0.
      3 vectors produced by pass  0 Test12= 5.77D-13 3.33D-08 XBig12= 2.00D+02 2.34D+00.
 AX will form     3 AO Fock derivatives at one time.
 FoFJK:  IHMeth= 1 ICntrl=     0 DoSepK=T KAlg= 1 I1Cent= 0 FoldK=F
      3 vectors produced by pass  1 Test12= 5.77D-13 3.33D-08 XBig12= 1.43D+00 3.15D-01.
 FoFJK:  IHMeth= 1 ICntrl=     0 DoSepK=T KAlg= 1 I1Cent= 0 FoldK=F
      3 vectors produced by pass  2 Test12= 5.77D-13 3.33D-08 XBig12= 2.51D-02 6.81D-02.
 FoFJK:  IHMeth= 1 ICntrl=     0 DoSepK=T KAlg= 1 I1Cent= 0 FoldK=F
      3 vectors produced by pass  3 Test12= 5.77D-13 3.33D-08 XBig12= 4.45D-04 6.88D-03.
 FoFJK:  IHMeth= 1 ICntrl=     0 DoSepK=T KAlg= 1 I1Cent= 0 FoldK=F
      3 vectors produced by pass  4 Test12= 5.77D-13 3.33D-08 XBig12= 6.31D-06 5.05D-04.
 FoFJK:  IHMeth= 1 ICntrl=     0 DoSepK=T KAlg= 1 I1Cent= 0 FoldK=F
      3 vectors produced by pass  5 Test12= 5.77D-13 3.33D-08 XBig12= 8.47D-08 8.70D-05.
 FoFJK:  IHMeth= 1 ICntrl=     0 DoSepK=T KAlg= 1 I1Cent= 0 FoldK=F
      3 vectors produced by pass  6 Test12= 5.77D-13 3.33D-08 XBig12= 1.10D-09 1.14D-05.
 FoFJK:  IHMeth= 1 ICntrl=     0 DoSepK=T KAlg= 1 I1Cent= 0 FoldK=F
      3 vectors produced by pass  7 Test12= 5.77D-13 3.33D-08 XBig12= 1.44D-11 1.22D-06.
 FoFJK:  IHMeth= 1 ICntrl=     0 DoSepK=T KAlg= 1 I1Cent= 0 FoldK=F
      3 vectors produced by pass  8 Test12= 5.77D-13 3.33D-08 XBig12= 1.56D-13 8.85D-08.
 FoFJK:  IHMeth= 1 ICntrl=     0 DoSepK=T KAlg= 1 I1Cent= 0 FoldK=F
 Inverted reduced A of dimension    27 with in-core refinement.
 Calculating GIAO nuclear magnetic shielding tensors.
 SCF GIAO Magnetic shielding tensor (ppm):
      1  C    Isotropic =    72.4516   Anisotropy =   165.4769
   XX=    19.4340   YX=   -42.6835   ZX=     9.4743
   XY=   -45.6140   YY=    25.6771   ZY=   -41.3618
   XZ=    -1.8775   YZ=   -34.4336   ZZ=   172.2436
   Eigenvalues:   -24.5502    59.1355   182.7695
      2  C    Isotropic =    69.3649   Anisotropy =   174.1093
   XX=    13.3547   YX=   -47.9641   ZX=    12.7449
   XY=   -51.1925   YY=    22.7019   ZY=   -41.0123
   XZ=    13.2538   YZ=   -37.3678   ZZ=   172.0381
   Eigenvalues:   -33.2400    55.8969   185.4378
      3  C    Isotropic =    69.8142   Anisotropy =   173.5275
   XX=    54.8836   YX=    11.1324   ZX=    22.6344
   XY=    14.3007   YY=    -8.6281   ZY=   -60.5208
   XZ=    22.8013   YZ=   -62.9254   ZZ=   163.1872
   Eigenvalues:   -32.7228    56.6662   185.4992
      4  C    Isotropic =    49.3547   Anisotropy =   184.7864
   XX=   -24.8950   YX=     3.5477   ZX=    33.0376
   XY=     1.1937   YY=    13.1870   ZY=   -40.5754
   XZ=    36.0321   YZ=   -25.7606   ZZ=   159.7720
   Eigenvalues:   -32.8060     8.3244   172.5456
      5  C    Isotropic =    73.6193   Anisotropy =   178.3614
   XX=    54.2547   YX=     6.4929   ZX=    24.8687
   XY=     9.8580   YY=    -4.3140   ZY=   -63.8286
   XZ=    13.1413   YZ=   -60.5710   ZZ=   170.9173
   Eigenvalues:   -26.4587    54.7897   192.5269
      6  C    Isotropic =    71.9681   Anisotropy =   176.3445
   XX=   -18.0370   YX=    14.0620   ZX=    35.3102
   XY=    12.7888   YY=    63.2923   ZY=   -39.8729
   XZ=    40.9034   YZ=   -42.2624   ZZ=   170.6489
   Eigenvalues:   -30.5189    56.8920   189.5311
      7  C    Isotropic =   121.3972   Anisotropy =    36.8084
   XX=   111.4598   YX=    -4.3611   ZX=    -3.4190
   XY=    -1.7308   YY=   129.7277   ZY=    21.0146
   XZ=     0.7874   YZ=    16.9482   ZZ=   123.0041
   Eigenvalues:   106.8807   111.3748   145.9361
      8  C    Isotropic =   149.2997   Anisotropy =    19.9716
   XX=   161.3947   YX=     9.5110   ZX=     1.4598
   XY=    -5.4863   YY=   145.4361   ZY=    -1.7871
   XZ=     7.9771   YZ=    -0.2871   ZZ=   141.0683
   Eigenvalues:   139.6558   145.6292   162.6141
      9  C    Isotropic =    18.5267   Anisotropy =    97.3415
   XX=    10.3625   YX=   -34.7444   ZX=     5.5228
   XY=   -70.7869   YY=   -33.3829   ZY=    -6.5357
   XZ=     9.2000   YZ=   -18.6630   ZZ=    78.6005
   Eigenvalues:   -68.9091    41.0681    83.4210
     10  O    Isotropic =   133.6422   Anisotropy =   146.3833
   XX=   -20.6432   YX=   -10.7894   ZX=    12.3076
   XY=   137.3886   YY=   193.5147   ZY=   -17.7407
   XZ=    16.3269   YZ=    -3.8106   ZZ=   228.0549
   Eigenvalues:   -38.9928   208.6882   231.2310
     11  C    Isotropic =   137.4776   Anisotropy =    65.7209
   XX=   170.9967   YX=    23.6386   ZX=    -4.4192
   XY=    28.0045   YY=   110.1975   ZY=    -1.6756
   XZ=    -8.2842   YZ=    -0.6339   ZZ=   131.2385
   Eigenvalues:   100.6705   130.4708   181.2915
     12  O    Isotropic =   290.5709   Anisotropy =    79.9663
   XX=   308.9680   YX=   -23.5607   ZX=    23.4807
   XY=   -20.5058   YY=   242.6723   ZY=   -11.0064
   XZ=    29.9576   YZ=    10.4677   ZZ=   320.0723
   Eigenvalues:   235.2895   292.5414   343.8817
     13  C    Isotropic =   188.2622   Anisotropy =    10.2795
   XX=   189.5283   YX=     4.7545   ZX=    -0.9062
   XY=     2.3239   YY=   192.2235   ZY=    -2.7474
   XZ=     1.5445   YZ=    -3.2557   ZZ=   183.0348
   Eigenvalues:   181.8819   187.7895   195.1152
     14  O    Isotropic =   -46.9101   Anisotropy =   578.9011
   XX=  -169.2783   YX=    28.4292   ZX=    58.9700
   XY=    43.7229   YY=  -298.5081   ZY=   -62.7989
   XZ=    47.3062   YZ=   -72.3688   ZZ=   327.0559
   Eigenvalues:  -317.6392  -162.1152   339.0239
     15  C    Isotropic =   181.5218   Anisotropy =    25.5836
   XX=   185.2399   YX=     6.7094   ZX=    -3.3366
   XY=     7.2405   YY=   164.9818   ZY=    -2.9239
   XZ=    -7.9185   YZ=    -6.1147   ZZ=   194.3438
   Eigenvalues:   162.5791   183.4088   198.5776
     16  H    Isotropic =    23.7072   Anisotropy =     8.4074
   XX=    25.9717   YX=    -3.6077   ZX=    -1.4418
   XY=    -2.8338   YY=    25.3194   ZY=     1.5759
   XZ=    -1.4459   YZ=     1.2471   ZZ=    19.8305
   Eigenvalues:    19.3992    22.4103    29.3122
     17  H    Isotropic =    23.6820   Anisotropy =     5.1870
   XX=    26.0076   YX=    -1.2410   ZX=    -1.0243
   XY=    -1.4166   YY=    24.3485   ZY=     1.5292
   XZ=    -0.9623   YZ=     1.3833   ZZ=    20.6899
   Eigenvalues:    20.1344    23.7716    27.1400
     18  H    Isotropic =    23.8575   Anisotropy =     5.0011
   XX=    27.0502   YX=     0.3402   ZX=    -0.7950
   XY=     0.4080   YY=    23.7574   ZY=     0.7387
   XZ=    -0.9539   YZ=     0.7272   ZZ=    20.7650
   Eigenvalues:    20.4619    23.9191    27.1916
     19  H    Isotropic =    23.2784   Anisotropy =    10.0380
   XX=    29.6875   YX=     2.0210   ZX=    -0.2322
   XY=     1.1658   YY=    20.9090   ZY=     0.1561
   XZ=     0.3942   YZ=     0.8741   ZZ=    19.2388
   Eigenvalues:    19.0792    20.7857    29.9705
     20  H    Isotropic =    23.7950   Anisotropy =     4.2468
   XX=    24.6636   YX=     0.7081   ZX=    -0.2988
   XY=     0.5861   YY=    26.0763   ZY=     1.5328
   XZ=    -0.0836   YZ=     1.4265   ZZ=    20.6451
   Eigenvalues:    20.2409    24.5179    26.6262
     21  H    Isotropic =    26.1875   Anisotropy =     6.3168
   XX=    25.9957   YX=     1.3515   ZX=    -0.1109
   XY=     2.7813   YY=    29.3167   ZY=     0.9566
   XZ=    -0.1583   YZ=     0.9604   ZZ=    23.2500
   Eigenvalues:    23.0166    25.1471    30.3987
     22  H    Isotropic =    28.9348   Anisotropy =     4.8403
   XX=    27.7970   YX=    -0.3080   ZX=    -1.2152
   XY=    -0.0187   YY=    29.5117   ZY=     2.6171
   XZ=     1.5109   YZ=     2.6987   ZZ=    29.4956
   Eigenvalues:    26.7973    27.8454    32.1616
     23  H    Isotropic =    27.6963   Anisotropy =     8.2860
   XX=    27.2136   YX=     4.2743   ZX=     0.4481
   XY=     2.7721   YY=    27.8716   ZY=     3.5329
   XZ=     0.2421   YZ=     4.3223   ZZ=    28.0035
   Eigenvalues:    22.6428    27.2257    33.2203
     24  H    Isotropic =    26.7979   Anisotropy =     6.5061
   XX=    29.7873   YX=    -0.4983   ZX=     2.3452
   XY=     1.6217   YY=    24.5414   ZY=    -1.6971
   XZ=     2.8504   YZ=    -1.7429   ZZ=    26.0650
   Eigenvalues:    22.8416    26.4168    31.1353
     25  H    Isotropic =    30.0131   Anisotropy =    16.2351
   XX=    29.7985   YX=    -3.7101   ZX=     8.0048
   XY=    -2.1079   YY=    24.1920   ZY=    -0.3560
   XZ=     6.1855   YZ=     0.2986   ZZ=    36.0487
   Eigenvalues:    22.1265    27.0762    40.8364
     26  H    Isotropic =    30.5725   Anisotropy =     9.4532
   XX=    35.8340   YX=     2.0102   ZX=    -1.7293
   XY=     2.1046   YY=    29.9599   ZY=    -2.1931
   XZ=    -0.0856   YZ=    -4.9749   ZZ=    25.9236
   Eigenvalues:    23.8229    31.0200    36.8746
     27  H    Isotropic =    30.7494   Anisotropy =    10.6963
   XX=    29.2044   YX=    -0.7083   ZX=     3.0758
   XY=    -1.5778   YY=    30.5794   ZY=    -4.3103
   XZ=     3.4370   YZ=    -5.7833   ZZ=    32.4645
   Eigenvalues:    25.7973    28.5708    37.8803
     28  H    Isotropic =    29.8087   Anisotropy =     7.7361
   XX=    27.1274   YX=    -1.4102   ZX=    -0.9671
   XY=    -1.9167   YY=    32.9278   ZY=     3.2243
   XZ=    -0.3271   YZ=     2.6133   ZZ=    29.3710
   Eigenvalues:    26.6726    27.7874    34.9661
     29  H    Isotropic =    30.3708   Anisotropy =     7.6506
   XX=    29.6594   YX=    -1.9820   ZX=     0.5100
   XY=    -1.6128   YY=    31.1579   ZY=    -3.4187
   XZ=     1.4510   YZ=    -4.6529   ZZ=    30.2952
   Eigenvalues:    26.5817    29.0595    35.4712
     30  H    Isotropic =    30.5333   Anisotropy =    11.6064
   XX=    35.7875   YX=     3.4793   ZX=    -2.6532
   XY=     3.6155   YY=    27.7574   ZY=    -1.1497
   XZ=    -3.5934   YZ=    -1.6309   ZZ=    28.0550
   Eigenvalues:    26.3536    26.9754    38.2709
     31  H    Isotropic =    30.1954   Anisotropy =     6.0187
   XX=    27.5016   YX=     1.2455   ZX=    -1.5854
   XY=     0.9853   YY=    31.4768   ZY=     2.1263
   XZ=    -2.5741   YZ=     3.0272   ZZ=    31.6078
   Eigenvalues:    25.8267    30.5516    34.2078
 End of Minotr Frequency-dependent properties file   721 does not exist.
 End of Minotr Frequency-dependent properties file   722 does not exist.

 **********************************************************************

            Population analysis using the SCF density.

 **********************************************************************

 Orbital symmetries:
       Occupied  (A) (A) (A) (A) (A) (A) (A) (A) (A) (A) (A) (A)
                 (A) (A) (A) (A) (A) (A) (A) (A) (A) (A) (A) (A)
                 (A) (A) (A) (A) (A) (A) (A) (A) (A) (A) (A) (A)
                 (A) (A) (A) (A) (A) (A) (A) (A) (A) (A) (A) (A)
                 (A) (A) (A) (A) (A) (A) (A) (A)
       Virtual   (A) (A) (A) (A) (A) (A) (A) (A) (A) (A) (A) (A)
                 (A) (A) (A) (A) (A) (A) (A) (A) (A) (A) (A) (A)
                 (A) (A) (A) (A) (A) (A) (A) (A) (A) (A) (A) (A)
                 (A) (A) (A) (A) (A) (A) (A) (A) (A) (A) (A) (A)
                 (A) (A) (A) (A) (A) (A) (A) (A) (A) (A) (A) (A)
                 (A) (A) (A) (A) (A) (A) (A) (A) (A) (A) (A) (A)
                 (A) (A) (A) (A) (A) (A) (A) (A) (A) (A) (A) (A)
                 (A) (A) (A) (A) (A) (A) (A) (A) (A) (A) (A) (A)
                 (A) (A) (A) (A) (A) (A) (A) (A) (A) (A) (A) (A)
                 (A) (A) (A) (A) (A) (A) (A) (A) (A) (A) (A) (A)
                 (A) (A) (A) (A) (A) (A) (A) (A) (A) (A) (A) (A)
                 (A) (A) (A) (A) (A) (A) (A) (A) (A) (A) (A) (A)
                 (A) (A) (A) (A) (A) (A) (A) (A) (A) (A) (A) (A)
                 (A) (A) (A) (A) (A) (A) (A) (A) (A) (A) (A) (A)
                 (A) (A) (A) (A) (A) (A) (A) (A) (A) (A) (A) (A)
                 (A) (A) (A) (A) (A) (A) (A) (A) (A) (A) (A) (A)
                 (A) (A) (A) (A) (A) (A) (A) (A) (A) (A) (A) (A)
                 (A) (A) (A) (A) (A) (A) (A) (A) (A) (A) (A) (A)
                 (A) (A) (A) (A) (A) (A) (A) (A) (A) (A) (A) (A)
                 (A) (A) (A) (A) (A) (A) (A) (A) (A) (A) (A) (A)
                 (A) (A) (A) (A) (A) (A) (A) (A) (A) (A) (A) (A)
                 (A) (A) (A) (A) (A) (A) (A) (A) (A) (A) (A) (A)
                 (A) (A) (A) (A) (A) (A) (A) (A) (A) (A) (A) (A)
                 (A) (A) (A) (A) (A) (A) (A) (A) (A) (A) (A) (A)
                 (A) (A) (A) (A) (A) (A) (A) (A) (A) (A) (A) (A)
                 (A) (A) (A) (A) (A) (A) (A) (A) (A)
 The electronic state is 1-A.
 Alpha  occ. eigenvalues --  -19.32545 -19.28283 -19.27512 -10.43815 -10.36266
 Alpha  occ. eigenvalues --  -10.34944 -10.32102 -10.31661 -10.30851 -10.30810
 Alpha  occ. eigenvalues --  -10.30784 -10.30753 -10.30611 -10.28584 -10.28449
 Alpha  occ. eigenvalues --   -1.20721  -1.13203  -1.12316  -0.96323  -0.91322
 Alpha  occ. eigenvalues --   -0.86604  -0.85148  -0.84835  -0.78151  -0.75913
 Alpha  occ. eigenvalues --   -0.70761  -0.70125  -0.67983  -0.64079  -0.62533
 Alpha  occ. eigenvalues --   -0.60008  -0.58976  -0.57485  -0.56452  -0.54846
 Alpha  occ. eigenvalues --   -0.53433  -0.53278  -0.51960  -0.50771  -0.50244
 Alpha  occ. eigenvalues --   -0.48474  -0.47754  -0.46477  -0.45991  -0.45678
 Alpha  occ. eigenvalues --   -0.44650  -0.43988  -0.43090  -0.42530  -0.41806
 Alpha  occ. eigenvalues --   -0.40792  -0.38802  -0.37432  -0.35857  -0.33423
 Alpha  occ. eigenvalues --   -0.32453
 Alpha virt. eigenvalues --    0.04685   0.05180   0.06296   0.07267   0.07887
 Alpha virt. eigenvalues --    0.08205   0.08385   0.09399   0.09908   0.10018
 Alpha virt. eigenvalues --    0.10608   0.11221   0.11700   0.12273   0.12811
 Alpha virt. eigenvalues --    0.13216   0.13918   0.14329   0.14813   0.15074
 Alpha virt. eigenvalues --    0.15530   0.15986   0.16055   0.17465   0.18122
 Alpha virt. eigenvalues --    0.18750   0.19214   0.19417   0.19567   0.20074
 Alpha virt. eigenvalues --    0.20529   0.21152   0.21379   0.21564   0.22697
 Alpha virt. eigenvalues --    0.23078   0.23510   0.23750   0.24496   0.24802
 Alpha virt. eigenvalues --    0.25376   0.25474   0.26196   0.26302   0.26741
 Alpha virt. eigenvalues --    0.27261   0.27888   0.28039   0.28763   0.29311
 Alpha virt. eigenvalues --    0.29609   0.30382   0.30625   0.30742   0.31388
 Alpha virt. eigenvalues --    0.32237   0.32474   0.33298   0.33563   0.33991
 Alpha virt. eigenvalues --    0.34279   0.34832   0.35033   0.35535   0.36272
 Alpha virt. eigenvalues --    0.37094   0.37407   0.38033   0.38169   0.38408
 Alpha virt. eigenvalues --    0.39000   0.39709   0.40502   0.41150   0.41740
 Alpha virt. eigenvalues --    0.42257   0.42807   0.43695   0.43775   0.44168
 Alpha virt. eigenvalues --    0.44674   0.46191   0.47328   0.47508   0.47994
 Alpha virt. eigenvalues --    0.48993   0.50458   0.51379   0.51877   0.53187
 Alpha virt. eigenvalues --    0.53790   0.56208   0.61474   0.66401   0.69957
 Alpha virt. eigenvalues --    0.72931   0.74601   0.74791   0.76392   0.76900
 Alpha virt. eigenvalues --    0.77724   0.77943   0.79094   0.79596   0.81065
 Alpha virt. eigenvalues --    0.81735   0.83105   0.83329   0.83655   0.84594
 Alpha virt. eigenvalues --    0.85175   0.85235   0.86329   0.87667   0.87884
 Alpha virt. eigenvalues --    0.89614   0.91232   0.91492   0.93260   0.94563
 Alpha virt. eigenvalues --    0.97067   0.98888   0.99825   1.00557   1.02547
 Alpha virt. eigenvalues --    1.03508   1.04948   1.05725   1.06335   1.07735
 Alpha virt. eigenvalues --    1.08970   1.09217   1.10642   1.11754   1.13162
 Alpha virt. eigenvalues --    1.14304   1.15078   1.17021   1.18125   1.19242
 Alpha virt. eigenvalues --    1.19588   1.20677   1.22224   1.23107   1.23877
 Alpha virt. eigenvalues --    1.25703   1.27153   1.27519   1.28779   1.30396
 Alpha virt. eigenvalues --    1.32331   1.33164   1.34824   1.35329   1.38024
 Alpha virt. eigenvalues --    1.38372   1.40438   1.42941   1.43380   1.45378
 Alpha virt. eigenvalues --    1.46240   1.47023   1.48351   1.49158   1.49584
 Alpha virt. eigenvalues --    1.50084   1.50731   1.51819   1.54396   1.56115
 Alpha virt. eigenvalues --    1.57222   1.58960   1.60214   1.63088   1.67329
 Alpha virt. eigenvalues --    1.68091   1.69569   1.71947   1.74282   1.76759
 Alpha virt. eigenvalues --    1.78712   1.82192   1.84342   1.86953   1.88424
 Alpha virt. eigenvalues --    1.88845   1.91067   1.92077   1.93444   1.95773
 Alpha virt. eigenvalues --    1.96074   1.97992   1.99236   2.00305   2.00973
 Alpha virt. eigenvalues --    2.01662   2.03122   2.04148   2.05112   2.06054
 Alpha virt. eigenvalues --    2.06537   2.08196   2.09589   2.10876   2.11373
 Alpha virt. eigenvalues --    2.12108   2.13555   2.14697   2.17230   2.18770
 Alpha virt. eigenvalues --    2.20110   2.20788   2.21556   2.22603   2.24498
 Alpha virt. eigenvalues --    2.25427   2.25692   2.27758   2.29128   2.30684
 Alpha virt. eigenvalues --    2.32657   2.34985   2.36682   2.39306   2.39964
 Alpha virt. eigenvalues --    2.41033   2.42051   2.44207   2.47833   2.48848
 Alpha virt. eigenvalues --    2.49103   2.49916   2.50371   2.52919   2.53905
 Alpha virt. eigenvalues --    2.55962   2.56501   2.56947   2.59128   2.59880
 Alpha virt. eigenvalues --    2.62726   2.64855   2.65341   2.66000   2.68460
 Alpha virt. eigenvalues --    2.70343   2.71667   2.72555   2.73324   2.74211
 Alpha virt. eigenvalues --    2.76620   2.78193   2.79602   2.81756   2.82619
 Alpha virt. eigenvalues --    2.85025   2.85923   2.87860   2.88347   2.89503
 Alpha virt. eigenvalues --    2.91279   2.91866   2.93348   2.95349   2.97043
 Alpha virt. eigenvalues --    2.98706   3.00975   3.01166   3.05618   3.11061
 Alpha virt. eigenvalues --    3.13362   3.14257   3.17033   3.21635   3.27932
 Alpha virt. eigenvalues --    3.29636   3.30397   3.36794   3.37073   3.38299
 Alpha virt. eigenvalues --    3.39225   3.43892   3.44946   3.51456   3.52832
 Alpha virt. eigenvalues --    3.53753   3.57080   3.59410   3.60330   3.62692
 Alpha virt. eigenvalues --    3.64559   3.66499   3.67247   3.99372   4.40278
 Alpha virt. eigenvalues --    4.40561   4.42201   4.46407   4.50482   4.55623
 Alpha virt. eigenvalues --    4.56412   4.60368   4.61862   4.66878   4.74871
 Alpha virt. eigenvalues --    4.80336   4.81399   4.95290   4.97552
          Condensed to atoms (all electrons):
              1          2          3          4          5          6
     1  C   14.728976  -0.698381  -0.449516  -3.052463  -6.809940   0.087731
     2  C   -0.698381   8.915061   0.450500   1.794307  -2.066122   0.710890
     3  C   -0.449516   0.450500   6.485586   0.138178  -0.423423   0.486703
     4  C   -3.052463   1.794307   0.138178  22.234840  -3.290331  -0.839429
     5  C   -6.809940  -2.066122  -0.423423  -3.290331  16.896183  -0.019558
     6  C    0.087731   0.710890   0.486703  -0.839429  -0.019558   5.384221
     7  C    2.474582  -3.421396  -0.818601 -11.818898   1.191279   0.042082
     8  C   -0.432798   0.184215   0.128936   0.899109   0.492663  -0.007270
     9  C   -0.065864  -0.111645  -0.029504  -1.371526   0.218625   0.011011
    10  O    0.041155   0.004622   0.010177   0.018664  -0.035249  -0.000292
    11  C    0.003526   0.004582  -0.001451   0.053842  -0.001522   0.000132
    12  O   -0.144170   0.242942   0.008294   0.268603   0.077825   0.008273
    13  C   -0.102457   0.054290  -0.031012   0.597176  -0.224412  -0.008741
    14  O    0.000625   0.000801  -0.000561  -0.029357  -0.003217  -0.000011
    15  C    0.006123  -0.000717   0.002410  -0.001844  -0.003548  -0.000023
    16  H    0.187364   0.010179   0.041128   0.119983   0.011736  -0.012331
    17  H    0.008004   0.269969  -0.005233   0.030783   0.020525   0.011832
    18  H    0.038409  -0.005121   0.258168   0.011768   0.002188   0.023681
    19  H    0.047266  -0.039996  -0.002523   0.133578   0.208570  -0.011125
    20  H   -0.009751   0.024095   0.025633   0.007205   0.000829   0.274578
    21  H    0.160574   0.028548   0.054859   0.218173  -0.096536   0.000787
    22  H   -0.078329   0.010814  -0.003436   0.062778   0.047233  -0.000522
    23  H    0.001006   0.000016   0.000128   0.000999  -0.000280  -0.000002
    24  H    0.000290  -0.000003  -0.000027  -0.001461  -0.000154  -0.000001
    25  H    0.011747   0.001900   0.000513   0.050158  -0.046658  -0.000908
    26  H    0.045766  -0.017167  -0.004718   0.005747  -0.081753  -0.000265
    27  H   -0.011921   0.000167  -0.000348   0.013512   0.012037   0.000114
    28  H   -0.010557   0.006751  -0.001016  -0.041686   0.042375   0.000730
    29  H    0.001934  -0.000020   0.000158  -0.005521  -0.000176   0.000011
    30  H    0.000098   0.000000   0.000003  -0.000334  -0.000027   0.000000
    31  H   -0.000161   0.000041  -0.000001   0.003853  -0.000109  -0.000006
              7          8          9         10         11         12
     1  C    2.474582  -0.432798  -0.065864   0.041155   0.003526  -0.144170
     2  C   -3.421396   0.184215  -0.111645   0.004622   0.004582   0.242942
     3  C   -0.818601   0.128936  -0.029504   0.010177  -0.001451   0.008294
     4  C  -11.818898   0.899109  -1.371526   0.018664   0.053842   0.268603
     5  C    1.191279   0.492663   0.218625  -0.035249  -0.001522   0.077825
     6  C    0.042082  -0.007270   0.011011  -0.000292   0.000132   0.008273
     7  C   19.393879  -1.699803   1.423078  -0.085330  -0.067743  -0.324535
     8  C   -1.699803   8.323027  -1.421251  -0.280552  -0.009432  -0.141248
     9  C    1.423078  -1.421251   6.652992   0.332899  -0.100202   0.063606
    10  O   -0.085330  -0.280552   0.332899   8.445816   0.063305  -0.001663
    11  C   -0.067743  -0.009432  -0.100202   0.063305   5.151679   0.000967
    12  O   -0.324535  -0.141248   0.063606  -0.001663   0.000967   8.305191
    13  C   -0.387615  -0.324462  -0.070434   0.030864  -0.001904  -0.016309
    14  O    0.002340  -0.107783   0.570439  -0.149631   0.013032   0.000999
    15  C    0.017745  -0.038229  -0.017139  -0.056286   0.277400  -0.000621
    16  H   -0.057641   0.019875  -0.005405   0.000074  -0.000113   0.000449
    17  H   -0.009371  -0.000412  -0.000062   0.000000   0.000000   0.000125
    18  H   -0.002239  -0.000252  -0.000005  -0.000003   0.000004   0.000016
    19  H   -0.019387  -0.013325   0.006772  -0.000012   0.000024   0.005170
    20  H    0.004102  -0.000179  -0.000021   0.000000   0.000000  -0.000006
    21  H   -0.059165   0.060737  -0.077743   0.013927  -0.000035  -0.048247
    22  H   -0.083149   0.370427  -0.040481   0.001491   0.002853   0.008638
    23  H    0.000379  -0.002363   0.007071  -0.059298   0.423250   0.000005
    24  H   -0.000142   0.006600   0.000233  -0.034119   0.395713  -0.000013
    25  H   -0.030097   0.021875  -0.008969   0.000064   0.000183   0.250092
    26  H    0.119058  -0.115515   0.000984  -0.000273  -0.000101  -0.006000
    27  H   -0.011357  -0.135273   0.041073  -0.000633   0.000966   0.000935
    28  H   -0.023955  -0.039168  -0.001458   0.000410   0.000300   0.005689
    29  H    0.002187   0.000102   0.011946  -0.003612  -0.045732  -0.000055
    30  H    0.000176   0.002117   0.005456   0.007742  -0.052434  -0.000002
    31  H   -0.001103   0.001054  -0.010226  -0.005323  -0.040034   0.000076
             13         14         15         16         17         18
     1  C   -0.102457   0.000625   0.006123   0.187364   0.008004   0.038409
     2  C    0.054290   0.000801  -0.000717   0.010179   0.269969  -0.005121
     3  C   -0.031012  -0.000561   0.002410   0.041128  -0.005233   0.258168
     4  C    0.597176  -0.029357  -0.001844   0.119983   0.030783   0.011768
     5  C   -0.224412  -0.003217  -0.003548   0.011736   0.020525   0.002188
     6  C   -0.008741  -0.000011  -0.000023  -0.012331   0.011832   0.023681
     7  C   -0.387615   0.002340   0.017745  -0.057641  -0.009371  -0.002239
     8  C   -0.324462  -0.107783  -0.038229   0.019875  -0.000412  -0.000252
     9  C   -0.070434   0.570439  -0.017139  -0.005405  -0.000062  -0.000005
    10  O    0.030864  -0.149631  -0.056286   0.000074   0.000000  -0.000003
    11  C   -0.001904   0.013032   0.277400  -0.000113   0.000000   0.000004
    12  O   -0.016309   0.000999  -0.000621   0.000449   0.000125   0.000016
    13  C    5.822638   0.018402  -0.008810   0.002169   0.000476   0.000141
    14  O    0.018402   8.199977  -0.035678   0.000046   0.000000   0.000000
    15  C   -0.008810  -0.035678   5.193475   0.000170   0.000000   0.000001
    16  H    0.002169   0.000046   0.000170   0.505396   0.000011  -0.003968
    17  H    0.000476   0.000000   0.000000   0.000011   0.496156  -0.000122
    18  H    0.000141   0.000000   0.000001  -0.003968  -0.000122   0.495987
    19  H    0.003492  -0.000014   0.000006  -0.000109  -0.004065   0.000011
    20  H   -0.000064   0.000000   0.000000  -0.000120  -0.003857  -0.003861
    21  H   -0.019606   0.001858   0.002943   0.001799   0.000002  -0.000002
    22  H   -0.006567   0.003693  -0.000745   0.000084   0.000000   0.000002
    23  H    0.000100   0.000360  -0.040755   0.000000   0.000000   0.000000
    24  H   -0.000774   0.000437  -0.033826   0.000000   0.000000   0.000000
    25  H    0.006165  -0.000048   0.000042   0.000036  -0.000001   0.000000
    26  H    0.412269   0.001937  -0.000014  -0.000003  -0.000008   0.000000
    27  H    0.455322  -0.002930  -0.000151   0.000000   0.000000   0.000000
    28  H    0.422873  -0.000447  -0.000148   0.000000   0.000000   0.000000
    29  H   -0.000800  -0.000671   0.402787  -0.000001   0.000000   0.000000
    30  H   -0.000114  -0.000211   0.401184   0.000000   0.000000   0.000000
    31  H    0.001140   0.001950   0.412838   0.000000   0.000000   0.000000
             19         20         21         22         23         24
     1  C    0.047266  -0.009751   0.160574  -0.078329   0.001006   0.000290
     2  C   -0.039996   0.024095   0.028548   0.010814   0.000016  -0.000003
     3  C   -0.002523   0.025633   0.054859  -0.003436   0.000128  -0.000027
     4  C    0.133578   0.007205   0.218173   0.062778   0.000999  -0.001461
     5  C    0.208570   0.000829  -0.096536   0.047233  -0.000280  -0.000154
     6  C   -0.011125   0.274578   0.000787  -0.000522  -0.000002  -0.000001
     7  C   -0.019387   0.004102  -0.059165  -0.083149   0.000379  -0.000142
     8  C   -0.013325  -0.000179   0.060737   0.370427  -0.002363   0.006600
     9  C    0.006772  -0.000021  -0.077743  -0.040481   0.007071   0.000233
    10  O   -0.000012   0.000000   0.013927   0.001491  -0.059298  -0.034119
    11  C    0.000024   0.000000  -0.000035   0.002853   0.423250   0.395713
    12  O    0.005170  -0.000006  -0.048247   0.008638   0.000005  -0.000013
    13  C    0.003492  -0.000064  -0.019606  -0.006567   0.000100  -0.000774
    14  O   -0.000014   0.000000   0.001858   0.003693   0.000360   0.000437
    15  C    0.000006   0.000000   0.002943  -0.000745  -0.040755  -0.033826
    16  H   -0.000109  -0.000120   0.001799   0.000084   0.000000   0.000000
    17  H   -0.004065  -0.003857   0.000002   0.000000   0.000000   0.000000
    18  H    0.000011  -0.003861  -0.000002   0.000002   0.000000   0.000000
    19  H    0.500783  -0.000119  -0.000040   0.000061   0.000000   0.000000
    20  H   -0.000119   0.498881   0.000000   0.000000   0.000000   0.000000
    21  H   -0.000040   0.000000   0.594514   0.001028   0.000014  -0.000007
    22  H    0.000061   0.000000   0.001028   0.489642  -0.000002   0.000006
    23  H    0.000000   0.000000   0.000014  -0.000002   0.530010  -0.031636
    24  H    0.000000   0.000000  -0.000007   0.000006  -0.031636   0.521286
    25  H   -0.000940   0.000000  -0.004702  -0.000107   0.000000   0.000000
    26  H   -0.000022   0.000000  -0.000130  -0.002556   0.000000   0.000000
    27  H    0.000038   0.000000  -0.000070  -0.003496   0.000000  -0.000004
    28  H    0.000005   0.000000  -0.000023   0.003657   0.000000   0.000000
    29  H    0.000000   0.000000   0.000054   0.000002  -0.005102   0.003810
    30  H    0.000000   0.000000  -0.000003   0.000000  -0.001172  -0.000991
    31  H    0.000000   0.000000   0.000040  -0.000003   0.003924  -0.004860
             25         26         27         28         29         30
     1  C    0.011747   0.045766  -0.011921  -0.010557   0.001934   0.000098
     2  C    0.001900  -0.017167   0.000167   0.006751  -0.000020   0.000000
     3  C    0.000513  -0.004718  -0.000348  -0.001016   0.000158   0.000003
     4  C    0.050158   0.005747   0.013512  -0.041686  -0.005521  -0.000334
     5  C   -0.046658  -0.081753   0.012037   0.042375  -0.000176  -0.000027
     6  C   -0.000908  -0.000265   0.000114   0.000730   0.000011   0.000000
     7  C   -0.030097   0.119058  -0.011357  -0.023955   0.002187   0.000176
     8  C    0.021875  -0.115515  -0.135273  -0.039168   0.000102   0.002117
     9  C   -0.008969   0.000984   0.041073  -0.001458   0.011946   0.005456
    10  O    0.000064  -0.000273  -0.000633   0.000410  -0.003612   0.007742
    11  C    0.000183  -0.000101   0.000966   0.000300  -0.045732  -0.052434
    12  O    0.250092  -0.006000   0.000935   0.005689  -0.000055  -0.000002
    13  C    0.006165   0.412269   0.455322   0.422873  -0.000800  -0.000114
    14  O   -0.000048   0.001937  -0.002930  -0.000447  -0.000671  -0.000211
    15  C    0.000042  -0.000014  -0.000151  -0.000148   0.402787   0.401184
    16  H    0.000036  -0.000003   0.000000   0.000000  -0.000001   0.000000
    17  H   -0.000001  -0.000008   0.000000   0.000000   0.000000   0.000000
    18  H    0.000000   0.000000   0.000000   0.000000   0.000000   0.000000
    19  H   -0.000940  -0.000022   0.000038   0.000005   0.000000   0.000000
    20  H    0.000000   0.000000   0.000000   0.000000   0.000000   0.000000
    21  H   -0.004702  -0.000130  -0.000070  -0.000023   0.000054  -0.000003
    22  H   -0.000107  -0.002556  -0.003496   0.003657   0.000002   0.000000
    23  H    0.000000   0.000000   0.000000   0.000000  -0.005102  -0.001172
    24  H    0.000000   0.000000  -0.000004   0.000000   0.003810  -0.000991
    25  H    0.350943  -0.000021  -0.000005   0.000028   0.000000   0.000000
    26  H   -0.000021   0.522391  -0.025061  -0.024762   0.000000   0.000000
    27  H   -0.000005  -0.025061   0.519049  -0.024906   0.000000   0.000000
    28  H    0.000028  -0.024762  -0.024906   0.497814   0.000000   0.000000
    29  H    0.000000   0.000000   0.000000   0.000000   0.519064  -0.022929
    30  H    0.000000   0.000000   0.000000   0.000000  -0.022929   0.506334
    31  H    0.000000   0.000000   0.000000   0.000000  -0.029278  -0.021900
             31
     1  C   -0.000161
     2  C    0.000041
     3  C   -0.000001
     4  C    0.003853
     5  C   -0.000109
     6  C   -0.000006
     7  C   -0.001103
     8  C    0.001054
     9  C   -0.010226
    10  O   -0.005323
    11  C   -0.040034
    12  O    0.000076
    13  C    0.001140
    14  O    0.001950
    15  C    0.412838
    16  H    0.000000
    17  H    0.000000
    18  H    0.000000
    19  H    0.000000
    20  H    0.000000
    21  H    0.000040
    22  H   -0.000003
    23  H    0.003924
    24  H   -0.004860
    25  H    0.000000
    26  H    0.000000
    27  H    0.000000
    28  H    0.000000
    29  H   -0.029278
    30  H   -0.021900
    31  H    0.507791
 Mulliken atomic charges:
              1
     1  C    0.021132
     2  C   -0.354122
     3  C   -0.320003
     4  C   -0.210403
     5  C   -0.119054
     6  C   -0.142288
     7  C    0.250639
     8  C    0.258577
     9  C   -0.014250
    10  O   -0.258934
    11  C   -0.071053
    12  O   -0.565024
    13  C   -0.623434
    14  O   -0.486333
    15  C   -0.478591
    16  H    0.179189
    17  H    0.185247
    18  H    0.185197
    19  H    0.185905
    20  H    0.182656
    21  H    0.166453
    22  H    0.216985
    23  H    0.173347
    24  H    0.179647
    25  H    0.398711
    26  H    0.170217
    27  H    0.172944
    28  H    0.187497
    29  H    0.171842
    30  H    0.177008
    31  H    0.180297
 Sum of Mulliken atomic charges =   0.00000
 Mulliken charges with hydrogens summed into heavy atoms:
              1
     1  C    0.200321
     2  C   -0.168874
     3  C   -0.134806
     4  C   -0.210403
     5  C    0.066851
     6  C    0.040368
     7  C    0.417092
     8  C    0.475562
     9  C   -0.014250
    10  O   -0.258934
    11  C    0.281940
    12  O   -0.166312
    13  C   -0.092777
    14  O   -0.486333
    15  C    0.050555
 Sum of Mulliken charges with hydrogens summed into heavy atoms =   0.00000
 Electronic spatial extent (au):  <R**2>=           4038.1060
 Charge=              0.0000 electrons
 Dipole moment (field-independent basis, Debye):
    X=              2.1738    Y=             -3.5837    Z=             -0.5309  Tot=              4.2249
 Quadrupole moment (field-independent basis, Debye-Ang):
   XX=            -82.0725   YY=            -89.6751   ZZ=            -88.9644
   XY=             11.8963   XZ=              1.9835   YZ=             -0.3528
 Traceless Quadrupole moment (field-independent basis, Debye-Ang):
   XX=              4.8315   YY=             -2.7711   ZZ=             -2.0604
   XY=             11.8963   XZ=              1.9835   YZ=             -0.3528
 Octapole moment (field-independent basis, Debye-Ang**2):
  XXX=             -1.1146  YYY=            -14.6806  ZZZ=             10.4591  XYY=              9.5850
  XXY=            -39.7030  XXZ=             -7.0973  XZZ=            -14.1748  YZZ=              1.8980
  YYZ=             -6.2558  XYZ=              8.7378
 Hexadecapole moment (field-independent basis, Debye-Ang**3):
 XXXX=          -3670.9612 YYYY=           -928.8182 ZZZZ=           -381.5712 XXXY=            163.3076
 XXXZ=            -21.7705 YYYX=             22.7734 YYYZ=             20.5255 ZZZX=             40.1464
 ZZZY=              4.8126 XXYY=           -801.7415 XXZZ=           -776.2419 YYZZ=           -232.0123
 XXYZ=             46.1408 YYXZ=             -6.2731 ZZXY=             10.3379
 N-N= 9.981497866880D+02 E-N=-3.608128854484D+03  KE= 6.858823709357D+02
 1\1\GINC-COMPUTE-5-22\SP\RwB97XD\6-31+G(d,p)\C12H16O3\ELUCIANO.IQUIR\1
 7-May-2022\0\\# wb97xd/6-31+g** scrf=(pcm,solvent=chloroform,smd,dovac
 uum) nmr\\comment\\0,1\C,0,0.16250308,2.417127085,-0.302250712\C,0,1.1
 88121483,3.225680902,2.160827464\C,0,0.165797251,3.769361173,0.0448921
 55\C,0,0.678248669,1.451438876,0.5766204\C,0,1.185954133,1.873243842,1
 .815355257\C,0,0.679533878,4.173024152,1.275248406\C,0,0.651148809,-0.
 015413389,0.181019462\C,0,-0.625551741,-0.726899146,0.661335428\C,0,-0
 .88297973,-1.925268641,-0.233005938\O,0,-1.241238041,-1.499955618,-1.4
 82121023\C,0,-1.526541191,-2.534560868,-2.435594808\O,0,1.824741092,-0
 .674084305,0.660132341\C,0,-0.58935428,-1.16494881,2.126884638\O,0,-0.
 818471919,-3.097740359,0.108962531\C,0,-0.246041956,-2.990071786,-3.10
 981168\H,0,-0.247710841,2.122124143,-1.266258349\H,0,1.584138791,3.538
 97453,3.123536189\H,0,-0.234759695,4.508369645,-0.644459505\H,0,1.5800
 64981,1.146839131,2.524175081\H,0,0.680471587,5.225763288,1.545690473\
 H,0,0.727587624,-0.059230701,-0.912505086\H,0,-1.497756579,-0.06945853
 6,0.539545029\H,0,-2.201684437,-2.103250169,-3.181923822\H,0,-2.056615
 645,-3.372756528,-1.969148959\H,0,2.572676707,-0.069512697,0.509213514
 \H,0,-0.490247708,-0.306298922,2.79687021\H,0,-1.516505031,-1.68443511
 1,2.395111088\H,0,0.23643686,-1.855950778,2.327247888\H,0,0.268708547,
 -2.140548947,-3.570620694\H,0,-0.457897397,-3.735565123,-3.881405465\H
 ,0,0.4472227,-3.425996336,-2.383561516\\Version=EM64L-G09RevC.01\State
 =1-A\HF=-692.4418984\RMSD=2.791e-09\Dipole=-0.1760386,1.4386623,-0.813
 7365\Quadrupole=0.0298828,-5.4599104,5.4300277,2.4368244,3.2531664,6.6
 368874\PG=C01 [X(C12H16O3)]\\@


 IN SO FAR AS QUANTUM MECHANICS IS CORRECT, CHEMICAL 
 QUESTIONS ARE PROBLEMS IN APPLIED MATHEMATICS.

                    -- EYRING, WALTER, & KIMBALL, 1944
 Job cpu time:  0 days  0 hours 44 minutes  6.3 seconds.
 File lengths (MBytes):  RWF=    125 Int=      0 D2E=      0 Chk=      9 Scr=      1
 Normal termination of Gaussian 09 at Tue May 17 18:03:35 2022.
