 Entering Gaussian System, Link 0=g09
 Input=/home/eluciano.iquir/wb9/73a_002.gjc
 Output=/home/eluciano.iquir/wb9/73a_002.log
 Initial command:
 /share/apps/Gaussian09/EM64T.SSE4.2-enabled/g09/l1.exe /tmp/Gau-27796.inp -scrdir=/tmp/
 Entering Link 1 = /share/apps/Gaussian09/EM64T.SSE4.2-enabled/g09/l1.exe PID=     27797.
  
 Copyright (c) 1988,1990,1992,1993,1995,1998,2003,2009,2011,
            Gaussian, Inc.  All Rights Reserved.
  
 This is part of the Gaussian(R) 09 program.  It is based on
 the Gaussian(R) 03 system (copyright 2003, Gaussian, Inc.),
 the Gaussian(R) 98 system (copyright 1998, Gaussian, Inc.),
 the Gaussian(R) 94 system (copyright 1995, Gaussian, Inc.),
 the Gaussian 92(TM) system (copyright 1992, Gaussian, Inc.),
 the Gaussian 90(TM) system (copyright 1990, Gaussian, Inc.),
 the Gaussian 88(TM) system (copyright 1988, Gaussian, Inc.),
 the Gaussian 86(TM) system (copyright 1986, Carnegie Mellon
 University), and the Gaussian 82(TM) system (copyright 1983,
 Carnegie Mellon University). Gaussian is a federally registered
 trademark of Gaussian, Inc.
  
 This software contains proprietary and confidential information,
 including trade secrets, belonging to Gaussian, Inc.
  
 This software is provided under written license and may be
 used, copied, transmitted, or stored only in accord with that
 written license.
  
 The following legend is applicable only to US Government
 contracts under FAR:
  
                    RESTRICTED RIGHTS LEGEND
  
 Use, reproduction and disclosure by the US Government is
 subject to restrictions as set forth in subparagraphs (a)
 and (c) of the Commercial Computer Software - Restricted
 Rights clause in FAR 52.227-19.
  
 Gaussian, Inc.
 340 Quinnipiac St., Bldg. 40, Wallingford CT 06492
  
  
 ---------------------------------------------------------------
 Warning -- This program may not be used in any manner that
 competes with the business of Gaussian, Inc. or will provide
 assistance to any competitor of Gaussian, Inc.  The licensee
 of this program is prohibited from giving any competitor of
 Gaussian, Inc. access to this program.  By using this program,
 the user acknowledges that Gaussian, Inc. is engaged in the
 business of creating and licensing software in the field of
 computational chemistry and represents and warrants to the
 licensee that it is not a competitor of Gaussian, Inc. and that
 it will not use this program in any manner prohibited above.
 ---------------------------------------------------------------
  

 Cite this work as:
 Gaussian 09, Revision C.01,
 M. J. Frisch, G. W. Trucks, H. B. Schlegel, G. E. Scuseria, 
 M. A. Robb, J. R. Cheeseman, G. Scalmani, V. Barone, B. Mennucci, 
 G. A. Petersson, H. Nakatsuji, M. Caricato, X. Li, H. P. Hratchian, 
 A. F. Izmaylov, J. Bloino, G. Zheng, J. L. Sonnenberg, M. Hada, 
 M. Ehara, K. Toyota, R. Fukuda, J. Hasegawa, M. Ishida, T. Nakajima, 
 Y. Honda, O. Kitao, H. Nakai, T. Vreven, J. A. Montgomery, Jr., 
 J. E. Peralta, F. Ogliaro, M. Bearpark, J. J. Heyd, E. Brothers, 
 K. N. Kudin, V. N. Staroverov, T. Keith, R. Kobayashi, J. Normand, 
 K. Raghavachari, A. Rendell, J. C. Burant, S. S. Iyengar, J. Tomasi, 
 M. Cossi, N. Rega, J. M. Millam, M. Klene, J. E. Knox, J. B. Cross, 
 V. Bakken, C. Adamo, J. Jaramillo, R. Gomperts, R. E. Stratmann, 
 O. Yazyev, A. J. Austin, R. Cammi, C. Pomelli, J. W. Ochterski, 
 R. L. Martin, K. Morokuma, V. G. Zakrzewski, G. A. Voth, 
 P. Salvador, J. J. Dannenberg, S. Dapprich, A. D. Daniels, 
 O. Farkas, J. B. Foresman, J. V. Ortiz, J. Cioslowski, 
 and D. J. Fox, Gaussian, Inc., Wallingford CT, 2010.
 
 ******************************************
 Gaussian 09:  EM64L-G09RevC.01 23-Sep-2011
                17-May-2022 
 ******************************************
 %nprocshared=4
 Will use up to    4 processors via shared memory.
 ----------------------------------------------------------------
 # wb97xd/6-31+g** scrf=(pcm,solvent=chloroform,smd,dovacuum) nmr
 ----------------------------------------------------------------
 1/38=1/1;
 2/12=2,17=6,18=5,40=1/2;
 3/5=1,6=6,7=111,11=2,16=1,25=1,30=1,70=32101,72=7,74=-58/1,2,8,3;
 4//1;
 5/5=2,38=5,53=7/2;
 8/6=1,10=90,11=11/1;
 10/13=100,45=16/2;
 6/7=2,8=2,9=2,10=2,28=1/1;
 99/9=1/99;
 -------
 comment
 -------
 Charge =  0 Multiplicity = 1
 Symbolic Z-Matrix:
 6                     1.58194   0.38676  -1.28251 
 6                    -0.06047   2.56934  -1.84636 
 6                     1.35237   0.76694  -2.60576 
 6                     0.99326   1.09549  -0.22486 
 6                     0.16679   2.19041  -0.52272 
 6                     0.53247   1.85778  -2.88706 
 6                     1.23172   0.66113   1.20998 
 6                    -0.00395   0.02288   1.85851 
 6                    -0.35637  -1.23781   1.10334 
 8                    -1.65321  -1.19454   0.68992 
 6                    -2.10182  -2.31607  -0.08388 
 8                     1.63786   1.80546   1.97093 
 6                     0.22361  -0.33304   3.32707 
 8                     0.42042  -2.16233   0.90048 
 6                    -1.75358  -2.11451  -1.54705 
 1                     2.21547  -0.4763   -1.08374 
 1                    -0.70222   3.41894  -2.06527 
 1                     1.81086   0.20811  -3.41773 
 1                    -0.30543   2.75426   0.28002 
 1                     0.35366   2.15187  -3.91801 
 1                     2.07746  -0.03735   1.2416 
 1                    -0.84831   0.72314   1.81722 
 1                    -3.18935  -2.36905   0.03128 
 1                    -1.69087  -3.25604   0.30185 
 1                     2.21655   2.33659   1.39532 
 1                     0.39479   0.56423   3.93021 
 1                    -0.64828  -0.85284   3.73961 
 1                     1.08797  -0.99555   3.44756 
 1                    -2.15784  -1.16453  -1.91189 
 1                    -2.15612  -2.92809  -2.15698 
 1                    -0.66937  -2.07527  -1.69109 
 
                          Input orientation:                          
 ---------------------------------------------------------------------
 Center     Atomic      Atomic             Coordinates (Angstroms)
 Number     Number       Type             X           Y           Z
 ---------------------------------------------------------------------
      1          6           0        1.581936    0.386755   -1.282506
      2          6           0       -0.060473    2.569344   -1.846356
      3          6           0        1.352369    0.766935   -2.605759
      4          6           0        0.993259    1.095486   -0.224864
      5          6           0        0.166786    2.190414   -0.522718
      6          6           0        0.532468    1.857775   -2.887057
      7          6           0        1.231721    0.661127    1.209975
      8          6           0       -0.003955    0.022882    1.858513
      9          6           0       -0.356368   -1.237807    1.103344
     10          8           0       -1.653212   -1.194544    0.689917
     11          6           0       -2.101816   -2.316074   -0.083876
     12          8           0        1.637861    1.805464    1.970929
     13          6           0        0.223612   -0.333035    3.327067
     14          8           0        0.420419   -2.162335    0.900478
     15          6           0       -1.753578   -2.114508   -1.547045
     16          1           0        2.215472   -0.476299   -1.083742
     17          1           0       -0.702223    3.418944   -2.065273
     18          1           0        1.810865    0.208113   -3.417735
     19          1           0       -0.305434    2.754256    0.280022
     20          1           0        0.353662    2.151871   -3.918013
     21          1           0        2.077460   -0.037345    1.241605
     22          1           0       -0.848315    0.723140    1.817223
     23          1           0       -3.189346   -2.369049    0.031278
     24          1           0       -1.690873   -3.256036    0.301854
     25          1           0        2.216549    2.336590    1.395316
     26          1           0        0.394790    0.564226    3.930206
     27          1           0       -0.648277   -0.852840    3.739613
     28          1           0        1.087973   -0.995553    3.447561
     29          1           0       -2.157840   -1.164531   -1.911888
     30          1           0       -2.156122   -2.928093   -2.156980
     31          1           0       -0.669369   -2.075273   -1.691091
 ---------------------------------------------------------------------
                    Distance matrix (angstroms):
                    1          2          3          4          5
     1  C    0.000000
     2  C    2.789109   0.000000
     3  C    1.395793   2.412777   0.000000
     4  C    1.402656   2.431429   2.430137   0.000000
     5  C    2.415183   1.395440   2.787644   1.403796   0.000000
     6  C    2.416582   1.393187   1.393305   2.807256   2.415466
     7  C    2.531875   3.827822   3.819107   1.517990   2.544608
     8  C    3.537436   4.495967   4.724717   2.546640   3.224532
     9  C    3.476852   4.825214   4.549310   3.004977   3.830204
    10  O    4.105745   4.810026   4.872617   3.617301   4.029989
    11  C    4.723561   5.580388   5.272214   4.608483   5.064343
    12  O    3.549746   4.247295   4.701714   2.396056   2.920705
    13  C    4.859146   5.938756   6.138603   3.905028   4.603462
    14  O    3.551394   5.492280   4.662923   3.493985   4.586527
    15  C    4.177553   4.989456   4.366978   4.426888   4.823837
    16  H    1.088916   3.877815   2.146419   2.168405   3.409284
    17  H    3.876116   1.087008   3.398032   3.414707   2.154980
    18  H    2.154884   3.398022   1.087109   3.413259   3.874743
    19  H    3.407157   2.148414   3.876272   2.166341   1.088715
    20  H    3.401498   2.153498   2.153479   3.894147   3.400653
    21  H    2.607017   4.571771   3.996853   2.146935   3.424386
    22  H    3.953174   4.177437   4.940414   2.774915   2.942557
    23  H    5.664416   6.140283   6.116823   5.437167   5.688517
    24  H    5.146980   6.419351   5.822356   5.139819   5.813315
    25  H    3.372732   3.968305   4.383974   2.379446   2.811005
    26  H    5.349128   6.131593   6.608849   4.231431   4.746051
    27  H    5.633127   6.577226   6.847627   4.712503   5.300300
    28  H    4.952606   6.484827   6.310226   4.227070   5.173208
    29  H    4.097381   4.283114   4.066151   4.228848   4.311535
    30  H    5.072081   5.891523   5.115090   5.462679   5.853702
    31  H    3.361086   4.686932   3.605855   3.868832   4.501148
                    6          7          8          9         10
     6  C    0.000000
     7  C    4.325112   0.000000
     8  C    5.116153   1.534553   0.000000
     9  C    5.127959   2.477771   1.511230   0.000000
    10  O    5.185422   3.469411   2.359617   1.361836   0.000000
    11  C    5.676117   4.652982   3.693862   2.370388   1.434514
    12  O    4.982435   1.433007   2.426066   3.740475   4.633811
    13  C    6.596240   2.546904   1.528108   2.469805   3.349512
    14  O    5.524424   2.953969   2.423448   1.224460   2.298021
    15  C    4.775006   4.921110   4.384912   3.121756   2.420828
    16  H    3.395932   2.742743   3.719127   3.460867   4.316070
    17  H    2.153378   4.698185   5.236116   5.643144   5.457080
    18  H    2.153440   4.685758   5.582712   5.218020   5.553384
    19  H    3.396491   2.758414   3.169058   4.076398   4.192558
    20  H    1.086892   5.411983   6.166744   6.099843   6.038133
    21  H    4.798368   1.097333   2.171748   2.717305   3.944792
    22  H    5.032317   2.167750   1.097729   2.144049   2.365627
    23  H    6.343077   5.487906   4.382560   3.233387   2.042785
    24  H    6.423665   4.970956   4.002523   2.548830   2.098037
    25  H    4.626458   1.952285   3.240129   4.413782   5.285977
    26  H    6.940267   2.847718   2.178063   3.435507   4.217470
    27  H    7.256332   3.496506   2.172689   2.680172   3.229133
    28  H    6.969753   2.787838   2.180502   2.764084   3.893366
    29  H    4.162097   4.956630   4.501677   3.513160   2.650460
    30  H    5.537695   5.974644   5.428100   4.089730   3.370895
    31  H    4.282945   4.417942   4.176688   2.933971   2.722651
                   11         12         13         14         15
    11  C    0.000000
    12  O    5.932494   0.000000
    13  C    4.579803   2.900412   0.000000
    14  O    2.711873   4.286194   3.045227   0.000000
    15  C    1.517486   6.264518   5.553369   3.273976   0.000000
    16  H    4.798279   3.856305   4.841825   3.162604   4.318766
    17  H    6.226976   4.936621   6.634143   6.419242   5.656236
    18  H    5.726710   5.623091   6.950149   5.118527   4.647504
    19  H    5.391444   2.745135   4.369867   5.008462   5.398163
    20  H    6.379068   6.037284   7.660474   6.467973   5.316384
    21  H    4.941240   2.030051   2.805947   2.716198   5.173783
    22  H    3.797666   2.715901   2.131704   3.282692   4.493334
    23  H    1.094891   6.670137   5.162931   3.718687   2.148796
    24  H    1.095988   6.283714   4.621807   2.451955   2.173809
    25  H    6.517942   0.973809   3.851020   4.869423   6.650690
    26  H    5.535524   2.631476   1.094603   4.076033   6.464626
    27  H    4.344294   3.926990   1.095711   3.304175   5.546373
    28  H    4.938580   3.213801   1.095705   2.880042   5.854278
    29  H    2.161208   6.189061   5.814581   3.943657   1.094986
    30  H    2.162239   7.337609   6.517073   4.070995   1.093610
    31  H    2.166341   5.813245   5.386531   2.812729   1.094440
                   16         17         18         19         20
    16  H    0.000000
    17  H    4.964802   0.000000
    18  H    2.465695   4.295835   0.000000
    19  H    4.318715   2.469749   4.963363   0.000000
    20  H    4.290303   2.480527   2.480305   4.291943   0.000000
    21  H    2.370435   5.532451   4.673411   3.794188   5.863941
    22  H    4.386461   4.728898   5.894172   2.604446   6.031497
    23  H    5.834194   6.639440   6.598451   5.884477   6.970546
    24  H    4.990626   7.150949   6.172344   6.167944   7.157713
    25  H    3.749410   4.654717   5.278301   2.789036   5.633466
    26  H    5.434818   6.730425   7.491616   4.313976   8.007300
    27  H    5.622063   7.207478   7.642030   5.009736   8.286821
    28  H    4.698253   7.285871   7.007401   5.102544   8.043455
    29  H    4.503926   4.811506   4.461204   4.857239   4.618517
    30  H    5.125815   6.512075   5.211744   6.453923   5.933488
    31  H    3.353789   5.507042   3.787705   5.228966   4.886156
                   21         22         23         24         25
    21  H    0.000000
    22  H    3.077309   0.000000
    23  H    5.885658   4.269854   0.000000
    24  H    5.044149   4.340517   1.762208   0.000000
    25  H    2.382969   3.489214   7.295706   6.909492   0.000000
    26  H    3.228288   2.456676   6.054070   5.666509   3.589672
    27  H    3.786122   2.493854   4.744224   4.322099   4.886248
    28  H    2.600671   3.059594   5.643840   4.767310   4.072907
    29  H    5.399336   4.380003   2.508139   3.081088   6.506207
    30  H    6.150612   5.553031   2.483658   2.523860   7.710769
    31  H    4.505433   4.491258   3.066454   2.531699   6.108925
                   26         27         28         29         30
    26  H    0.000000
    27  H    1.769856   0.000000
    28  H    1.773799   1.766416   0.000000
    29  H    6.605647   5.857934   6.267978   0.000000
    30  H    7.467079   6.430402   6.757939   1.780512   0.000000
    31  H    6.300664   5.566626   5.537128   1.758905   1.776173
                   31
    31  H    0.000000
 Stoichiometry    C12H16O3
 Framework group  C1[X(C12H16O3)]
 Deg. of freedom    87
 Full point group                 C1      NOp   1
 Largest Abelian subgroup         C1      NOp   1
 Largest concise Abelian subgroup C1      NOp   1
                         Standard orientation:                         
 ---------------------------------------------------------------------
 Center     Atomic      Atomic             Coordinates (Angstroms)
 Number     Number       Type             X           Y           Z
 ---------------------------------------------------------------------
      1          6           0       -1.583185    0.151178    1.254689
      2          6           0       -2.908851    0.292094   -1.195185
      3          6           0       -2.629730    1.057287    1.075952
      4          6           0       -1.188192   -0.696811    0.209538
      5          6           0       -1.862157   -0.613817   -1.019090
      6          6           0       -3.292270    1.126887   -0.147770
      7          6           0       -0.034815   -1.663802    0.406877
      8          6           0        1.228624   -1.258439   -0.364002
      9          6           0        1.716427    0.071812    0.161637
     10          8           0        1.841779    0.965956   -0.857869
     11          6           0        2.253546    2.288346   -0.484288
     12          8           0       -0.456682   -2.967700   -0.011917
     13          6           0        2.353745   -2.282962   -0.224110
     14          8           0        1.964033    0.301507    1.338597
     15          6           0        1.049440    3.112812   -0.068174
     16          1           0       -1.069523    0.120860    2.214360
     17          1           0       -3.423721    0.347662   -2.150909
     18          1           0       -2.925035    1.712295    1.891774
     19          1           0       -1.571815   -1.257949   -1.847399
     20          1           0       -4.106214    1.833830   -0.285829
     21          1           0        0.187916   -1.748788    1.478001
     22          1           0        0.997933   -1.167796   -1.433382
     23          1           0        2.720367    2.738658   -1.366379
     24          1           0        3.014356    2.260788    0.304127
     25          1           0       -1.384444   -3.067461    0.266668
     26          1           0        2.075336   -3.241042   -0.674362
     27          1           0        3.263505   -1.930195   -0.722581
     28          1           0        2.603572   -2.459814    0.827973
     29          1           0        0.293173    3.116945   -0.860031
     30          1           0        1.341731    4.144317    0.147569
     31          1           0        0.574319    2.692069    0.823473
 ---------------------------------------------------------------------
 Rotational constants (GHZ):      0.7039247      0.5383760      0.3655830
 Standard basis: 6-31+G(d,p) (6D, 7F)
 There are   365 symmetry adapted basis functions of A   symmetry.
 Integral buffers will be    131072 words long.
 Raffenetti 2 integral format.
 Two-electron integral symmetry is turned on.
   365 basis functions,   592 primitive gaussians,   365 cartesian basis functions
    56 alpha electrons       56 beta electrons
       nuclear repulsion energy      1028.3675378086 Hartrees.
 NAtoms=   31 NActive=   31 NUniq=   31 SFac= 1.00D+00 NAtFMM=   60 NAOKFM=F Big=F
 Nuclear repulsion after empirical dispersion term =     1028.3455175049 Hartrees.
 ------------------------------------------------------------------------------
 Polarizable Continuum Model (PCM)
 =================================
 Model                : C-PCM.
 Atomic radii         : SMD-Coulomb.
 Polarization charges : Total charges.
 Charge compensation  : None.
 Solution method      : Matrix inversion.
 Cavity type          : VdW (van der Waals Surface) (Alpha=1.000).
 Cavity algorithm     : GePol (No added spheres)
                        Default sphere list used, NSphG=   31.
                        Lebedev-Laikov grids with approx.  5.0 points / Ang**2.
                        Smoothing algorithm: Karplus/York (Gamma=1.0000).
                        Polarization charges: spherical gaussians, with
                                              point-specific exponents (IZeta= 3).
                        Self-potential: point-specific (ISelfS= 7).
                        Self-field    : sphere-specific E.n sum rule (ISelfD= 2).
 Solvent              : Chloroform, Eps=   4.711300 Eps(inf)=   2.090627
 ------------------------------------------------------------------------------
 ------------------------------------------------------------------------------
 Atomic radii for non-electrostatic terms: SMD-CDS.
 ------------------------------------------------------------------------------
 Nuclear repulsion after PCM non-electrostatic terms =     1028.3390867917 Hartrees.
 One-electron integrals computed using PRISM.
 NBasis=   365 RedAO= T  NBF=   365
 NBsUse=   365 1.00D-06 NBFU=   365
 Harris functional with IExCor= 4639 diagonalized for initial guess.
 ExpMin= 4.38D-02 ExpMax= 5.48D+03 ExpMxC= 8.25D+02 IAcc=2 IRadAn=         4 AccDes= 0.00D+00
 HarFok:  IExCor= 4639 AccDes= 0.00D+00 IRadAn=         4 IDoV= 1
 ScaDFX=  1.000000  1.000000  1.000000  1.000000
 FoFCou: FMM=F IPFlag=           0 FMFlag=      100000 FMFlg1=           0
         NFxFlg=           0 DoJE=T BraDBF=F KetDBF=T FulRan=T
         Omega=  0.000000  0.000000  1.000000  0.000000  0.000000 ICntrl=     500 IOpCl=  0
         NMat0=    1 NMatS0=    1 NMatT0=    0 NMatD0=    1 NMtDS0=    0 NMtDT0=    0
         I1Cent=           4 NGrid=           0.
 Petite list used in FoFCou.
 Initial guess orbital symmetries:
       Occupied  (A) (A) (A) (A) (A) (A) (A) (A) (A) (A) (A) (A)
                 (A) (A) (A) (A) (A) (A) (A) (A) (A) (A) (A) (A)
                 (A) (A) (A) (A) (A) (A) (A) (A) (A) (A) (A) (A)
                 (A) (A) (A) (A) (A) (A) (A) (A) (A) (A) (A) (A)
                 (A) (A) (A) (A) (A) (A) (A) (A)
       Virtual   (A) (A) (A) (A) (A) (A) (A) (A) (A) (A) (A) (A)
                 (A) (A) (A) (A) (A) (A) (A) (A) (A) (A) (A) (A)
                 (A) (A) (A) (A) (A) (A) (A) (A) (A) (A) (A) (A)
                 (A) (A) (A) (A) (A) (A) (A) (A) (A) (A) (A) (A)
                 (A) (A) (A) (A) (A) (A) (A) (A) (A) (A) (A) (A)
                 (A) (A) (A) (A) (A) (A) (A) (A) (A) (A) (A) (A)
                 (A) (A) (A) (A) (A) (A) (A) (A) (A) (A) (A) (A)
                 (A) (A) (A) (A) (A) (A) (A) (A) (A) (A) (A) (A)
                 (A) (A) (A) (A) (A) (A) (A) (A) (A) (A) (A) (A)
                 (A) (A) (A) (A) (A) (A) (A) (A) (A) (A) (A) (A)
                 (A) (A) (A) (A) (A) (A) (A) (A) (A) (A) (A) (A)
                 (A) (A) (A) (A) (A) (A) (A) (A) (A) (A) (A) (A)
                 (A) (A) (A) (A) (A) (A) (A) (A) (A) (A) (A) (A)
                 (A) (A) (A) (A) (A) (A) (A) (A) (A) (A) (A) (A)
                 (A) (A) (A) (A) (A) (A) (A) (A) (A) (A) (A) (A)
                 (A) (A) (A) (A) (A) (A) (A) (A) (A) (A) (A) (A)
                 (A) (A) (A) (A) (A) (A) (A) (A) (A) (A) (A) (A)
                 (A) (A) (A) (A) (A) (A) (A) (A) (A) (A) (A) (A)
                 (A) (A) (A) (A) (A) (A) (A) (A) (A) (A) (A) (A)
                 (A) (A) (A) (A) (A) (A) (A) (A) (A) (A) (A) (A)
                 (A) (A) (A) (A) (A) (A) (A) (A) (A) (A) (A) (A)
                 (A) (A) (A) (A) (A) (A) (A) (A) (A) (A) (A) (A)
                 (A) (A) (A) (A) (A) (A) (A) (A) (A) (A) (A) (A)
                 (A) (A) (A) (A) (A) (A) (A) (A) (A) (A) (A) (A)
                 (A) (A) (A) (A) (A) (A) (A) (A) (A) (A) (A) (A)
                 (A) (A) (A) (A) (A) (A) (A) (A) (A)
 The electronic state of the initial guess is 1-A.
 Requested convergence on RMS density matrix=1.00D-08 within 128 cycles.
 Requested convergence on MAX density matrix=1.00D-06.
 Requested convergence on             energy=1.00D-06.
 No special actions if energy rises.
 FoFJK:  IHMeth= 1 ICntrl=     0 DoSepK=T KAlg= 1 I1Cent= 0 FoldK=F
 FoFJK:  IHMeth= 1 ICntrl=     0 DoSepK=T KAlg= 1 I1Cent= 0 FoldK=F
 FoFJK:  IHMeth= 1 ICntrl=     0 DoSepK=T KAlg= 1 I1Cent= 0 FoldK=F
 FoFJK:  IHMeth= 1 ICntrl=     0 DoSepK=T KAlg= 1 I1Cent= 0 FoldK=F
 FoFJK:  IHMeth= 1 ICntrl=     0 DoSepK=T KAlg= 1 I1Cent= 0 FoldK=F
 FoFJK:  IHMeth= 1 ICntrl=     0 DoSepK=T KAlg= 1 I1Cent= 0 FoldK=F
 FoFJK:  IHMeth= 1 ICntrl=     0 DoSepK=T KAlg= 1 I1Cent= 0 FoldK=F
 FoFJK:  IHMeth= 1 ICntrl=     0 DoSepK=T KAlg= 1 I1Cent= 0 FoldK=F
 FoFJK:  IHMeth= 1 ICntrl=     0 DoSepK=T KAlg= 1 I1Cent= 0 FoldK=F
 FoFJK:  IHMeth= 1 ICntrl=     0 DoSepK=T KAlg= 1 I1Cent= 0 FoldK=F
 FoFJK:  IHMeth= 1 ICntrl=     0 DoSepK=T KAlg= 1 I1Cent= 0 FoldK=F
 FoFJK:  IHMeth= 1 ICntrl=     0 DoSepK=T KAlg= 1 I1Cent= 0 FoldK=F
 FoFJK:  IHMeth= 1 ICntrl=     0 DoSepK=T KAlg= 1 I1Cent= 0 FoldK=F
 FoFJK:  IHMeth= 1 ICntrl=     0 DoSepK=T KAlg= 1 I1Cent= 0 FoldK=F
 FoFJK:  IHMeth= 1 ICntrl=     0 DoSepK=T KAlg= 1 I1Cent= 0 FoldK=F
 FoFJK:  IHMeth= 1 ICntrl=     0 DoSepK=T KAlg= 1 I1Cent= 0 FoldK=F
 Error on total polarization charges =  0.03772
 SCF Done:  E(RwB97XD) =  -692.446634229     A.U. after   16 cycles
             Convg  =    0.4043D-08             -V/T =  2.0095
 SMD-CDS (non-electrostatic) energy       (kcal/mol) =      -4.04
 (included in total energy above)
 Range of M.O.s used for correlation:     1   365
 NBasis=   365 NAE=    56 NBE=    56 NFC=     0 NFV=     0
 NROrb=    365 NOA=    56 NOB=    56 NVA=   309 NVB=   309

 **** Warning!!: The largest alpha MO coefficient is  0.11934182D+03

 NEqPCM:  Using equilibrium solvation (IEInf=0, Eps=   4.7113, EpsInf=   2.0906)
          Differentiating once with respect to magnetic field using GIAOs.
          Electric field/nuclear overlap derivatives assumed to be zero.
 FoFCou: FMM=F IPFlag=           0 FMFlag=    10101102 FMFlg1=           0
         NFxFlg=    40000000 DoJE=F BraDBF=F KetDBF=T FulRan=T
         Omega=  0.000000  0.000000  1.000000  0.000000  0.000000 ICntrl=    6100 IOpCl=  0
         NMat0=    1 NMatS0=    1 NMatT0=    0 NMatD0=    1 NMtDS0=    0 NMtDT0=    0
         I1Cent=           7 NGrid=        2285.
 Symmetry not used in FoFCou.
 FoFJK:  IHMeth= 1 ICntrl=  6127 DoSepK=T KAlg= 1 I1Cent= 0 FoldK=F
 FoFJK:  IHMeth= 1 ICntrl=     0 DoSepK=T KAlg= 1 I1Cent= 0 FoldK=F
          There are     3 degrees of freedom in the 1st order CPHF.  IDoFFX=0.
      3 vectors produced by pass  0 Test12= 5.77D-13 3.33D-08 XBig12= 1.17D+02 2.29D+00.
 AX will form     3 AO Fock derivatives at one time.
 FoFJK:  IHMeth= 1 ICntrl=     0 DoSepK=T KAlg= 1 I1Cent= 0 FoldK=F
      3 vectors produced by pass  1 Test12= 5.77D-13 3.33D-08 XBig12= 8.40D-01 2.34D-01.
 FoFJK:  IHMeth= 1 ICntrl=     0 DoSepK=T KAlg= 1 I1Cent= 0 FoldK=F
      3 vectors produced by pass  2 Test12= 5.77D-13 3.33D-08 XBig12= 1.50D-02 4.56D-02.
 FoFJK:  IHMeth= 1 ICntrl=     0 DoSepK=T KAlg= 1 I1Cent= 0 FoldK=F
      3 vectors produced by pass  3 Test12= 5.77D-13 3.33D-08 XBig12= 2.44D-04 3.98D-03.
 FoFJK:  IHMeth= 1 ICntrl=     0 DoSepK=T KAlg= 1 I1Cent= 0 FoldK=F
      3 vectors produced by pass  4 Test12= 5.77D-13 3.33D-08 XBig12= 5.23D-06 4.69D-04.
 FoFJK:  IHMeth= 1 ICntrl=     0 DoSepK=T KAlg= 1 I1Cent= 0 FoldK=F
      3 vectors produced by pass  5 Test12= 5.77D-13 3.33D-08 XBig12= 7.30D-08 5.24D-05.
 FoFJK:  IHMeth= 1 ICntrl=     0 DoSepK=T KAlg= 1 I1Cent= 0 FoldK=F
      3 vectors produced by pass  6 Test12= 5.77D-13 3.33D-08 XBig12= 8.64D-10 6.40D-06.
 FoFJK:  IHMeth= 1 ICntrl=     0 DoSepK=T KAlg= 1 I1Cent= 0 FoldK=F
      3 vectors produced by pass  7 Test12= 5.77D-13 3.33D-08 XBig12= 1.02D-11 6.99D-07.
 FoFJK:  IHMeth= 1 ICntrl=     0 DoSepK=T KAlg= 1 I1Cent= 0 FoldK=F
      3 vectors produced by pass  8 Test12= 5.77D-13 3.33D-08 XBig12= 1.17D-13 6.80D-08.
 FoFJK:  IHMeth= 1 ICntrl=     0 DoSepK=T KAlg= 1 I1Cent= 0 FoldK=F
 Inverted reduced A of dimension    27 with in-core refinement.
 Calculating GIAO nuclear magnetic shielding tensors.
 SCF GIAO Magnetic shielding tensor (ppm):
      1  C    Isotropic =    69.1522   Anisotropy =   163.7203
   XX=    87.5357   YX=    59.9138   ZX=   -59.6553
   XY=    49.1543   YY=   118.8339   ZY=   -23.4372
   XZ=   -58.5788   YZ=   -27.2338   ZZ=     1.0870
   Eigenvalues:   -28.9579    58.1154   178.2991
      2  C    Isotropic =    69.6028   Anisotropy =   177.6618
   XX=    93.9235   YX=    62.3113   ZX=   -60.2926
   XY=    61.7288   YY=   118.5535   ZY=   -23.9196
   XZ=   -64.1331   YZ=   -25.3970   ZZ=    -3.6686
   Eigenvalues:   -34.1364    54.9008   188.0440
      3  C    Isotropic =    70.5790   Anisotropy =   176.2581
   XX=   105.6738   YX=    73.4398   ZX=   -10.4699
   XY=    74.5227   YY=    85.7272   ZY=   -69.0070
   XZ=    -8.3757   YZ=   -68.8739   ZZ=    20.3361
   Eigenvalues:   -32.3539    56.0066   188.0844
      4  C    Isotropic =    52.4024   Anisotropy =   186.1603
   XX=    56.2816   YX=    96.8289   ZX=   -28.7540
   XY=    96.0067   YY=    77.8173   ZY=   -30.4280
   XZ=   -35.5450   YZ=   -29.2590   ZZ=    23.1083
   Eigenvalues:   -30.3463    11.0443   176.5093
      5  C    Isotropic =    71.9172   Anisotropy =   179.4480
   XX=   103.5944   YX=    79.2654   ZX=   -10.8314
   XY=    71.2167   YY=    93.3798   ZY=   -64.1113
   XZ=   -10.6411   YZ=   -69.7846   ZZ=    18.7774
   Eigenvalues:   -28.7475    52.9499   191.5492
      6  C    Isotropic =    71.1484   Anisotropy =   177.9544
   XX=    67.1568   YX=   100.2689   ZX=   -34.9713
   XY=   105.8384   YY=    79.0034   ZY=   -23.4032
   XZ=   -36.6267   YZ=   -20.5245   ZZ=    67.2850
   Eigenvalues:   -31.4639    55.1244   189.7847
      7  C    Isotropic =   118.8425   Anisotropy =    28.1145
   XX=   111.1226   YX=     2.4454   ZX=     2.7578
   XY=     7.2279   YY=   129.1679   ZY=    10.6379
   XZ=     4.5397   YZ=    13.0916   ZZ=   116.2370
   Eigenvalues:   108.7621   110.1800   137.5855
      8  C    Isotropic =   147.2057   Anisotropy =    24.7278
   XX=   149.9350   YX=     9.6846   ZX=     2.4820
   XY=    14.3510   YY=   151.1045   ZY=     6.0309
   XZ=    -0.8290   YZ=     6.4015   ZZ=   140.5777
   Eigenvalues:   135.3273   142.5989   163.6909
      9  C    Isotropic =    19.7664   Anisotropy =   103.0961
   XX=    79.5425   YX=   -31.1082   ZX=     8.3441
   XY=   -36.5816   YY=   -41.2232   ZY=    27.3773
   XZ=     9.0985   YZ=    59.1689   ZZ=    20.9800
   Eigenvalues:   -71.1529    41.9551    88.4972
     10  O    Isotropic =   123.3896   Anisotropy =   145.3286
   XX=   191.9792   YX=   -62.9527   ZX=   -31.9823
   XY=   -44.9438   YY=   114.8982   ZY=   -41.1964
   XZ=   -68.4291   YZ=  -176.4155   ZZ=    63.2915
   Eigenvalues:   -45.1525   195.0460   220.2754
     11  C    Isotropic =   138.4600   Anisotropy =    65.2214
   XX=   134.0030   YX=    10.9977   ZX=    -6.3404
   XY=    15.6868   YY=   175.2607   ZY=    18.2962
   XZ=    -3.9212   YZ=    14.4479   ZZ=   106.1163
   Eigenvalues:   100.4537   132.9854   181.9409
     12  O    Isotropic =   274.6628   Anisotropy =    57.3982
   XX=   312.5859   YX=    10.5166   ZX=    -2.5499
   XY=    -4.4002   YY=   285.3657   ZY=     5.5734
   XZ=     2.6991   YZ=     2.3495   ZZ=   226.0369
   Eigenvalues:   225.7734   285.2868   312.9283
     13  C    Isotropic =   180.3578   Anisotropy =    26.8656
   XX=   185.8983   YX=   -15.7749   ZX=     1.4903
   XY=   -13.7330   YY=   179.8754   ZY=    -0.9267
   XZ=     3.7763   YZ=    -1.2347   ZZ=   175.2996
   Eigenvalues:   167.7350   175.0702   198.2682
     14  O    Isotropic =   -31.9009   Anisotropy =   564.9285
   XX=   292.3478   YX=  -142.7081   ZX=   -65.4692
   XY=  -136.0033   YY=  -130.9225   ZY=    39.0065
   XZ=   -69.9499   YZ=    65.0138   ZZ=  -257.1280
   Eigenvalues:  -276.4521  -163.9687   344.7181
     15  C    Isotropic =   182.1481   Anisotropy =    24.2974
   XX=   190.9422   YX=    -7.6163   ZX=    -4.2561
   XY=    -1.7207   YY=   190.9892   ZY=     7.9137
   XZ=    -5.4852   YZ=     9.1980   ZZ=   164.5128
   Eigenvalues:   161.5916   186.5062   198.3464
     16  H    Isotropic =    23.9172   Anisotropy =     7.0498
   XX=    24.8535   YX=    -2.9226   ZX=    -2.3865
   XY=    -3.2011   YY=    23.4780   ZY=     1.5768
   XZ=    -1.9206   YZ=     1.3998   ZZ=    23.4201
   Eigenvalues:    21.0024    22.1321    28.6171
     17  H    Isotropic =    23.6501   Anisotropy =     4.7564
   XX=    24.2286   YX=    -2.8341   ZX=     0.7528
   XY=    -2.8881   YY=    23.5134   ZY=     1.2947
   XZ=     0.4302   YZ=     1.4560   ZZ=    23.2084
   Eigenvalues:    20.2869    23.8424    26.8211
     18  H    Isotropic =    23.9032   Anisotropy =     4.5663
   XX=    24.9516   YX=    -2.4088   ZX=     1.1323
   XY=    -2.6925   YY=    22.5355   ZY=     0.0669
   XZ=     1.2072   YZ=    -0.1427   ZZ=    24.2224
   Eigenvalues:    20.8123    23.9497    26.9474
     19  H    Isotropic =    23.3908   Anisotropy =     9.0523
   XX=    25.0362   YX=    -2.4137   ZX=     4.6547
   XY=    -2.7151   YY=    21.9729   ZY=    -1.4071
   XZ=     3.5994   YZ=    -1.3031   ZZ=    23.1631
   Eigenvalues:    19.6556    21.0910    29.4256
     20  H    Isotropic =    23.7792   Anisotropy =     3.9487
   XX=    23.4656   YX=    -1.5663   ZX=     1.0878
   XY=    -1.5327   YY=    22.1277   ZY=     1.5246
   XZ=     0.9577   YZ=     1.6331   ZZ=    25.7442
   Eigenvalues:    20.4416    24.4843    26.4116
     21  H    Isotropic =    26.6744   Anisotropy =     5.6787
   XX=    23.8853   YX=     0.6430   ZX=     0.2995
   XY=     0.1567   YY=    26.9040   ZY=     2.5263
   XZ=     0.9286   YZ=     1.4627   ZZ=    29.2339
   Eigenvalues:    23.8030    25.7599    30.4602
     22  H    Isotropic =    28.5065   Anisotropy =     4.3129
   XX=    28.3455   YX=    -2.2888   ZX=     1.2594
   XY=     0.2872   YY=    27.1404   ZY=    -1.2629
   XZ=     0.9351   YZ=    -1.8723   ZZ=    30.0336
   Eigenvalues:    26.3107    27.8271    31.3817
     23  H    Isotropic =    28.1470   Anisotropy =     9.2398
   XX=    28.4311   YX=     2.6085   ZX=    -5.3993
   XY=     2.8189   YY=    29.2608   ZY=    -2.3225
   XZ=    -3.9751   YZ=    -0.9593   ZZ=    26.7490
   Eigenvalues:    22.7852    27.3488    34.3068
     24  H    Isotropic =    27.2134   Anisotropy =     7.1514
   XX=    29.9135   YX=     1.5897   ZX=     2.8867
   XY=     2.8200   YY=    27.9326   ZY=     1.7721
   XZ=     1.6121   YZ=    -0.3279   ZZ=    23.7940
   Eigenvalues:    23.0561    26.6031    31.9810
     25  H    Isotropic =    29.9838   Anisotropy =    14.5502
   XX=    37.0917   YX=     5.8709   ZX=    -4.0945
   XY=     3.0428   YY=    29.9703   ZY=     0.1867
   XZ=    -1.9549   YZ=    -0.2170   ZZ=    22.8894
   Eigenvalues:    22.1554    28.1121    39.6839
     26  H    Isotropic =    29.8747   Anisotropy =     9.2234
   XX=    28.7731   YX=    -1.8473   ZX=    -0.1568
   XY=    -0.5834   YY=    34.2297   ZY=     3.8590
   XZ=    -0.2942   YZ=     3.7961   ZZ=    26.6213
   Eigenvalues:    25.0106    28.5899    36.0236
     27  H    Isotropic =    30.4786   Anisotropy =     9.8412
   XX=    35.3669   YX=    -1.0335   ZX=    -4.1658
   XY=    -0.8523   YY=    28.3720   ZY=    -0.3389
   XZ=    -3.5771   YZ=    -0.5055   ZZ=    27.6968
   Eigenvalues:    25.8535    28.5428    37.0394
     28  H    Isotropic =    30.3505   Anisotropy =     8.6082
   XX=    29.5020   YX=    -3.1373   ZX=     3.7736
   XY=    -2.2287   YY=    28.5898   ZY=    -2.5554
   XZ=     2.5302   YZ=    -1.3232   ZZ=    32.9598
   Eigenvalues:    26.2533    28.7090    36.0893
     29  H    Isotropic =    31.5037   Anisotropy =     6.3621
   XX=    33.7842   YX=     0.0566   ZX=     4.0779
   XY=    -0.3396   YY=    30.7073   ZY=    -1.5208
   XZ=     2.2353   YZ=    -1.6229   ZZ=    30.0197
   Eigenvalues:    27.6564    31.1097    35.7451
     30  H    Isotropic =    31.0583   Anisotropy =    11.8490
   XX=    28.1088   YX=     0.7538   ZX=     0.0695
   XY=     1.6837   YY=    38.3888   ZY=     2.4191
   XZ=    -0.1729   YZ=     2.1983   ZZ=    26.6771
   Eigenvalues:    26.1955    28.0217    38.9576
     31  H    Isotropic =    31.1187   Anisotropy =     6.3379
   XX=    31.4204   YX=     0.7941   ZX=    -3.6652
   XY=     1.4310   YY=    31.3562   ZY=    -0.2377
   XZ=    -3.8384   YZ=    -1.7922   ZZ=    30.5796
   Eigenvalues:    27.2246    30.7876    35.3440
 End of Minotr Frequency-dependent properties file   721 does not exist.
 End of Minotr Frequency-dependent properties file   722 does not exist.

 **********************************************************************

            Population analysis using the SCF density.

 **********************************************************************

 Orbital symmetries:
       Occupied  (A) (A) (A) (A) (A) (A) (A) (A) (A) (A) (A) (A)
                 (A) (A) (A) (A) (A) (A) (A) (A) (A) (A) (A) (A)
                 (A) (A) (A) (A) (A) (A) (A) (A) (A) (A) (A) (A)
                 (A) (A) (A) (A) (A) (A) (A) (A) (A) (A) (A) (A)
                 (A) (A) (A) (A) (A) (A) (A) (A)
       Virtual   (A) (A) (A) (A) (A) (A) (A) (A) (A) (A) (A) (A)
                 (A) (A) (A) (A) (A) (A) (A) (A) (A) (A) (A) (A)
                 (A) (A) (A) (A) (A) (A) (A) (A) (A) (A) (A) (A)
                 (A) (A) (A) (A) (A) (A) (A) (A) (A) (A) (A) (A)
                 (A) (A) (A) (A) (A) (A) (A) (A) (A) (A) (A) (A)
                 (A) (A) (A) (A) (A) (A) (A) (A) (A) (A) (A) (A)
                 (A) (A) (A) (A) (A) (A) (A) (A) (A) (A) (A) (A)
                 (A) (A) (A) (A) (A) (A) (A) (A) (A) (A) (A) (A)
                 (A) (A) (A) (A) (A) (A) (A) (A) (A) (A) (A) (A)
                 (A) (A) (A) (A) (A) (A) (A) (A) (A) (A) (A) (A)
                 (A) (A) (A) (A) (A) (A) (A) (A) (A) (A) (A) (A)
                 (A) (A) (A) (A) (A) (A) (A) (A) (A) (A) (A) (A)
                 (A) (A) (A) (A) (A) (A) (A) (A) (A) (A) (A) (A)
                 (A) (A) (A) (A) (A) (A) (A) (A) (A) (A) (A) (A)
                 (A) (A) (A) (A) (A) (A) (A) (A) (A) (A) (A) (A)
                 (A) (A) (A) (A) (A) (A) (A) (A) (A) (A) (A) (A)
                 (A) (A) (A) (A) (A) (A) (A) (A) (A) (A) (A) (A)
                 (A) (A) (A) (A) (A) (A) (A) (A) (A) (A) (A) (A)
                 (A) (A) (A) (A) (A) (A) (A) (A) (A) (A) (A) (A)
                 (A) (A) (A) (A) (A) (A) (A) (A) (A) (A) (A) (A)
                 (A) (A) (A) (A) (A) (A) (A) (A) (A) (A) (A) (A)
                 (A) (A) (A) (A) (A) (A) (A) (A) (A) (A) (A) (A)
                 (A) (A) (A) (A) (A) (A) (A) (A) (A) (A) (A) (A)
                 (A) (A) (A) (A) (A) (A) (A) (A) (A) (A) (A) (A)
                 (A) (A) (A) (A) (A) (A) (A) (A) (A) (A) (A) (A)
                 (A) (A) (A) (A) (A) (A) (A) (A) (A)
 The electronic state is 1-A.
 Alpha  occ. eigenvalues --  -19.32943 -19.28161 -19.27658 -10.44133 -10.35978
 Alpha  occ. eigenvalues --  -10.34988 -10.31823 -10.31558 -10.30875 -10.30829
 Alpha  occ. eigenvalues --  -10.30796 -10.30729 -10.30665 -10.28963 -10.28592
 Alpha  occ. eigenvalues --   -1.21042  -1.12995  -1.12577  -0.96347  -0.91476
 Alpha  occ. eigenvalues --   -0.86673  -0.85353  -0.84874  -0.77780  -0.76320
 Alpha  occ. eigenvalues --   -0.70794  -0.70086  -0.68251  -0.64290  -0.62339
 Alpha  occ. eigenvalues --   -0.60946  -0.58206  -0.57106  -0.55823  -0.55491
 Alpha  occ. eigenvalues --   -0.53479  -0.52770  -0.52410  -0.50925  -0.50439
 Alpha  occ. eigenvalues --   -0.49072  -0.47889  -0.46408  -0.46266  -0.45610
 Alpha  occ. eigenvalues --   -0.44948  -0.44321  -0.43417  -0.42406  -0.41783
 Alpha  occ. eigenvalues --   -0.40047  -0.38932  -0.37446  -0.36141  -0.33426
 Alpha  occ. eigenvalues --   -0.32617
 Alpha virt. eigenvalues --    0.04579   0.05238   0.06418   0.07175   0.07588
 Alpha virt. eigenvalues --    0.08132   0.08535   0.09362   0.09912   0.10029
 Alpha virt. eigenvalues --    0.10684   0.11147   0.11952   0.12226   0.12935
 Alpha virt. eigenvalues --    0.13421   0.13818   0.14397   0.14790   0.15678
 Alpha virt. eigenvalues --    0.15946   0.16424   0.16872   0.17395   0.18002
 Alpha virt. eigenvalues --    0.18495   0.18991   0.19414   0.19682   0.20223
 Alpha virt. eigenvalues --    0.20986   0.21382   0.21796   0.22194   0.22624
 Alpha virt. eigenvalues --    0.22790   0.23836   0.23903   0.24654   0.24946
 Alpha virt. eigenvalues --    0.25226   0.25824   0.26291   0.26593   0.26778
 Alpha virt. eigenvalues --    0.27240   0.27753   0.28101   0.29158   0.29515
 Alpha virt. eigenvalues --    0.29875   0.30039   0.30925   0.31010   0.31284
 Alpha virt. eigenvalues --    0.31827   0.32277   0.33019   0.33158   0.33675
 Alpha virt. eigenvalues --    0.34194   0.34238   0.35181   0.35566   0.36068
 Alpha virt. eigenvalues --    0.36531   0.37223   0.38003   0.38585   0.38821
 Alpha virt. eigenvalues --    0.39654   0.40350   0.41276   0.41416   0.42560
 Alpha virt. eigenvalues --    0.42827   0.43302   0.43756   0.44132   0.44552
 Alpha virt. eigenvalues --    0.45160   0.46013   0.46572   0.47577   0.48577
 Alpha virt. eigenvalues --    0.48926   0.49674   0.51567   0.52551   0.53111
 Alpha virt. eigenvalues --    0.55214   0.56207   0.62059   0.66372   0.69828
 Alpha virt. eigenvalues --    0.73457   0.73911   0.75084   0.75613   0.75714
 Alpha virt. eigenvalues --    0.76915   0.78864   0.79084   0.80796   0.81428
 Alpha virt. eigenvalues --    0.81750   0.82871   0.83149   0.84317   0.85047
 Alpha virt. eigenvalues --    0.85851   0.87105   0.88020   0.88401   0.89810
 Alpha virt. eigenvalues --    0.90738   0.91667   0.92362   0.95436   0.96642
 Alpha virt. eigenvalues --    0.98241   0.99237   1.00390   1.00716   1.02105
 Alpha virt. eigenvalues --    1.02941   1.04631   1.05432   1.06690   1.07739
 Alpha virt. eigenvalues --    1.08463   1.09818   1.10752   1.11484   1.13370
 Alpha virt. eigenvalues --    1.14631   1.15782   1.18205   1.18567   1.19975
 Alpha virt. eigenvalues --    1.20852   1.21804   1.22903   1.23034   1.24977
 Alpha virt. eigenvalues --    1.25706   1.27446   1.27818   1.29368   1.31494
 Alpha virt. eigenvalues --    1.32863   1.33514   1.35242   1.35525   1.37504
 Alpha virt. eigenvalues --    1.41157   1.42355   1.42631   1.44428   1.44991
 Alpha virt. eigenvalues --    1.46435   1.47518   1.48718   1.49604   1.50019
 Alpha virt. eigenvalues --    1.50885   1.53939   1.54546   1.56084   1.57540
 Alpha virt. eigenvalues --    1.58050   1.58982   1.62097   1.62892   1.65572
 Alpha virt. eigenvalues --    1.69139   1.69341   1.71575   1.73892   1.76650
 Alpha virt. eigenvalues --    1.78378   1.80575   1.82132   1.86521   1.87897
 Alpha virt. eigenvalues --    1.88396   1.89949   1.92531   1.93983   1.97467
 Alpha virt. eigenvalues --    1.97923   1.98061   1.99174   2.00080   2.01735
 Alpha virt. eigenvalues --    2.03351   2.03842   2.04696   2.05344   2.06211
 Alpha virt. eigenvalues --    2.07535   2.08205   2.09348   2.10507   2.11833
 Alpha virt. eigenvalues --    2.12299   2.14525   2.15177   2.16418   2.17772
 Alpha virt. eigenvalues --    2.19743   2.20450   2.21687   2.22642   2.24158
 Alpha virt. eigenvalues --    2.25257   2.26306   2.27293   2.28205   2.31663
 Alpha virt. eigenvalues --    2.33119   2.35514   2.36472   2.38653   2.38880
 Alpha virt. eigenvalues --    2.41030   2.42517   2.43744   2.45847   2.48345
 Alpha virt. eigenvalues --    2.49258   2.49803   2.51205   2.51564   2.54763
 Alpha virt. eigenvalues --    2.55358   2.56421   2.57273   2.57354   2.61134
 Alpha virt. eigenvalues --    2.62182   2.63139   2.64739   2.65376   2.68767
 Alpha virt. eigenvalues --    2.69530   2.71856   2.72924   2.73574   2.74641
 Alpha virt. eigenvalues --    2.77686   2.79630   2.79745   2.81853   2.83803
 Alpha virt. eigenvalues --    2.83888   2.85394   2.86292   2.89622   2.90932
 Alpha virt. eigenvalues --    2.91353   2.92369   2.94776   2.96197   2.97454
 Alpha virt. eigenvalues --    2.98015   2.98781   3.02393   3.06618   3.08761
 Alpha virt. eigenvalues --    3.11621   3.15085   3.16583   3.19373   3.25771
 Alpha virt. eigenvalues --    3.28461   3.31004   3.36724   3.37478   3.38432
 Alpha virt. eigenvalues --    3.39015   3.43266   3.45029   3.48494   3.52414
 Alpha virt. eigenvalues --    3.54591   3.58543   3.59488   3.60151   3.62279
 Alpha virt. eigenvalues --    3.64423   3.66637   3.69412   3.99708   4.42226
 Alpha virt. eigenvalues --    4.45173   4.46042   4.52190   4.54214   4.55349
 Alpha virt. eigenvalues --    4.58205   4.61481   4.63646   4.68487   4.72472
 Alpha virt. eigenvalues --    4.75991   4.83702   4.94553   4.98090
          Condensed to atoms (all electrons):
              1          2          3          4          5          6
     1  C   17.231851  -0.915397  -0.856343  -5.870957  -6.966691   0.367526
     2  C   -0.915397   7.149188   0.340695   0.705709  -0.600430   0.348666
     3  C   -0.856343   0.340695   6.630019   0.582456  -0.381664   0.369265
     4  C   -5.870957   0.705709   0.582456  18.645777  -1.777803  -1.264201
     5  C   -6.966691  -0.600430  -0.381664  -1.777803  16.134875   0.474529
     6  C    0.367526   0.348666   0.369265  -1.264201   0.474529   5.592994
     7  C    3.860820  -1.429333  -0.957330  -6.652706  -1.195165   0.055543
     8  C   -1.015806   0.290130   0.123028   1.300145   0.417063  -0.083296
     9  C   -0.500732   0.006179  -0.005165   0.636210   0.407857   0.024039
    10  O    0.011171   0.013543   0.014311   0.019242  -0.042248  -0.003092
    11  C    0.065351  -0.005727  -0.019284  -0.021207  -0.027649  -0.000020
    12  O   -0.080702   0.090093   0.016243   0.385789  -0.051030   0.001271
    13  C    0.232562  -0.077841  -0.039661  -0.731963  -0.293935  -0.003592
    14  O    0.010149  -0.003157   0.000971   0.044119  -0.008384   0.003885
    15  C   -0.025897   0.000189   0.011886  -0.002674   0.017323  -0.002806
    16  H    0.173368   0.014842   0.071655   0.119802  -0.025046  -0.016009
    17  H    0.003875   0.273690  -0.000625   0.051079   0.010303  -0.005520
    18  H    0.031897  -0.000592   0.260718   0.013814  -0.004716   0.026593
    19  H    0.027434  -0.032308   0.000122   0.069699   0.233933  -0.015041
    20  H    0.010355   0.016710   0.015579  -0.000283  -0.004074   0.286189
    21  H    0.221634   0.004508   0.061663   0.048048  -0.141612   0.001754
    22  H    0.057182  -0.010624   0.004847   0.109170  -0.122140  -0.003535
    23  H   -0.000014   0.000332   0.000801   0.000842  -0.001887  -0.000085
    24  H   -0.004218   0.000419   0.000248   0.006146   0.000221  -0.000312
    25  H   -0.022788   0.000608   0.002036   0.063600  -0.045100  -0.005299
    26  H   -0.004144   0.002214   0.000111  -0.005131   0.012256   0.000016
    27  H    0.002246  -0.000582  -0.000168  -0.007702  -0.005701   0.000027
    28  H    0.014445  -0.000476   0.000307  -0.003466  -0.014727  -0.000047
    29  H   -0.000114   0.000907  -0.000734   0.000880   0.002464  -0.000724
    30  H   -0.000353   0.000052  -0.000020  -0.000549  -0.000162   0.000229
    31  H   -0.011722   0.002003   0.011899   0.006569  -0.005226  -0.002007
              7          8          9         10         11         12
     1  C    3.860820  -1.015806  -0.500732   0.011171   0.065351  -0.080702
     2  C   -1.429333   0.290130   0.006179   0.013543  -0.005727   0.090093
     3  C   -0.957330   0.123028  -0.005165   0.014311  -0.019284   0.016243
     4  C   -6.652706   1.300145   0.636210   0.019242  -0.021207   0.385789
     5  C   -1.195165   0.417063   0.407857  -0.042248  -0.027649  -0.051030
     6  C    0.055543  -0.083296   0.024039  -0.003092  -0.000020   0.001271
     7  C   13.686267  -1.994457  -0.604605  -0.024001   0.003273  -0.163011
     8  C   -1.994457   8.993608  -1.045802  -0.167955  -0.001721  -0.169651
     9  C   -0.604605  -1.045802   6.571483   0.272512  -0.150311   0.076950
    10  O   -0.024001  -0.167955   0.272512   8.354071   0.081486  -0.001943
    11  C    0.003273  -0.001721  -0.150311   0.081486   5.125441  -0.000569
    12  O   -0.163011  -0.169651   0.076950  -0.001943  -0.000569   8.287943
    13  C    1.128273  -0.959683  -0.065521  -0.028656  -0.015767  -0.033534
    14  O   -0.040476  -0.114138   0.664261  -0.160927  -0.007059  -0.000825
    15  C    0.000475   0.022028  -0.081766  -0.036415   0.296131  -0.000415
    16  H   -0.026065   0.000628   0.003021  -0.000306  -0.002944  -0.000016
    17  H   -0.006212  -0.000213   0.000686  -0.000027  -0.000118   0.000092
    18  H   -0.001382  -0.001002   0.000854  -0.000027   0.000050   0.000015
    19  H    0.012771   0.003482   0.002378  -0.000598   0.000027   0.003283
    20  H    0.003004  -0.000312  -0.000358   0.000008   0.000122  -0.000009
    21  H    0.111684   0.065882  -0.032932   0.000907   0.000074  -0.051248
    22  H   -0.028533   0.354524  -0.024766  -0.002057   0.000546   0.001613
    23  H   -0.001064  -0.001430   0.016197  -0.058686   0.415269  -0.000001
    24  H   -0.004309   0.008112   0.001824  -0.036871   0.401597  -0.000001
    25  H    0.011772   0.017630  -0.002927  -0.000006   0.000057   0.235702
    26  H   -0.028934  -0.049982  -0.001341  -0.000009  -0.000044   0.006631
    27  H    0.044213  -0.180280   0.024368   0.003016   0.000579  -0.000364
    28  H    0.022426  -0.069629  -0.006093   0.000034  -0.000483  -0.002364
    29  H   -0.001993   0.000978   0.005362  -0.003859  -0.036976  -0.000002
    30  H    0.000347   0.000641   0.010829   0.006456  -0.049172   0.000000
    31  H   -0.004371   0.005052  -0.005515  -0.006110  -0.042165   0.000004
             13         14         15         16         17         18
     1  C    0.232562   0.010149  -0.025897   0.173368   0.003875   0.031897
     2  C   -0.077841  -0.003157   0.000189   0.014842   0.273690  -0.000592
     3  C   -0.039661   0.000971   0.011886   0.071655  -0.000625   0.260718
     4  C   -0.731963   0.044119  -0.002674   0.119802   0.051079   0.013814
     5  C   -0.293935  -0.008384   0.017323  -0.025046   0.010303  -0.004716
     6  C   -0.003592   0.003885  -0.002806  -0.016009  -0.005520   0.026593
     7  C    1.128273  -0.040476   0.000475  -0.026065  -0.006212  -0.001382
     8  C   -0.959683  -0.114138   0.022028   0.000628  -0.000213  -0.001002
     9  C   -0.065521   0.664261  -0.081766   0.003021   0.000686   0.000854
    10  O   -0.028656  -0.160927  -0.036415  -0.000306  -0.000027  -0.000027
    11  C   -0.015767  -0.007059   0.296131  -0.002944  -0.000118   0.000050
    12  O   -0.033534  -0.000825  -0.000415  -0.000016   0.000092   0.000015
    13  C    6.330500  -0.057298  -0.002207  -0.000374   0.000051   0.000049
    14  O   -0.057298   8.108081  -0.027321   0.000745   0.000002  -0.000027
    15  C   -0.002207  -0.027321   5.194026   0.001290   0.000142   0.000521
    16  H   -0.000374   0.000745   0.001290   0.509705   0.000011  -0.003893
    17  H    0.000051   0.000002   0.000142   0.000011   0.495248  -0.000122
    18  H    0.000049  -0.000027   0.000521  -0.003893  -0.000122   0.498456
    19  H    0.013585  -0.000084   0.000106  -0.000110  -0.003917   0.000011
    20  H   -0.000024   0.000001   0.000081  -0.000124  -0.003801  -0.003755
    21  H   -0.068452   0.009998  -0.000486   0.003010   0.000002  -0.000003
    22  H   -0.050335   0.008047  -0.000414   0.000004   0.000003   0.000000
    23  H    0.000318   0.000232  -0.038542   0.000000   0.000000   0.000000
    24  H   -0.000778   0.000704  -0.040447   0.000001   0.000000   0.000000
    25  H   -0.006271  -0.000004   0.000020   0.000077  -0.000002   0.000000
    26  H    0.433897   0.000407   0.000008   0.000000   0.000000   0.000000
    27  H    0.479213  -0.001188   0.000499   0.000000   0.000000   0.000000
    28  H    0.408274   0.003681  -0.000110   0.000001   0.000000   0.000000
    29  H   -0.000295  -0.000653   0.397850  -0.000004  -0.000001  -0.000003
    30  H    0.000313  -0.000457   0.395636   0.000001   0.000000   0.000001
    31  H   -0.000350   0.001913   0.412652   0.000069   0.000000  -0.000017
             19         20         21         22         23         24
     1  C    0.027434   0.010355   0.221634   0.057182  -0.000014  -0.004218
     2  C   -0.032308   0.016710   0.004508  -0.010624   0.000332   0.000419
     3  C    0.000122   0.015579   0.061663   0.004847   0.000801   0.000248
     4  C    0.069699  -0.000283   0.048048   0.109170   0.000842   0.006146
     5  C    0.233933  -0.004074  -0.141612  -0.122140  -0.001887   0.000221
     6  C   -0.015041   0.286189   0.001754  -0.003535  -0.000085  -0.000312
     7  C    0.012771   0.003004   0.111684  -0.028533  -0.001064  -0.004309
     8  C    0.003482  -0.000312   0.065882   0.354524  -0.001430   0.008112
     9  C    0.002378  -0.000358  -0.032932  -0.024766   0.016197   0.001824
    10  O   -0.000598   0.000008   0.000907  -0.002057  -0.058686  -0.036871
    11  C    0.000027   0.000122   0.000074   0.000546   0.415269   0.401597
    12  O    0.003283  -0.000009  -0.051248   0.001613  -0.000001  -0.000001
    13  C    0.013585  -0.000024  -0.068452  -0.050335   0.000318  -0.000778
    14  O   -0.000084   0.000001   0.009998   0.008047   0.000232   0.000704
    15  C    0.000106   0.000081  -0.000486  -0.000414  -0.038542  -0.040447
    16  H   -0.000110  -0.000124   0.003010   0.000004   0.000000   0.000001
    17  H   -0.003917  -0.003801   0.000002   0.000003   0.000000   0.000000
    18  H    0.000011  -0.003755  -0.000003   0.000000   0.000000   0.000000
    19  H    0.502335  -0.000119  -0.000075  -0.000197   0.000000   0.000000
    20  H   -0.000119   0.498171   0.000000   0.000000   0.000000   0.000000
    21  H   -0.000075   0.000000   0.600286   0.004292   0.000000  -0.000001
    22  H   -0.000197   0.000000   0.004292   0.506546  -0.000028  -0.000011
    23  H    0.000000   0.000000   0.000000  -0.000028   0.527281  -0.031445
    24  H    0.000000   0.000000  -0.000001  -0.000011  -0.031445   0.521397
    25  H   -0.000485   0.000000  -0.003823  -0.000108   0.000000   0.000000
    26  H    0.000001   0.000000   0.000140  -0.003436   0.000000   0.000000
    27  H    0.000002   0.000000  -0.000043  -0.002980   0.000000  -0.000005
    28  H   -0.000001   0.000000   0.003011   0.004034   0.000000  -0.000004
    29  H    0.000000  -0.000001  -0.000001  -0.000010  -0.004975   0.003759
    30  H    0.000000   0.000000   0.000000   0.000000  -0.001244  -0.000878
    31  H    0.000000  -0.000001   0.000006  -0.000005   0.003919  -0.005060
             25         26         27         28         29         30
     1  C   -0.022788  -0.004144   0.002246   0.014445  -0.000114  -0.000353
     2  C    0.000608   0.002214  -0.000582  -0.000476   0.000907   0.000052
     3  C    0.002036   0.000111  -0.000168   0.000307  -0.000734  -0.000020
     4  C    0.063600  -0.005131  -0.007702  -0.003466   0.000880  -0.000549
     5  C   -0.045100   0.012256  -0.005701  -0.014727   0.002464  -0.000162
     6  C   -0.005299   0.000016   0.000027  -0.000047  -0.000724   0.000229
     7  C    0.011772  -0.028934   0.044213   0.022426  -0.001993   0.000347
     8  C    0.017630  -0.049982  -0.180280  -0.069629   0.000978   0.000641
     9  C   -0.002927  -0.001341   0.024368  -0.006093   0.005362   0.010829
    10  O   -0.000006  -0.000009   0.003016   0.000034  -0.003859   0.006456
    11  C    0.000057  -0.000044   0.000579  -0.000483  -0.036976  -0.049172
    12  O    0.235702   0.006631  -0.000364  -0.002364  -0.000002   0.000000
    13  C   -0.006271   0.433897   0.479213   0.408274  -0.000295   0.000313
    14  O   -0.000004   0.000407  -0.001188   0.003681  -0.000653  -0.000457
    15  C    0.000020   0.000008   0.000499  -0.000110   0.397850   0.395636
    16  H    0.000077   0.000000   0.000000   0.000001  -0.000004   0.000001
    17  H   -0.000002   0.000000   0.000000   0.000000  -0.000001   0.000000
    18  H    0.000000   0.000000   0.000000   0.000000  -0.000003   0.000001
    19  H   -0.000485   0.000001   0.000002  -0.000001   0.000000   0.000000
    20  H    0.000000   0.000000   0.000000   0.000000  -0.000001   0.000000
    21  H   -0.003823   0.000140  -0.000043   0.003011  -0.000001   0.000000
    22  H   -0.000108  -0.003436  -0.002980   0.004034  -0.000010   0.000000
    23  H    0.000000   0.000000   0.000000   0.000000  -0.004975  -0.001244
    24  H    0.000000   0.000000  -0.000005  -0.000004   0.003759  -0.000878
    25  H    0.356619  -0.000050  -0.000002  -0.000035   0.000000   0.000000
    26  H   -0.000050   0.496881  -0.023790  -0.023472   0.000000   0.000000
    27  H   -0.000002  -0.023790   0.517735  -0.025507   0.000000   0.000000
    28  H   -0.000035  -0.023472  -0.025507   0.509161   0.000000   0.000000
    29  H    0.000000   0.000000   0.000000   0.000000   0.515102  -0.023245
    30  H    0.000000   0.000000   0.000000   0.000000  -0.023245   0.507510
    31  H    0.000000   0.000000   0.000000   0.000000  -0.029124  -0.022723
             31
     1  C   -0.011722
     2  C    0.002003
     3  C    0.011899
     4  C    0.006569
     5  C   -0.005226
     6  C   -0.002007
     7  C   -0.004371
     8  C    0.005052
     9  C   -0.005515
    10  O   -0.006110
    11  C   -0.042165
    12  O    0.000004
    13  C   -0.000350
    14  O    0.001913
    15  C    0.412652
    16  H    0.000069
    17  H    0.000000
    18  H   -0.000017
    19  H    0.000000
    20  H   -0.000001
    21  H    0.000006
    22  H   -0.000005
    23  H    0.003919
    24  H   -0.005060
    25  H    0.000000
    26  H    0.000000
    27  H    0.000000
    28  H    0.000000
    29  H   -0.029124
    30  H   -0.022723
    31  H    0.510478
 Mulliken atomic charges:
              1
     1  C   -0.045986
     2  C   -0.184209
     3  C   -0.257863
     4  C   -0.470454
     5  C    0.004567
     6  C   -0.146940
     7  C    0.223079
     8  C    0.252424
     9  C   -0.197172
    10  O   -0.202968
    11  C   -0.008787
    12  O   -0.549944
    13  C   -0.590498
    14  O   -0.435199
    15  C   -0.491361
    16  H    0.176660
    17  H    0.185372
    18  H    0.182561
    19  H    0.183768
    20  H    0.182640
    21  H    0.161778
    22  H    0.198370
    23  H    0.174212
    24  H    0.179914
    25  H    0.398780
    26  H    0.187770
    27  H    0.176411
    28  H    0.181040
    29  H    0.175412
    30  H    0.176789
    31  H    0.179833
 Sum of Mulliken atomic charges =   0.00000
 Mulliken charges with hydrogens summed into heavy atoms:
              1
     1  C    0.130674
     2  C    0.001163
     3  C   -0.075302
     4  C   -0.470454
     5  C    0.188335
     6  C    0.035700
     7  C    0.384857
     8  C    0.450794
     9  C   -0.197172
    10  O   -0.202968
    11  C    0.345339
    12  O   -0.151164
    13  C   -0.045277
    14  O   -0.435199
    15  C    0.040673
 Sum of Mulliken charges with hydrogens summed into heavy atoms =   0.00000
 Electronic spatial extent (au):  <R**2>=           3259.4064
 Charge=              0.0000 electrons
 Dipole moment (field-independent basis, Debye):
    X=             -1.4724    Y=              2.0121    Z=             -1.3109  Tot=              2.8169
 Quadrupole moment (field-independent basis, Debye-Ang):
   XX=            -83.6342   YY=            -86.6655   ZZ=            -89.7392
   XY=              1.6749   XZ=             -4.0205   YZ=             -1.2068
 Traceless Quadrupole moment (field-independent basis, Debye-Ang):
   XX=              3.0454   YY=              0.0142   ZZ=             -3.0596
   XY=              1.6749   XZ=             -4.0205   YZ=             -1.2068
 Octapole moment (field-independent basis, Debye-Ang**2):
  XXX=             12.5910  YYY=             37.5624  ZZZ=             -5.0961  XYY=              9.1175
  XXY=             14.7540  XXZ=            -19.4202  XZZ=            -13.2095  YZZ=             -2.8009
  YYZ=              4.0677  XYZ=             -3.7913
 Hexadecapole moment (field-independent basis, Debye-Ang**3):
 XXXX=          -2179.9087 YYYY=          -1670.7478 ZZZZ=           -454.6115 XXXY=            -22.6072
 XXXZ=              9.6514 YYYX=             92.8727 YYYZ=            -21.3808 ZZZX=             -2.3851
 ZZZY=              2.6577 XXYY=           -553.4100 XXZZ=           -444.4108 YYZZ=           -346.7577
 XXYZ=             -5.5353 YYXZ=            -23.9482 ZZXY=             -4.4945
 N-N= 1.028339086792D+03 E-N=-3.668644236325D+03  KE= 6.859173601192D+02
 1\1\GINC-COMPUTE-5-22\SP\RwB97XD\6-31+G(d,p)\C12H16O3\ELUCIANO.IQUIR\1
 7-May-2022\0\\# wb97xd/6-31+g** scrf=(pcm,solvent=chloroform,smd,dovac
 uum) nmr\\comment\\0,1\C,0,1.581935667,0.386755245,-1.282505528\C,0,-0
 .060473279,2.569344303,-1.846355965\C,0,1.352368786,0.766935417,-2.605
 758773\C,0,0.993259137,1.095485763,-0.224863775\C,0,0.16678585,2.19041
 368,-0.522717545\C,0,0.532468258,1.857775499,-2.887057198\C,0,1.231720
 672,0.66112699,1.209975115\C,0,-0.00395494,0.022882403,1.858513303\C,0
 ,-0.356368311,-1.237807404,1.103343818\O,0,-1.653212199,-1.194543934,0
 .689916835\C,0,-2.101816158,-2.31607433,-0.083875722\O,0,1.637860812,1
 .805464399,1.970928533\C,0,0.223612237,-0.333035184,3.327067246\O,0,0.
 420418625,-2.1623347,0.900477855\C,0,-1.753578021,-2.114508399,-1.5470
 4546\H,0,2.21547207,-0.476298662,-1.083741614\H,0,-0.702222506,3.41894
 4084,-2.065272569\H,0,1.810864516,0.208112654,-3.417734727\H,0,-0.3054
 33549,2.754256165,0.280022053\H,0,0.35366209,2.151870602,-3.918012863\
 H,0,2.077459931,-0.03734519,1.241604982\H,0,-0.848314556,0.723139633,1
 .817223016\H,0,-3.189345507,-2.369048578,0.031278247\H,0,-1.690872881,
 -3.25603613,0.301853819\H,0,2.216548807,2.336590393,1.395316413\H,0,0.
 394789592,0.564225856,3.930205929\H,0,-0.648277194,-0.852840157,3.7396
 1258\H,0,1.087973316,-0.995553393,3.447560822\H,0,-2.157839958,-1.1645
 31158,-1.911887894\H,0,-2.156122473,-2.928092938,-2.156980012\H,0,-0.6
 69368832,-2.075272931,-1.69109092\\Version=EM64L-G09RevC.01\State=1-A\
 HF=-692.4466342\RMSD=4.043e-09\Dipole=-0.6050914,0.2994993,-0.8788677\
 Quadrupole=1.3897827,-1.5127275,0.1229449,3.3954944,-1.5294841,-0.6744
 08\PG=C01 [X(C12H16O3)]\\@


 NO SCIENCE HAS EVER MADE MORE RAPID PROGRESS IN A
 SHORTER TIME THAN CHEMISTRY.
   -- MARTIN HEINRICH KLOPROTH, 1791
 (FIRST PROFESSOR OF CHEMISTRY AT THE UNIVERSITY OF BERLIN)
 Job cpu time:  0 days  0 hours 47 minutes 21.7 seconds.
 File lengths (MBytes):  RWF=    124 Int=      0 D2E=      0 Chk=      9 Scr=      1
 Normal termination of Gaussian 09 at Tue May 17 15:05:06 2022.
