 Entering Gaussian System, Link 0=g09
 Input=/home/eluciano.iquir/wb9/73a_004.gjc
 Output=/home/eluciano.iquir/wb9/73a_004.log
 Initial command:
 /share/apps/Gaussian09/EM64T.SSE4.2-enabled/g09/l1.exe /tmp/Gau-28137.inp -scrdir=/tmp/
 Entering Link 1 = /share/apps/Gaussian09/EM64T.SSE4.2-enabled/g09/l1.exe PID=     28138.
  
 Copyright (c) 1988,1990,1992,1993,1995,1998,2003,2009,2011,
            Gaussian, Inc.  All Rights Reserved.
  
 This is part of the Gaussian(R) 09 program.  It is based on
 the Gaussian(R) 03 system (copyright 2003, Gaussian, Inc.),
 the Gaussian(R) 98 system (copyright 1998, Gaussian, Inc.),
 the Gaussian(R) 94 system (copyright 1995, Gaussian, Inc.),
 the Gaussian 92(TM) system (copyright 1992, Gaussian, Inc.),
 the Gaussian 90(TM) system (copyright 1990, Gaussian, Inc.),
 the Gaussian 88(TM) system (copyright 1988, Gaussian, Inc.),
 the Gaussian 86(TM) system (copyright 1986, Carnegie Mellon
 University), and the Gaussian 82(TM) system (copyright 1983,
 Carnegie Mellon University). Gaussian is a federally registered
 trademark of Gaussian, Inc.
  
 This software contains proprietary and confidential information,
 including trade secrets, belonging to Gaussian, Inc.
  
 This software is provided under written license and may be
 used, copied, transmitted, or stored only in accord with that
 written license.
  
 The following legend is applicable only to US Government
 contracts under FAR:
  
                    RESTRICTED RIGHTS LEGEND
  
 Use, reproduction and disclosure by the US Government is
 subject to restrictions as set forth in subparagraphs (a)
 and (c) of the Commercial Computer Software - Restricted
 Rights clause in FAR 52.227-19.
  
 Gaussian, Inc.
 340 Quinnipiac St., Bldg. 40, Wallingford CT 06492
  
  
 ---------------------------------------------------------------
 Warning -- This program may not be used in any manner that
 competes with the business of Gaussian, Inc. or will provide
 assistance to any competitor of Gaussian, Inc.  The licensee
 of this program is prohibited from giving any competitor of
 Gaussian, Inc. access to this program.  By using this program,
 the user acknowledges that Gaussian, Inc. is engaged in the
 business of creating and licensing software in the field of
 computational chemistry and represents and warrants to the
 licensee that it is not a competitor of Gaussian, Inc. and that
 it will not use this program in any manner prohibited above.
 ---------------------------------------------------------------
  

 Cite this work as:
 Gaussian 09, Revision C.01,
 M. J. Frisch, G. W. Trucks, H. B. Schlegel, G. E. Scuseria, 
 M. A. Robb, J. R. Cheeseman, G. Scalmani, V. Barone, B. Mennucci, 
 G. A. Petersson, H. Nakatsuji, M. Caricato, X. Li, H. P. Hratchian, 
 A. F. Izmaylov, J. Bloino, G. Zheng, J. L. Sonnenberg, M. Hada, 
 M. Ehara, K. Toyota, R. Fukuda, J. Hasegawa, M. Ishida, T. Nakajima, 
 Y. Honda, O. Kitao, H. Nakai, T. Vreven, J. A. Montgomery, Jr., 
 J. E. Peralta, F. Ogliaro, M. Bearpark, J. J. Heyd, E. Brothers, 
 K. N. Kudin, V. N. Staroverov, T. Keith, R. Kobayashi, J. Normand, 
 K. Raghavachari, A. Rendell, J. C. Burant, S. S. Iyengar, J. Tomasi, 
 M. Cossi, N. Rega, J. M. Millam, M. Klene, J. E. Knox, J. B. Cross, 
 V. Bakken, C. Adamo, J. Jaramillo, R. Gomperts, R. E. Stratmann, 
 O. Yazyev, A. J. Austin, R. Cammi, C. Pomelli, J. W. Ochterski, 
 R. L. Martin, K. Morokuma, V. G. Zakrzewski, G. A. Voth, 
 P. Salvador, J. J. Dannenberg, S. Dapprich, A. D. Daniels, 
 O. Farkas, J. B. Foresman, J. V. Ortiz, J. Cioslowski, 
 and D. J. Fox, Gaussian, Inc., Wallingford CT, 2010.
 
 ******************************************
 Gaussian 09:  EM64L-G09RevC.01 23-Sep-2011
                17-May-2022 
 ******************************************
 %nprocshared=4
 Will use up to    4 processors via shared memory.
 ----------------------------------------------------------------
 # wb97xd/6-31+g** scrf=(pcm,solvent=chloroform,smd,dovacuum) nmr
 ----------------------------------------------------------------
 1/38=1/1;
 2/12=2,17=6,18=5,40=1/2;
 3/5=1,6=6,7=111,11=2,16=1,25=1,30=1,70=32101,72=7,74=-58/1,2,8,3;
 4//1;
 5/5=2,38=5,53=7/2;
 8/6=1,10=90,11=11/1;
 10/13=100,45=16/2;
 6/7=2,8=2,9=2,10=2,28=1/1;
 99/9=1/99;
 -------
 comment
 -------
 Charge =  0 Multiplicity = 1
 Symbolic Z-Matrix:
 6                     0.5599    2.71498  -0.1438 
 6                     2.28567   3.06948   2.01525 
 6                     0.65763   3.96217   0.47679 
 6                     1.325     1.62628   0.30716 
 6                     2.1885    1.82208   1.3955 
 6                     1.51995   4.13864   1.55634 
 6                     1.18306   0.2747   -0.3714 
 6                    -0.0626   -0.48852   0.11948 
 6                    -0.35069  -1.6032   -0.86065 
 8                    -1.68338  -1.88075  -0.88887 
 6                    -2.04676  -2.94657  -1.77521 
 8                     2.37134  -0.49653  -0.175 
 6                     0.08132  -1.09255   1.51477 
 8                     0.50391  -2.18217  -1.5206 
 6                    -3.54827  -3.13955  -1.69255 
 1                    -0.11772   2.59949  -0.98685 
 1                     2.96254   3.20448   2.85472 
 1                     0.06236   4.79695   0.11622 
 1                     2.79639   0.99814   1.76498 
 1                     1.59831   5.10942   2.03825 
 1                     1.11661   0.45965  -1.45212 
 1                    -0.92453   0.19154   0.10339 
 1                    -1.5377   -3.86849  -1.47259 
 1                    -1.7625   -2.68672  -2.80102 
 1                     2.28799  -1.27794  -0.75726 
 1                     0.26056  -0.31906   2.26728 
 1                    -0.8325   -1.62567   1.80059 
 1                     0.90213  -1.81643   1.56112 
 1                    -3.85026  -3.37876  -0.66751 
 1                    -3.87508  -3.94625  -2.35459 
 1                    -4.07119  -2.21886  -1.97182 
 
                          Input orientation:                          
 ---------------------------------------------------------------------
 Center     Atomic      Atomic             Coordinates (Angstroms)
 Number     Number       Type             X           Y           Z
 ---------------------------------------------------------------------
      1          6           0        0.559901    2.714981   -0.143795
      2          6           0        2.285667    3.069479    2.015250
      3          6           0        0.657632    3.962169    0.476787
      4          6           0        1.325001    1.626277    0.307155
      5          6           0        2.188504    1.822077    1.395500
      6          6           0        1.519952    4.138640    1.556343
      7          6           0        1.183058    0.274698   -0.371404
      8          6           0       -0.062600   -0.488515    0.119481
      9          6           0       -0.350693   -1.603204   -0.860648
     10          8           0       -1.683379   -1.880751   -0.888875
     11          6           0       -2.046758   -2.946574   -1.775213
     12          8           0        2.371339   -0.496526   -0.175002
     13          6           0        0.081315   -1.092546    1.514766
     14          8           0        0.503913   -2.182165   -1.520595
     15          6           0       -3.548272   -3.139549   -1.692549
     16          1           0       -0.117723    2.599493   -0.986847
     17          1           0        2.962542    3.204480    2.854717
     18          1           0        0.062364    4.796953    0.116218
     19          1           0        2.796394    0.998138    1.764981
     20          1           0        1.598307    5.109419    2.038251
     21          1           0        1.116606    0.459652   -1.452124
     22          1           0       -0.924526    0.191540    0.103388
     23          1           0       -1.537698   -3.868485   -1.472588
     24          1           0       -1.762499   -2.686717   -2.801017
     25          1           0        2.287987   -1.277937   -0.757257
     26          1           0        0.260563   -0.319064    2.267283
     27          1           0       -0.832500   -1.625668    1.800593
     28          1           0        0.902134   -1.816428    1.561122
     29          1           0       -3.850257   -3.378760   -0.667515
     30          1           0       -3.875083   -3.946246   -2.354585
     31          1           0       -4.071193   -2.218863   -1.971820
 ---------------------------------------------------------------------
                    Distance matrix (angstroms):
                    1          2          3          4          5
     1  C    0.000000
     2  C    2.786649   0.000000
     3  C    1.396478   2.411278   0.000000
     4  C    1.404995   2.433782   2.435271   0.000000
     5  C    2.412272   1.396260   2.787040   1.403022   0.000000
     6  C    2.416396   1.392846   1.392903   2.812551   2.416463
     7  C    2.528856   3.837012   3.820071   1.518999   2.554849
     8  C    3.274021   4.665578   4.522720   2.536337   3.469083
     9  C    4.470993   6.087294   5.811955   3.821160   4.823927
    10  O    5.167998   6.977968   6.440891   4.772849   5.824156
    11  C    6.442779   8.326488   7.753448   6.051115   7.122563
    12  O    3.687284   4.185801   4.820952   2.415283   2.806390
    13  C    4.180566   4.736254   5.192272   3.224450   3.598541
    14  O    5.087313   6.576976   6.462663   4.303382   5.232152
    15  C    7.317872   9.291644   8.534053   7.103570   8.189285
    16  H    1.087773   3.874243   2.144828   2.168650   3.405678
    17  H    3.873418   1.086780   3.397242   3.415016   2.153947
    18  H    2.156329   3.396111   1.086839   3.418171   3.873877
    19  H    3.404831   2.148006   3.875464   2.164443   1.088541
    20  H    3.401903   2.152754   2.153885   3.899188   3.401188
    21  H    2.666112   4.494505   4.024795   2.121204   3.333786
    22  H    2.938091   4.716258   4.106129   2.675885   3.744217
    23  H    7.036167   8.655546   8.362935   6.446312   7.381938
    24  H    6.452342   8.527477   7.797994   6.147789   7.317814
    25  H    4.393861   5.156241   5.624911   3.239564   3.775493
    26  H    3.886943   3.955602   4.657520   2.959642   3.010224
    27  H    4.955871   5.640341   5.932695   4.178554   4.601903
    28  H    4.853611   5.098282   5.884535   3.688288   3.862758
    29  H    7.540389   9.296589   8.690209   7.265237   8.232337
    30  H    8.302327  10.308768   9.544905   8.073336   9.170812
    31  H    7.009389   9.180030   8.158592   7.006978   8.176298
                    6          7          8          9         10
     6  C    0.000000
     7  C    4.331253   0.000000
     8  C    5.097020   1.541144   0.000000
     9  C    6.504608   2.473513   1.512012   0.000000
    10  O    7.243859   3.623562   2.362631   1.361574   0.000000
    11  C    8.603543   4.772734   3.683585   2.348981   1.433045
    12  O    5.020675   1.430165   2.451702   3.017334   4.343551
    13  C    5.425561   2.576981   1.527215   2.467791   3.084299
    14  O    7.102990   2.796079   2.424713   1.225185   2.296556
    15  C    9.445329   5.982307   4.739340   3.643752   2.389203
    16  H    3.393932   2.734131   3.280670   4.211040   4.746942
    17  H    2.153948   4.707233   5.501929   6.920642   7.839556
    18  H    2.152185   4.684498   5.286947   6.487441   6.974924
    19  H    3.396408   2.773150   3.618239   4.854386   5.949733
    20  H    1.086640   5.417878   6.146313   7.567134   8.258330
    21  H    4.769540   1.098444   2.181625   2.599651   3.692513
    22  H    4.864787   2.162002   1.098021   2.116543   2.419676
    23  H    9.090528   5.077508   4.016813   2.629629   2.076784
    24  H    8.737652   4.832112   4.031259   2.632913   2.076566
    25  H    5.939859   1.944332   2.630041   2.660662   4.019013
    26  H    4.686429   2.857660   2.178578   3.436073   4.022326
    27  H    6.230645   3.520147   2.170714   2.704597   2.832367
    28  H    5.987033   2.861186   2.184580   2.734960   3.562513
    29  H    9.502421   6.226532   4.828998   3.928976   2.643556
    30  H   10.476982   6.879984   5.710686   4.488098   3.349350
    31  H    9.172060   6.032108   4.841122   3.931394   2.643623
                   11         12         13         14         15
    11  C    0.000000
    12  O    5.299339   0.000000
    13  C    4.334752   2.907708   0.000000
    14  O    2.674897   2.852943   3.252580   0.000000
    15  C    1.516119   6.658102   5.258422   4.167296   0.000000
    16  H    5.924656   4.054609   4.464173   4.851348   6.723339
    17  H    9.185032   4.819353   5.344284   7.362348  10.164401
    18  H    8.245491   5.782482   6.053305   7.182076   8.904853
    19  H    7.179823   2.485603   3.435873   5.115155   8.326450
    20  H    9.629540   6.076404   6.406222   8.187203  10.414011
    21  H    4.659789   2.029698   3.504794   2.712800   5.896876
    22  H    3.825743   3.378411   2.156984   3.211267   4.604953
    23  H    1.095740   5.323007   4.387633   2.648425   2.149917
    24  H    1.095720   5.364840   4.956512   2.651542   2.150056
    25  H    4.755061   0.978045   3.172674   2.140849   6.196959
    26  H    5.345027   3.232897   1.093932   4.228284   6.175972
    27  H    4.000701   3.929697   1.095889   3.622980   4.676463
    28  H    4.593944   2.629606   1.095398   3.128789   5.669492
    29  H    2.160182   6.874452   5.044441   4.595474   1.095040
    30  H    2.162820   7.461163   6.226442   4.794072   1.093553
    31  H    2.160221   6.906607   5.537887   4.597450   1.095035
                   16         17         18         19         20
    16  H    0.000000
    17  H    4.961014   0.000000
    18  H    2.465363   4.294925   0.000000
    19  H    4.316130   2.466389   4.962291   0.000000
    20  H    4.289022   2.481239   2.480114   4.291005   0.000000
    21  H    2.513756   5.430510   4.731099   3.668980   5.833960
    22  H    2.763654   5.635327   4.709984   4.154123   5.856101
    23  H    6.639805   9.434223   8.954011   7.276690  10.137223
    24  H    5.825849   9.435017   8.236850   7.430343   9.772066
    25  H    4.568875   5.795985   6.528449   3.435211   7.006343
    26  H    4.387532   4.478966   5.553377   2.901339   5.595574
    27  H    5.112017   6.232484   6.699848   4.478225   7.164266
    28  H    5.199290   5.579265   6.821274   3.398759   6.977082
    29  H    7.055019  10.107393   9.097534   8.321793  10.443046
    30  H    7.670409  11.181362   9.902116   9.269648  11.456880
    31  H    6.310044  10.108489   8.406419   8.454379  10.095921
                   21         22         23         24         25
    21  H    0.000000
    22  H    2.580256   0.000000
    23  H    5.077255   4.398123   0.000000
    24  H    4.473075   4.173982   1.792160   0.000000
    25  H    2.207757   3.635975   4.675308   4.750585   0.000000
    26  H    3.895278   2.519443   5.460656   5.948632   3.765333
    27  H    4.327556   2.488216   4.030043   4.813059   4.049809
    28  H    3.782352   3.081170   4.400807   5.185164   2.754168
    29  H    6.326037   4.679876   2.497179   3.064227   6.488417
    30  H    6.718880   5.645237   2.499468   2.499745   6.903244
    31  H    5.861552   4.474153   3.064162   2.497303   6.542147
                   26         27         28         29         30
    26  H    0.000000
    27  H    1.766296   0.000000
    28  H    1.775494   1.761445   0.000000
    29  H    5.905389   4.274546   5.476579   0.000000
    30  H    7.184824   5.648709   6.533811   1.780130   0.000000
    31  H    6.351641   5.007206   6.113723   1.759371   1.780119
                   31
    31  H    0.000000
 Stoichiometry    C12H16O3
 Framework group  C1[X(C12H16O3)]
 Deg. of freedom    87
 Full point group                 C1      NOp   1
 Largest Abelian subgroup         C1      NOp   1
 Largest concise Abelian subgroup C1      NOp   1
                         Standard orientation:                         
 ---------------------------------------------------------------------
 Center     Atomic      Atomic             Coordinates (Angstroms)
 Number     Number       Type             X           Y           Z
 ---------------------------------------------------------------------
      1          6           0        2.211158    1.245155   -0.757858
      2          6           0        4.105880   -0.254529    0.630085
      3          6           0        3.469142    1.786512   -0.484803
      4          6           0        1.882782   -0.055528   -0.340240
      5          6           0        2.848300   -0.796584    0.357672
      6          6           0        4.415618    1.036682    0.209542
      7          6           0        0.499566   -0.612093   -0.630592
      8          6           0       -0.550176   -0.100459    0.375091
      9          6           0       -1.923482   -0.362385   -0.200762
     10          8           0       -2.812900    0.566887    0.245637
     11          6           0       -4.151585    0.380832   -0.230730
     12          8           0        0.543181   -2.041480   -0.648553
     13          6           0       -0.468142   -0.752538    1.753658
     14          8           0       -2.193358   -1.293355   -0.950121
     15          6           0       -5.018232    1.479827    0.352150
     16          1           0        1.487688    1.846788   -1.303640
     17          1           0        4.843227   -0.844003    1.168536
     18          1           0        3.711465    2.792878   -0.816052
     19          1           0        2.623972   -1.808292    0.690908
     20          1           0        5.395530    1.456363    0.420322
     21          1           0        0.233428   -0.303865   -1.650762
     22          1           0       -0.441455    0.987227    0.478870
     23          1           0       -4.526169   -0.596851    0.092486
     24          1           0       -4.165470    0.439000   -1.324817
     25          1           0       -0.323997   -2.335940   -0.991870
     26          1           0        0.500059   -0.564018    2.226663
     27          1           0       -1.243094   -0.351762    2.416834
     28          1           0       -0.621371   -1.835845    1.700140
     29          1           0       -4.996970    1.447861    1.446517
     30          1           0       -6.053949    1.379849    0.015772
     31          1           0       -4.643255    2.464845    0.055109
 ---------------------------------------------------------------------
 Rotational constants (GHZ):      1.3726091      0.2713870      0.2518131
 Standard basis: 6-31+G(d,p) (6D, 7F)
 There are   365 symmetry adapted basis functions of A   symmetry.
 Integral buffers will be    131072 words long.
 Raffenetti 2 integral format.
 Two-electron integral symmetry is turned on.
   365 basis functions,   592 primitive gaussians,   365 cartesian basis functions
    56 alpha electrons       56 beta electrons
       nuclear repulsion energy       986.8376924025 Hartrees.
 NAtoms=   31 NActive=   31 NUniq=   31 SFac= 1.00D+00 NAtFMM=   60 NAOKFM=F Big=F
 Nuclear repulsion after empirical dispersion term =      986.8176403180 Hartrees.
 ------------------------------------------------------------------------------
 Polarizable Continuum Model (PCM)
 =================================
 Model                : C-PCM.
 Atomic radii         : SMD-Coulomb.
 Polarization charges : Total charges.
 Charge compensation  : None.
 Solution method      : Matrix inversion.
 Cavity type          : VdW (van der Waals Surface) (Alpha=1.000).
 Cavity algorithm     : GePol (No added spheres)
                        Default sphere list used, NSphG=   31.
                        Lebedev-Laikov grids with approx.  5.0 points / Ang**2.
                        Smoothing algorithm: Karplus/York (Gamma=1.0000).
                        Polarization charges: spherical gaussians, with
                                              point-specific exponents (IZeta= 3).
                        Self-potential: point-specific (ISelfS= 7).
                        Self-field    : sphere-specific E.n sum rule (ISelfD= 2).
 Solvent              : Chloroform, Eps=   4.711300 Eps(inf)=   2.090627
 ------------------------------------------------------------------------------
 ------------------------------------------------------------------------------
 Atomic radii for non-electrostatic terms: SMD-CDS.
 ------------------------------------------------------------------------------
 Nuclear repulsion after PCM non-electrostatic terms =      986.8109538558 Hartrees.
 One-electron integrals computed using PRISM.
 NBasis=   365 RedAO= T  NBF=   365
 NBsUse=   365 1.00D-06 NBFU=   365
 Harris functional with IExCor= 4639 diagonalized for initial guess.
 ExpMin= 4.38D-02 ExpMax= 5.48D+03 ExpMxC= 8.25D+02 IAcc=2 IRadAn=         4 AccDes= 0.00D+00
 HarFok:  IExCor= 4639 AccDes= 0.00D+00 IRadAn=         4 IDoV= 1
 ScaDFX=  1.000000  1.000000  1.000000  1.000000
 FoFCou: FMM=F IPFlag=           0 FMFlag=      100000 FMFlg1=           0
         NFxFlg=           0 DoJE=T BraDBF=F KetDBF=T FulRan=T
         Omega=  0.000000  0.000000  1.000000  0.000000  0.000000 ICntrl=     500 IOpCl=  0
         NMat0=    1 NMatS0=    1 NMatT0=    0 NMatD0=    1 NMtDS0=    0 NMtDT0=    0
         I1Cent=           4 NGrid=           0.
 Petite list used in FoFCou.
 Initial guess orbital symmetries:
       Occupied  (A) (A) (A) (A) (A) (A) (A) (A) (A) (A) (A) (A)
                 (A) (A) (A) (A) (A) (A) (A) (A) (A) (A) (A) (A)
                 (A) (A) (A) (A) (A) (A) (A) (A) (A) (A) (A) (A)
                 (A) (A) (A) (A) (A) (A) (A) (A) (A) (A) (A) (A)
                 (A) (A) (A) (A) (A) (A) (A) (A)
       Virtual   (A) (A) (A) (A) (A) (A) (A) (A) (A) (A) (A) (A)
                 (A) (A) (A) (A) (A) (A) (A) (A) (A) (A) (A) (A)
                 (A) (A) (A) (A) (A) (A) (A) (A) (A) (A) (A) (A)
                 (A) (A) (A) (A) (A) (A) (A) (A) (A) (A) (A) (A)
                 (A) (A) (A) (A) (A) (A) (A) (A) (A) (A) (A) (A)
                 (A) (A) (A) (A) (A) (A) (A) (A) (A) (A) (A) (A)
                 (A) (A) (A) (A) (A) (A) (A) (A) (A) (A) (A) (A)
                 (A) (A) (A) (A) (A) (A) (A) (A) (A) (A) (A) (A)
                 (A) (A) (A) (A) (A) (A) (A) (A) (A) (A) (A) (A)
                 (A) (A) (A) (A) (A) (A) (A) (A) (A) (A) (A) (A)
                 (A) (A) (A) (A) (A) (A) (A) (A) (A) (A) (A) (A)
                 (A) (A) (A) (A) (A) (A) (A) (A) (A) (A) (A) (A)
                 (A) (A) (A) (A) (A) (A) (A) (A) (A) (A) (A) (A)
                 (A) (A) (A) (A) (A) (A) (A) (A) (A) (A) (A) (A)
                 (A) (A) (A) (A) (A) (A) (A) (A) (A) (A) (A) (A)
                 (A) (A) (A) (A) (A) (A) (A) (A) (A) (A) (A) (A)
                 (A) (A) (A) (A) (A) (A) (A) (A) (A) (A) (A) (A)
                 (A) (A) (A) (A) (A) (A) (A) (A) (A) (A) (A) (A)
                 (A) (A) (A) (A) (A) (A) (A) (A) (A) (A) (A) (A)
                 (A) (A) (A) (A) (A) (A) (A) (A) (A) (A) (A) (A)
                 (A) (A) (A) (A) (A) (A) (A) (A) (A) (A) (A) (A)
                 (A) (A) (A) (A) (A) (A) (A) (A) (A) (A) (A) (A)
                 (A) (A) (A) (A) (A) (A) (A) (A) (A) (A) (A) (A)
                 (A) (A) (A) (A) (A) (A) (A) (A) (A) (A) (A) (A)
                 (A) (A) (A) (A) (A) (A) (A) (A) (A) (A) (A) (A)
                 (A) (A) (A) (A) (A) (A) (A) (A) (A)
 The electronic state of the initial guess is 1-A.
 Requested convergence on RMS density matrix=1.00D-08 within 128 cycles.
 Requested convergence on MAX density matrix=1.00D-06.
 Requested convergence on             energy=1.00D-06.
 No special actions if energy rises.
 FoFJK:  IHMeth= 1 ICntrl=     0 DoSepK=T KAlg= 1 I1Cent= 0 FoldK=F
 FoFJK:  IHMeth= 1 ICntrl=     0 DoSepK=T KAlg= 1 I1Cent= 0 FoldK=F
 FoFJK:  IHMeth= 1 ICntrl=     0 DoSepK=T KAlg= 1 I1Cent= 0 FoldK=F
 FoFJK:  IHMeth= 1 ICntrl=     0 DoSepK=T KAlg= 1 I1Cent= 0 FoldK=F
 FoFJK:  IHMeth= 1 ICntrl=     0 DoSepK=T KAlg= 1 I1Cent= 0 FoldK=F
 FoFJK:  IHMeth= 1 ICntrl=     0 DoSepK=T KAlg= 1 I1Cent= 0 FoldK=F
 FoFJK:  IHMeth= 1 ICntrl=     0 DoSepK=T KAlg= 1 I1Cent= 0 FoldK=F
 FoFJK:  IHMeth= 1 ICntrl=     0 DoSepK=T KAlg= 1 I1Cent= 0 FoldK=F
 FoFJK:  IHMeth= 1 ICntrl=     0 DoSepK=T KAlg= 1 I1Cent= 0 FoldK=F
 FoFJK:  IHMeth= 1 ICntrl=     0 DoSepK=T KAlg= 1 I1Cent= 0 FoldK=F
 FoFJK:  IHMeth= 1 ICntrl=     0 DoSepK=T KAlg= 1 I1Cent= 0 FoldK=F
 FoFJK:  IHMeth= 1 ICntrl=     0 DoSepK=T KAlg= 1 I1Cent= 0 FoldK=F
 FoFJK:  IHMeth= 1 ICntrl=     0 DoSepK=T KAlg= 1 I1Cent= 0 FoldK=F
 FoFJK:  IHMeth= 1 ICntrl=     0 DoSepK=T KAlg= 1 I1Cent= 0 FoldK=F
 FoFJK:  IHMeth= 1 ICntrl=     0 DoSepK=T KAlg= 1 I1Cent= 0 FoldK=F
 FoFJK:  IHMeth= 1 ICntrl=     0 DoSepK=T KAlg= 1 I1Cent= 0 FoldK=F
 Error on total polarization charges =  0.04105
 SCF Done:  E(RwB97XD) =  -692.447421167     A.U. after   16 cycles
             Convg  =    0.3342D-08             -V/T =  2.0095
 SMD-CDS (non-electrostatic) energy       (kcal/mol) =      -4.20
 (included in total energy above)
 Range of M.O.s used for correlation:     1   365
 NBasis=   365 NAE=    56 NBE=    56 NFC=     0 NFV=     0
 NROrb=    365 NOA=    56 NOB=    56 NVA=   309 NVB=   309

 **** Warning!!: The largest alpha MO coefficient is  0.11990548D+03

 NEqPCM:  Using equilibrium solvation (IEInf=0, Eps=   4.7113, EpsInf=   2.0906)
          Differentiating once with respect to magnetic field using GIAOs.
          Electric field/nuclear overlap derivatives assumed to be zero.
 FoFCou: FMM=F IPFlag=           0 FMFlag=    10101102 FMFlg1=           0
         NFxFlg=    40000000 DoJE=F BraDBF=F KetDBF=T FulRan=T
         Omega=  0.000000  0.000000  1.000000  0.000000  0.000000 ICntrl=    6100 IOpCl=  0
         NMat0=    1 NMatS0=    1 NMatT0=    0 NMatD0=    1 NMtDS0=    0 NMtDT0=    0
         I1Cent=           7 NGrid=        2246.
 Symmetry not used in FoFCou.
 FoFJK:  IHMeth= 1 ICntrl=  6127 DoSepK=T KAlg= 1 I1Cent= 0 FoldK=F
 FoFJK:  IHMeth= 1 ICntrl=     0 DoSepK=T KAlg= 1 I1Cent= 0 FoldK=F
          There are     3 degrees of freedom in the 1st order CPHF.  IDoFFX=0.
      3 vectors produced by pass  0 Test12= 5.77D-13 3.33D-08 XBig12= 1.32D+02 1.53D+00.
 AX will form     3 AO Fock derivatives at one time.
 FoFJK:  IHMeth= 1 ICntrl=     0 DoSepK=T KAlg= 1 I1Cent= 0 FoldK=F
      3 vectors produced by pass  1 Test12= 5.77D-13 3.33D-08 XBig12= 9.13D-01 2.70D-01.
 FoFJK:  IHMeth= 1 ICntrl=     0 DoSepK=T KAlg= 1 I1Cent= 0 FoldK=F
      3 vectors produced by pass  2 Test12= 5.77D-13 3.33D-08 XBig12= 1.78D-02 5.35D-02.
 FoFJK:  IHMeth= 1 ICntrl=     0 DoSepK=T KAlg= 1 I1Cent= 0 FoldK=F
      3 vectors produced by pass  3 Test12= 5.77D-13 3.33D-08 XBig12= 2.94D-04 5.45D-03.
 FoFJK:  IHMeth= 1 ICntrl=     0 DoSepK=T KAlg= 1 I1Cent= 0 FoldK=F
      3 vectors produced by pass  4 Test12= 5.77D-13 3.33D-08 XBig12= 4.05D-06 5.14D-04.
 FoFJK:  IHMeth= 1 ICntrl=     0 DoSepK=T KAlg= 1 I1Cent= 0 FoldK=F
      3 vectors produced by pass  5 Test12= 5.77D-13 3.33D-08 XBig12= 6.00D-08 4.96D-05.
 FoFJK:  IHMeth= 1 ICntrl=     0 DoSepK=T KAlg= 1 I1Cent= 0 FoldK=F
      3 vectors produced by pass  6 Test12= 5.77D-13 3.33D-08 XBig12= 7.59D-10 7.48D-06.
 FoFJK:  IHMeth= 1 ICntrl=     0 DoSepK=T KAlg= 1 I1Cent= 0 FoldK=F
      3 vectors produced by pass  7 Test12= 5.77D-13 3.33D-08 XBig12= 8.61D-12 6.60D-07.
 FoFJK:  IHMeth= 1 ICntrl=     0 DoSepK=T KAlg= 1 I1Cent= 0 FoldK=F
      2 vectors produced by pass  8 Test12= 5.77D-13 3.33D-08 XBig12= 9.73D-14 7.09D-08.
 FoFJK:  IHMeth= 1 ICntrl=     0 DoSepK=T KAlg= 1 I1Cent= 0 FoldK=F
 Inverted reduced A of dimension    26 with in-core refinement.
 Calculating GIAO nuclear magnetic shielding tensors.
 SCF GIAO Magnetic shielding tensor (ppm):
      1  C    Isotropic =    71.7211   Anisotropy =   165.6260
   XX=    34.4623   YX=    10.6824   ZX=   -62.8698
   XY=    21.3002   YY=    50.8574   ZY=    62.4938
   XZ=   -60.3600   YZ=    68.2277   ZZ=   129.8436
   Eigenvalues:   -25.6897    58.7146   182.1385
      2  C    Isotropic =    70.3621   Anisotropy =   175.3965
   XX=    31.3229   YX=    16.0478   ZX=   -69.3158
   XY=    17.1669   YY=    48.2096   ZY=    64.8417
   XZ=   -69.8594   YZ=    66.4354   ZZ=   131.5537
   Eigenvalues:   -33.3981    57.1913   187.2931
      3  C    Isotropic =    70.4680   Anisotropy =   173.8298
   XX=    68.9648   YX=   -33.9878   ZX=   -32.6650
   XY=   -34.6460   YY=    -2.5486   ZY=    66.5394
   XZ=   -31.7405   YZ=    67.1995   ZZ=   144.9879
   Eigenvalues:   -32.8336    57.8831   186.3546
      4  C    Isotropic =    53.9127   Anisotropy =   181.8347
   XX=    -4.2636   YX=   -41.7905   ZX=   -54.1142
   XY=   -41.6101   YY=    40.4860   ZY=    44.3767
   XZ=   -59.2199   YZ=    55.1956   ZZ=   125.5157
   Eigenvalues:   -34.1455    20.7477   175.1359
      5  C    Isotropic =    72.6350   Anisotropy =   183.5836
   XX=    65.5057   YX=   -31.5372   ZX=   -39.5331
   XY=   -27.8869   YY=    -0.9400   ZY=    68.7006
   XZ=   -32.3891   YZ=    69.6680   ZZ=   153.3392
   Eigenvalues:   -29.9939    52.8748   195.0240
      6  C    Isotropic =    72.3464   Anisotropy =   174.4104
   XX=     3.8135   YX=   -45.0306   ZX=   -54.4204
   XY=   -47.7423   YY=    61.3980   ZY=    34.9263
   XZ=   -57.2331   YZ=    33.0329   ZZ=   151.8279
   Eigenvalues:   -28.8049    57.2242   188.6200
      7  C    Isotropic =   122.0715   Anisotropy =    37.5178
   XX=   116.3913   YX=     9.5223   ZX=    -3.1467
   XY=     0.0809   YY=   146.2498   ZY=     0.8076
   XZ=    -2.4658   YZ=    -3.7048   ZZ=   103.5733
   Eigenvalues:   102.9813   116.1498   147.0834
      8  C    Isotropic =   147.7629   Anisotropy =    34.9293
   XX=   169.4630   YX=    -7.1660   ZX=    -7.4804
   XY=     2.0147   YY=   143.9312   ZY=     3.0784
   XZ=    -7.1031   YZ=    -0.2969   ZZ=   129.8945
   Eigenvalues:   128.5383   143.7012   171.0491
      9  C    Isotropic =    14.1735   Anisotropy =   108.0007
   XX=   -43.3000   YX=    34.4946   ZX=    -6.7568
   XY=    62.6640   YY=    19.6912   ZY=   -29.9080
   XZ=     7.8221   YZ=   -32.6902   ZZ=    66.1291
   Eigenvalues:   -71.5091    27.8556    86.1739
     10  O    Isotropic =   131.4849   Anisotropy =   169.3534
   XX=   118.7850   YX=   -48.8905   ZX=   -58.4733
   XY=  -156.4269   YY=   152.7767   ZY=   -79.7766
   XZ=  -141.8095   YZ=   -48.0939   ZZ=   122.8929
   Eigenvalues:   -49.2194   199.2869   244.3871
     11  C    Isotropic =   136.6155   Anisotropy =    59.2010
   XX=   170.0400   YX=     8.1902   ZX=    20.2645
   XY=     0.5443   YY=   118.2277   ZY=     2.9553
   XZ=    14.3433   YZ=     4.9530   ZZ=   121.5788
   Eigenvalues:   114.3150   119.4486   176.0828
     12  O    Isotropic =   304.8213   Anisotropy =    70.3240
   XX=   336.0542   YX=    26.5639   ZX=    17.6898
   XY=    15.2770   YY=   298.4797   ZY=    12.5381
   XZ=    15.0134   YZ=    18.0770   ZZ=   279.9300
   Eigenvalues:   270.9628   291.7972   351.7040
     13  C    Isotropic =   186.8025   Anisotropy =    18.3619
   XX=   184.2077   YX=    -3.2617   ZX=     2.7765
   XY=    -3.7910   YY=   181.3791   ZY=    -7.9855
   XZ=     1.9051   YZ=    -7.0069   ZZ=   194.8207
   Eigenvalues:   177.2264   184.1374   199.0437
     14  O    Isotropic =   -27.8106   Anisotropy =   523.7274
   XX=  -129.9268   YX=    70.2455   ZX=   -68.9560
   XY=    89.7907   YY=   -73.7948   ZY=  -265.2122
   XZ=   -46.7970   YZ=  -257.4466   ZZ=   120.2897
   Eigenvalues:  -264.4629  -140.3100   321.3410
     15  C    Isotropic =   182.5350   Anisotropy =    23.1522
   XX=   189.2301   YX=    -6.1606   ZX=     0.8453
   XY=   -12.0030   YY=   183.9601   ZY=     8.2866
   XZ=    -3.3896   YZ=     9.7436   ZZ=   174.4147
   Eigenvalues:   168.2531   181.3820   197.9698
     16  H    Isotropic =    23.9099   Anisotropy =     8.7450
   XX=    25.5798   YX=     4.2293   ZX=    -0.3910
   XY=     3.7685   YY=    25.3431   ZY=    -1.8669
   XZ=    -0.2475   YZ=    -1.9583   ZZ=    20.8070
   Eigenvalues:    19.7723    22.2176    29.7400
     17  H    Isotropic =    23.7261   Anisotropy =     5.0271
   XX=    25.5747   YX=     1.9414   ZX=     0.9533
   XY=     1.9220   YY=    24.5941   ZY=    -0.9944
   XZ=     0.8186   YZ=    -1.1817   ZZ=    21.0095
   Eigenvalues:    20.3035    23.7972    27.0775
     18  H    Isotropic =    23.8236   Anisotropy =     4.9199
   XX=    26.3646   YX=     0.6432   ZX=     1.9473
   XY=     0.9013   YY=    23.3664   ZY=    -1.2061
   XZ=     1.9351   YZ=    -1.0907   ZZ=    21.7398
   Eigenvalues:    20.4177    23.9496    27.1036
     19  H    Isotropic =    23.3723   Anisotropy =    10.2215
   XX=    29.0192   YX=    -0.8701   ZX=     3.5344
   XY=    -0.2939   YY=    21.0436   ZY=    -0.7742
   XZ=     3.1660   YZ=    -0.1672   ZZ=    20.0540
   Eigenvalues:    18.9073    21.0229    30.1866
     20  H    Isotropic =    23.8568   Anisotropy =     4.0666
   XX=    24.4016   YX=     0.0602   ZX=     1.3520
   XY=     0.0701   YY=    25.3008   ZY=    -2.2072
   XZ=     1.1932   YZ=    -2.3416   ZZ=    21.8680
   Eigenvalues:    20.3911    24.6114    26.5679
     21  H    Isotropic =    26.2628   Anisotropy =     5.8686
   XX=    24.2552   YX=     0.4971   ZX=    -0.0172
   XY=     2.1419   YY=    27.4353   ZY=    -3.6187
   XZ=     1.5255   YZ=    -2.1180   ZZ=    27.0980
   Eigenvalues:    22.8546    25.7587    30.1752
     22  H    Isotropic =    28.9141   Anisotropy =     5.5167
   XX=    30.5616   YX=     0.1429   ZX=    -0.0225
   XY=    -1.9832   YY=    32.1745   ZY=    -0.7851
   XZ=    -3.5641   YZ=    -0.9434   ZZ=    24.0062
   Eigenvalues:    23.4172    30.7332    32.5919
     23  H    Isotropic =    27.5143   Anisotropy =     6.3811
   XX=    30.7020   YX=     2.2503   ZX=    -0.5587
   XY=     0.8089   YY=    29.4705   ZY=    -0.0827
   XZ=    -0.9009   YZ=     0.2535   ZZ=    22.3705
   Eigenvalues:    22.3002    28.4744    31.7684
     24  H    Isotropic =    27.4785   Anisotropy =     6.2735
   XX=    28.5245   YX=    -2.0317   ZX=     2.9582
   XY=    -2.7874   YY=    23.9234   ZY=     1.0426
   XZ=     1.5258   YZ=     1.1125   ZZ=    29.9875
   Eigenvalues:    22.4060    28.3686    31.6608
     25  H    Isotropic =    27.6887   Anisotropy =    20.2958
   XX=    36.3020   YX=     3.6788   ZX=     6.8143
   XY=     4.9769   YY=    27.1746   ZY=     4.8725
   XZ=     7.2111   YZ=     4.6029   ZZ=    19.5896
   Eigenvalues:    16.1201    25.7269    41.2193
     26  H    Isotropic =    30.5816   Anisotropy =     8.6173
   XX=    34.4999   YX=     1.6888   ZX=     3.1549
   XY=    -0.4314   YY=    24.4036   ZY=     0.7233
   XZ=     1.8706   YZ=    -1.2949   ZZ=    32.8414
   Eigenvalues:    24.3400    31.0784    36.3265
     27  H    Isotropic =    30.6726   Anisotropy =     9.9041
   XX=    31.6031   YX=    -2.5490   ZX=    -3.3592
   XY=    -3.0148   YY=    26.6514   ZY=     0.5931
   XZ=    -4.4704   YZ=     1.0447   ZZ=    33.7633
   Eigenvalues:    25.2898    29.4527    37.2753
     28  H    Isotropic =    30.0960   Anisotropy =     7.5049
   XX=    26.8680   YX=     0.9892   ZX=    -1.1424
   XY=    -0.0067   YY=    34.1128   ZY=    -1.4986
   XZ=    -1.2508   YZ=    -2.9964   ZZ=    29.3073
   Eigenvalues:    26.3541    28.8348    35.0993
     29  H    Isotropic =    30.3309   Anisotropy =     8.2100
   XX=    28.5469   YX=    -1.7693   ZX=    -1.8405
   XY=    -1.3140   YY=    27.3970   ZY=     1.5977
   XZ=    -1.7800   YZ=     0.7670   ZZ=    35.0488
   Eigenvalues:    26.3261    28.8624    35.8042
     30  H    Isotropic =    30.3743   Anisotropy =    10.8749
   XX=    37.1597   YX=    -1.1429   ZX=     2.0288
   XY=    -1.5680   YY=    27.1857   ZY=     0.4385
   XZ=     1.6330   YZ=     0.5400   ZZ=    26.7776
   Eigenvalues:    25.9879    27.5109    37.6243
     31  H    Isotropic =    30.3243   Anisotropy =     8.4346
   XX=    28.4907   YX=    -0.2735   ZX=    -0.9831
   XY=     0.2360   YY=    35.7164   ZY=    -1.7253
   XZ=    -0.6452   YZ=    -1.1769   ZZ=    26.7659
   Eigenvalues:    26.2462    28.7795    35.9474
 End of Minotr Frequency-dependent properties file   721 does not exist.
 End of Minotr Frequency-dependent properties file   722 does not exist.

 **********************************************************************

            Population analysis using the SCF density.

 **********************************************************************

 Orbital symmetries:
       Occupied  (A) (A) (A) (A) (A) (A) (A) (A) (A) (A) (A) (A)
                 (A) (A) (A) (A) (A) (A) (A) (A) (A) (A) (A) (A)
                 (A) (A) (A) (A) (A) (A) (A) (A) (A) (A) (A) (A)
                 (A) (A) (A) (A) (A) (A) (A) (A) (A) (A) (A) (A)
                 (A) (A) (A) (A) (A) (A) (A) (A)
       Virtual   (A) (A) (A) (A) (A) (A) (A) (A) (A) (A) (A) (A)
                 (A) (A) (A) (A) (A) (A) (A) (A) (A) (A) (A) (A)
                 (A) (A) (A) (A) (A) (A) (A) (A) (A) (A) (A) (A)
                 (A) (A) (A) (A) (A) (A) (A) (A) (A) (A) (A) (A)
                 (A) (A) (A) (A) (A) (A) (A) (A) (A) (A) (A) (A)
                 (A) (A) (A) (A) (A) (A) (A) (A) (A) (A) (A) (A)
                 (A) (A) (A) (A) (A) (A) (A) (A) (A) (A) (A) (A)
                 (A) (A) (A) (A) (A) (A) (A) (A) (A) (A) (A) (A)
                 (A) (A) (A) (A) (A) (A) (A) (A) (A) (A) (A) (A)
                 (A) (A) (A) (A) (A) (A) (A) (A) (A) (A) (A) (A)
                 (A) (A) (A) (A) (A) (A) (A) (A) (A) (A) (A) (A)
                 (A) (A) (A) (A) (A) (A) (A) (A) (A) (A) (A) (A)
                 (A) (A) (A) (A) (A) (A) (A) (A) (A) (A) (A) (A)
                 (A) (A) (A) (A) (A) (A) (A) (A) (A) (A) (A) (A)
                 (A) (A) (A) (A) (A) (A) (A) (A) (A) (A) (A) (A)
                 (A) (A) (A) (A) (A) (A) (A) (A) (A) (A) (A) (A)
                 (A) (A) (A) (A) (A) (A) (A) (A) (A) (A) (A) (A)
                 (A) (A) (A) (A) (A) (A) (A) (A) (A) (A) (A) (A)
                 (A) (A) (A) (A) (A) (A) (A) (A) (A) (A) (A) (A)
                 (A) (A) (A) (A) (A) (A) (A) (A) (A) (A) (A) (A)
                 (A) (A) (A) (A) (A) (A) (A) (A) (A) (A) (A) (A)
                 (A) (A) (A) (A) (A) (A) (A) (A) (A) (A) (A) (A)
                 (A) (A) (A) (A) (A) (A) (A) (A) (A) (A) (A) (A)
                 (A) (A) (A) (A) (A) (A) (A) (A) (A) (A) (A) (A)
                 (A) (A) (A) (A) (A) (A) (A) (A) (A) (A) (A) (A)
                 (A) (A) (A) (A) (A) (A) (A) (A) (A)
 The electronic state is 1-A.
 Alpha  occ. eigenvalues --  -19.33334 -19.28518 -19.27484 -10.44477 -10.35865
 Alpha  occ. eigenvalues --  -10.35274 -10.31940 -10.31545 -10.30648 -10.30547
 Alpha  occ. eigenvalues --  -10.30450 -10.30332 -10.30311 -10.29235 -10.28993
 Alpha  occ. eigenvalues --   -1.21672  -1.13676  -1.12022  -0.96066  -0.91437
 Alpha  occ. eigenvalues --   -0.87155  -0.85240  -0.84529  -0.77950  -0.75809
 Alpha  occ. eigenvalues --   -0.71065  -0.69847  -0.67233  -0.65799  -0.60989
 Alpha  occ. eigenvalues --   -0.59807  -0.59193  -0.58520  -0.57541  -0.54842
 Alpha  occ. eigenvalues --   -0.53989  -0.52758  -0.51746  -0.50660  -0.50124
 Alpha  occ. eigenvalues --   -0.49281  -0.47725  -0.46484  -0.46029  -0.45783
 Alpha  occ. eigenvalues --   -0.44747  -0.43944  -0.43512  -0.43077  -0.42116
 Alpha  occ. eigenvalues --   -0.40879  -0.39271  -0.37004  -0.36293  -0.33076
 Alpha  occ. eigenvalues --   -0.32259
 Alpha virt. eigenvalues --    0.05183   0.05589   0.06215   0.06875   0.08020
 Alpha virt. eigenvalues --    0.08464   0.08796   0.09383   0.09826   0.10314
 Alpha virt. eigenvalues --    0.10689   0.11283   0.11318   0.11623   0.12620
 Alpha virt. eigenvalues --    0.13247   0.13446   0.13720   0.14405   0.15077
 Alpha virt. eigenvalues --    0.15657   0.16344   0.16779   0.17478   0.18693
 Alpha virt. eigenvalues --    0.18902   0.18983   0.19294   0.19693   0.19869
 Alpha virt. eigenvalues --    0.20362   0.21547   0.21772   0.22082   0.22878
 Alpha virt. eigenvalues --    0.23443   0.23834   0.24262   0.24462   0.24797
 Alpha virt. eigenvalues --    0.25804   0.26139   0.26370   0.26698   0.26910
 Alpha virt. eigenvalues --    0.27140   0.28040   0.28323   0.28715   0.29506
 Alpha virt. eigenvalues --    0.29847   0.29878   0.30473   0.30774   0.30980
 Alpha virt. eigenvalues --    0.31709   0.32072   0.32635   0.32700   0.33413
 Alpha virt. eigenvalues --    0.33973   0.34103   0.34445   0.35050   0.36086
 Alpha virt. eigenvalues --    0.36809   0.36889   0.37204   0.38055   0.38196
 Alpha virt. eigenvalues --    0.39150   0.39356   0.39783   0.40671   0.41107
 Alpha virt. eigenvalues --    0.42107   0.42397   0.43096   0.43672   0.43981
 Alpha virt. eigenvalues --    0.44449   0.45224   0.46099   0.47173   0.49133
 Alpha virt. eigenvalues --    0.49316   0.50058   0.51544   0.52790   0.54341
 Alpha virt. eigenvalues --    0.55581   0.56194   0.60472   0.66316   0.69947
 Alpha virt. eigenvalues --    0.73097   0.74727   0.75270   0.75964   0.76768
 Alpha virt. eigenvalues --    0.77101   0.77798   0.78464   0.79945   0.81277
 Alpha virt. eigenvalues --    0.81821   0.82333   0.83051   0.83544   0.83959
 Alpha virt. eigenvalues --    0.84110   0.84662   0.86431   0.88244   0.88979
 Alpha virt. eigenvalues --    0.89941   0.90791   0.91782   0.93590   0.95406
 Alpha virt. eigenvalues --    0.97635   0.98124   0.99646   1.01148   1.01930
 Alpha virt. eigenvalues --    1.02738   1.03110   1.04964   1.06193   1.06983
 Alpha virt. eigenvalues --    1.08229   1.08914   1.10202   1.10710   1.12497
 Alpha virt. eigenvalues --    1.13618   1.14570   1.16988   1.18400   1.18845
 Alpha virt. eigenvalues --    1.20303   1.20837   1.22009   1.23120   1.23818
 Alpha virt. eigenvalues --    1.25060   1.26375   1.27423   1.28844   1.30125
 Alpha virt. eigenvalues --    1.31532   1.32997   1.34823   1.35639   1.36375
 Alpha virt. eigenvalues --    1.38158   1.40209   1.42080   1.43177   1.43706
 Alpha virt. eigenvalues --    1.44612   1.46572   1.47036   1.48413   1.49318
 Alpha virt. eigenvalues --    1.50560   1.51077   1.51925   1.52642   1.54780
 Alpha virt. eigenvalues --    1.56398   1.58743   1.61466   1.63151   1.65700
 Alpha virt. eigenvalues --    1.66713   1.69699   1.71733   1.76225   1.76639
 Alpha virt. eigenvalues --    1.78280   1.80874   1.84189   1.85034   1.87769
 Alpha virt. eigenvalues --    1.89291   1.92079   1.93061   1.93357   1.94094
 Alpha virt. eigenvalues --    1.96373   1.96878   1.99479   2.00663   2.01282
 Alpha virt. eigenvalues --    2.02863   2.04204   2.04874   2.05622   2.06919
 Alpha virt. eigenvalues --    2.07529   2.08134   2.09406   2.10484   2.11100
 Alpha virt. eigenvalues --    2.11644   2.12986   2.13596   2.16834   2.17738
 Alpha virt. eigenvalues --    2.18560   2.19649   2.20033   2.20593   2.21466
 Alpha virt. eigenvalues --    2.22328   2.24726   2.27408   2.27651   2.28473
 Alpha virt. eigenvalues --    2.30697   2.36140   2.36743   2.38761   2.39814
 Alpha virt. eigenvalues --    2.41421   2.43170   2.45692   2.46011   2.48366
 Alpha virt. eigenvalues --    2.48797   2.49965   2.50928   2.52404   2.55374
 Alpha virt. eigenvalues --    2.56179   2.57161   2.59173   2.61430   2.62433
 Alpha virt. eigenvalues --    2.63977   2.65102   2.66449   2.68029   2.68649
 Alpha virt. eigenvalues --    2.69407   2.71659   2.73363   2.74223   2.74480
 Alpha virt. eigenvalues --    2.76691   2.77281   2.80881   2.82866   2.83175
 Alpha virt. eigenvalues --    2.84073   2.85354   2.86241   2.86913   2.89540
 Alpha virt. eigenvalues --    2.90373   2.91082   2.94123   2.94881   2.98469
 Alpha virt. eigenvalues --    2.99490   2.99900   3.02244   3.06847   3.07830
 Alpha virt. eigenvalues --    3.13739   3.15897   3.18259   3.20714   3.27926
 Alpha virt. eigenvalues --    3.28601   3.30447   3.36051   3.37291   3.38536
 Alpha virt. eigenvalues --    3.38884   3.43764   3.45171   3.48754   3.52636
 Alpha virt. eigenvalues --    3.54032   3.57197   3.58612   3.60256   3.62838
 Alpha virt. eigenvalues --    3.63321   3.65337   3.68961   3.99697   4.40462
 Alpha virt. eigenvalues --    4.40923   4.42941   4.46595   4.51425   4.54750
 Alpha virt. eigenvalues --    4.59361   4.60044   4.62436   4.65803   4.70457
 Alpha virt. eigenvalues --    4.77449   4.82370   4.94675   4.98231
          Condensed to atoms (all electrons):
              1          2          3          4          5          6
     1  C   15.805872   0.310139  -1.446076  -3.134228  -7.804878   0.228697
     2  C    0.310139   6.582162   0.074230   0.042309  -1.221953   0.375045
     3  C   -1.446076   0.074230   6.658325   0.166656   0.362925   0.337350
     4  C   -3.134228   0.042309   0.166656  13.395094  -1.200631  -0.517869
     5  C   -7.804878  -1.221953   0.362925  -1.200631  16.324571   0.167274
     6  C    0.228697   0.375045   0.337350  -0.517869   0.167274   5.288610
     7  C    2.281299  -0.342476  -0.277918  -3.007255  -1.148657   0.002334
     8  C   -0.876685   0.111898   0.180502   0.282313   0.701976  -0.049206
     9  C    0.360980  -0.024144  -0.005296  -0.470822  -0.244148   0.008651
    10  O   -0.010882   0.000031   0.000709   0.027318   0.000746   0.000005
    11  C    0.021860   0.000081   0.004094  -0.014289  -0.015749  -0.000112
    12  O   -0.035928   0.085285  -0.020580   0.202831  -0.175866  -0.000883
    13  C    0.056725   0.007183  -0.095652   0.162360  -0.020753   0.025939
    14  O   -0.026630   0.002209  -0.000936  -0.015304   0.035889  -0.000122
    15  C    0.000105   0.000053   0.000908   0.007878  -0.000602  -0.000014
    16  H    0.164142  -0.000661   0.015273   0.113531   0.040780  -0.009914
    17  H    0.002926   0.270075  -0.004387   0.022171   0.025749   0.016031
    18  H    0.036992  -0.005018   0.260590   0.012373   0.002744   0.023304
    19  H    0.042720  -0.015933  -0.006363   0.072364   0.233461  -0.000872
    20  H   -0.008193   0.029622   0.023212   0.009282  -0.002051   0.271678
    21  H    0.188558   0.005331   0.045249  -0.025634  -0.185300  -0.002887
    22  H   -0.087101   0.012029   0.003540   0.101788   0.051998  -0.002054
    23  H    0.000179   0.000004   0.000022   0.000349   0.000000  -0.000001
    24  H   -0.000139  -0.000006  -0.000037   0.000333  -0.000056   0.000002
    25  H   -0.007003  -0.008968   0.003544  -0.000814   0.025004   0.000015
    26  H    0.048311  -0.021238  -0.002931   0.017604  -0.058164   0.000187
    27  H   -0.005906  -0.002832  -0.001117  -0.002565   0.001532   0.000128
    28  H   -0.014788   0.012232  -0.001464  -0.022010   0.053298   0.001084
    29  H    0.000006   0.000000   0.000001   0.000013   0.000003   0.000000
    30  H    0.000009   0.000000   0.000001  -0.000001  -0.000003   0.000000
    31  H    0.000032   0.000000  -0.000001   0.000150  -0.000009   0.000000
              7          8          9         10         11         12
     1  C    2.281299  -0.876685   0.360980  -0.010882   0.021860  -0.035928
     2  C   -0.342476   0.111898  -0.024144   0.000031   0.000081   0.085285
     3  C   -0.277918   0.180502  -0.005296   0.000709   0.004094  -0.020580
     4  C   -3.007255   0.282313  -0.470822   0.027318  -0.014289   0.202831
     5  C   -1.148657   0.701976  -0.244148   0.000746  -0.015749  -0.175866
     6  C    0.002334  -0.049206   0.008651   0.000005  -0.000112  -0.000883
     7  C    8.967226  -1.349431   0.668546   0.031910  -0.025207   0.035382
     8  C   -1.349431   9.086701  -1.528578  -0.300362  -0.069492  -0.071897
     9  C    0.668546  -1.528578   6.524918   0.304169  -0.049008   0.008464
    10  O    0.031910  -0.300362   0.304169   8.491219  -0.016214  -0.002207
    11  C   -0.025207  -0.069492  -0.049008  -0.016214   5.325760   0.005191
    12  O    0.035382  -0.071897   0.008464  -0.002207   0.005191   8.391502
    13  C   -0.050905  -0.456856  -0.082982   0.004229   0.001031  -0.006843
    14  O    0.002646   0.076755   0.431223  -0.140060  -0.051349  -0.006580
    15  C   -0.007804  -0.029598   0.026843  -0.011220   0.118749   0.000667
    16  H   -0.022816   0.013900   0.004737  -0.000059  -0.000049   0.000416
    17  H   -0.006697   0.000265   0.000011   0.000000   0.000000   0.000082
    18  H   -0.004466   0.000023  -0.000023   0.000000  -0.000002   0.000020
    19  H   -0.003783  -0.005274  -0.003815   0.000004  -0.000056   0.000359
    20  H    0.002755  -0.000225  -0.000022   0.000000   0.000000  -0.000001
    21  H    0.276112   0.057892  -0.022049  -0.000511   0.000152  -0.056544
    22  H   -0.173095   0.494277  -0.111059  -0.005208  -0.000192   0.011416
    23  H   -0.000596   0.001896  -0.010643  -0.042516   0.395363   0.000000
    24  H    0.003369  -0.030898   0.006500  -0.041165   0.406979   0.000006
    25  H    0.031603  -0.019212   0.001179   0.000344   0.001921   0.218736
    26  H    0.061242  -0.094051  -0.002461  -0.000127  -0.000174  -0.005277
    27  H    0.036777  -0.206447   0.060893   0.008494   0.004572   0.000070
    28  H   -0.088188   0.019312  -0.045171  -0.000399  -0.001371   0.008602
    29  H    0.000119  -0.005780   0.001752  -0.002801  -0.060463   0.000000
    30  H    0.000083  -0.000315   0.002761   0.006639  -0.057306   0.000000
    31  H    0.000354  -0.004657   0.003621  -0.003496  -0.062786   0.000000
             13         14         15         16         17         18
     1  C    0.056725  -0.026630   0.000105   0.164142   0.002926   0.036992
     2  C    0.007183   0.002209   0.000053  -0.000661   0.270075  -0.005018
     3  C   -0.095652  -0.000936   0.000908   0.015273  -0.004387   0.260590
     4  C    0.162360  -0.015304   0.007878   0.113531   0.022171   0.012373
     5  C   -0.020753   0.035889  -0.000602   0.040780   0.025749   0.002744
     6  C    0.025939  -0.000122  -0.000014  -0.009914   0.016031   0.023304
     7  C   -0.050905   0.002646  -0.007804  -0.022816  -0.006697  -0.004466
     8  C   -0.456856   0.076755  -0.029598   0.013900   0.000265   0.000023
     9  C   -0.082982   0.431223   0.026843   0.004737   0.000011  -0.000023
    10  O    0.004229  -0.140060  -0.011220  -0.000059   0.000000   0.000000
    11  C    0.001031  -0.051349   0.118749  -0.000049   0.000000  -0.000002
    12  O   -0.006843  -0.006580   0.000667   0.000416   0.000082   0.000020
    13  C    5.787468  -0.068797  -0.012008  -0.000950  -0.000003   0.000132
    14  O   -0.068797   8.236622   0.014918  -0.000036   0.000000   0.000000
    15  C   -0.012008   0.014918   5.334273   0.000052   0.000000   0.000000
    16  H   -0.000950  -0.000036   0.000052   0.509680   0.000012  -0.003944
    17  H   -0.000003   0.000000   0.000000   0.000012   0.497936  -0.000123
    18  H    0.000132   0.000000   0.000000  -0.003944  -0.000123   0.497728
    19  H    0.005993   0.000020   0.000000  -0.000110  -0.004033   0.000011
    20  H   -0.000005   0.000000   0.000000  -0.000121  -0.003849  -0.003879
    21  H   -0.012737  -0.002628   0.000403   0.000985   0.000002  -0.000004
    22  H   -0.003097   0.008670  -0.000306   0.000057   0.000000   0.000002
    23  H   -0.001962   0.002684  -0.013063   0.000000   0.000000   0.000000
    24  H    0.001204   0.002870  -0.017236   0.000000   0.000000   0.000000
    25  H   -0.014788   0.019223   0.000042  -0.000003   0.000000   0.000000
    26  H    0.422461  -0.000066  -0.000192  -0.000005  -0.000008   0.000000
    27  H    0.463430  -0.000197   0.000979   0.000002   0.000000   0.000000
    28  H    0.433981   0.002914   0.000348   0.000000   0.000000   0.000000
    29  H    0.000113  -0.000100   0.430409   0.000000   0.000000   0.000000
    30  H   -0.000021   0.000112   0.414961   0.000000   0.000000   0.000000
    31  H    0.000117  -0.000085   0.429413   0.000000   0.000000   0.000000
             19         20         21         22         23         24
     1  C    0.042720  -0.008193   0.188558  -0.087101   0.000179  -0.000139
     2  C   -0.015933   0.029622   0.005331   0.012029   0.000004  -0.000006
     3  C   -0.006363   0.023212   0.045249   0.003540   0.000022  -0.000037
     4  C    0.072364   0.009282  -0.025634   0.101788   0.000349   0.000333
     5  C    0.233461  -0.002051  -0.185300   0.051998   0.000000  -0.000056
     6  C   -0.000872   0.271678  -0.002887  -0.002054  -0.000001   0.000002
     7  C   -0.003783   0.002755   0.276112  -0.173095  -0.000596   0.003369
     8  C   -0.005274  -0.000225   0.057892   0.494277   0.001896  -0.030898
     9  C   -0.003815  -0.000022  -0.022049  -0.111059  -0.010643   0.006500
    10  O    0.000004   0.000000  -0.000511  -0.005208  -0.042516  -0.041165
    11  C   -0.000056   0.000000   0.000152  -0.000192   0.395363   0.406979
    12  O    0.000359  -0.000001  -0.056544   0.011416   0.000000   0.000006
    13  C    0.005993  -0.000005  -0.012737  -0.003097  -0.001962   0.001204
    14  O    0.000020   0.000000  -0.002628   0.008670   0.002684   0.002870
    15  C    0.000000   0.000000   0.000403  -0.000306  -0.013063  -0.017236
    16  H   -0.000110  -0.000121   0.000985   0.000057   0.000000   0.000000
    17  H   -0.004033  -0.003849   0.000002   0.000000   0.000000   0.000000
    18  H    0.000011  -0.003879  -0.000004   0.000002   0.000000   0.000000
    19  H    0.499595  -0.000117  -0.000020   0.000015   0.000000   0.000000
    20  H   -0.000117   0.500942   0.000000   0.000000   0.000000   0.000000
    21  H   -0.000020   0.000000   0.581725   0.000053   0.000003  -0.000015
    22  H    0.000015   0.000000   0.000053   0.501239  -0.000021   0.000028
    23  H    0.000000   0.000000   0.000003  -0.000021   0.528149  -0.033772
    24  H    0.000000   0.000000  -0.000015   0.000028  -0.033772   0.527892
    25  H    0.000013   0.000000  -0.007068  -0.000157  -0.000003   0.000000
    26  H   -0.000139   0.000000  -0.000089  -0.003193  -0.000001   0.000000
    27  H    0.000011   0.000000  -0.000083  -0.003371   0.000016  -0.000001
    28  H   -0.000089   0.000000  -0.000048   0.003596  -0.000009   0.000002
    29  H    0.000000   0.000000   0.000000   0.000005  -0.005161   0.003966
    30  H    0.000000   0.000000   0.000000   0.000000  -0.001715  -0.001673
    31  H    0.000000   0.000000   0.000000  -0.000009   0.003970  -0.005127
             25         26         27         28         29         30
     1  C   -0.007003   0.048311  -0.005906  -0.014788   0.000006   0.000009
     2  C   -0.008968  -0.021238  -0.002832   0.012232   0.000000   0.000000
     3  C    0.003544  -0.002931  -0.001117  -0.001464   0.000001   0.000001
     4  C   -0.000814   0.017604  -0.002565  -0.022010   0.000013  -0.000001
     5  C    0.025004  -0.058164   0.001532   0.053298   0.000003  -0.000003
     6  C    0.000015   0.000187   0.000128   0.001084   0.000000   0.000000
     7  C    0.031603   0.061242   0.036777  -0.088188   0.000119   0.000083
     8  C   -0.019212  -0.094051  -0.206447   0.019312  -0.005780  -0.000315
     9  C    0.001179  -0.002461   0.060893  -0.045171   0.001752   0.002761
    10  O    0.000344  -0.000127   0.008494  -0.000399  -0.002801   0.006639
    11  C    0.001921  -0.000174   0.004572  -0.001371  -0.060463  -0.057306
    12  O    0.218736  -0.005277   0.000070   0.008602   0.000000   0.000000
    13  C   -0.014788   0.422461   0.463430   0.433981   0.000113  -0.000021
    14  O    0.019223  -0.000066  -0.000197   0.002914  -0.000100   0.000112
    15  C    0.000042  -0.000192   0.000979   0.000348   0.430409   0.414961
    16  H   -0.000003  -0.000005   0.000002   0.000000   0.000000   0.000000
    17  H    0.000000  -0.000008   0.000000   0.000000   0.000000   0.000000
    18  H    0.000000   0.000000   0.000000   0.000000   0.000000   0.000000
    19  H    0.000013  -0.000139   0.000011  -0.000089   0.000000   0.000000
    20  H    0.000000   0.000000   0.000000   0.000000   0.000000   0.000000
    21  H   -0.007068  -0.000089  -0.000083  -0.000048   0.000000   0.000000
    22  H   -0.000157  -0.003193  -0.003371   0.003596   0.000005   0.000000
    23  H   -0.000003  -0.000001   0.000016  -0.000009  -0.005161  -0.001715
    24  H    0.000000   0.000000  -0.000001   0.000002   0.003966  -0.001673
    25  H    0.350604   0.000162  -0.000003  -0.000743   0.000000   0.000000
    26  H    0.000162   0.497120  -0.022683  -0.022594   0.000000   0.000000
    27  H   -0.000003  -0.022683   0.517520  -0.026941  -0.000009   0.000000
    28  H   -0.000743  -0.022594  -0.026941   0.498210   0.000000   0.000000
    29  H    0.000000   0.000000  -0.000009   0.000000   0.512009  -0.022507
    30  H    0.000000   0.000000   0.000000   0.000000  -0.022507   0.499229
    31  H    0.000000   0.000000   0.000001   0.000000  -0.028549  -0.022535
             31
     1  C    0.000032
     2  C    0.000000
     3  C   -0.000001
     4  C    0.000150
     5  C   -0.000009
     6  C    0.000000
     7  C    0.000354
     8  C   -0.004657
     9  C    0.003621
    10  O   -0.003496
    11  C   -0.062786
    12  O    0.000000
    13  C    0.000117
    14  O   -0.000085
    15  C    0.429413
    16  H    0.000000
    17  H    0.000000
    18  H    0.000000
    19  H    0.000000
    20  H    0.000000
    21  H    0.000000
    22  H   -0.000009
    23  H    0.003970
    24  H   -0.005127
    25  H    0.000000
    26  H    0.000000
    27  H    0.000001
    28  H    0.000000
    29  H   -0.028549
    30  H   -0.022535
    31  H    0.513075
 Mulliken atomic charges:
              1
     1  C   -0.091114
     2  C   -0.276687
     3  C   -0.274371
     4  C   -0.225295
     5  C    0.050871
     6  C   -0.162401
     7  C    0.107536
     8  C    0.071254
     9  C    0.184972
    10  O   -0.298590
    11  C    0.138063
    12  O   -0.586422
    13  C   -0.544010
    14  O   -0.523864
    15  C   -0.688957
    16  H    0.175101
    17  H    0.183841
    18  H    0.183537
    19  H    0.186038
    20  H    0.180974
    21  H    0.159152
    22  H    0.200150
    23  H    0.176826
    24  H    0.176975
    25  H    0.406373
    26  H    0.186305
    27  H    0.177726
    28  H    0.190238
    29  H    0.176975
    30  H    0.182282
    31  H    0.176522
 Sum of Mulliken atomic charges =   0.00000
 Mulliken charges with hydrogens summed into heavy atoms:
              1
     1  C    0.083987
     2  C   -0.092846
     3  C   -0.090834
     4  C   -0.225295
     5  C    0.236908
     6  C    0.018573
     7  C    0.266688
     8  C    0.271404
     9  C    0.184972
    10  O   -0.298590
    11  C    0.491864
    12  O   -0.180049
    13  C    0.010259
    14  O   -0.523864
    15  C   -0.153178
 Sum of Mulliken charges with hydrogens summed into heavy atoms =   0.00000
 Electronic spatial extent (au):  <R**2>=           4441.7882
 Charge=              0.0000 electrons
 Dipole moment (field-independent basis, Debye):
    X=             -2.4734    Y=              3.1662    Z=              1.0806  Tot=              4.1606
 Quadrupole moment (field-independent basis, Debye-Ang):
   XX=            -74.9370   YY=            -91.8442   ZZ=            -90.8739
   XY=              0.3056   XZ=              2.2604   YZ=             -6.4597
 Traceless Quadrupole moment (field-independent basis, Debye-Ang):
   XX=             10.9480   YY=             -5.9592   ZZ=             -4.9889
   XY=              0.3056   XZ=              2.2604   YZ=             -6.4597
 Octapole moment (field-independent basis, Debye-Ang**2):
  XXX=            -68.6078  YYY=              5.9694  ZZZ=             -2.1273  XYY=             -1.3124
  XXY=             24.5544  XXZ=             19.2630  XZZ=            -16.1600  YZZ=             -2.4097
  YYZ=             -2.1487  XYZ=             -3.2035
 Hexadecapole moment (field-independent basis, Debye-Ang**3):
 XXXX=          -4163.8964 YYYY=           -754.3307 ZZZZ=           -424.2050 XXXY=            -16.5643
 XXXZ=            113.4548 YYYX=             33.0657 YYYZ=            -13.4040 ZZZX=              2.7882
 ZZZY=              5.0001 XXYY=           -898.2286 XXZZ=           -901.9353 YYZZ=           -199.4643
 XXYZ=            -49.2530 YYXZ=             -4.5162 ZZXY=            -13.8479
 N-N= 9.868109538558D+02 E-N=-3.585376461468D+03  KE= 6.859017165448D+02
 1\1\GINC-COMPUTE-5-22\SP\RwB97XD\6-31+G(d,p)\C12H16O3\ELUCIANO.IQUIR\1
 7-May-2022\0\\# wb97xd/6-31+g** scrf=(pcm,solvent=chloroform,smd,dovac
 uum) nmr\\comment\\0,1\C,0,0.559901171,2.714981381,-0.143795028\C,0,2.
 285667124,3.069478629,2.015250142\C,0,0.657632459,3.962168906,0.476787
 292\C,0,1.325000817,1.62627743,0.307155474\C,0,2.188504342,1.822077281
 ,1.395500007\C,0,1.519952473,4.138639968,1.556343087\C,0,1.183057848,0
 .274698202,-0.371404202\C,0,-0.06259967,-0.488515428,0.119480587\C,0,-
 0.350692805,-1.603203757,-0.860647935\O,0,-1.683379437,-1.880750724,-0
 .88887488\C,0,-2.04675814,-2.946573879,-1.775213293\O,0,2.37133895,-0.
 496525967,-0.175001626\C,0,0.081315215,-1.09254618,1.514765945\O,0,0.5
 03912952,-2.18216521,-1.520595318\C,0,-3.548272358,-3.139549018,-1.692
 549499\H,0,-0.117723333,2.599493021,-0.986847352\H,0,2.962542085,3.204
 480291,2.854717077\H,0,0.062364344,4.796953121,0.11621767\H,0,2.796394
 301,0.998138106,1.764980704\H,0,1.598306898,5.109419441,2.038250842\H,
 0,1.116606094,0.459652377,-1.45212367\H,0,-0.924525572,0.191539863,0.1
 03388156\H,0,-1.537697593,-3.8684852,-1.472587556\H,0,-1.762499388,-2.
 686716606,-2.80101677\H,0,2.287987468,-1.277936512,-0.757257257\H,0,0.
 260563001,-0.319063691,2.267282746\H,0,-0.832499831,-1.625667804,1.800
 593138\H,0,0.902133776,-1.816428301,1.561121542\H,0,-3.850256681,-3.37
 8760308,-0.667514753\H,0,-3.875083358,-3.946246449,-2.35458535\H,0,-4.
 07119315,-2.218862983,-1.971819921\\Version=EM64L-G09RevC.01\State=1-A
 \HF=-692.4474212\RMSD=3.342e-09\Dipole=-1.6245319,-0.1602,-0.1211131\Q
 uadrupole=-4.3986172,4.3517685,0.0468487,4.3042474,5.8925164,1.8353824
 \PG=C01 [X(C12H16O3)]\\@


 ERROR IS THE FORCE THAT WELDS MEN TOGETHER....
 TRUTH IS COMMUNICATED TO MEN ONLY BY DEEDS OF TRUTH.
           TOLSTOI,MY RELIGION
 Job cpu time:  0 days  0 hours 42 minutes 12.2 seconds.
 File lengths (MBytes):  RWF=    123 Int=      0 D2E=      0 Chk=      9 Scr=      1
 Normal termination of Gaussian 09 at Tue May 17 15:26:59 2022.
