 Entering Gaussian System, Link 0=g09
 Input=/home/eluciano.iquir/wb9/73a_009.gjc
 Output=/home/eluciano.iquir/wb9/73a_009.log
 Initial command:
 /share/apps/Gaussian09/EM64T.SSE4.2-enabled/g09/l1.exe /tmp/Gau-28919.inp -scrdir=/tmp/
 Entering Link 1 = /share/apps/Gaussian09/EM64T.SSE4.2-enabled/g09/l1.exe PID=     28920.
  
 Copyright (c) 1988,1990,1992,1993,1995,1998,2003,2009,2011,
            Gaussian, Inc.  All Rights Reserved.
  
 This is part of the Gaussian(R) 09 program.  It is based on
 the Gaussian(R) 03 system (copyright 2003, Gaussian, Inc.),
 the Gaussian(R) 98 system (copyright 1998, Gaussian, Inc.),
 the Gaussian(R) 94 system (copyright 1995, Gaussian, Inc.),
 the Gaussian 92(TM) system (copyright 1992, Gaussian, Inc.),
 the Gaussian 90(TM) system (copyright 1990, Gaussian, Inc.),
 the Gaussian 88(TM) system (copyright 1988, Gaussian, Inc.),
 the Gaussian 86(TM) system (copyright 1986, Carnegie Mellon
 University), and the Gaussian 82(TM) system (copyright 1983,
 Carnegie Mellon University). Gaussian is a federally registered
 trademark of Gaussian, Inc.
  
 This software contains proprietary and confidential information,
 including trade secrets, belonging to Gaussian, Inc.
  
 This software is provided under written license and may be
 used, copied, transmitted, or stored only in accord with that
 written license.
  
 The following legend is applicable only to US Government
 contracts under FAR:
  
                    RESTRICTED RIGHTS LEGEND
  
 Use, reproduction and disclosure by the US Government is
 subject to restrictions as set forth in subparagraphs (a)
 and (c) of the Commercial Computer Software - Restricted
 Rights clause in FAR 52.227-19.
  
 Gaussian, Inc.
 340 Quinnipiac St., Bldg. 40, Wallingford CT 06492
  
  
 ---------------------------------------------------------------
 Warning -- This program may not be used in any manner that
 competes with the business of Gaussian, Inc. or will provide
 assistance to any competitor of Gaussian, Inc.  The licensee
 of this program is prohibited from giving any competitor of
 Gaussian, Inc. access to this program.  By using this program,
 the user acknowledges that Gaussian, Inc. is engaged in the
 business of creating and licensing software in the field of
 computational chemistry and represents and warrants to the
 licensee that it is not a competitor of Gaussian, Inc. and that
 it will not use this program in any manner prohibited above.
 ---------------------------------------------------------------
  

 Cite this work as:
 Gaussian 09, Revision C.01,
 M. J. Frisch, G. W. Trucks, H. B. Schlegel, G. E. Scuseria, 
 M. A. Robb, J. R. Cheeseman, G. Scalmani, V. Barone, B. Mennucci, 
 G. A. Petersson, H. Nakatsuji, M. Caricato, X. Li, H. P. Hratchian, 
 A. F. Izmaylov, J. Bloino, G. Zheng, J. L. Sonnenberg, M. Hada, 
 M. Ehara, K. Toyota, R. Fukuda, J. Hasegawa, M. Ishida, T. Nakajima, 
 Y. Honda, O. Kitao, H. Nakai, T. Vreven, J. A. Montgomery, Jr., 
 J. E. Peralta, F. Ogliaro, M. Bearpark, J. J. Heyd, E. Brothers, 
 K. N. Kudin, V. N. Staroverov, T. Keith, R. Kobayashi, J. Normand, 
 K. Raghavachari, A. Rendell, J. C. Burant, S. S. Iyengar, J. Tomasi, 
 M. Cossi, N. Rega, J. M. Millam, M. Klene, J. E. Knox, J. B. Cross, 
 V. Bakken, C. Adamo, J. Jaramillo, R. Gomperts, R. E. Stratmann, 
 O. Yazyev, A. J. Austin, R. Cammi, C. Pomelli, J. W. Ochterski, 
 R. L. Martin, K. Morokuma, V. G. Zakrzewski, G. A. Voth, 
 P. Salvador, J. J. Dannenberg, S. Dapprich, A. D. Daniels, 
 O. Farkas, J. B. Foresman, J. V. Ortiz, J. Cioslowski, 
 and D. J. Fox, Gaussian, Inc., Wallingford CT, 2010.
 
 ******************************************
 Gaussian 09:  EM64L-G09RevC.01 23-Sep-2011
                17-May-2022 
 ******************************************
 %nprocshared=4
 Will use up to    4 processors via shared memory.
 ----------------------------------------------------------------
 # wb97xd/6-31+g** scrf=(pcm,solvent=chloroform,smd,dovacuum) nmr
 ----------------------------------------------------------------
 1/38=1/1;
 2/12=2,17=6,18=5,40=1/2;
 3/5=1,6=6,7=111,11=2,16=1,25=1,30=1,70=32101,72=7,74=-58/1,2,8,3;
 4//1;
 5/5=2,38=5,53=7/2;
 8/6=1,10=90,11=11/1;
 10/13=100,45=16/2;
 6/7=2,8=2,9=2,10=2,28=1/1;
 99/9=1/99;
 -------
 comment
 -------
 Charge =  0 Multiplicity = 1
 Symbolic Z-Matrix:
 6                     1.61173   0.34925  -1.53179 
 6                     0.26547   2.7386   -2.03376 
 6                     1.33809   0.73615  -2.84508 
 6                     1.21589   1.15367  -0.45144 
 6                     0.53718   2.35231  -0.72022 
 6                     0.66531   1.93015  -3.09549 
 6                     1.48712   0.70319   0.97215 
 6                     0.24347   0.08848   1.63238 
 6                    -0.09785  -1.20591   0.93102 
 8                    -1.40501  -1.21429   0.55236 
 6                    -1.80826  -2.39575  -0.14947 
 8                     1.92488   1.84389   1.71988 
 6                     0.44679  -0.20772   3.11788 
 8                     0.69377  -2.12347   0.75319 
 6                    -3.26393  -2.23851  -0.54289 
 1                     2.13321  -0.59036  -1.35721 
 1                    -0.25577   3.67247  -2.22651 
 1                     1.65079   0.10481  -3.67266 
 1                     0.22459   2.99575   0.10008 
 1                     0.45478   2.23214  -4.11787 
 1                     2.32304  -0.00853   0.96607 
 1                    -0.60186   0.78388   1.54702 
 1                    -1.69255  -3.26882   0.50233 
 1                    -1.19393  -2.52117  -1.04823 
 1                     2.52482   1.51878   2.412 
 1                     0.58742   0.7147    3.69014 
 1                    -0.4233   -0.72849   3.53312 
 1                     1.3212   -0.84776   3.28009 
 1                    -3.88923  -2.09106   0.34387 
 1                    -3.61952  -3.12011  -1.08344 
 1                    -3.39833  -1.35627  -1.17752 
 
                          Input orientation:                          
 ---------------------------------------------------------------------
 Center     Atomic      Atomic             Coordinates (Angstroms)
 Number     Number       Type             X           Y           Z
 ---------------------------------------------------------------------
      1          6           0        1.611726    0.349248   -1.531791
      2          6           0        0.265470    2.738598   -2.033755
      3          6           0        1.338093    0.736150   -2.845082
      4          6           0        1.215891    1.153673   -0.451439
      5          6           0        0.537183    2.352308   -0.720215
      6          6           0        0.665305    1.930154   -3.095492
      7          6           0        1.487116    0.703188    0.972153
      8          6           0        0.243465    0.088483    1.632376
      9          6           0       -0.097849   -1.205909    0.931019
     10          8           0       -1.405006   -1.214288    0.552359
     11          6           0       -1.808255   -2.395745   -0.149466
     12          8           0        1.924879    1.843888    1.719880
     13          6           0        0.446793   -0.207725    3.117876
     14          8           0        0.693771   -2.123467    0.753185
     15          6           0       -3.263933   -2.238512   -0.542891
     16          1           0        2.133211   -0.590359   -1.357207
     17          1           0       -0.255766    3.672465   -2.226512
     18          1           0        1.650787    0.104805   -3.672659
     19          1           0        0.224589    2.995755    0.100078
     20          1           0        0.454778    2.232136   -4.117874
     21          1           0        2.323036   -0.008527    0.966070
     22          1           0       -0.601859    0.783882    1.547016
     23          1           0       -1.692555   -3.268821    0.502334
     24          1           0       -1.193926   -2.521165   -1.048232
     25          1           0        2.524820    1.518779    2.412001
     26          1           0        0.587417    0.714698    3.690145
     27          1           0       -0.423299   -0.728488    3.533121
     28          1           0        1.321197   -0.847762    3.280088
     29          1           0       -3.889231   -2.091062    0.343872
     30          1           0       -3.619519   -3.120107   -1.083439
     31          1           0       -3.398331   -1.356272   -1.177517
 ---------------------------------------------------------------------
                    Distance matrix (angstroms):
                    1          2          3          4          5
     1  C    0.000000
     2  C    2.788076   0.000000
     3  C    1.396174   2.412171   0.000000
     4  C    1.403904   2.432902   2.432855   0.000000
     5  C    2.413618   1.395864   2.787200   1.403428   0.000000
     6  C    2.416638   1.393103   1.393195   2.810175   2.415900
     7  C    2.531904   3.830248   3.820285   1.517602   2.546778
     8  C    3.457180   4.523728   4.654602   2.534271   3.278088
     9  C    3.377365   4.947830   4.482461   3.033930   3.973757
    10  O    3.986101   5.010368   4.782406   3.672050   4.255838
    11  C    4.598052   5.849133   5.193710   4.672795   5.326429
    12  O    3.592406   4.200467   4.733949   2.386145   2.852762
    13  C    4.825629   5.937424   6.102638   3.896784   4.614421
    14  O    3.489711   5.620513   4.641131   3.530351   4.714658
    15  C    5.607716   6.281002   5.943680   5.619973   5.962847
    16  H    1.088709   3.876613   2.146069   2.168764   3.407690
    17  H    3.874782   1.086715   3.397787   3.414816   2.154185
    18  H    2.155131   3.397348   1.086857   3.415481   3.874056
    19  H    3.404577   2.149662   3.875522   2.163357   1.088402
    20  H    3.401708   2.153112   2.153651   3.896808   3.400782
    21  H    2.621694   4.558424   4.006188   2.141452   3.406813
    22  H    3.816794   4.170743   4.801689   2.726680   2.982904
    23  H    5.305315   6.808428   6.035712   5.378401   6.169559
    24  H    4.042868   5.546729   4.499988   4.434841   5.182188
    25  H    4.213673   5.133943   5.445893   3.169525   3.802137
    26  H    5.333983   6.079708   6.578234   4.211935   4.704845
    27  H    5.563828   6.594332   6.777105   4.701723   5.338980
    28  H    4.967034   6.497189   6.326672   4.235697   5.182427
    29  H    6.303472   6.800020   6.744441   6.101074   6.361522
    30  H    6.293120   7.093706   6.523191   6.484274   6.881673
    31  H    5.304242   5.560984   5.439919   5.302647   5.426874
                    6          7          8          9         10
     6  C    0.000000
     7  C    4.327419   0.000000
     8  C    5.091409   1.536367   0.000000
     9  C    5.160434   2.481624   1.511240   0.000000
    10  O    5.242187   3.495327   2.362436   1.360923   0.000000
    11  C    5.788866   4.660567   3.681835   2.347051   1.432134
    12  O    4.978130   1.432455   2.432335   3.743660   4.669441
    13  C    6.574513   2.552677   1.528329   2.464823   3.320272
    14  O    5.589721   2.944032   2.422494   1.224827   2.296040
    15  C    6.271559   5.789768   4.737988   3.641808   2.388350
    16  H    3.395493   2.741645   3.601329   3.254613   4.068748
    17  H    2.153867   4.699542   5.290102   5.813215   5.737878
    18  H    2.153183   4.686057   5.488554   5.096032   5.378537
    19  H    3.397264   2.758686   3.286415   4.295160   4.537026
    20  H    1.086636   5.414035   6.140463   6.133259   6.094893
    21  H    4.796129   1.097879   2.185862   2.701044   3.939964
    22  H    4.946971   2.168132   1.097925   2.143069   2.372144
    23  H    6.747829   5.109589   4.036912   2.642436   2.075161
    24  H    5.240444   4.654717   4.007744   2.617005   2.077107
    25  H    5.827478   1.953249   2.803238   4.061481   5.135315
    26  H    6.894075   2.863052   2.178269   3.430903   4.187652
    27  H    7.224400   3.501134   2.173671   2.665481   3.175641
    28  H    6.985344   2.785595   2.180141   2.767686   3.873890
    29  H    6.981634   6.091608   4.846632   3.937362   2.642646
    30  H    6.921937   6.702295   5.709058   4.486017   3.348440
    31  H    5.567079   5.721019   4.821359   3.919403   2.643100
                   11         12         13         14         15
    11  C    0.000000
    12  O    5.950229   0.000000
    13  C    4.533012   2.889333   0.000000
    14  O    2.673771   4.264977   3.053331   0.000000
    15  C    1.516081   6.979246   5.594175   4.166109   0.000000
    16  H    4.500357   3.929048   4.797581   2.979289   5.701639
    17  H    6.599054   4.865482   6.641682   6.585822   6.842755
    18  H    5.534493   5.672654   6.903524   5.046699   6.280211
    19  H    5.767408   2.615633   4.406672   5.181999   6.323032
    20  H    6.502835   6.032520   7.636037   6.538778   6.826127
    21  H    4.900082   2.039166   2.861859   2.678208   6.201937
    22  H    3.800456   2.745524   2.133203   3.280473   4.537533
    23  H    1.095670   6.380285   4.559406   2.658818   2.150177
    24  H    1.095861   6.036810   5.039883   2.639444   2.149463
    25  H    6.376532   0.971935   2.792360   4.401178   7.507215
    26  H    5.491512   2.635492   1.094591   4.085612   6.439948
    27  H    4.273090   3.926691   1.095757   3.304823   5.192615
    28  H    4.894033   3.169174   1.095693   2.899366   6.129662
    29  H    2.160249   7.154097   5.481164   4.601358   1.095029
    30  H    2.162795   7.952370   6.532068   4.792802   1.093547
    31  H    2.160031   6.853649   5.878311   4.589281   1.095062
                   16         17         18         19         20
    16  H    0.000000
    17  H    4.963322   0.000000
    18  H    2.465219   4.295868   0.000000
    19  H    4.315869   2.470162   4.962376   0.000000
    20  H    4.290093   2.481264   2.480764   4.292694   0.000000
    21  H    2.402536   5.512940   4.688557   3.765518   5.861523
    22  H    4.219438   4.764788   5.725431   2.769301   5.941792
    23  H    5.026782   7.595553   6.323753   6.563700   7.497859
    24  H    3.859186   6.374131   4.677149   5.810955   5.893623
    25  H    4.336905   5.821153   6.307641   3.580154   6.887178
    26  H    5.437684   6.668296   7.464154   4.268892   7.955210
    27  H    5.519976   7.250506   7.544500   5.106421   8.250700
    28  H    4.714884   7.296705   7.025433   5.107605   8.060167
    29  H    6.435495   7.281978   7.186526   6.546653   7.580741
    30  H    6.290348   7.665539   6.699271   7.319948   7.379308
    31  H    5.587206   6.021985   5.818425   5.804993   6.030657
                   21         22         23         24         25
    21  H    0.000000
    22  H    3.085518   0.000000
    23  H    5.193221   4.324972   0.000000
    24  H    4.768625   4.243723   1.792170   0.000000
    25  H    2.112841   3.326319   6.659895   6.490257   0.000000
    26  H    3.309986   2.451972   5.588276   6.008011   2.456365
    27  H    3.827591   2.502751   4.153309   4.979594   3.872793
    28  H    2.657570   3.060057   4.760267   5.278302   2.793350
    29  H    6.581516   4.529864   2.497522   3.063922   7.645140
    30  H    7.014013   5.591662   2.499996   2.498694   8.455192
    31  H    6.256631   4.452370   3.064216   2.496616   7.498952
                   26         27         28         29         30
    26  H    0.000000
    27  H    1.768895   0.000000
    28  H    1.774221   1.766781   0.000000
    29  H    6.253815   4.903122   6.108659   0.000000
    30  H    7.429074   6.103138   6.972416   1.780140   0.000000
    31  H    6.623386   5.606697   6.511741   1.759411   1.780137
                   31
    31  H    0.000000
 Stoichiometry    C12H16O3
 Framework group  C1[X(C12H16O3)]
 Deg. of freedom    87
 Full point group                 C1      NOp   1
 Largest Abelian subgroup         C1      NOp   1
 Largest concise Abelian subgroup C1      NOp   1
                         Standard orientation:                         
 ---------------------------------------------------------------------
 Center     Atomic      Atomic             Coordinates (Angstroms)
 Number     Number       Type             X           Y           Z
 ---------------------------------------------------------------------
      1          6           0        1.581176   -0.571559    1.238757
      2          6           0        2.903430   -1.165204   -1.142965
      3          6           0        2.319213   -1.751040    1.122881
      4          6           0        1.495534    0.327648    0.164030
      5          6           0        2.164774    0.013702   -1.028936
      6          6           0        2.979757   -2.047344   -0.067446
      7          6           0        0.659771    1.587985    0.291170
      8          6           0       -0.713516    1.443082   -0.382263
      9          6           0       -1.529430    0.422439    0.376959
     10          8           0       -2.019854   -0.523366   -0.469828
     11          6           0       -2.782838   -1.551311    0.172195
     12          8           0        1.389254    2.663562   -0.311255
     13          6           0       -1.496625    2.755023   -0.418857
     14          8           0       -1.733869    0.462566    1.583937
     15          6           0       -3.218195   -2.547235   -0.884735
     16          1           0        1.067454   -0.361436    2.175360
     17          1           0        3.421161   -1.391941   -2.071131
     18          1           0        2.378338   -2.438373    1.962723
     19          1           0        2.117929    0.697240   -1.874632
     20          1           0        3.556137   -2.964219   -0.156349
     21          1           0        0.553126    1.837357    1.355021
     22          1           0       -0.582714    1.107559   -1.419449
     23          1           0       -3.663934   -1.110785    0.651882
     24          1           0       -2.166010   -2.056283    0.924150
     25          1           0        1.138413    3.476983    0.157874
     26          1           0       -0.998952    3.495921   -1.052514
     27          1           0       -2.503734    2.595587   -0.820098
     28          1           0       -1.606270    3.181258    0.584560
     29          1           0       -3.818808   -2.053379   -1.655746
     30          1           0       -3.807333   -3.354645   -0.441056
     31          1           0       -2.347352   -2.980065   -1.388173
 ---------------------------------------------------------------------
 Rotational constants (GHZ):      0.6912603      0.4739328      0.3386342
 Standard basis: 6-31+G(d,p) (6D, 7F)
 There are   365 symmetry adapted basis functions of A   symmetry.
 Integral buffers will be    131072 words long.
 Raffenetti 2 integral format.
 Two-electron integral symmetry is turned on.
   365 basis functions,   592 primitive gaussians,   365 cartesian basis functions
    56 alpha electrons       56 beta electrons
       nuclear repulsion energy      1012.6482265504 Hartrees.
 NAtoms=   31 NActive=   31 NUniq=   31 SFac= 1.00D+00 NAtFMM=   60 NAOKFM=F Big=F
 Nuclear repulsion after empirical dispersion term =     1012.6274498969 Hartrees.
 ------------------------------------------------------------------------------
 Polarizable Continuum Model (PCM)
 =================================
 Model                : C-PCM.
 Atomic radii         : SMD-Coulomb.
 Polarization charges : Total charges.
 Charge compensation  : None.
 Solution method      : Matrix inversion.
 Cavity type          : VdW (van der Waals Surface) (Alpha=1.000).
 Cavity algorithm     : GePol (No added spheres)
                        Default sphere list used, NSphG=   31.
                        Lebedev-Laikov grids with approx.  5.0 points / Ang**2.
                        Smoothing algorithm: Karplus/York (Gamma=1.0000).
                        Polarization charges: spherical gaussians, with
                                              point-specific exponents (IZeta= 3).
                        Self-potential: point-specific (ISelfS= 7).
                        Self-field    : sphere-specific E.n sum rule (ISelfD= 2).
 Solvent              : Chloroform, Eps=   4.711300 Eps(inf)=   2.090627
 ------------------------------------------------------------------------------
 ------------------------------------------------------------------------------
 Atomic radii for non-electrostatic terms: SMD-CDS.
 ------------------------------------------------------------------------------
 Nuclear repulsion after PCM non-electrostatic terms =     1012.6205971983 Hartrees.
 One-electron integrals computed using PRISM.
 NBasis=   365 RedAO= T  NBF=   365
 NBsUse=   365 1.00D-06 NBFU=   365
 Harris functional with IExCor= 4639 diagonalized for initial guess.
 ExpMin= 4.38D-02 ExpMax= 5.48D+03 ExpMxC= 8.25D+02 IAcc=2 IRadAn=         4 AccDes= 0.00D+00
 HarFok:  IExCor= 4639 AccDes= 0.00D+00 IRadAn=         4 IDoV= 1
 ScaDFX=  1.000000  1.000000  1.000000  1.000000
 FoFCou: FMM=F IPFlag=           0 FMFlag=      100000 FMFlg1=           0
         NFxFlg=           0 DoJE=T BraDBF=F KetDBF=T FulRan=T
         Omega=  0.000000  0.000000  1.000000  0.000000  0.000000 ICntrl=     500 IOpCl=  0
         NMat0=    1 NMatS0=    1 NMatT0=    0 NMatD0=    1 NMtDS0=    0 NMtDT0=    0
         I1Cent=           4 NGrid=           0.
 Petite list used in FoFCou.
 Initial guess orbital symmetries:
       Occupied  (A) (A) (A) (A) (A) (A) (A) (A) (A) (A) (A) (A)
                 (A) (A) (A) (A) (A) (A) (A) (A) (A) (A) (A) (A)
                 (A) (A) (A) (A) (A) (A) (A) (A) (A) (A) (A) (A)
                 (A) (A) (A) (A) (A) (A) (A) (A) (A) (A) (A) (A)
                 (A) (A) (A) (A) (A) (A) (A) (A)
       Virtual   (A) (A) (A) (A) (A) (A) (A) (A) (A) (A) (A) (A)
                 (A) (A) (A) (A) (A) (A) (A) (A) (A) (A) (A) (A)
                 (A) (A) (A) (A) (A) (A) (A) (A) (A) (A) (A) (A)
                 (A) (A) (A) (A) (A) (A) (A) (A) (A) (A) (A) (A)
                 (A) (A) (A) (A) (A) (A) (A) (A) (A) (A) (A) (A)
                 (A) (A) (A) (A) (A) (A) (A) (A) (A) (A) (A) (A)
                 (A) (A) (A) (A) (A) (A) (A) (A) (A) (A) (A) (A)
                 (A) (A) (A) (A) (A) (A) (A) (A) (A) (A) (A) (A)
                 (A) (A) (A) (A) (A) (A) (A) (A) (A) (A) (A) (A)
                 (A) (A) (A) (A) (A) (A) (A) (A) (A) (A) (A) (A)
                 (A) (A) (A) (A) (A) (A) (A) (A) (A) (A) (A) (A)
                 (A) (A) (A) (A) (A) (A) (A) (A) (A) (A) (A) (A)
                 (A) (A) (A) (A) (A) (A) (A) (A) (A) (A) (A) (A)
                 (A) (A) (A) (A) (A) (A) (A) (A) (A) (A) (A) (A)
                 (A) (A) (A) (A) (A) (A) (A) (A) (A) (A) (A) (A)
                 (A) (A) (A) (A) (A) (A) (A) (A) (A) (A) (A) (A)
                 (A) (A) (A) (A) (A) (A) (A) (A) (A) (A) (A) (A)
                 (A) (A) (A) (A) (A) (A) (A) (A) (A) (A) (A) (A)
                 (A) (A) (A) (A) (A) (A) (A) (A) (A) (A) (A) (A)
                 (A) (A) (A) (A) (A) (A) (A) (A) (A) (A) (A) (A)
                 (A) (A) (A) (A) (A) (A) (A) (A) (A) (A) (A) (A)
                 (A) (A) (A) (A) (A) (A) (A) (A) (A) (A) (A) (A)
                 (A) (A) (A) (A) (A) (A) (A) (A) (A) (A) (A) (A)
                 (A) (A) (A) (A) (A) (A) (A) (A) (A) (A) (A) (A)
                 (A) (A) (A) (A) (A) (A) (A) (A) (A) (A) (A) (A)
                 (A) (A) (A) (A) (A) (A) (A) (A) (A)
 The electronic state of the initial guess is 1-A.
 Requested convergence on RMS density matrix=1.00D-08 within 128 cycles.
 Requested convergence on MAX density matrix=1.00D-06.
 Requested convergence on             energy=1.00D-06.
 No special actions if energy rises.
 FoFJK:  IHMeth= 1 ICntrl=     0 DoSepK=T KAlg= 1 I1Cent= 0 FoldK=F
 FoFJK:  IHMeth= 1 ICntrl=     0 DoSepK=T KAlg= 1 I1Cent= 0 FoldK=F
 FoFJK:  IHMeth= 1 ICntrl=     0 DoSepK=T KAlg= 1 I1Cent= 0 FoldK=F
 FoFJK:  IHMeth= 1 ICntrl=     0 DoSepK=T KAlg= 1 I1Cent= 0 FoldK=F
 FoFJK:  IHMeth= 1 ICntrl=     0 DoSepK=T KAlg= 1 I1Cent= 0 FoldK=F
 FoFJK:  IHMeth= 1 ICntrl=     0 DoSepK=T KAlg= 1 I1Cent= 0 FoldK=F
 FoFJK:  IHMeth= 1 ICntrl=     0 DoSepK=T KAlg= 1 I1Cent= 0 FoldK=F
 FoFJK:  IHMeth= 1 ICntrl=     0 DoSepK=T KAlg= 1 I1Cent= 0 FoldK=F
 FoFJK:  IHMeth= 1 ICntrl=     0 DoSepK=T KAlg= 1 I1Cent= 0 FoldK=F
 FoFJK:  IHMeth= 1 ICntrl=     0 DoSepK=T KAlg= 1 I1Cent= 0 FoldK=F
 FoFJK:  IHMeth= 1 ICntrl=     0 DoSepK=T KAlg= 1 I1Cent= 0 FoldK=F
 FoFJK:  IHMeth= 1 ICntrl=     0 DoSepK=T KAlg= 1 I1Cent= 0 FoldK=F
 FoFJK:  IHMeth= 1 ICntrl=     0 DoSepK=T KAlg= 1 I1Cent= 0 FoldK=F
 FoFJK:  IHMeth= 1 ICntrl=     0 DoSepK=T KAlg= 1 I1Cent= 0 FoldK=F
 FoFJK:  IHMeth= 1 ICntrl=     0 DoSepK=T KAlg= 1 I1Cent= 0 FoldK=F
 FoFJK:  IHMeth= 1 ICntrl=     0 DoSepK=T KAlg= 1 I1Cent= 0 FoldK=F
 Error on total polarization charges =  0.03936
 SCF Done:  E(RwB97XD) =  -692.446151576     A.U. after   16 cycles
             Convg  =    0.3526D-08             -V/T =  2.0095
 SMD-CDS (non-electrostatic) energy       (kcal/mol) =      -4.30
 (included in total energy above)
 Range of M.O.s used for correlation:     1   365
 NBasis=   365 NAE=    56 NBE=    56 NFC=     0 NFV=     0
 NROrb=    365 NOA=    56 NOB=    56 NVA=   309 NVB=   309

 **** Warning!!: The largest alpha MO coefficient is  0.14664981D+03

 NEqPCM:  Using equilibrium solvation (IEInf=0, Eps=   4.7113, EpsInf=   2.0906)
          Differentiating once with respect to magnetic field using GIAOs.
          Electric field/nuclear overlap derivatives assumed to be zero.
 FoFCou: FMM=F IPFlag=           0 FMFlag=    10101102 FMFlg1=           0
         NFxFlg=    40000000 DoJE=F BraDBF=F KetDBF=T FulRan=T
         Omega=  0.000000  0.000000  1.000000  0.000000  0.000000 ICntrl=    6100 IOpCl=  0
         NMat0=    1 NMatS0=    1 NMatT0=    0 NMatD0=    1 NMtDS0=    0 NMtDT0=    0
         I1Cent=           7 NGrid=        2261.
 Symmetry not used in FoFCou.
 FoFJK:  IHMeth= 1 ICntrl=  6127 DoSepK=T KAlg= 1 I1Cent= 0 FoldK=F
 FoFJK:  IHMeth= 1 ICntrl=     0 DoSepK=T KAlg= 1 I1Cent= 0 FoldK=F
          There are     3 degrees of freedom in the 1st order CPHF.  IDoFFX=0.
      3 vectors produced by pass  0 Test12= 5.77D-13 3.33D-08 XBig12= 1.25D+02 1.95D+00.
 AX will form     3 AO Fock derivatives at one time.
 FoFJK:  IHMeth= 1 ICntrl=     0 DoSepK=T KAlg= 1 I1Cent= 0 FoldK=F
      3 vectors produced by pass  1 Test12= 5.77D-13 3.33D-08 XBig12= 8.98D-01 2.14D-01.
 FoFJK:  IHMeth= 1 ICntrl=     0 DoSepK=T KAlg= 1 I1Cent= 0 FoldK=F
      3 vectors produced by pass  2 Test12= 5.77D-13 3.33D-08 XBig12= 1.49D-02 4.04D-02.
 FoFJK:  IHMeth= 1 ICntrl=     0 DoSepK=T KAlg= 1 I1Cent= 0 FoldK=F
      3 vectors produced by pass  3 Test12= 5.77D-13 3.33D-08 XBig12= 2.58D-04 4.34D-03.
 FoFJK:  IHMeth= 1 ICntrl=     0 DoSepK=T KAlg= 1 I1Cent= 0 FoldK=F
      3 vectors produced by pass  4 Test12= 5.77D-13 3.33D-08 XBig12= 3.82D-06 4.03D-04.
 FoFJK:  IHMeth= 1 ICntrl=     0 DoSepK=T KAlg= 1 I1Cent= 0 FoldK=F
      3 vectors produced by pass  5 Test12= 5.77D-13 3.33D-08 XBig12= 5.06D-08 4.81D-05.
 FoFJK:  IHMeth= 1 ICntrl=     0 DoSepK=T KAlg= 1 I1Cent= 0 FoldK=F
      3 vectors produced by pass  6 Test12= 5.77D-13 3.33D-08 XBig12= 7.54D-10 5.88D-06.
 FoFJK:  IHMeth= 1 ICntrl=     0 DoSepK=T KAlg= 1 I1Cent= 0 FoldK=F
      3 vectors produced by pass  7 Test12= 5.77D-13 3.33D-08 XBig12= 1.09D-11 7.38D-07.
 FoFJK:  IHMeth= 1 ICntrl=     0 DoSepK=T KAlg= 1 I1Cent= 0 FoldK=F
      3 vectors produced by pass  8 Test12= 5.77D-13 3.33D-08 XBig12= 1.16D-13 8.58D-08.
 FoFJK:  IHMeth= 1 ICntrl=     0 DoSepK=T KAlg= 1 I1Cent= 0 FoldK=F
 Inverted reduced A of dimension    27 with in-core refinement.
 Calculating GIAO nuclear magnetic shielding tensors.
 SCF GIAO Magnetic shielding tensor (ppm):
      1  C    Isotropic =    70.9309   Anisotropy =   163.4244
   XX=   118.8487   YX=    60.1993   ZX=    63.8532
   XY=    50.5014   YY=    87.7581   ZY=     4.4467
   XZ=    66.9026   YZ=     8.8168   ZZ=     6.1858
   Eigenvalues:   -26.7296    59.6418   179.8805
      2  C    Isotropic =    69.4335   Anisotropy =   176.1942
   XX=   123.9495   YX=    59.7612   ZX=    69.3960
   XY=    58.1121   YY=    81.7907   ZY=     5.4720
   XZ=    72.6295   YZ=     5.8171   ZZ=     2.5603
   Eigenvalues:   -34.0017    55.4060   186.8963
      3  C    Isotropic =    70.3823   Anisotropy =   173.5515
   XX=   143.0935   YX=    52.7655   ZX=    32.0518
   XY=    52.5874   YY=    49.6875   ZY=    63.5197
   XZ=    30.5231   YZ=    63.9078   ZZ=    18.3659
   Eigenvalues:   -32.0055    57.0691   186.0833
      4  C    Isotropic =    52.3164   Anisotropy =   184.4024
   XX=   109.1229   YX=    85.3605   ZX=    38.3764
   XY=    86.4818   YY=    16.3675   ZY=    23.4191
   XZ=    43.6284   YZ=    19.5971   ZZ=    31.4589
   Eigenvalues:   -35.0095    16.7075   175.2514
      5  C    Isotropic =    73.4832   Anisotropy =   182.0249
   XX=   144.1651   YX=    60.4083   ZX=    33.9612
   XY=    56.8096   YY=    58.1490   ZY=    58.5996
   XZ=    36.1724   YZ=    65.2208   ZZ=    18.1353
   Eigenvalues:   -27.1973    52.8138   194.8331
      6  C    Isotropic =    72.1879   Anisotropy =   176.5632
   XX=   121.6506   YX=    88.2474   ZX=    39.9936
   XY=    90.5487   YY=    24.2621   ZY=    16.7453
   XZ=    40.0844   YZ=    14.6940   ZZ=    70.6511
   Eigenvalues:   -29.3704    56.0375   189.8967
      7  C    Isotropic =   119.6606   Anisotropy =    29.7187
   XX=   121.8674   YX=     4.3108   ZX=    -3.3565
   XY=     9.6621   YY=   121.3255   ZY=   -15.0826
   XZ=    -7.6356   YZ=   -17.3123   ZZ=   115.7890
   Eigenvalues:   102.1196   117.3891   139.4731
      8  C    Isotropic =   144.1815   Anisotropy =    27.9006
   XX=   156.9106   YX=     5.8724   ZX=    -6.0449
   XY=    13.2240   YY=   138.4955   ZY=    -6.8560
   XZ=    -2.4535   YZ=    -7.4434   ZZ=   137.1386
   Eigenvalues:   130.1022   139.6605   162.7820
      9  C    Isotropic =    18.4794   Anisotropy =   104.8946
   XX=    43.2843   YX=   -66.6973   ZX=    -2.9587
   XY=   -69.7943   YY=   -18.0455   ZY=   -15.2995
   XZ=   -16.5930   YZ=   -41.2375   ZZ=    30.1994
   Eigenvalues:   -70.5955    37.6245    88.4091
     10  O    Isotropic =   125.4265   Anisotropy =   173.2059
   XX=   164.7256   YX=   -28.9617   ZX=    54.3816
   XY=    -9.8411   YY=   181.8804   ZY=    42.6871
   XZ=   127.7304   YZ=   152.5055   ZZ=    29.6737
   Eigenvalues:   -55.3639   190.7464   240.8972
     11  C    Isotropic =   137.2380   Anisotropy =    58.6298
   XX=   134.1097   YX=    24.2616   ZX=   -14.9713
   XY=    25.4417   YY=   148.8561   ZY=   -20.5982
   XZ=    -9.8462   YZ=   -12.2883   ZZ=   128.7483
   Eigenvalues:   115.5582   119.8314   176.3245
     12  O    Isotropic =   297.2996   Anisotropy =    47.4467
   XX=   286.2443   YX=   -17.9074   ZX=   -19.2927
   XY=    -2.9959   YY=   324.9059   ZY=     5.0371
   XZ=   -23.5541   YZ=    -0.7136   ZZ=   280.7488
   Eigenvalues:   261.4440   301.5241   328.9308
     13  C    Isotropic =   180.3435   Anisotropy =    27.0771
   XX=   178.4217   YX=   -14.8632   ZX=     0.8486
   XY=   -12.5565   YY=   188.9667   ZY=    -1.0895
   XZ=    -3.1430   YZ=     0.8284   ZZ=   173.6419
   Eigenvalues:   168.7908   173.8448   198.3948
     14  O    Isotropic =   -39.0321   Anisotropy =   563.0193
   XX=   167.8212   YX=  -232.9656   ZX=    68.1033
   XY=  -235.0725   YY=   -30.7926   ZY=   -61.5037
   XZ=    41.5933   YZ=   -96.5813   ZZ=  -254.1249
   Eigenvalues:  -280.7232  -172.6872   336.3141
     15  C    Isotropic =   182.8345   Anisotropy =    23.4065
   XX=   175.7719   YX=    10.0281   ZX=    -0.0836
   XY=    11.3265   YY=   186.6740   ZY=     5.1575
   XZ=     3.8811   YZ=    11.1997   ZZ=   186.0576
   Eigenvalues:   168.7567   181.3080   198.4388
     16  H    Isotropic =    24.0175   Anisotropy =     7.8541
   XX=    23.4493   YX=    -3.1804   ZX=     1.7617
   XY=    -3.6116   YY=    25.1186   ZY=    -2.5704
   XZ=     1.3659   YZ=    -2.3781   ZZ=    23.4846
   Eigenvalues:    20.7305    22.0685    29.2536
     17  H    Isotropic =    23.6984   Anisotropy =     4.7469
   XX=    22.6486   YX=    -2.6014   ZX=    -0.9093
   XY=    -2.5365   YY=    25.1114   ZY=    -1.1907
   XZ=    -0.6574   YZ=    -1.3488   ZZ=    23.3351
   Eigenvalues:    20.4044    23.8278    26.8630
     18  H    Isotropic =    23.9321   Anisotropy =     4.8230
   XX=    23.2535   YX=    -2.8314   ZX=    -1.3205
   XY=    -2.9616   YY=    24.4594   ZY=     0.2316
   XZ=    -1.2116   YZ=     0.2641   ZZ=    24.0833
   Eigenvalues:    20.6871    23.9617    27.1474
     19  H    Isotropic =    23.4040   Anisotropy =     9.5031
   XX=    23.3629   YX=    -3.2544   ZX=    -3.9809
   XY=    -3.9074   YY=    23.9096   ZY=     2.2536
   XZ=    -3.1964   YZ=     2.2610   ZZ=    22.9393
   Eigenvalues:    19.2719    21.2007    29.7394
     20  H    Isotropic =    23.8368   Anisotropy =     3.9794
   XX=    22.4212   YX=    -1.6255   ZX=    -1.5690
   XY=    -1.7114   YY=    23.2774   ZY=    -1.0585
   XZ=    -1.5053   YZ=    -1.1937   ZZ=    25.8118
   Eigenvalues:    20.4500    24.5706    26.4897
     21  H    Isotropic =    26.7188   Anisotropy =     6.3039
   XX=    23.7374   YX=     1.9010   ZX=    -0.8318
   XY=     0.1761   YY=    26.6793   ZY=    -2.3094
   XZ=    -1.2159   YZ=    -1.5119   ZZ=    29.7397
   Eigenvalues:    23.3767    25.8583    30.9214
     22  H    Isotropic =    28.6838   Anisotropy =     3.6537
   XX=    28.3745   YX=    -2.2610   ZX=    -0.4939
   XY=     0.5832   YY=    28.6511   ZY=     1.9720
   XZ=     0.1135   YZ=     2.2025   ZZ=    29.0259
   Eigenvalues:    26.5979    28.3339    31.1196
     23  H    Isotropic =    27.7357   Anisotropy =     7.0926
   XX=    30.5545   YX=     1.3568   ZX=    -3.6828
   XY=     2.7262   YY=    26.7075   ZY=     1.2967
   XZ=    -2.9307   YZ=     2.4064   ZZ=    25.9452
   Eigenvalues:    22.5668    28.1762    32.4641
     24  H    Isotropic =    28.0473   Anisotropy =     5.1584
   XX=    26.5953   YX=     1.9769   ZX=     1.3008
   XY=     2.2085   YY=    29.5960   ZY=    -3.2202
   XZ=     3.2564   YZ=    -1.8674   ZZ=    27.9505
   Eigenvalues:    23.2568    29.3988    31.4862
     25  H    Isotropic =    29.0100   Anisotropy =    19.0127
   XX=    24.1286   YX=     0.4143   ZX=    -3.4095
   XY=    -0.8080   YY=    39.3216   ZY=     6.4172
   XZ=    -2.1395   YZ=     6.4381   ZZ=    23.5798
   Eigenvalues:    19.7775    25.5674    41.6851
     26  H    Isotropic =    30.0165   Anisotropy =     9.0048
   XX=    28.7108   YX=    -0.5045   ZX=    -0.8941
   XY=     0.8868   YY=    32.7297   ZY=    -4.8384
   XZ=    -0.9206   YZ=    -4.9068   ZZ=    28.6091
   Eigenvalues:    25.2551    28.7748    36.0197
     27  H    Isotropic =    30.4487   Anisotropy =     9.4830
   XX=    34.7927   YX=    -1.8150   ZX=     3.9173
   XY=    -1.7636   YY=    29.3281   ZY=    -0.9410
   XZ=     3.3603   YZ=    -0.6257   ZZ=    27.2252
   Eigenvalues:    25.7584    28.8170    36.7706
     28  H    Isotropic =    30.4632   Anisotropy =     8.5210
   XX=    27.8856   YX=    -3.0221   ZX=    -2.1462
   XY=    -1.9527   YY=    31.3394   ZY=     3.9303
   XZ=    -1.3457   YZ=     2.6704   ZZ=    32.1645
   Eigenvalues:    26.5843    28.6614    36.1438
     29  H    Isotropic =    30.5552   Anisotropy =     8.9181
   XX=    30.9275   YX=    -0.3575   ZX=     4.8013
   XY=    -0.0942   YY=    28.6605   ZY=    -0.1178
   XZ=     5.0214   YZ=    -1.2081   ZZ=    32.0775
   Eigenvalues:    26.5223    28.6426    36.5006
     30  H    Isotropic =    30.6517   Anisotropy =    11.1250
   XX=    30.3450   YX=     5.3584   ZX=    -1.1610
   XY=     5.5956   YY=    33.8662   ZY=    -1.3800
   XZ=    -0.6647   YZ=    -0.9313   ZZ=    27.7439
   Eigenvalues:    26.3499    27.5368    38.0684
     31  H    Isotropic =    30.7900   Anisotropy =     7.3452
   XX=    32.1494   YX=    -1.5616   ZX=    -1.5952
   XY=    -1.4638   YY=    30.7983   ZY=     3.9510
   XZ=    -2.4783   YZ=     3.6016   ZZ=    29.4222
   Eigenvalues:    26.2032    30.4799    35.6868
 End of Minotr Frequency-dependent properties file   721 does not exist.
 End of Minotr Frequency-dependent properties file   722 does not exist.

 **********************************************************************

            Population analysis using the SCF density.

 **********************************************************************

 Orbital symmetries:
       Occupied  (A) (A) (A) (A) (A) (A) (A) (A) (A) (A) (A) (A)
                 (A) (A) (A) (A) (A) (A) (A) (A) (A) (A) (A) (A)
                 (A) (A) (A) (A) (A) (A) (A) (A) (A) (A) (A) (A)
                 (A) (A) (A) (A) (A) (A) (A) (A) (A) (A) (A) (A)
                 (A) (A) (A) (A) (A) (A) (A) (A)
       Virtual   (A) (A) (A) (A) (A) (A) (A) (A) (A) (A) (A) (A)
                 (A) (A) (A) (A) (A) (A) (A) (A) (A) (A) (A) (A)
                 (A) (A) (A) (A) (A) (A) (A) (A) (A) (A) (A) (A)
                 (A) (A) (A) (A) (A) (A) (A) (A) (A) (A) (A) (A)
                 (A) (A) (A) (A) (A) (A) (A) (A) (A) (A) (A) (A)
                 (A) (A) (A) (A) (A) (A) (A) (A) (A) (A) (A) (A)
                 (A) (A) (A) (A) (A) (A) (A) (A) (A) (A) (A) (A)
                 (A) (A) (A) (A) (A) (A) (A) (A) (A) (A) (A) (A)
                 (A) (A) (A) (A) (A) (A) (A) (A) (A) (A) (A) (A)
                 (A) (A) (A) (A) (A) (A) (A) (A) (A) (A) (A) (A)
                 (A) (A) (A) (A) (A) (A) (A) (A) (A) (A) (A) (A)
                 (A) (A) (A) (A) (A) (A) (A) (A) (A) (A) (A) (A)
                 (A) (A) (A) (A) (A) (A) (A) (A) (A) (A) (A) (A)
                 (A) (A) (A) (A) (A) (A) (A) (A) (A) (A) (A) (A)
                 (A) (A) (A) (A) (A) (A) (A) (A) (A) (A) (A) (A)
                 (A) (A) (A) (A) (A) (A) (A) (A) (A) (A) (A) (A)
                 (A) (A) (A) (A) (A) (A) (A) (A) (A) (A) (A) (A)
                 (A) (A) (A) (A) (A) (A) (A) (A) (A) (A) (A) (A)
                 (A) (A) (A) (A) (A) (A) (A) (A) (A) (A) (A) (A)
                 (A) (A) (A) (A) (A) (A) (A) (A) (A) (A) (A) (A)
                 (A) (A) (A) (A) (A) (A) (A) (A) (A) (A) (A) (A)
                 (A) (A) (A) (A) (A) (A) (A) (A) (A) (A) (A) (A)
                 (A) (A) (A) (A) (A) (A) (A) (A) (A) (A) (A) (A)
                 (A) (A) (A) (A) (A) (A) (A) (A) (A) (A) (A) (A)
                 (A) (A) (A) (A) (A) (A) (A) (A) (A) (A) (A) (A)
                 (A) (A) (A) (A) (A) (A) (A) (A) (A)
 The electronic state is 1-A.
 Alpha  occ. eigenvalues --  -19.32981 -19.28297 -19.27706 -10.43998 -10.36047
 Alpha  occ. eigenvalues --  -10.34988 -10.31618 -10.31438 -10.30584 -10.30545
 Alpha  occ. eigenvalues --  -10.30496 -10.30482 -10.30386 -10.29282 -10.28791
 Alpha  occ. eigenvalues --   -1.21179  -1.13105  -1.12617  -0.96128  -0.91375
 Alpha  occ. eigenvalues --   -0.86914  -0.85451  -0.84581  -0.77949  -0.75606
 Alpha  occ. eigenvalues --   -0.70313  -0.70137  -0.67516  -0.65235  -0.61980
 Alpha  occ. eigenvalues --   -0.60423  -0.59265  -0.57976  -0.56890  -0.54726
 Alpha  occ. eigenvalues --   -0.53509  -0.52627  -0.51624  -0.50606  -0.50153
 Alpha  occ. eigenvalues --   -0.49257  -0.47697  -0.47061  -0.45701  -0.44887
 Alpha  occ. eigenvalues --   -0.44318  -0.43885  -0.43661  -0.43244  -0.42194
 Alpha  occ. eigenvalues --   -0.40515  -0.38981  -0.37330  -0.35945  -0.33129
 Alpha  occ. eigenvalues --   -0.32591
 Alpha virt. eigenvalues --    0.05018   0.05513   0.06348   0.07080   0.07763
 Alpha virt. eigenvalues --    0.08310   0.08639   0.09506   0.09899   0.10354
 Alpha virt. eigenvalues --    0.10800   0.11054   0.11222   0.11906   0.12768
 Alpha virt. eigenvalues --    0.13255   0.13688   0.14108   0.14781   0.15264
 Alpha virt. eigenvalues --    0.15595   0.16202   0.16912   0.17628   0.18186
 Alpha virt. eigenvalues --    0.18553   0.19116   0.19554   0.19669   0.20117
 Alpha virt. eigenvalues --    0.21091   0.21268   0.21632   0.22512   0.22777
 Alpha virt. eigenvalues --    0.23310   0.23561   0.24049   0.24646   0.24971
 Alpha virt. eigenvalues --    0.25398   0.26188   0.26399   0.26951   0.27200
 Alpha virt. eigenvalues --    0.27543   0.27798   0.28105   0.28915   0.29498
 Alpha virt. eigenvalues --    0.29618   0.30061   0.30395   0.30858   0.31072
 Alpha virt. eigenvalues --    0.31567   0.32114   0.32494   0.32785   0.33371
 Alpha virt. eigenvalues --    0.33892   0.34250   0.34671   0.34932   0.36204
 Alpha virt. eigenvalues --    0.36310   0.37052   0.37624   0.37771   0.38052
 Alpha virt. eigenvalues --    0.39274   0.39799   0.40573   0.41041   0.41753
 Alpha virt. eigenvalues --    0.42327   0.43077   0.43742   0.44030   0.44499
 Alpha virt. eigenvalues --    0.44824   0.45543   0.47154   0.47516   0.48216
 Alpha virt. eigenvalues --    0.48555   0.50251   0.51000   0.53868   0.55342
 Alpha virt. eigenvalues --    0.55699   0.56085   0.61824   0.66378   0.69551
 Alpha virt. eigenvalues --    0.72563   0.73576   0.74285   0.74902   0.75924
 Alpha virt. eigenvalues --    0.76904   0.78757   0.79455   0.80596   0.81039
 Alpha virt. eigenvalues --    0.81632   0.82172   0.83046   0.83965   0.84212
 Alpha virt. eigenvalues --    0.85534   0.86742   0.87800   0.89092   0.90024
 Alpha virt. eigenvalues --    0.91191   0.92667   0.93269   0.94656   0.95953
 Alpha virt. eigenvalues --    0.98050   0.99174   1.00438   1.01819   1.02581
 Alpha virt. eigenvalues --    1.02894   1.04098   1.04766   1.05839   1.07194
 Alpha virt. eigenvalues --    1.08748   1.09180   1.09670   1.10065   1.11029
 Alpha virt. eigenvalues --    1.12516   1.14332   1.17791   1.18836   1.19958
 Alpha virt. eigenvalues --    1.20416   1.20998   1.21690   1.22903   1.23798
 Alpha virt. eigenvalues --    1.24583   1.25992   1.27506   1.29236   1.30313
 Alpha virt. eigenvalues --    1.31670   1.32734   1.34701   1.36543   1.37142
 Alpha virt. eigenvalues --    1.39270   1.42344   1.43212   1.43531   1.45339
 Alpha virt. eigenvalues --    1.46365   1.47342   1.49277   1.50120   1.51128
 Alpha virt. eigenvalues --    1.51359   1.52793   1.54207   1.54758   1.56164
 Alpha virt. eigenvalues --    1.57643   1.58954   1.59495   1.61652   1.64846
 Alpha virt. eigenvalues --    1.68418   1.72209   1.73762   1.75601   1.76797
 Alpha virt. eigenvalues --    1.78289   1.81472   1.81824   1.86913   1.87469
 Alpha virt. eigenvalues --    1.88432   1.89290   1.90409   1.94396   1.96601
 Alpha virt. eigenvalues --    1.98018   1.98729   1.99675   2.00689   2.01427
 Alpha virt. eigenvalues --    2.02486   2.03376   2.03976   2.04727   2.05742
 Alpha virt. eigenvalues --    2.07820   2.08543   2.09674   2.10439   2.10881
 Alpha virt. eigenvalues --    2.11743   2.13251   2.13857   2.15683   2.18081
 Alpha virt. eigenvalues --    2.18837   2.19132   2.20713   2.20922   2.22265
 Alpha virt. eigenvalues --    2.22556   2.24139   2.26075   2.27572   2.28718
 Alpha virt. eigenvalues --    2.30888   2.37054   2.38011   2.38451   2.38952
 Alpha virt. eigenvalues --    2.40351   2.42282   2.44639   2.47443   2.48376
 Alpha virt. eigenvalues --    2.49476   2.49902   2.51226   2.52872   2.53960
 Alpha virt. eigenvalues --    2.56448   2.57007   2.59328   2.60727   2.61949
 Alpha virt. eigenvalues --    2.63055   2.64084   2.65370   2.67348   2.68846
 Alpha virt. eigenvalues --    2.70066   2.71854   2.72709   2.73330   2.74649
 Alpha virt. eigenvalues --    2.76469   2.79906   2.81146   2.82559   2.84028
 Alpha virt. eigenvalues --    2.84402   2.84792   2.86024   2.88646   2.89090
 Alpha virt. eigenvalues --    2.90690   2.91545   2.94645   2.95590   2.97950
 Alpha virt. eigenvalues --    2.99579   3.00066   3.03568   3.07277   3.08136
 Alpha virt. eigenvalues --    3.13024   3.13860   3.16832   3.19277   3.26575
 Alpha virt. eigenvalues --    3.27544   3.31639   3.36308   3.37555   3.38268
 Alpha virt. eigenvalues --    3.39003   3.44624   3.45188   3.49352   3.49532
 Alpha virt. eigenvalues --    3.54185   3.57942   3.58986   3.60170   3.62483
 Alpha virt. eigenvalues --    3.62735   3.64012   3.68021   3.99886   4.40664
 Alpha virt. eigenvalues --    4.43400   4.45796   4.52568   4.54735   4.56557
 Alpha virt. eigenvalues --    4.59295   4.61859   4.63007   4.68113   4.72648
 Alpha virt. eigenvalues --    4.77771   4.80322   4.95099   4.97834
          Condensed to atoms (all electrons):
              1          2          3          4          5          6
     1  C   17.393079  -0.793224  -1.719464  -5.431680  -7.653673   0.107704
     2  C   -0.793224   6.810114   0.440654   0.276049  -0.284721   0.228830
     3  C   -1.719464   0.440654   6.854837   1.152802   0.092214   0.275124
     4  C   -5.431680   0.276049   1.152802  16.583908  -0.997273  -0.971996
     5  C   -7.653673  -0.284721   0.092214  -0.997273  16.344961   0.679010
     6  C    0.107704   0.228830   0.275124  -0.971996   0.679010   5.534370
     7  C    4.744216  -0.938647  -1.309539  -5.803963  -2.835095   0.056721
     8  C   -0.534801   0.147065   0.126791   0.631531   0.482917  -0.023194
     9  C   -0.714610  -0.000657   0.009603   0.676426   0.416893   0.022096
    10  O    0.030189  -0.001061   0.018308   0.013439  -0.056356  -0.002218
    11  C    0.052265  -0.001272   0.008789  -0.033013  -0.033142  -0.006407
    12  O   -0.084954   0.072073  -0.032101   0.189794   0.002431  -0.002449
    13  C    0.155428  -0.007184  -0.037133  -0.432022  -0.109299   0.007461
    14  O    0.013230  -0.003540  -0.003829   0.014563  -0.025664   0.000641
    15  C    0.037507   0.001527   0.007955  -0.004942  -0.035124  -0.004217
    16  H    0.185142   0.005858   0.048595   0.088871  -0.013814  -0.009168
    17  H    0.008811   0.263255  -0.006598   0.038755   0.017948   0.003008
    18  H    0.037301  -0.006227   0.251385   0.007504   0.001829   0.032712
    19  H    0.028025  -0.021086  -0.002245   0.034750   0.233435  -0.011791
    20  H    0.001809   0.021609   0.027168   0.002497  -0.009489   0.282012
    21  H    0.172805   0.000242   0.049146   0.065327  -0.181419  -0.004876
    22  H    0.067499  -0.020805   0.003138   0.067864  -0.132616  -0.003654
    23  H   -0.000371  -0.000116   0.000576  -0.001013  -0.000206   0.000090
    24  H    0.005370   0.000955  -0.001505   0.002393  -0.001260  -0.002044
    25  H    0.015536  -0.008281   0.001196  -0.049311   0.011802   0.001062
    26  H   -0.004428   0.003693   0.000307  -0.003068   0.014920  -0.000035
    27  H    0.000532  -0.000208  -0.000280  -0.003441  -0.003170   0.000037
    28  H    0.012463  -0.001107  -0.000012  -0.018178  -0.016046  -0.000064
    29  H    0.000235   0.000105   0.000039   0.000266  -0.000296  -0.000032
    30  H    0.000157   0.000003   0.000035  -0.000204  -0.000026   0.000009
    31  H    0.000430  -0.000717  -0.000167  -0.001481   0.000560   0.000218
              7          8          9         10         11         12
     1  C    4.744216  -0.534801  -0.714610   0.030189   0.052265  -0.084954
     2  C   -0.938647   0.147065  -0.000657  -0.001061  -0.001272   0.072073
     3  C   -1.309539   0.126791   0.009603   0.018308   0.008789  -0.032101
     4  C   -5.803963   0.631531   0.676426   0.013439  -0.033013   0.189794
     5  C   -2.835095   0.482917   0.416893  -0.056356  -0.033142   0.002431
     6  C    0.056721  -0.023194   0.022096  -0.002218  -0.006407  -0.002449
     7  C   13.331123  -1.557546  -0.571728  -0.009298   0.001280  -0.059172
     8  C   -1.557546   8.243519  -0.787973  -0.281421   0.028009   0.009435
     9  C   -0.571728  -0.787973   6.590476   0.337569  -0.248964   0.028340
    10  O   -0.009298  -0.281421   0.337569   8.404850   0.053569  -0.002896
    11  C    0.001280   0.028009  -0.248964   0.053569   5.361784  -0.002173
    12  O   -0.059172   0.009435   0.028340  -0.002896  -0.002173   8.326871
    13  C    0.602641  -0.660883  -0.143511  -0.016614  -0.003392  -0.073604
    14  O    0.011591  -0.058572   0.645133  -0.172355  -0.069776  -0.002822
    15  C   -0.008837  -0.033367   0.007585  -0.013201   0.123407  -0.000075
    16  H    0.014066  -0.010468   0.012765  -0.000555  -0.004356  -0.000305
    17  H    0.001573  -0.000615   0.000380  -0.000010  -0.000022   0.000024
    18  H    0.001658  -0.001164   0.001842  -0.000056   0.000057   0.000015
    19  H    0.035105   0.008507  -0.001805  -0.000301   0.000417   0.002642
    20  H    0.001319  -0.000176  -0.000370   0.000010   0.000024  -0.000002
    21  H    0.214312   0.037121  -0.004546   0.000580   0.001968  -0.049108
    22  H    0.042290   0.360097  -0.042826  -0.001565   0.001025  -0.003989
    23  H    0.001838  -0.011130   0.011727  -0.044391   0.395480  -0.000004
    24  H   -0.003635  -0.004787  -0.045681  -0.035484   0.410579   0.000010
    25  H    0.090583  -0.080380  -0.003579   0.000047   0.000163   0.243459
    26  H   -0.055056  -0.033172  -0.010911  -0.000008   0.000329   0.013210
    27  H    0.042394  -0.181706   0.030495   0.003892   0.003017   0.000236
    28  H    0.054794  -0.075128  -0.019339  -0.000062  -0.001450  -0.007814
    29  H   -0.000661  -0.002366  -0.005203  -0.001656  -0.063048   0.000000
    30  H    0.000115  -0.000173   0.001516   0.006819  -0.057961   0.000000
    31  H    0.001368  -0.005082   0.004894  -0.003261  -0.061548   0.000000
             13         14         15         16         17         18
     1  C    0.155428   0.013230   0.037507   0.185142   0.008811   0.037301
     2  C   -0.007184  -0.003540   0.001527   0.005858   0.263255  -0.006227
     3  C   -0.037133  -0.003829   0.007955   0.048595  -0.006598   0.251385
     4  C   -0.432022   0.014563  -0.004942   0.088871   0.038755   0.007504
     5  C   -0.109299  -0.025664  -0.035124  -0.013814   0.017948   0.001829
     6  C    0.007461   0.000641  -0.004217  -0.009168   0.003008   0.032712
     7  C    0.602641   0.011591  -0.008837   0.014066   0.001573   0.001658
     8  C   -0.660883  -0.058572  -0.033367  -0.010468  -0.000615  -0.001164
     9  C   -0.143511   0.645133   0.007585   0.012765   0.000380   0.001842
    10  O   -0.016614  -0.172355  -0.013201  -0.000555  -0.000010  -0.000056
    11  C   -0.003392  -0.069776   0.123407  -0.004356  -0.000022   0.000057
    12  O   -0.073604  -0.002822  -0.000075  -0.000305   0.000024   0.000015
    13  C    6.086505  -0.061370  -0.001648   0.000063   0.000101   0.000073
    14  O   -0.061370   8.125698   0.003471  -0.000590   0.000001  -0.000053
    15  C   -0.001648   0.003471   5.315978  -0.000765   0.000020  -0.000234
    16  H    0.000063  -0.000590  -0.000765   0.512994   0.000011  -0.003814
    17  H    0.000101   0.000001   0.000020   0.000011   0.497043  -0.000122
    18  H    0.000073  -0.000053  -0.000234  -0.003814  -0.000122   0.498386
    19  H    0.013046  -0.000043   0.000052  -0.000113  -0.003915   0.000011
    20  H   -0.000025   0.000001   0.000045  -0.000124  -0.003816  -0.003886
    21  H   -0.044441   0.005996   0.000401   0.002070   0.000002  -0.000006
    22  H   -0.041734   0.007467  -0.001084   0.000006   0.000003   0.000000
    23  H   -0.001490   0.001165  -0.021994   0.000001   0.000000   0.000000
    24  H    0.001044   0.005250  -0.002423  -0.000029   0.000000  -0.000004
    25  H    0.034863   0.000010  -0.000001  -0.000002   0.000000   0.000000
    26  H    0.439909   0.000455  -0.000060   0.000000   0.000000   0.000000
    27  H    0.466583  -0.000457  -0.000182   0.000000   0.000000   0.000000
    28  H    0.420449   0.002124   0.000003   0.000001   0.000000   0.000000
    29  H    0.000147  -0.000039   0.436091   0.000000   0.000000   0.000000
    30  H    0.000050   0.000127   0.416480   0.000000   0.000000   0.000000
    31  H    0.000069  -0.000180   0.428111   0.000000   0.000000   0.000000
             19         20         21         22         23         24
     1  C    0.028025   0.001809   0.172805   0.067499  -0.000371   0.005370
     2  C   -0.021086   0.021609   0.000242  -0.020805  -0.000116   0.000955
     3  C   -0.002245   0.027168   0.049146   0.003138   0.000576  -0.001505
     4  C    0.034750   0.002497   0.065327   0.067864  -0.001013   0.002393
     5  C    0.233435  -0.009489  -0.181419  -0.132616  -0.000206  -0.001260
     6  C   -0.011791   0.282012  -0.004876  -0.003654   0.000090  -0.002044
     7  C    0.035105   0.001319   0.214312   0.042290   0.001838  -0.003635
     8  C    0.008507  -0.000176   0.037121   0.360097  -0.011130  -0.004787
     9  C   -0.001805  -0.000370  -0.004546  -0.042826   0.011727  -0.045681
    10  O   -0.000301   0.000010   0.000580  -0.001565  -0.044391  -0.035484
    11  C    0.000417   0.000024   0.001968   0.001025   0.395480   0.410579
    12  O    0.002642  -0.000002  -0.049108  -0.003989  -0.000004   0.000010
    13  C    0.013046  -0.000025  -0.044441  -0.041734  -0.001490   0.001044
    14  O   -0.000043   0.000001   0.005996   0.007467   0.001165   0.005250
    15  C    0.000052   0.000045   0.000401  -0.001084  -0.021994  -0.002423
    16  H   -0.000113  -0.000124   0.002070   0.000006   0.000001  -0.000029
    17  H   -0.003915  -0.003816   0.000002   0.000003   0.000000   0.000000
    18  H    0.000011  -0.003886  -0.000006   0.000000   0.000000  -0.000004
    19  H    0.504599  -0.000118  -0.000046  -0.000248   0.000000   0.000000
    20  H   -0.000118   0.499746   0.000000   0.000000   0.000000   0.000000
    21  H   -0.000046   0.000000   0.566645   0.003612   0.000000  -0.000003
    22  H   -0.000248   0.000000   0.003612   0.498181  -0.000005  -0.000001
    23  H    0.000000   0.000000   0.000000  -0.000005   0.530510  -0.034136
    24  H    0.000000   0.000000  -0.000003  -0.000001  -0.034136   0.530808
    25  H    0.000062   0.000000  -0.008843   0.000013   0.000000   0.000000
    26  H   -0.000004   0.000000   0.000094  -0.003646   0.000000   0.000000
    27  H    0.000002   0.000000  -0.000020  -0.002324  -0.000006   0.000000
    28  H   -0.000001   0.000000   0.002241   0.003828  -0.000004   0.000001
    29  H    0.000000   0.000000   0.000000   0.000000  -0.005160   0.003980
    30  H    0.000000   0.000000   0.000000   0.000000  -0.001720  -0.001717
    31  H    0.000000   0.000000   0.000000  -0.000004   0.003970  -0.005239
             25         26         27         28         29         30
     1  C    0.015536  -0.004428   0.000532   0.012463   0.000235   0.000157
     2  C   -0.008281   0.003693  -0.000208  -0.001107   0.000105   0.000003
     3  C    0.001196   0.000307  -0.000280  -0.000012   0.000039   0.000035
     4  C   -0.049311  -0.003068  -0.003441  -0.018178   0.000266  -0.000204
     5  C    0.011802   0.014920  -0.003170  -0.016046  -0.000296  -0.000026
     6  C    0.001062  -0.000035   0.000037  -0.000064  -0.000032   0.000009
     7  C    0.090583  -0.055056   0.042394   0.054794  -0.000661   0.000115
     8  C   -0.080380  -0.033172  -0.181706  -0.075128  -0.002366  -0.000173
     9  C   -0.003579  -0.010911   0.030495  -0.019339  -0.005203   0.001516
    10  O    0.000047  -0.000008   0.003892  -0.000062  -0.001656   0.006819
    11  C    0.000163   0.000329   0.003017  -0.001450  -0.063048  -0.057961
    12  O    0.243459   0.013210   0.000236  -0.007814   0.000000   0.000000
    13  C    0.034863   0.439909   0.466583   0.420449   0.000147   0.000050
    14  O    0.000010   0.000455  -0.000457   0.002124  -0.000039   0.000127
    15  C   -0.000001  -0.000060  -0.000182   0.000003   0.436091   0.416480
    16  H   -0.000002   0.000000   0.000000   0.000001   0.000000   0.000000
    17  H    0.000000   0.000000   0.000000   0.000000   0.000000   0.000000
    18  H    0.000000   0.000000   0.000000   0.000000   0.000000   0.000000
    19  H    0.000062  -0.000004   0.000002  -0.000001   0.000000   0.000000
    20  H    0.000000   0.000000   0.000000   0.000000   0.000000   0.000000
    21  H   -0.008843   0.000094  -0.000020   0.002241   0.000000   0.000000
    22  H    0.000013  -0.003646  -0.002324   0.003828   0.000000   0.000000
    23  H    0.000000   0.000000  -0.000006  -0.000004  -0.005160  -0.001720
    24  H    0.000000   0.000000   0.000000   0.000001   0.003980  -0.001717
    25  H    0.348134  -0.001512   0.000001   0.000420   0.000000   0.000000
    26  H   -0.001512   0.500712  -0.022845  -0.025618   0.000000   0.000000
    27  H    0.000001  -0.022845   0.509599  -0.023724  -0.000001   0.000000
    28  H    0.000420  -0.025618  -0.023724   0.507392   0.000000   0.000000
    29  H    0.000000   0.000000  -0.000001   0.000000   0.512888  -0.022768
    30  H    0.000000   0.000000   0.000000   0.000000  -0.022768   0.501068
    31  H    0.000000   0.000000   0.000000   0.000000  -0.028614  -0.022603
             31
     1  C    0.000430
     2  C   -0.000717
     3  C   -0.000167
     4  C   -0.001481
     5  C    0.000560
     6  C    0.000218
     7  C    0.001368
     8  C   -0.005082
     9  C    0.004894
    10  O   -0.003261
    11  C   -0.061548
    12  O    0.000000
    13  C    0.000069
    14  O   -0.000180
    15  C    0.428111
    16  H    0.000000
    17  H    0.000000
    18  H    0.000000
    19  H    0.000000
    20  H    0.000000
    21  H    0.000000
    22  H   -0.000004
    23  H    0.003970
    24  H   -0.005239
    25  H    0.000000
    26  H    0.000000
    27  H    0.000000
    28  H    0.000000
    29  H   -0.028614
    30  H   -0.022603
    31  H    0.511485
 Mulliken atomic charges:
              1
     1  C   -0.132527
     2  C   -0.183179
     3  C   -0.255791
     4  C   -0.095156
     5  C    0.089767
     6  C   -0.188961
     7  C   -0.095808
     8  C    0.269112
     9  C   -0.196037
    10  O   -0.226501
    11  C    0.144362
    12  O   -0.567073
    13  C   -0.594081
    14  O   -0.437634
    15  C   -0.650481
    16  H    0.173656
    17  H    0.184163
    18  H    0.182791
    19  H    0.181066
    20  H    0.181765
    21  H    0.170747
    22  H    0.199479
    23  H    0.176389
    24  H    0.177560
    25  H    0.404558
    26  H    0.186734
    27  H    0.181573
    28  H    0.184828
    29  H    0.176095
    30  H    0.180791
    31  H    0.177790
 Sum of Mulliken atomic charges =   0.00000
 Mulliken charges with hydrogens summed into heavy atoms:
              1
     1  C    0.041130
     2  C    0.000984
     3  C   -0.073000
     4  C   -0.095156
     5  C    0.270833
     6  C   -0.007196
     7  C    0.074939
     8  C    0.468591
     9  C   -0.196037
    10  O   -0.226501
    11  C    0.498311
    12  O   -0.162515
    13  C   -0.040945
    14  O   -0.437634
    15  C   -0.115804
 Sum of Mulliken charges with hydrogens summed into heavy atoms =   0.00000
 Electronic spatial extent (au):  <R**2>=           3521.0988
 Charge=              0.0000 electrons
 Dipole moment (field-independent basis, Debye):
    X=             -1.6196    Y=             -0.4730    Z=             -0.7372  Tot=              1.8413
 Quadrupole moment (field-independent basis, Debye-Ang):
   XX=            -89.4992   YY=            -75.8019   ZZ=            -91.3243
   XY=             -2.1453   XZ=              3.2186   YZ=              0.2370
 Traceless Quadrupole moment (field-independent basis, Debye-Ang):
   XX=             -3.9574   YY=              9.7399   ZZ=             -5.7825
   XY=             -2.1453   XZ=              3.2186   YZ=              0.2370
 Octapole moment (field-independent basis, Debye-Ang**2):
  XXX=            -54.9998  YYY=             30.4096  ZZZ=             -7.7289  XYY=             -9.9957
  XXY=            -35.1770  XXZ=            -15.4876  XZZ=             14.1534  YZZ=             -2.1472
  YYZ=             15.8413  XYZ=              9.5787
 Hexadecapole moment (field-independent basis, Debye-Ang**3):
 XXXX=          -2525.2255 YYYY=          -1468.6348 ZZZZ=           -511.6969 XXXY=              4.1423
 XXXZ=            -35.7131 YYYX=             19.7981 YYYZ=             23.5321 ZZZX=              2.7166
 ZZZY=            -11.0558 XXYY=           -631.9509 XXZZ=           -509.7636 YYZZ=           -354.5007
 XXYZ=              4.3793 YYXZ=             18.6749 ZZXY=             -2.3199
 N-N= 1.012620597198D+03 E-N=-3.637328503294D+03  KE= 6.859233821055D+02
 1\1\GINC-COMPUTE-5-22\SP\RwB97XD\6-31+G(d,p)\C12H16O3\ELUCIANO.IQUIR\1
 7-May-2022\0\\# wb97xd/6-31+g** scrf=(pcm,solvent=chloroform,smd,dovac
 uum) nmr\\comment\\0,1\C,0,1.611726392,0.349247757,-1.531791317\C,0,0.
 265469799,2.738598214,-2.03375537\C,0,1.338092699,0.736150418,-2.84508
 2234\C,0,1.215890782,1.153673153,-0.45143945\C,0,0.537182738,2.3523082
 97,-0.720215074\C,0,0.66530516,1.930154072,-3.095492316\C,0,1.48711582
 6,0.703188255,0.972152919\C,0,0.243465208,0.088482652,1.632376485\C,0,
 -0.097849045,-1.205908666,0.931018609\O,0,-1.405005816,-1.214288461,0.
 552359418\C,0,-1.808255308,-2.395745024,-0.149466059\O,0,1.924878579,1
 .843887985,1.719879707\C,0,0.446792841,-0.207724765,3.117875853\O,0,0.
 693771043,-2.12346738,0.753185271\C,0,-3.26393267,-2.238511556,-0.5428
 90637\H,0,2.133211392,-0.590358591,-1.357206673\H,0,-0.255765567,3.672
 465007,-2.226512357\H,0,1.650787277,0.104805098,-3.672658729\H,0,0.224
 589379,2.995754574,0.100078227\H,0,0.454778377,2.232135501,-4.11787402
 2\H,0,2.32303641,-0.008526893,0.966070415\H,0,-0.60185931,0.783881665,
 1.547015514\H,0,-1.692554633,-3.268821394,0.502333683\H,0,-1.193925624
 ,-2.521165031,-1.048232068\H,0,2.524820154,1.518779428,2.412000812\H,0
 ,0.587416962,0.714697693,3.690144541\H,0,-0.423298605,-0.728488395,3.5
 33121478\H,0,1.321196708,-0.847761923,3.280088093\H,0,-3.889231425,-2.
 091062243,0.343872183\H,0,-3.61951852,-3.120107021,-1.08343944\H,0,-3.
 398331203,-1.356272425,-1.177517461\\Version=EM64L-G09RevC.01\State=1-
 A\HF=-692.4461516\RMSD=3.526e-09\Dipole=-0.6171074,-0.3232288,0.198719
 \Quadrupole=-0.2692993,-5.887397,6.1566963,1.3607087,3.0512126,0.78005
 55\PG=C01 [X(C12H16O3)]\\@


 The most important thing in communication is to hear what isn't being said.
 -- Peter F. Drucker
 Job cpu time:  0 days  0 hours 45 minutes 13.5 seconds.
 File lengths (MBytes):  RWF=    123 Int=      0 D2E=      0 Chk=      9 Scr=      1
 Normal termination of Gaussian 09 at Tue May 17 16:23:31 2022.
