 Entering Gaussian System, Link 0=g09
 Input=/home/eluciano.iquir/wb9/73b_024.gjc
 Output=/home/eluciano.iquir/wb9/73b_024.log
 Initial command:
 /share/apps/Gaussian09/EM64T.SSE4.2-enabled/g09/l1.exe /tmp/Gau-31499.inp -scrdir=/tmp/
 Entering Link 1 = /share/apps/Gaussian09/EM64T.SSE4.2-enabled/g09/l1.exe PID=     31500.
  
 Copyright (c) 1988,1990,1992,1993,1995,1998,2003,2009,2011,
            Gaussian, Inc.  All Rights Reserved.
  
 This is part of the Gaussian(R) 09 program.  It is based on
 the Gaussian(R) 03 system (copyright 2003, Gaussian, Inc.),
 the Gaussian(R) 98 system (copyright 1998, Gaussian, Inc.),
 the Gaussian(R) 94 system (copyright 1995, Gaussian, Inc.),
 the Gaussian 92(TM) system (copyright 1992, Gaussian, Inc.),
 the Gaussian 90(TM) system (copyright 1990, Gaussian, Inc.),
 the Gaussian 88(TM) system (copyright 1988, Gaussian, Inc.),
 the Gaussian 86(TM) system (copyright 1986, Carnegie Mellon
 University), and the Gaussian 82(TM) system (copyright 1983,
 Carnegie Mellon University). Gaussian is a federally registered
 trademark of Gaussian, Inc.
  
 This software contains proprietary and confidential information,
 including trade secrets, belonging to Gaussian, Inc.
  
 This software is provided under written license and may be
 used, copied, transmitted, or stored only in accord with that
 written license.
  
 The following legend is applicable only to US Government
 contracts under FAR:
  
                    RESTRICTED RIGHTS LEGEND
  
 Use, reproduction and disclosure by the US Government is
 subject to restrictions as set forth in subparagraphs (a)
 and (c) of the Commercial Computer Software - Restricted
 Rights clause in FAR 52.227-19.
  
 Gaussian, Inc.
 340 Quinnipiac St., Bldg. 40, Wallingford CT 06492
  
  
 ---------------------------------------------------------------
 Warning -- This program may not be used in any manner that
 competes with the business of Gaussian, Inc. or will provide
 assistance to any competitor of Gaussian, Inc.  The licensee
 of this program is prohibited from giving any competitor of
 Gaussian, Inc. access to this program.  By using this program,
 the user acknowledges that Gaussian, Inc. is engaged in the
 business of creating and licensing software in the field of
 computational chemistry and represents and warrants to the
 licensee that it is not a competitor of Gaussian, Inc. and that
 it will not use this program in any manner prohibited above.
 ---------------------------------------------------------------
  

 Cite this work as:
 Gaussian 09, Revision C.01,
 M. J. Frisch, G. W. Trucks, H. B. Schlegel, G. E. Scuseria, 
 M. A. Robb, J. R. Cheeseman, G. Scalmani, V. Barone, B. Mennucci, 
 G. A. Petersson, H. Nakatsuji, M. Caricato, X. Li, H. P. Hratchian, 
 A. F. Izmaylov, J. Bloino, G. Zheng, J. L. Sonnenberg, M. Hada, 
 M. Ehara, K. Toyota, R. Fukuda, J. Hasegawa, M. Ishida, T. Nakajima, 
 Y. Honda, O. Kitao, H. Nakai, T. Vreven, J. A. Montgomery, Jr., 
 J. E. Peralta, F. Ogliaro, M. Bearpark, J. J. Heyd, E. Brothers, 
 K. N. Kudin, V. N. Staroverov, T. Keith, R. Kobayashi, J. Normand, 
 K. Raghavachari, A. Rendell, J. C. Burant, S. S. Iyengar, J. Tomasi, 
 M. Cossi, N. Rega, J. M. Millam, M. Klene, J. E. Knox, J. B. Cross, 
 V. Bakken, C. Adamo, J. Jaramillo, R. Gomperts, R. E. Stratmann, 
 O. Yazyev, A. J. Austin, R. Cammi, C. Pomelli, J. W. Ochterski, 
 R. L. Martin, K. Morokuma, V. G. Zakrzewski, G. A. Voth, 
 P. Salvador, J. J. Dannenberg, S. Dapprich, A. D. Daniels, 
 O. Farkas, J. B. Foresman, J. V. Ortiz, J. Cioslowski, 
 and D. J. Fox, Gaussian, Inc., Wallingford CT, 2010.
 
 ******************************************
 Gaussian 09:  EM64L-G09RevC.01 23-Sep-2011
                18-May-2022 
 ******************************************
 %nprocshared=4
 Will use up to    4 processors via shared memory.
 ----------------------------------------------------------------
 # wb97xd/6-31+g** scrf=(pcm,solvent=chloroform,smd,dovacuum) nmr
 ----------------------------------------------------------------
 1/38=1/1;
 2/12=2,17=6,18=5,40=1/2;
 3/5=1,6=6,7=111,11=2,16=1,25=1,30=1,70=32101,72=7,74=-58/1,2,8,3;
 4//1;
 5/5=2,38=5,53=7/2;
 8/6=1,10=90,11=11/1;
 10/13=100,45=16/2;
 6/7=2,8=2,9=2,10=2,28=1/1;
 99/9=1/99;
 -------
 comment
 -------
 Charge =  0 Multiplicity = 1
 Symbolic Z-Matrix:
 6                    -1.23822  -2.42615   0.56996 
 6                    -3.74792  -1.5008   -0.21995 
 6                    -2.37916  -3.18911   0.82692 
 6                    -1.33853  -1.1885   -0.0844 
 6                    -2.60864  -0.7364   -0.47671 
 6                    -3.63289  -2.72593   0.43312 
 6                    -0.0983   -0.35399  -0.33128 
 6                     0.00119   0.89577   0.56499 
 6                     1.42117   1.42399   0.46311 
 8                     1.61783   1.99555  -0.7621 
 6                     2.92423   2.54749  -0.99342 
 8                    -0.13948   0.02831  -1.71403 
 6                    -0.31966   0.63435   2.03991 
 8                     2.2739    1.33431   1.33469 
 6                     3.85349   1.47401  -1.52761 
 1                    -0.26915  -2.80569   0.88618 
 1                    -4.72386  -1.14137  -0.535 
 1                    -2.28906  -4.14669   1.33309 
 1                    -2.71056   0.21338  -0.9977 
 1                    -4.5198   -3.32196   0.63057 
 1                     0.7934   -0.98284  -0.2139 
 1                    -0.66808   1.68951   0.20775 
 1                     3.32661   3.01452  -0.08731 
 1                     2.8083    3.33977  -1.74013 
 1                     0.61178   0.62457  -1.88311 
 1                    -0.10574   1.52104   2.64769 
 1                    -1.37738   0.39269   2.18312 
 1                     0.27986  -0.19105   2.4399 
 1                     3.98323   0.66812  -0.79836 
 1                     4.83557   1.89321  -1.76374 
 1                     3.43586   1.01988  -2.43225 
 
                          Input orientation:                          
 ---------------------------------------------------------------------
 Center     Atomic      Atomic             Coordinates (Angstroms)
 Number     Number       Type             X           Y           Z
 ---------------------------------------------------------------------
      1          6           0       -1.238222   -2.426154    0.569961
      2          6           0       -3.747924   -1.500804   -0.219950
      3          6           0       -2.379162   -3.189109    0.826918
      4          6           0       -1.338527   -1.188505   -0.084400
      5          6           0       -2.608640   -0.736402   -0.476709
      6          6           0       -3.632886   -2.725928    0.433118
      7          6           0       -0.098304   -0.353988   -0.331276
      8          6           0        0.001193    0.895770    0.564986
      9          6           0        1.421172    1.423988    0.463110
     10          8           0        1.617830    1.995553   -0.762102
     11          6           0        2.924234    2.547488   -0.993425
     12          8           0       -0.139477    0.028310   -1.714026
     13          6           0       -0.319663    0.634352    2.039906
     14          8           0        2.273905    1.334311    1.334686
     15          6           0        3.853493    1.474007   -1.527607
     16          1           0       -0.269146   -2.805687    0.886177
     17          1           0       -4.723861   -1.141366   -0.534998
     18          1           0       -2.289063   -4.146689    1.333093
     19          1           0       -2.710557    0.213381   -0.997703
     20          1           0       -4.519798   -3.321959    0.630569
     21          1           0        0.793403   -0.982839   -0.213897
     22          1           0       -0.668079    1.689513    0.207751
     23          1           0        3.326608    3.014523   -0.087308
     24          1           0        2.808296    3.339771   -1.740132
     25          1           0        0.611781    0.624571   -1.883110
     26          1           0       -0.105737    1.521041    2.647693
     27          1           0       -1.377380    0.392693    2.183123
     28          1           0        0.279861   -0.191053    2.439901
     29          1           0        3.983229    0.668117   -0.798363
     30          1           0        4.835566    1.893210   -1.763735
     31          1           0        3.435857    1.019884   -2.432253
 ---------------------------------------------------------------------
                    Distance matrix (angstroms):
                    1          2          3          4          5
     1  C    0.000000
     2  C    2.789057   0.000000
     3  C    1.396378   2.412430   0.000000
     4  C    1.403576   2.433332   2.432250   0.000000
     5  C    2.414296   1.395781   2.787091   1.404098   0.000000
     6  C    2.417231   1.393076   1.393356   2.809908   2.415590
     7  C    2.530911   3.827180   3.818591   1.515097   2.543458
     8  C    3.545610   4.518360   4.735075   2.561397   3.249669
     9  C    4.680532   5.978339   5.987951   3.839378   4.667969
    10  O    5.429817   6.427267   6.736590   4.397448   5.040642
    11  C    6.671381   7.842488   8.021732   5.740652   6.454736
    12  O    3.528205   4.194204   4.671656   2.360940   2.865747
    13  C    3.517270   4.628047   4.509072   2.978853   3.667662
    14  O    5.202013   6.834998   6.509239   4.629046   5.604307
    15  C    6.748082   8.266862   8.132307   6.010731   6.910098
    16  H    1.087725   3.876614   2.145388   2.168149   3.407731
    17  H    3.875732   1.086694   3.397894   3.415516   2.154426
    18  H    2.155662   3.397194   1.086872   3.415210   3.873960
    19  H    3.404774   2.149293   3.875049   2.163764   1.088077
    20  H    3.402188   2.153085   2.153724   3.896575   3.400543
    21  H    2.612487   4.570774   4.002010   2.145738   3.421067
    22  H    4.170729   4.454941   5.206931   2.969485   3.181090
    23  H    7.132366   8.393735   8.478011   6.279246   7.031945
    24  H    7.413281   8.290123   8.725007   6.359471   6.895986
    25  H    4.329780   5.127412   5.552850   3.213456   3.768464
    26  H    4.602156   5.533575   5.537977   4.040513   4.595919
    27  H    3.250778   3.870345   3.958809   2.764662   3.140950
    28  H    3.285868   5.001331   4.319775   3.160093   4.140950
    29  H    6.221766   8.050436   7.615757   5.681362   6.747509
    30  H    7.809862   9.358361   9.197486   7.101870   7.999219
    31  H    6.537238   7.928106   7.883670   5.760567   6.591255
                    6          7          8          9         10
     6  C    0.000000
     7  C    4.324773   0.000000
     8  C    5.132311   1.541130   0.000000
     9  C    6.539587   2.470031   1.518464   0.000000
    10  O    7.161770   2.941270   2.363091   1.366202   0.000000
    11  C    8.534621   4.241785   3.701483   2.375488   1.436953
    12  O    4.939632   1.435216   2.442574   3.020507   2.804341
    13  C    4.985048   2.578434   1.531888   2.477966   3.668514
    14  O    7.224164   3.354573   2.439258   1.222637   2.294384
    15  C    8.805099   4.515471   4.421936   3.143508   2.419958
    16  H    3.395051   2.742664   3.725189   4.574528   5.415663
    17  H    2.153674   4.696514   5.261751   6.733401   7.078762
    18  H    2.152761   4.685523   5.591212   6.749456   7.575011
    19  H    3.396686   2.754977   3.203317   4.546507   4.686851
    20  H    1.086670   5.411432   6.183276   7.605733   8.239292
    21  H    4.800939   1.097439   2.182528   2.577838   3.138635
    22  H    5.323250   2.188857   1.097984   2.121481   2.501930
    23  H    9.036491   4.810032   3.996622   2.542332   2.100850
    24  H    9.110683   4.906838   4.377960   3.232432   2.044670
    25  H    5.882853   1.967229   2.537625   2.607476   2.036758
    26  H    5.948266   3.519950   2.177170   2.667072   3.850007
    27  H    4.227957   2.918179   2.184472   3.442950   4.496086
    28  H    5.075664   2.801603   2.184983   2.796185   4.101735
    29  H    8.428600   4.233413   4.215111   2.954115   2.712659
    30  H    9.893295   5.607577   5.457929   4.103303   3.371583
    31  H    8.497563   4.334965   4.560237   3.550406   2.654535
                   11         12         13         14         15
    11  C    0.000000
    12  O    4.031357   0.000000
    13  C    4.835706   3.806804   0.000000
    14  O    2.704593   4.101792   2.777386   0.000000
    15  C    1.516981   4.250717   5.554043   3.272206   0.000000
    16  H    6.510534   3.848299   3.628706   4.879329   6.413914
    17  H    8.503596   4.875944   5.401877   7.654634   9.021998
    18  H    8.797906   5.597881   5.218857   7.131763   8.803796
    19  H    6.099093   2.675411   3.888530   5.616172   6.704978
    20  H    9.617763   5.992382   5.939677   8.266259   9.887922
    21  H    4.196583   2.035454   2.988955   3.155817   4.138367
    22  H    3.883768   2.594657   2.142791   3.170398   4.847940
    23  H    1.095936   4.855659   4.846189   2.439951   2.173766
    24  H    1.094864   4.433489   5.602866   3.709710   2.149111
    25  H    3.136333   0.973912   4.032089   3.690610   3.369959
    26  H    4.846860   4.610203   1.096078   2.724253   5.754202
    27  H    5.765195   4.105234   1.094384   3.865019   6.503906
    28  H    5.126406   4.180798   1.095773   2.743072   5.593245
    29  H    2.166000   4.271358   5.154783   2.813451   1.094572
    30  H    2.162094   5.313321   6.529073   4.058903   1.093598
    31  H    2.159990   3.779164   5.852587   3.954596   1.095004
                   16         17         18         19         20
    16  H    0.000000
    17  H    4.963284   0.000000
    18  H    2.465377   4.295343   0.000000
    19  H    4.315584   2.470391   4.961903   0.000000
    20  H    4.289512   2.480962   2.479899   4.292232   0.000000
    21  H    2.379484   5.528873   4.680248   3.784578   5.866405
    22  H    4.563577   5.001492   6.160783   2.793529   6.334774
    23  H    6.910280   9.070937   9.210660   6.717334  10.111006
    24  H    7.357636   8.846826   9.564249   6.386176  10.183311
    25  H    4.495737   5.779707   6.443895   3.462795   6.944550
    26  H    4.674421   6.208462   6.214358   4.667331   6.856192
    27  H    3.624898   4.576074   4.707410   3.453573   5.107235
    28  H    3.090594   5.898335   4.844734   4.574199   6.009408
    29  H    5.743491   8.897023   8.189451   6.712175   9.500738
    30  H    7.426961  10.104509   9.840278   7.768694  10.975132
    31  H    6.274872   8.651680   8.581726   6.362922   9.566866
                   21         22         23         24         25
    21  H    0.000000
    22  H    3.074928   0.000000
    23  H    4.734138   4.219032   0.000000
    24  H    5.007409   4.313094   1.762459   0.000000
    25  H    2.324441   2.672797   4.038201   3.495345   0.000000
    26  H    3.907245   2.509567   4.635915   5.572466   4.674042
    27  H    3.514270   2.467173   5.844344   6.449580   4.532635
    28  H    2.816610   3.068813   5.093640   6.027634   4.411784
    29  H    3.638990   4.867257   2.538184   3.066779   3.541926
    30  H    5.197379   5.849646   2.518870   2.490566   4.411809
    31  H    3.989307   4.925476   3.080469   2.500948   2.904003
                   26         27         28         29         30
    26  H    0.000000
    27  H    1.762405   0.000000
    28  H    1.767238   1.775710   0.000000
    29  H    5.415019   6.140135   4.993942   0.000000
    30  H    6.634432   7.511987   6.539813   1.777435   0.000000
    31  H    6.212882   6.697934   5.929972   1.758680   1.780113
                   31
    31  H    0.000000
 Stoichiometry    C12H16O3
 Framework group  C1[X(C12H16O3)]
 Deg. of freedom    87
 Full point group                 C1      NOp   1
 Largest Abelian subgroup         C1      NOp   1
 Largest concise Abelian subgroup C1      NOp   1
                         Standard orientation:                         
 ---------------------------------------------------------------------
 Center     Atomic      Atomic             Coordinates (Angstroms)
 Number     Number       Type             X           Y           Z
 ---------------------------------------------------------------------
      1          6           0       -2.401785    0.261541    1.274689
      2          6           0       -3.776580   -0.680410   -0.961716
      3          6           0       -3.794925    0.341596    1.223458
      4          6           0       -1.677807   -0.289580    0.205977
      5          6           0       -2.383952   -0.760300   -0.912626
      6          6           0       -4.481271   -0.128082    0.105525
      7          6           0       -0.164580   -0.343981    0.257947
      8          6           0        0.528400    0.662678   -0.680933
      9          6           0        1.989001    0.742614   -0.273519
     10          8           0        2.636537   -0.404110   -0.637150
     11          6           0        4.036340   -0.461297   -0.317595
     12          8           0        0.201968   -1.685982   -0.094927
     13          6           0       -0.070183    2.072109   -0.637550
     14          8           0        2.509801    1.680318    0.313268
     15          6           0        4.225558   -0.995688    1.089478
     16          1           0       -1.885311    0.634444    2.156360
     17          1           0       -4.310414   -1.054549   -1.831167
     18          1           0       -4.345031    0.769083    2.057681
     19          1           0       -1.845978   -1.204284   -1.747715
     20          1           0       -5.565652   -0.068383    0.068050
     21          1           0        0.170038   -0.197248    1.292777
     22          1           0        0.499075    0.313558   -1.721522
     23          1           0        4.515380    0.516079   -0.445390
     24          1           0        4.500224   -1.144109   -1.036835
     25          1           0        1.173951   -1.730443   -0.137082
     26          1           0        0.540141    2.772099   -1.219706
     27          1           0       -1.078374    2.092503   -1.062771
     28          1           0       -0.120763    2.454250    0.388183
     29          1           0        3.767062   -0.330060    1.827591
     30          1           0        5.288307   -1.100021    1.325347
     31          1           0        3.741597   -1.971938    1.197874
 ---------------------------------------------------------------------
 Rotational constants (GHZ):      1.4618152      0.2917510      0.2766741
 Standard basis: 6-31+G(d,p) (6D, 7F)
 There are   365 symmetry adapted basis functions of A   symmetry.
 Integral buffers will be    131072 words long.
 Raffenetti 2 integral format.
 Two-electron integral symmetry is turned on.
   365 basis functions,   592 primitive gaussians,   365 cartesian basis functions
    56 alpha electrons       56 beta electrons
       nuclear repulsion energy      1001.9278717925 Hartrees.
 NAtoms=   31 NActive=   31 NUniq=   31 SFac= 1.00D+00 NAtFMM=   60 NAOKFM=F Big=F
 Nuclear repulsion after empirical dispersion term =     1001.9065516281 Hartrees.
 ------------------------------------------------------------------------------
 Polarizable Continuum Model (PCM)
 =================================
 Model                : C-PCM.
 Atomic radii         : SMD-Coulomb.
 Polarization charges : Total charges.
 Charge compensation  : None.
 Solution method      : Matrix inversion.
 Cavity type          : VdW (van der Waals Surface) (Alpha=1.000).
 Cavity algorithm     : GePol (No added spheres)
                        Default sphere list used, NSphG=   31.
                        Lebedev-Laikov grids with approx.  5.0 points / Ang**2.
                        Smoothing algorithm: Karplus/York (Gamma=1.0000).
                        Polarization charges: spherical gaussians, with
                                              point-specific exponents (IZeta= 3).
                        Self-potential: point-specific (ISelfS= 7).
                        Self-field    : sphere-specific E.n sum rule (ISelfD= 2).
 Solvent              : Chloroform, Eps=   4.711300 Eps(inf)=   2.090627
 ------------------------------------------------------------------------------
 ------------------------------------------------------------------------------
 Atomic radii for non-electrostatic terms: SMD-CDS.
 ------------------------------------------------------------------------------
 Nuclear repulsion after PCM non-electrostatic terms =     1001.9000935029 Hartrees.
 One-electron integrals computed using PRISM.
 NBasis=   365 RedAO= T  NBF=   365
 NBsUse=   365 1.00D-06 NBFU=   365
 Harris functional with IExCor= 4639 diagonalized for initial guess.
 ExpMin= 4.38D-02 ExpMax= 5.48D+03 ExpMxC= 8.25D+02 IAcc=2 IRadAn=         4 AccDes= 0.00D+00
 HarFok:  IExCor= 4639 AccDes= 0.00D+00 IRadAn=         4 IDoV= 1
 ScaDFX=  1.000000  1.000000  1.000000  1.000000
 FoFCou: FMM=F IPFlag=           0 FMFlag=      100000 FMFlg1=           0
         NFxFlg=           0 DoJE=T BraDBF=F KetDBF=T FulRan=T
         Omega=  0.000000  0.000000  1.000000  0.000000  0.000000 ICntrl=     500 IOpCl=  0
         NMat0=    1 NMatS0=    1 NMatT0=    0 NMatD0=    1 NMtDS0=    0 NMtDT0=    0
         I1Cent=           4 NGrid=           0.
 Petite list used in FoFCou.
 Initial guess orbital symmetries:
       Occupied  (A) (A) (A) (A) (A) (A) (A) (A) (A) (A) (A) (A)
                 (A) (A) (A) (A) (A) (A) (A) (A) (A) (A) (A) (A)
                 (A) (A) (A) (A) (A) (A) (A) (A) (A) (A) (A) (A)
                 (A) (A) (A) (A) (A) (A) (A) (A) (A) (A) (A) (A)
                 (A) (A) (A) (A) (A) (A) (A) (A)
       Virtual   (A) (A) (A) (A) (A) (A) (A) (A) (A) (A) (A) (A)
                 (A) (A) (A) (A) (A) (A) (A) (A) (A) (A) (A) (A)
                 (A) (A) (A) (A) (A) (A) (A) (A) (A) (A) (A) (A)
                 (A) (A) (A) (A) (A) (A) (A) (A) (A) (A) (A) (A)
                 (A) (A) (A) (A) (A) (A) (A) (A) (A) (A) (A) (A)
                 (A) (A) (A) (A) (A) (A) (A) (A) (A) (A) (A) (A)
                 (A) (A) (A) (A) (A) (A) (A) (A) (A) (A) (A) (A)
                 (A) (A) (A) (A) (A) (A) (A) (A) (A) (A) (A) (A)
                 (A) (A) (A) (A) (A) (A) (A) (A) (A) (A) (A) (A)
                 (A) (A) (A) (A) (A) (A) (A) (A) (A) (A) (A) (A)
                 (A) (A) (A) (A) (A) (A) (A) (A) (A) (A) (A) (A)
                 (A) (A) (A) (A) (A) (A) (A) (A) (A) (A) (A) (A)
                 (A) (A) (A) (A) (A) (A) (A) (A) (A) (A) (A) (A)
                 (A) (A) (A) (A) (A) (A) (A) (A) (A) (A) (A) (A)
                 (A) (A) (A) (A) (A) (A) (A) (A) (A) (A) (A) (A)
                 (A) (A) (A) (A) (A) (A) (A) (A) (A) (A) (A) (A)
                 (A) (A) (A) (A) (A) (A) (A) (A) (A) (A) (A) (A)
                 (A) (A) (A) (A) (A) (A) (A) (A) (A) (A) (A) (A)
                 (A) (A) (A) (A) (A) (A) (A) (A) (A) (A) (A) (A)
                 (A) (A) (A) (A) (A) (A) (A) (A) (A) (A) (A) (A)
                 (A) (A) (A) (A) (A) (A) (A) (A) (A) (A) (A) (A)
                 (A) (A) (A) (A) (A) (A) (A) (A) (A) (A) (A) (A)
                 (A) (A) (A) (A) (A) (A) (A) (A) (A) (A) (A) (A)
                 (A) (A) (A) (A) (A) (A) (A) (A) (A) (A) (A) (A)
                 (A) (A) (A) (A) (A) (A) (A) (A) (A) (A) (A) (A)
                 (A) (A) (A) (A) (A) (A) (A) (A) (A)
 The electronic state of the initial guess is 1-A.
 Requested convergence on RMS density matrix=1.00D-08 within 128 cycles.
 Requested convergence on MAX density matrix=1.00D-06.
 Requested convergence on             energy=1.00D-06.
 No special actions if energy rises.
 FoFJK:  IHMeth= 1 ICntrl=     0 DoSepK=T KAlg= 1 I1Cent= 0 FoldK=F
 FoFJK:  IHMeth= 1 ICntrl=     0 DoSepK=T KAlg= 1 I1Cent= 0 FoldK=F
 FoFJK:  IHMeth= 1 ICntrl=     0 DoSepK=T KAlg= 1 I1Cent= 0 FoldK=F
 FoFJK:  IHMeth= 1 ICntrl=     0 DoSepK=T KAlg= 1 I1Cent= 0 FoldK=F
 FoFJK:  IHMeth= 1 ICntrl=     0 DoSepK=T KAlg= 1 I1Cent= 0 FoldK=F
 FoFJK:  IHMeth= 1 ICntrl=     0 DoSepK=T KAlg= 1 I1Cent= 0 FoldK=F
 FoFJK:  IHMeth= 1 ICntrl=     0 DoSepK=T KAlg= 1 I1Cent= 0 FoldK=F
 FoFJK:  IHMeth= 1 ICntrl=     0 DoSepK=T KAlg= 1 I1Cent= 0 FoldK=F
 FoFJK:  IHMeth= 1 ICntrl=     0 DoSepK=T KAlg= 1 I1Cent= 0 FoldK=F
 FoFJK:  IHMeth= 1 ICntrl=     0 DoSepK=T KAlg= 1 I1Cent= 0 FoldK=F
 FoFJK:  IHMeth= 1 ICntrl=     0 DoSepK=T KAlg= 1 I1Cent= 0 FoldK=F
 FoFJK:  IHMeth= 1 ICntrl=     0 DoSepK=T KAlg= 1 I1Cent= 0 FoldK=F
 FoFJK:  IHMeth= 1 ICntrl=     0 DoSepK=T KAlg= 1 I1Cent= 0 FoldK=F
 FoFJK:  IHMeth= 1 ICntrl=     0 DoSepK=T KAlg= 1 I1Cent= 0 FoldK=F
 FoFJK:  IHMeth= 1 ICntrl=     0 DoSepK=T KAlg= 1 I1Cent= 0 FoldK=F
 FoFJK:  IHMeth= 1 ICntrl=     0 DoSepK=T KAlg= 1 I1Cent= 0 FoldK=F
 Error on total polarization charges =  0.04000
 SCF Done:  E(RwB97XD) =  -692.444611488     A.U. after   16 cycles
             Convg  =    0.1946D-08             -V/T =  2.0095
 SMD-CDS (non-electrostatic) energy       (kcal/mol) =      -4.05
 (included in total energy above)
 Range of M.O.s used for correlation:     1   365
 NBasis=   365 NAE=    56 NBE=    56 NFC=     0 NFV=     0
 NROrb=    365 NOA=    56 NOB=    56 NVA=   309 NVB=   309

 **** Warning!!: The largest alpha MO coefficient is  0.15887018D+03

 NEqPCM:  Using equilibrium solvation (IEInf=0, Eps=   4.7113, EpsInf=   2.0906)
          Differentiating once with respect to magnetic field using GIAOs.
          Electric field/nuclear overlap derivatives assumed to be zero.
 FoFCou: FMM=F IPFlag=           0 FMFlag=    10101102 FMFlg1=           0
         NFxFlg=    40000000 DoJE=F BraDBF=F KetDBF=T FulRan=T
         Omega=  0.000000  0.000000  1.000000  0.000000  0.000000 ICntrl=    6100 IOpCl=  0
         NMat0=    1 NMatS0=    1 NMatT0=    0 NMatD0=    1 NMtDS0=    0 NMtDT0=    0
         I1Cent=           7 NGrid=        2283.
 Symmetry not used in FoFCou.
 FoFJK:  IHMeth= 1 ICntrl=  6127 DoSepK=T KAlg= 1 I1Cent= 0 FoldK=F
 FoFJK:  IHMeth= 1 ICntrl=     0 DoSepK=T KAlg= 1 I1Cent= 0 FoldK=F
          There are     3 degrees of freedom in the 1st order CPHF.  IDoFFX=0.
      3 vectors produced by pass  0 Test12= 5.77D-13 3.33D-08 XBig12= 1.42D+02 1.35D+00.
 AX will form     3 AO Fock derivatives at one time.
 FoFJK:  IHMeth= 1 ICntrl=     0 DoSepK=T KAlg= 1 I1Cent= 0 FoldK=F
      3 vectors produced by pass  1 Test12= 5.77D-13 3.33D-08 XBig12= 1.30D+00 3.14D-01.
 FoFJK:  IHMeth= 1 ICntrl=     0 DoSepK=T KAlg= 1 I1Cent= 0 FoldK=F
      3 vectors produced by pass  2 Test12= 5.77D-13 3.33D-08 XBig12= 2.62D-02 6.19D-02.
 FoFJK:  IHMeth= 1 ICntrl=     0 DoSepK=T KAlg= 1 I1Cent= 0 FoldK=F
      3 vectors produced by pass  3 Test12= 5.77D-13 3.33D-08 XBig12= 4.73D-04 4.27D-03.
 FoFJK:  IHMeth= 1 ICntrl=     0 DoSepK=T KAlg= 1 I1Cent= 0 FoldK=F
      3 vectors produced by pass  4 Test12= 5.77D-13 3.33D-08 XBig12= 5.78D-06 3.84D-04.
 FoFJK:  IHMeth= 1 ICntrl=     0 DoSepK=T KAlg= 1 I1Cent= 0 FoldK=F
      3 vectors produced by pass  5 Test12= 5.77D-13 3.33D-08 XBig12= 6.44D-08 5.50D-05.
 FoFJK:  IHMeth= 1 ICntrl=     0 DoSepK=T KAlg= 1 I1Cent= 0 FoldK=F
      3 vectors produced by pass  6 Test12= 5.77D-13 3.33D-08 XBig12= 6.77D-10 6.01D-06.
 FoFJK:  IHMeth= 1 ICntrl=     0 DoSepK=T KAlg= 1 I1Cent= 0 FoldK=F
      3 vectors produced by pass  7 Test12= 5.77D-13 3.33D-08 XBig12= 7.32D-12 5.05D-07.
 FoFJK:  IHMeth= 1 ICntrl=     0 DoSepK=T KAlg= 1 I1Cent= 0 FoldK=F
      3 vectors produced by pass  8 Test12= 5.77D-13 3.33D-08 XBig12= 8.18D-14 8.29D-08.
 FoFJK:  IHMeth= 1 ICntrl=     0 DoSepK=T KAlg= 1 I1Cent= 0 FoldK=F
 Inverted reduced A of dimension    27 with in-core refinement.
 Calculating GIAO nuclear magnetic shielding tensors.
 SCF GIAO Magnetic shielding tensor (ppm):
      1  C    Isotropic =    69.6123   Anisotropy =   163.1822
   XX=    41.4460   YX=    -7.1485   ZX=   -39.0219
   XY=   -16.4406   YY=   147.4931   ZY=   -68.1021
   XZ=   -35.2635   YZ=   -71.5140   ZZ=    19.8978
   Eigenvalues:   -31.4813    61.9178   178.4005
      2  C    Isotropic =    69.8546   Anisotropy =   176.3246
   XX=    36.4084   YX=    -6.2282   ZX=   -37.6534
   XY=    -6.9925   YY=   153.7217   ZY=   -72.6942
   XZ=   -39.0267   YZ=   -76.0448   ZZ=    19.4336
   Eigenvalues:   -33.9574    56.1168   187.4043
      3  C    Isotropic =    70.5362   Anisotropy =   173.9009
   XX=    34.4342   YX=    26.3241   ZX=    31.1020
   XY=    25.6161   YY=   149.3715   ZY=   -75.7560
   XZ=    31.4149   YZ=   -75.9557   ZZ=    27.8028
   Eigenvalues:   -32.1229    57.2613   186.4701
      4  C    Isotropic =    54.8197   Anisotropy =   181.4109
   XX=   -33.9885   YX=    11.4838   ZX=    -0.7178
   XY=    14.7834   YY=   151.6635   ZY=   -53.2063
   XZ=    -7.6708   YZ=   -55.8111   ZZ=    46.7841
   Eigenvalues:   -34.9149    23.6137   175.7603
      5  C    Isotropic =    72.7721   Anisotropy =   182.3135
   XX=    33.6258   YX=    24.3710   ZX=    25.0871
   XY=    18.9763   YY=   155.2327   ZY=   -77.9220
   XZ=    30.7281   YZ=   -81.7338   ZZ=    29.4577
   Eigenvalues:   -28.5680    52.5698   194.3144
      6  C    Isotropic =    71.9986   Anisotropy =   177.5037
   XX=   -29.2647   YX=    13.5719   ZX=    -5.5998
   XY=    15.9049   YY=   164.7161   ZY=   -52.1896
   XZ=    -7.8071   YZ=   -50.8143   ZZ=    80.5443
   Eigenvalues:   -30.4590    56.1203   190.3344
      7  C    Isotropic =   119.5252   Anisotropy =    35.4678
   XX=   111.9490   YX=    -7.4474   ZX=    -6.2769
   XY=    -8.6874   YY=   136.5920   ZY=     9.3471
   XZ=   -10.2226   YZ=     9.9785   ZZ=   110.0347
   Eigenvalues:   102.5487   112.8566   143.1704
      8  C    Isotropic =   148.3248   Anisotropy =    13.5939
   XX=   156.2770   YX=    -1.3065   ZX=    -0.9243
   XY=     6.4638   YY=   146.5407   ZY=    -3.2573
   XZ=    -3.1231   YZ=    -2.3206   ZZ=   142.1566
   Eigenvalues:   140.7673   146.8197   157.3874
      9  C    Isotropic =    18.5901   Anisotropy =    94.6742
   XX=   -17.9680   YX=    50.7390   ZX=    -3.0867
   XY=    79.2493   YY=     5.9667   ZY=   -16.7303
   XZ=     6.8981   YZ=   -28.8192   ZZ=    67.7715
   Eigenvalues:   -73.9283    47.9923    81.7062
     10  O    Isotropic =   129.0406   Anisotropy =   155.4031
   XX=    56.2059   YX=   -28.0865   ZX=   -46.4186
   XY=  -146.1580   YY=   156.7519   ZY=   -75.2600
   XZ=   -81.3437   YZ=   -56.0031   ZZ=   174.1639
   Eigenvalues:   -32.2273   186.7064   232.6427
     11  C    Isotropic =   137.0492   Anisotropy =    67.1718
   XX=   178.1579   YX=    -5.5111   ZX=    10.0311
   XY=   -10.0683   YY=   102.7655   ZY=   -10.7061
   XZ=    12.2607   YZ=    -8.7017   ZZ=   130.2241
   Eigenvalues:    99.4600   129.8571   181.8303
     12  O    Isotropic =   276.1833   Anisotropy =    34.0735
   XX=   297.6142   YX=    -2.0695   ZX=    -7.4788
   XY=    -4.3094   YY=   282.2220   ZY=     4.7362
   XZ=    -0.1647   YZ=    13.1660   ZZ=   248.7136
   Eigenvalues:   246.3033   283.3475   298.8990
     13  C    Isotropic =   181.8485   Anisotropy =    12.5418
   XX=   185.3681   YX=    -1.4241   ZX=     0.0427
   XY=     0.4612   YY=   190.1196   ZY=    -2.4607
   XZ=    -0.6067   YZ=     0.5594   ZZ=   170.0579
   Eigenvalues:   170.0069   185.3289   190.2097
     14  O    Isotropic =   -37.2211   Anisotropy =   557.4300
   XX=  -132.5884   YX=    54.9164   ZX=  -103.5845
   XY=    48.4197   YY=  -185.3978   ZY=  -229.1450
   XZ=   -81.1914   YZ=  -225.5745   ZZ=   206.3229
   Eigenvalues:  -290.1427  -155.9195   334.3989
     15  C    Isotropic =   181.1751   Anisotropy =    26.1880
   XX=   185.6511   YX=    -0.2918   ZX=     2.8380
   XY=    -2.3943   YY=   166.8737   ZY=   -11.3226
   XZ=     8.3754   YZ=   -13.1927   ZZ=   191.0006
   Eigenvalues:   161.7016   183.1900   198.6338
     16  H    Isotropic =    23.8601   Anisotropy =     8.0495
   XX=    27.1208   YX=    -1.0561   ZX=    -2.9389
   XY=    -0.8976   YY=    20.3412   ZY=     0.8029
   XZ=    -3.1574   YZ=     1.2129   ZZ=    24.1184
   Eigenvalues:    20.0798    22.2741    29.2265
     17  H    Isotropic =    23.6669   Anisotropy =     5.1272
   XX=    26.8328   YX=    -0.5820   ZX=    -0.6393
   XY=    -0.4550   YY=    21.0984   ZY=     1.6874
   XZ=    -0.7910   YZ=     1.6277   ZZ=    23.0695
   Eigenvalues:    20.1540    23.7616    27.0850
     18  H    Isotropic =    23.8171   Anisotropy =     4.7086
   XX=    26.6883   YX=     0.2273   ZX=     0.8630
   XY=     0.1284   YY=    21.0005   ZY=     1.4149
   XZ=     0.7920   YZ=     1.3473   ZZ=    23.7626
   Eigenvalues:    20.4246    24.0706    26.9562
     19  H    Isotropic =    23.3583   Anisotropy =     9.9621
   XX=    27.7830   YX=     1.4434   ZX=     3.9791
   XY=     0.8684   YY=    20.1782   ZY=     2.1474
   XZ=     3.4760   YZ=     1.6895   ZZ=    22.1137
   Eigenvalues:    18.8336    21.2416    29.9997
     20  H    Isotropic =    23.6989   Anisotropy =     4.2067
   XX=    24.4959   YX=    -0.0708   ZX=     0.0536
   XY=    -0.0063   YY=    21.2121   ZY=     2.3897
   XZ=    -0.0256   YZ=     2.4672   ZZ=    25.3888
   Eigenvalues:    20.0972    24.4962    26.5034
     21  H    Isotropic =    26.9276   Anisotropy =     5.2202
   XX=    26.3355   YX=    -1.1996   ZX=    -0.7928
   XY=    -1.4213   YY=    25.1778   ZY=     2.5526
   XZ=    -0.8652   YZ=     1.2318   ZZ=    29.2696
   Eigenvalues:    24.0256    26.3495    30.4077
     22  H    Isotropic =    28.6892   Anisotropy =     4.4201
   XX=    27.7704   YX=    -1.5182   ZX=     0.4450
   XY=    -0.5501   YY=    27.2250   ZY=     0.4776
   XZ=    -0.1813   YZ=     2.6341   ZZ=    31.0723
   Eigenvalues:    26.0633    28.3684    31.6360
     23  H    Isotropic =    26.7754   Anisotropy =     6.6428
   XX=    30.1918   YX=     2.6771   ZX=    -0.4445
   XY=     0.8045   YY=    25.9485   ZY=    -2.1910
   XZ=    -1.4352   YZ=    -2.0314   ZZ=    24.1859
   Eigenvalues:    22.7743    26.3479    31.2039
     24  H    Isotropic =    27.6568   Anisotropy =     8.3355
   XX=    29.7439   YX=    -3.8749   ZX=    -2.7382
   XY=    -2.2275   YY=    23.9432   ZY=     1.6681
   XZ=    -1.8603   YZ=     2.2522   ZZ=    29.2832
   Eigenvalues:    22.4961    27.2604    33.2138
     25  H    Isotropic =    27.9038   Anisotropy =    21.2855
   XX=    41.9183   YX=    -0.4631   ZX=    -0.9382
   XY=    -2.2566   YY=    25.0103   ZY=     1.2501
   XZ=    -1.6341   YZ=    -0.7012   ZZ=    16.7828
   Eigenvalues:    16.7121    24.9052    42.0941
     26  H    Isotropic =    30.7540   Anisotropy =    10.7342
   XX=    29.5400   YX=     1.7360   ZX=    -1.9429
   XY=     3.3805   YY=    34.1710   ZY=    -4.5793
   XZ=    -1.4855   YZ=    -4.6953   ZZ=    28.5510
   Eigenvalues:    25.9182    28.4337    37.9101
     27  H    Isotropic =    31.6156   Anisotropy =     6.6009
   XX=    35.2741   YX=    -0.8140   ZX=     3.3147
   XY=     1.8494   YY=    31.8962   ZY=    -2.9028
   XZ=     1.5642   YZ=    -2.6980   ZZ=    27.6766
   Eigenvalues:    25.6701    33.1605    36.0162
     28  H    Isotropic =    30.7615   Anisotropy =     7.7834
   XX=    28.5214   YX=    -1.3520   ZX=    -1.0288
   XY=     1.6106   YY=    32.2041   ZY=     4.6494
   XZ=    -1.6753   YZ=     3.2770   ZZ=    31.5589
   Eigenvalues:    27.0601    29.2739    35.9504
     29  H    Isotropic =    30.1441   Anisotropy =     6.1718
   XX=    28.1622   YX=    -2.5955   ZX=    -0.4104
   XY=    -2.3504   YY=    28.8345   ZY=     1.3182
   XZ=     0.4128   YZ=     2.4981   ZZ=    33.4355
   Eigenvalues:    25.7852    30.3884    34.2586
     30  H    Isotropic =    30.4906   Anisotropy =    11.7469
   XX=    35.9600   YX=    -1.7061   ZX=     3.7099
   XY=    -2.1323   YY=    26.8063   ZY=    -1.1590
   XZ=     4.6918   YZ=    -1.2555   ZZ=    28.7054
   Eigenvalues:    26.2157    26.9342    38.3218
     31  H    Isotropic =    30.4054   Anisotropy =     7.3478
   XX=    28.9100   YX=     1.7458   ZX=     1.0075
   XY=     1.2368   YY=    33.9149   ZY=    -2.1143
   XZ=     0.3373   YZ=    -3.5374   ZZ=    28.3912
   Eigenvalues:    26.5526    29.3595    35.3039
 End of Minotr Frequency-dependent properties file   721 does not exist.
 End of Minotr Frequency-dependent properties file   722 does not exist.

 **********************************************************************

            Population analysis using the SCF density.

 **********************************************************************

 Orbital symmetries:
       Occupied  (A) (A) (A) (A) (A) (A) (A) (A) (A) (A) (A) (A)
                 (A) (A) (A) (A) (A) (A) (A) (A) (A) (A) (A) (A)
                 (A) (A) (A) (A) (A) (A) (A) (A) (A) (A) (A) (A)
                 (A) (A) (A) (A) (A) (A) (A) (A) (A) (A) (A) (A)
                 (A) (A) (A) (A) (A) (A) (A) (A)
       Virtual   (A) (A) (A) (A) (A) (A) (A) (A) (A) (A) (A) (A)
                 (A) (A) (A) (A) (A) (A) (A) (A) (A) (A) (A) (A)
                 (A) (A) (A) (A) (A) (A) (A) (A) (A) (A) (A) (A)
                 (A) (A) (A) (A) (A) (A) (A) (A) (A) (A) (A) (A)
                 (A) (A) (A) (A) (A) (A) (A) (A) (A) (A) (A) (A)
                 (A) (A) (A) (A) (A) (A) (A) (A) (A) (A) (A) (A)
                 (A) (A) (A) (A) (A) (A) (A) (A) (A) (A) (A) (A)
                 (A) (A) (A) (A) (A) (A) (A) (A) (A) (A) (A) (A)
                 (A) (A) (A) (A) (A) (A) (A) (A) (A) (A) (A) (A)
                 (A) (A) (A) (A) (A) (A) (A) (A) (A) (A) (A) (A)
                 (A) (A) (A) (A) (A) (A) (A) (A) (A) (A) (A) (A)
                 (A) (A) (A) (A) (A) (A) (A) (A) (A) (A) (A) (A)
                 (A) (A) (A) (A) (A) (A) (A) (A) (A) (A) (A) (A)
                 (A) (A) (A) (A) (A) (A) (A) (A) (A) (A) (A) (A)
                 (A) (A) (A) (A) (A) (A) (A) (A) (A) (A) (A) (A)
                 (A) (A) (A) (A) (A) (A) (A) (A) (A) (A) (A) (A)
                 (A) (A) (A) (A) (A) (A) (A) (A) (A) (A) (A) (A)
                 (A) (A) (A) (A) (A) (A) (A) (A) (A) (A) (A) (A)
                 (A) (A) (A) (A) (A) (A) (A) (A) (A) (A) (A) (A)
                 (A) (A) (A) (A) (A) (A) (A) (A) (A) (A) (A) (A)
                 (A) (A) (A) (A) (A) (A) (A) (A) (A) (A) (A) (A)
                 (A) (A) (A) (A) (A) (A) (A) (A) (A) (A) (A) (A)
                 (A) (A) (A) (A) (A) (A) (A) (A) (A) (A) (A) (A)
                 (A) (A) (A) (A) (A) (A) (A) (A) (A) (A) (A) (A)
                 (A) (A) (A) (A) (A) (A) (A) (A) (A) (A) (A) (A)
                 (A) (A) (A) (A) (A) (A) (A) (A) (A)
 The electronic state is 1-A.
 Alpha  occ. eigenvalues --  -19.33679 -19.28131 -19.27623 -10.44453 -10.36400
 Alpha  occ. eigenvalues --  -10.35454 -10.32091 -10.31557 -10.30681 -10.30612
 Alpha  occ. eigenvalues --  -10.30580 -10.30543 -10.30470 -10.28945 -10.28819
 Alpha  occ. eigenvalues --   -1.21702  -1.13218  -1.12438  -0.96172  -0.91379
 Alpha  occ. eigenvalues --   -0.87167  -0.85135  -0.84648  -0.77846  -0.76564
 Alpha  occ. eigenvalues --   -0.71406  -0.70158  -0.67194  -0.65290  -0.61833
 Alpha  occ. eigenvalues --   -0.60311  -0.59918  -0.58354  -0.55921  -0.54774
 Alpha  occ. eigenvalues --   -0.53735  -0.53100  -0.51355  -0.50792  -0.50150
 Alpha  occ. eigenvalues --   -0.49283  -0.48477  -0.46985  -0.46590  -0.45649
 Alpha  occ. eigenvalues --   -0.44561  -0.43809  -0.43383  -0.42389  -0.42042
 Alpha  occ. eigenvalues --   -0.40840  -0.39457  -0.37106  -0.36269  -0.33233
 Alpha  occ. eigenvalues --   -0.32577
 Alpha virt. eigenvalues --    0.04604   0.05442   0.06721   0.07180   0.07699
 Alpha virt. eigenvalues --    0.07866   0.08511   0.09538   0.09782   0.10468
 Alpha virt. eigenvalues --    0.10740   0.10968   0.11833   0.12165   0.12893
 Alpha virt. eigenvalues --    0.13177   0.13631   0.14131   0.14515   0.14813
 Alpha virt. eigenvalues --    0.15748   0.15965   0.16784   0.17243   0.17909
 Alpha virt. eigenvalues --    0.18774   0.18831   0.19287   0.19412   0.20257
 Alpha virt. eigenvalues --    0.20778   0.21152   0.21414   0.22170   0.22261
 Alpha virt. eigenvalues --    0.22863   0.23449   0.23825   0.24352   0.24925
 Alpha virt. eigenvalues --    0.25301   0.25745   0.25834   0.26158   0.27134
 Alpha virt. eigenvalues --    0.27473   0.27745   0.28057   0.28440   0.28679
 Alpha virt. eigenvalues --    0.29264   0.29555   0.30440   0.30559   0.31429
 Alpha virt. eigenvalues --    0.31672   0.31857   0.33258   0.33537   0.33776
 Alpha virt. eigenvalues --    0.34522   0.34759   0.35079   0.35521   0.36199
 Alpha virt. eigenvalues --    0.36982   0.37313   0.38658   0.38668   0.38760
 Alpha virt. eigenvalues --    0.39148   0.39681   0.39960   0.40837   0.40929
 Alpha virt. eigenvalues --    0.41530   0.42427   0.43238   0.43591   0.44442
 Alpha virt. eigenvalues --    0.46302   0.46544   0.47333   0.47493   0.48810
 Alpha virt. eigenvalues --    0.49559   0.49964   0.50783   0.52307   0.53636
 Alpha virt. eigenvalues --    0.54448   0.55670   0.60258   0.66611   0.69880
 Alpha virt. eigenvalues --    0.73219   0.74077   0.74490   0.75167   0.76227
 Alpha virt. eigenvalues --    0.76882   0.77917   0.78226   0.79591   0.81253
 Alpha virt. eigenvalues --    0.81953   0.82721   0.83217   0.83755   0.84052
 Alpha virt. eigenvalues --    0.84787   0.86445   0.87605   0.88488   0.89101
 Alpha virt. eigenvalues --    0.90634   0.91048   0.92617   0.93461   0.95345
 Alpha virt. eigenvalues --    0.96622   0.98573   1.00106   1.00973   1.01955
 Alpha virt. eigenvalues --    1.02730   1.03336   1.06387   1.06815   1.07764
 Alpha virt. eigenvalues --    1.08776   1.09418   1.10257   1.10374   1.11994
 Alpha virt. eigenvalues --    1.14171   1.15387   1.15788   1.18554   1.19085
 Alpha virt. eigenvalues --    1.21189   1.21966   1.22916   1.24414   1.25577
 Alpha virt. eigenvalues --    1.27070   1.28759   1.29494   1.30453   1.32187
 Alpha virt. eigenvalues --    1.32897   1.33686   1.35555   1.36299   1.38466
 Alpha virt. eigenvalues --    1.38882   1.40565   1.42958   1.43639   1.44043
 Alpha virt. eigenvalues --    1.44487   1.46622   1.47989   1.48818   1.50304
 Alpha virt. eigenvalues --    1.50867   1.51241   1.53685   1.54433   1.56866
 Alpha virt. eigenvalues --    1.58244   1.58543   1.62282   1.64804   1.65838
 Alpha virt. eigenvalues --    1.68021   1.69042   1.72211   1.75184   1.77016
 Alpha virt. eigenvalues --    1.77651   1.79824   1.82955   1.84158   1.85885
 Alpha virt. eigenvalues --    1.89818   1.90766   1.92615   1.93537   1.95549
 Alpha virt. eigenvalues --    1.96002   1.97407   1.98077   1.99277   1.99765
 Alpha virt. eigenvalues --    2.01824   2.02035   2.03830   2.04972   2.06619
 Alpha virt. eigenvalues --    2.07246   2.08296   2.09776   2.10607   2.11253
 Alpha virt. eigenvalues --    2.12092   2.13710   2.15643   2.17164   2.17736
 Alpha virt. eigenvalues --    2.20248   2.21082   2.21396   2.21660   2.23526
 Alpha virt. eigenvalues --    2.24436   2.25538   2.26732   2.29592   2.31838
 Alpha virt. eigenvalues --    2.34719   2.35796   2.37674   2.39145   2.40336
 Alpha virt. eigenvalues --    2.42495   2.42772   2.44734   2.47925   2.48444
 Alpha virt. eigenvalues --    2.49074   2.49872   2.50706   2.51907   2.53952
 Alpha virt. eigenvalues --    2.56054   2.56465   2.57212   2.58287   2.62451
 Alpha virt. eigenvalues --    2.62917   2.64031   2.65025   2.65780   2.68775
 Alpha virt. eigenvalues --    2.69253   2.71611   2.72161   2.73326   2.75242
 Alpha virt. eigenvalues --    2.76453   2.78757   2.79791   2.81597   2.83212
 Alpha virt. eigenvalues --    2.84185   2.86207   2.86525   2.87898   2.88459
 Alpha virt. eigenvalues --    2.90207   2.93488   2.95041   2.95657   2.96152
 Alpha virt. eigenvalues --    2.97929   3.01015   3.03347   3.06135   3.11623
 Alpha virt. eigenvalues --    3.13092   3.15910   3.16657   3.18173   3.27657
 Alpha virt. eigenvalues --    3.28611   3.29317   3.36448   3.37181   3.38537
 Alpha virt. eigenvalues --    3.39164   3.43298   3.44893   3.48836   3.51475
 Alpha virt. eigenvalues --    3.54179   3.57457   3.59396   3.61364   3.62686
 Alpha virt. eigenvalues --    3.64312   3.65578   3.73596   3.99964   4.40024
 Alpha virt. eigenvalues --    4.41691   4.44329   4.45637   4.51873   4.56099
 Alpha virt. eigenvalues --    4.57873   4.59646   4.64286   4.70205   4.71529
 Alpha virt. eigenvalues --    4.74606   4.80986   4.94042   4.97689
          Condensed to atoms (all electrons):
              1          2          3          4          5          6
     1  C   13.566307   0.045368  -0.927871  -2.305283  -5.956926  -0.001075
     2  C    0.045368   6.544232  -0.005246   0.312577  -0.850337   0.425871
     3  C   -0.927871  -0.005246   6.324955   0.093761   0.154795   0.492199
     4  C   -2.305283   0.312577   0.093761  13.529754  -1.214818  -0.440142
     5  C   -5.956926  -0.850337   0.154795  -1.214818  14.422586   0.300016
     6  C   -0.001075   0.425871   0.492199  -0.440142   0.300016   5.353502
     7  C    2.240391  -0.539950  -0.229314  -4.125324  -1.611447  -0.221220
     8  C   -0.527182   0.001293   0.016629   0.428147   0.554720  -0.016737
     9  C   -0.116967  -0.042973  -0.011350  -0.668091   0.124410  -0.004165
    10  O   -0.024067   0.002025   0.001237   0.001804   0.030239  -0.000156
    11  C    0.002063   0.001019  -0.001378   0.005025  -0.000836   0.000022
    12  O   -0.119445   0.062159  -0.020147   0.234621  -0.027712  -0.005734
    13  C    0.038836   0.005549  -0.045775   0.020577  -0.052049   0.013313
    14  O   -0.000689  -0.000377  -0.003675   0.018193  -0.004390   0.000121
    15  C   -0.003370   0.001095  -0.000136   0.012212   0.003335  -0.000017
    16  H    0.235088   0.002640   0.040620   0.043598   0.002223  -0.004945
    17  H    0.007460   0.267086  -0.003921   0.035569   0.018264   0.003565
    18  H    0.043402   0.001404   0.266154   0.012174  -0.008647   0.014620
    19  H    0.040767  -0.056006  -0.004195   0.031104   0.231160  -0.012950
    20  H   -0.004823   0.021756   0.027096   0.004971  -0.004560   0.279796
    21  H    0.107708  -0.001585   0.037935  -0.118130  -0.117049  -0.005011
    22  H    0.024193  -0.001708   0.000499   0.035709  -0.042704  -0.000927
    23  H   -0.000002  -0.000013   0.000005  -0.002110   0.000185   0.000000
    24  H    0.000042   0.000020   0.000008   0.000919   0.000121   0.000000
    25  H    0.004224  -0.009964   0.003999  -0.021610   0.013403  -0.000022
    26  H    0.009645  -0.002663   0.000225  -0.018634  -0.009569   0.000233
    27  H    0.026486   0.002082  -0.001351   0.032378  -0.005067   0.004878
    28  H    0.004935  -0.000019  -0.006607  -0.019591   0.000036  -0.000695
    29  H    0.000268   0.000012   0.000045   0.004723  -0.000004   0.000001
    30  H    0.000058  -0.000001   0.000003  -0.000217  -0.000035   0.000000
    31  H   -0.000342  -0.000012  -0.000018  -0.002628   0.000519   0.000001
              7          8          9         10         11         12
     1  C    2.240391  -0.527182  -0.116967  -0.024067   0.002063  -0.119445
     2  C   -0.539950   0.001293  -0.042973   0.002025   0.001019   0.062159
     3  C   -0.229314   0.016629  -0.011350   0.001237  -0.001378  -0.020147
     4  C   -4.125324   0.428147  -0.668091   0.001804   0.005025   0.234621
     5  C   -1.611447   0.554720   0.124410   0.030239  -0.000836  -0.027712
     6  C   -0.221220  -0.016737  -0.004165  -0.000156   0.000022  -0.005734
     7  C   10.872335  -1.124786   0.392509   0.006555  -0.019805  -0.081827
     8  C   -1.124786   7.886681  -0.953449  -0.419911  -0.022788  -0.040091
     9  C    0.392509  -0.953449   6.423570   0.365170  -0.084711  -0.002099
    10  O    0.006555  -0.419911   0.365170   8.532989   0.066426   0.006134
    11  C   -0.019805  -0.022788  -0.084711   0.066426   5.116745  -0.000343
    12  O   -0.081827  -0.040091  -0.002099   0.006134  -0.000343   8.375729
    13  C   -0.075043  -0.091764   0.086919   0.031018  -0.003903   0.034920
    14  O   -0.046360  -0.032182   0.550045  -0.145474   0.006091  -0.001889
    15  C    0.014280  -0.040580  -0.018952  -0.065817   0.293868  -0.000040
    16  H   -0.002212  -0.000093  -0.003951  -0.000005  -0.000102  -0.000023
    17  H   -0.001309  -0.000427   0.000044  -0.000001   0.000000  -0.000034
    18  H   -0.002207  -0.000316   0.000045   0.000000   0.000000   0.000000
    19  H    0.074286   0.000958   0.018299  -0.000081  -0.000065   0.000964
    20  H    0.002359  -0.000194  -0.000043   0.000000   0.000000  -0.000001
    21  H    0.371484   0.050390   0.006154  -0.001208   0.000312  -0.051452
    22  H   -0.052896   0.427069  -0.048008   0.000276   0.001553  -0.002541
    23  H    0.004619   0.000294   0.007383  -0.033965   0.392799  -0.000395
    24  H    0.002546  -0.007408   0.010183  -0.058852   0.425336   0.000145
    25  H    0.083654  -0.063897  -0.000075   0.018443   0.004864   0.209839
    26  H    0.044722  -0.152998   0.061118  -0.000384   0.000172  -0.000396
    27  H   -0.043736  -0.042683  -0.026546  -0.000095  -0.000121  -0.000501
    28  H    0.003383  -0.013262  -0.005077  -0.000088  -0.000002   0.000255
    29  H    0.000243  -0.003313  -0.007981  -0.005181  -0.038378   0.000070
    30  H    0.000488   0.001409   0.005572   0.006923  -0.050312  -0.000015
    31  H    0.003351   0.001420   0.010844  -0.003040  -0.048876  -0.001190
             13         14         15         16         17         18
     1  C    0.038836  -0.000689  -0.003370   0.235088   0.007460   0.043402
     2  C    0.005549  -0.000377   0.001095   0.002640   0.267086   0.001404
     3  C   -0.045775  -0.003675  -0.000136   0.040620  -0.003921   0.266154
     4  C    0.020577   0.018193   0.012212   0.043598   0.035569   0.012174
     5  C   -0.052049  -0.004390   0.003335   0.002223   0.018264  -0.008647
     6  C    0.013313   0.000121  -0.000017  -0.004945   0.003565   0.014620
     7  C   -0.075043  -0.046360   0.014280  -0.002212  -0.001309  -0.002207
     8  C   -0.091764  -0.032182  -0.040580  -0.000093  -0.000427  -0.000316
     9  C    0.086919   0.550045  -0.018952  -0.003951   0.000044   0.000045
    10  O    0.031018  -0.145474  -0.065817  -0.000005  -0.000001   0.000000
    11  C   -0.003903   0.006091   0.293868  -0.000102   0.000000   0.000000
    12  O    0.034920  -0.001889  -0.000040  -0.000023  -0.000034   0.000000
    13  C    5.472187  -0.023319  -0.002039   0.004143   0.000310   0.000237
    14  O   -0.023319   8.184988  -0.030538  -0.000008   0.000000   0.000000
    15  C   -0.002039  -0.030538   5.181452   0.000080   0.000000   0.000000
    16  H    0.004143  -0.000008   0.000080   0.507722   0.000011  -0.003855
    17  H    0.000310   0.000000   0.000000   0.000011   0.496539  -0.000123
    18  H    0.000237   0.000000   0.000000  -0.003855  -0.000123   0.496436
    19  H   -0.005767  -0.000014   0.000023  -0.000107  -0.004027   0.000011
    20  H   -0.000052   0.000000   0.000000  -0.000121  -0.003820  -0.003855
    21  H   -0.017385  -0.000218   0.001167   0.001965   0.000002  -0.000005
    22  H   -0.040325   0.004370   0.000249  -0.000011   0.000001   0.000000
    23  H   -0.002863  -0.000700  -0.030727   0.000000   0.000000   0.000000
    24  H   -0.000233   0.000475  -0.041606   0.000000   0.000000   0.000000
    25  H   -0.004010   0.000676  -0.001079  -0.000007   0.000000   0.000000
    26  H    0.431990  -0.002065  -0.000018   0.000005   0.000000   0.000000
    27  H    0.411028   0.002051   0.000013  -0.000052  -0.000004  -0.000003
    28  H    0.394261  -0.001466   0.000137  -0.000158   0.000000  -0.000001
    29  H    0.000188   0.001933   0.410904   0.000000   0.000000   0.000000
    30  H   -0.000131  -0.000130   0.400804   0.000000   0.000000   0.000000
    31  H   -0.000692  -0.000781   0.403466   0.000000   0.000000   0.000000
             19         20         21         22         23         24
     1  C    0.040767  -0.004823   0.107708   0.024193  -0.000002   0.000042
     2  C   -0.056006   0.021756  -0.001585  -0.001708  -0.000013   0.000020
     3  C   -0.004195   0.027096   0.037935   0.000499   0.000005   0.000008
     4  C    0.031104   0.004971  -0.118130   0.035709  -0.002110   0.000919
     5  C    0.231160  -0.004560  -0.117049  -0.042704   0.000185   0.000121
     6  C   -0.012950   0.279796  -0.005011  -0.000927   0.000000   0.000000
     7  C    0.074286   0.002359   0.371484  -0.052896   0.004619   0.002546
     8  C    0.000958  -0.000194   0.050390   0.427069   0.000294  -0.007408
     9  C    0.018299  -0.000043   0.006154  -0.048008   0.007383   0.010183
    10  O   -0.000081   0.000000  -0.001208   0.000276  -0.033965  -0.058852
    11  C   -0.000065   0.000000   0.000312   0.001553   0.392799   0.425336
    12  O    0.000964  -0.000001  -0.051452  -0.002541  -0.000395   0.000145
    13  C   -0.005767  -0.000052  -0.017385  -0.040325  -0.002863  -0.000233
    14  O   -0.000014   0.000000  -0.000218   0.004370  -0.000700   0.000475
    15  C    0.000023   0.000000   0.001167   0.000249  -0.030727  -0.041606
    16  H   -0.000107  -0.000121   0.001965  -0.000011   0.000000   0.000000
    17  H   -0.004027  -0.003820   0.000002   0.000001   0.000000   0.000000
    18  H    0.000011  -0.003855  -0.000005   0.000000   0.000000   0.000000
    19  H    0.504795  -0.000117  -0.000041  -0.000520   0.000000   0.000000
    20  H   -0.000117   0.499123   0.000000   0.000000   0.000000   0.000000
    21  H   -0.000041   0.000000   0.572333   0.003124  -0.000001   0.000000
    22  H   -0.000520   0.000000   0.003124   0.481728   0.000002  -0.000004
    23  H    0.000000   0.000000  -0.000001   0.000002   0.514851  -0.030574
    24  H    0.000000   0.000000   0.000000  -0.000004  -0.030574   0.523234
    25  H   -0.000025   0.000000  -0.003004  -0.001041   0.000072  -0.000062
    26  H    0.000003   0.000000  -0.000116  -0.002541  -0.000005   0.000000
    27  H   -0.000053   0.000000   0.000036  -0.003147   0.000000   0.000000
    28  H   -0.000004   0.000000   0.001515   0.003585   0.000000   0.000000
    29  H    0.000000   0.000000   0.000020  -0.000002  -0.004756   0.003913
    30  H    0.000000   0.000000   0.000000   0.000000  -0.001083  -0.001162
    31  H    0.000000   0.000000  -0.000020   0.000001   0.003789  -0.005108
             25         26         27         28         29         30
     1  C    0.004224   0.009645   0.026486   0.004935   0.000268   0.000058
     2  C   -0.009964  -0.002663   0.002082  -0.000019   0.000012  -0.000001
     3  C    0.003999   0.000225  -0.001351  -0.006607   0.000045   0.000003
     4  C   -0.021610  -0.018634   0.032378  -0.019591   0.004723  -0.000217
     5  C    0.013403  -0.009569  -0.005067   0.000036  -0.000004  -0.000035
     6  C   -0.000022   0.000233   0.004878  -0.000695   0.000001   0.000000
     7  C    0.083654   0.044722  -0.043736   0.003383   0.000243   0.000488
     8  C   -0.063897  -0.152998  -0.042683  -0.013262  -0.003313   0.001409
     9  C   -0.000075   0.061118  -0.026546  -0.005077  -0.007981   0.005572
    10  O    0.018443  -0.000384  -0.000095  -0.000088  -0.005181   0.006923
    11  C    0.004864   0.000172  -0.000121  -0.000002  -0.038378  -0.050312
    12  O    0.209839  -0.000396  -0.000501   0.000255   0.000070  -0.000015
    13  C   -0.004010   0.431990   0.411028   0.394261   0.000188  -0.000131
    14  O    0.000676  -0.002065   0.002051  -0.001466   0.001933  -0.000130
    15  C   -0.001079  -0.000018   0.000013   0.000137   0.410904   0.400804
    16  H   -0.000007   0.000005  -0.000052  -0.000158   0.000000   0.000000
    17  H    0.000000   0.000000  -0.000004   0.000000   0.000000   0.000000
    18  H    0.000000   0.000000  -0.000003  -0.000001   0.000000   0.000000
    19  H   -0.000025   0.000003  -0.000053  -0.000004   0.000000   0.000000
    20  H    0.000000   0.000000   0.000000   0.000000   0.000000   0.000000
    21  H   -0.003004  -0.000116   0.000036   0.001515   0.000020   0.000000
    22  H   -0.001041  -0.002541  -0.003147   0.003585  -0.000002   0.000000
    23  H    0.000072  -0.000005   0.000000   0.000000  -0.004756  -0.001083
    24  H   -0.000062   0.000000   0.000000   0.000000   0.003913  -0.001162
    25  H    0.356203  -0.000003   0.000009  -0.000003  -0.000007  -0.000005
    26  H   -0.000003   0.517181  -0.025982  -0.024230   0.000000   0.000000
    27  H    0.000009  -0.025982   0.514872  -0.024971   0.000000   0.000000
    28  H   -0.000003  -0.024230  -0.024971   0.503545   0.000000   0.000000
    29  H   -0.000007   0.000000   0.000000   0.000000   0.508602  -0.021456
    30  H   -0.000005   0.000000   0.000000   0.000000  -0.021456   0.501313
    31  H    0.000581   0.000000   0.000000   0.000000  -0.029543  -0.022264
             31
     1  C   -0.000342
     2  C   -0.000012
     3  C   -0.000018
     4  C   -0.002628
     5  C    0.000519
     6  C    0.000001
     7  C    0.003351
     8  C    0.001420
     9  C    0.010844
    10  O   -0.003040
    11  C   -0.048876
    12  O   -0.001190
    13  C   -0.000692
    14  O   -0.000781
    15  C    0.403466
    16  H    0.000000
    17  H    0.000000
    18  H    0.000000
    19  H    0.000000
    20  H    0.000000
    21  H   -0.000020
    22  H    0.000001
    23  H    0.003789
    24  H   -0.005108
    25  H    0.000581
    26  H    0.000000
    27  H    0.000000
    28  H    0.000000
    29  H   -0.029543
    30  H   -0.022264
    31  H    0.516776
 Mulliken atomic charges:
              1
     1  C   -0.409197
     2  C   -0.185336
     3  C   -0.199181
     4  C    0.078763
     5  C    0.050139
     6  C   -0.174344
     7  C    0.060230
     8  C    0.185051
     9  C   -0.067827
    10  O   -0.310914
    11  C   -0.044674
    12  O   -0.568963
    13  C   -0.580127
    14  O   -0.474665
    15  C   -0.488165
    16  H    0.177557
    17  H    0.184814
    18  H    0.184528
    19  H    0.181602
    20  H    0.182486
    21  H    0.161083
    22  H    0.214015
    23  H    0.183194
    24  H    0.178066
    25  H    0.408848
    26  H    0.174311
    27  H    0.180479
    28  H    0.184523
    29  H    0.179699
    30  H    0.180242
    31  H    0.173765
 Sum of Mulliken atomic charges =   0.00000
 Mulliken charges with hydrogens summed into heavy atoms:
              1
     1  C   -0.231640
     2  C   -0.000522
     3  C   -0.014653
     4  C    0.078763
     5  C    0.231741
     6  C    0.008142
     7  C    0.221313
     8  C    0.399066
     9  C   -0.067827
    10  O   -0.310914
    11  C    0.316586
    12  O   -0.160116
    13  C   -0.040814
    14  O   -0.474665
    15  C    0.045541
 Sum of Mulliken charges with hydrogens summed into heavy atoms =   0.00000
 Electronic spatial extent (au):  <R**2>=           4098.5442
 Charge=              0.0000 electrons
 Dipole moment (field-independent basis, Debye):
    X=              1.3794    Y=             -0.1605    Z=             -0.7114  Tot=              1.5603
 Quadrupole moment (field-independent basis, Debye-Ang):
   XX=            -72.7239   YY=           -100.2951   ZZ=            -84.8090
   XY=            -10.8637   XZ=             -1.7538   YZ=              0.3659
 Traceless Quadrupole moment (field-independent basis, Debye-Ang):
   XX=             13.2188   YY=            -14.3524   ZZ=              1.1336
   XY=            -10.8637   XZ=             -1.7538   YZ=              0.3659
 Octapole moment (field-independent basis, Debye-Ang**2):
  XXX=             46.6520  YYY=             -2.5727  ZZZ=             -1.7712  XYY=             12.3016
  XXY=            -30.4256  XXZ=             -8.8597  XZZ=              0.9012  YZZ=              1.7413
  YYZ=             -7.2915  XYZ=            -17.4070
 Hexadecapole moment (field-independent basis, Debye-Ang**3):
 XXXX=          -3736.3092 YYYY=           -723.2281 ZZZZ=           -444.9455 XXXY=           -110.5890
 XXXZ=            -21.7952 YYYX=            -44.8303 YYYZ=             -3.7623 ZZZX=             -8.7282
 ZZZY=             20.9455 XXYY=           -899.7533 XXZZ=           -767.1063 YYZZ=           -187.3472
 XXYZ=             32.2029 YYXZ=             -7.0597 ZZXY=             -2.2176
 N-N= 1.001900093503D+03 E-N=-3.615384602686D+03  KE= 6.859024224714D+02
 1\1\GINC-COMPUTE-8-6\SP\RwB97XD\6-31+G(d,p)\C12H16O3\ELUCIANO.IQUIR\18
 -May-2022\0\\# wb97xd/6-31+g** scrf=(pcm,solvent=chloroform,smd,dovacu
 um) nmr\\comment\\0,1\C,0,-1.238221949,-2.426153882,0.569961339\C,0,-3
 .747924344,-1.500804124,-0.219950398\C,0,-2.379161698,-3.189109059,0.8
 26918459\C,0,-1.338526602,-1.188504923,-0.08439984\C,0,-2.608640275,-0
 .736402441,-0.476709486\C,0,-3.632886329,-2.725927699,0.433118142\C,0,
 -0.098304062,-0.35398845,-0.331275812\C,0,0.00119292,0.895770204,0.564
 985573\C,0,1.421171861,1.423987612,0.463110265\O,0,1.61782966,1.995552
 597,-0.762102422\C,0,2.924233509,2.547487508,-0.993424876\O,0,-0.13947
 6688,0.028309845,-1.714025542\C,0,-0.3196625,0.634351756,2.039906494\O
 ,0,2.273904963,1.334311307,1.334686132\C,0,3.85349272,1.474007401,-1.5
 27606763\H,0,-0.269146285,-2.80568655,0.886177482\H,0,-4.72386115,-1.1
 4136587,-0.534998183\H,0,-2.289063183,-4.146688899,1.33309339\H,0,-2.7
 10556963,0.213381289,-0.99770333\H,0,-4.519797975,-3.321958643,0.63056
 907\H,0,0.79340257,-0.982839257,-0.213896945\H,0,-0.668079085,1.689513
 412,0.207751345\H,0,3.326607737,3.01452325,-0.087307946\H,0,2.80829582
 2,3.339771243,-1.740131784\H,0,0.611780873,0.62457081,-1.883110247\H,0
 ,-0.105737051,1.521040918,2.647693296\H,0,-1.377380304,0.392693486,2.1
 83122985\H,0,0.279861455,-0.191053141,2.439901053\H,0,3.983229436,0.66
 8116523,-0.798363009\H,0,4.835566176,1.893210054,-1.763735173\H,0,3.43
 5856741,1.019883726,-2.432253269\\Version=EM64L-G09RevC.01\State=1-A\H
 F=-692.4446115\RMSD=1.946e-09\Dipole=0.264929,0.536807,-0.1360486\Quad
 rupole=4.0930649,4.1769706,-8.2700355,3.4876491,-8.0990273,-6.5981061\
 PG=C01 [X(C12H16O3)]\\@


 A successful marriage requires falling in love
 many times, always with the same person.
                           -- Mignon McLaughlin
 Job cpu time:  0 days  1 hours 59 minutes  0.6 seconds.
 File lengths (MBytes):  RWF=    124 Int=      0 D2E=      0 Chk=      9 Scr=      1
 Normal termination of Gaussian 09 at Wed May 18 00:40:10 2022.
