 Entering Gaussian System, Link 0=g09
 Input=/home/eluciano.iquir/wb9/73b_034.gjc
 Output=/home/eluciano.iquir/wb9/73b_034.log
 Initial command:
 /share/apps/Gaussian09/EM64T.SSE4.2-enabled/g09/l1.exe /tmp/Gau-800.inp -scrdir=/tmp/
 Entering Link 1 = /share/apps/Gaussian09/EM64T.SSE4.2-enabled/g09/l1.exe PID=       801.
  
 Copyright (c) 1988,1990,1992,1993,1995,1998,2003,2009,2011,
            Gaussian, Inc.  All Rights Reserved.
  
 This is part of the Gaussian(R) 09 program.  It is based on
 the Gaussian(R) 03 system (copyright 2003, Gaussian, Inc.),
 the Gaussian(R) 98 system (copyright 1998, Gaussian, Inc.),
 the Gaussian(R) 94 system (copyright 1995, Gaussian, Inc.),
 the Gaussian 92(TM) system (copyright 1992, Gaussian, Inc.),
 the Gaussian 90(TM) system (copyright 1990, Gaussian, Inc.),
 the Gaussian 88(TM) system (copyright 1988, Gaussian, Inc.),
 the Gaussian 86(TM) system (copyright 1986, Carnegie Mellon
 University), and the Gaussian 82(TM) system (copyright 1983,
 Carnegie Mellon University). Gaussian is a federally registered
 trademark of Gaussian, Inc.
  
 This software contains proprietary and confidential information,
 including trade secrets, belonging to Gaussian, Inc.
  
 This software is provided under written license and may be
 used, copied, transmitted, or stored only in accord with that
 written license.
  
 The following legend is applicable only to US Government
 contracts under FAR:
  
                    RESTRICTED RIGHTS LEGEND
  
 Use, reproduction and disclosure by the US Government is
 subject to restrictions as set forth in subparagraphs (a)
 and (c) of the Commercial Computer Software - Restricted
 Rights clause in FAR 52.227-19.
  
 Gaussian, Inc.
 340 Quinnipiac St., Bldg. 40, Wallingford CT 06492
  
  
 ---------------------------------------------------------------
 Warning -- This program may not be used in any manner that
 competes with the business of Gaussian, Inc. or will provide
 assistance to any competitor of Gaussian, Inc.  The licensee
 of this program is prohibited from giving any competitor of
 Gaussian, Inc. access to this program.  By using this program,
 the user acknowledges that Gaussian, Inc. is engaged in the
 business of creating and licensing software in the field of
 computational chemistry and represents and warrants to the
 licensee that it is not a competitor of Gaussian, Inc. and that
 it will not use this program in any manner prohibited above.
 ---------------------------------------------------------------
  

 Cite this work as:
 Gaussian 09, Revision C.01,
 M. J. Frisch, G. W. Trucks, H. B. Schlegel, G. E. Scuseria, 
 M. A. Robb, J. R. Cheeseman, G. Scalmani, V. Barone, B. Mennucci, 
 G. A. Petersson, H. Nakatsuji, M. Caricato, X. Li, H. P. Hratchian, 
 A. F. Izmaylov, J. Bloino, G. Zheng, J. L. Sonnenberg, M. Hada, 
 M. Ehara, K. Toyota, R. Fukuda, J. Hasegawa, M. Ishida, T. Nakajima, 
 Y. Honda, O. Kitao, H. Nakai, T. Vreven, J. A. Montgomery, Jr., 
 J. E. Peralta, F. Ogliaro, M. Bearpark, J. J. Heyd, E. Brothers, 
 K. N. Kudin, V. N. Staroverov, T. Keith, R. Kobayashi, J. Normand, 
 K. Raghavachari, A. Rendell, J. C. Burant, S. S. Iyengar, J. Tomasi, 
 M. Cossi, N. Rega, J. M. Millam, M. Klene, J. E. Knox, J. B. Cross, 
 V. Bakken, C. Adamo, J. Jaramillo, R. Gomperts, R. E. Stratmann, 
 O. Yazyev, A. J. Austin, R. Cammi, C. Pomelli, J. W. Ochterski, 
 R. L. Martin, K. Morokuma, V. G. Zakrzewski, G. A. Voth, 
 P. Salvador, J. J. Dannenberg, S. Dapprich, A. D. Daniels, 
 O. Farkas, J. B. Foresman, J. V. Ortiz, J. Cioslowski, 
 and D. J. Fox, Gaussian, Inc., Wallingford CT, 2010.
 
 ******************************************
 Gaussian 09:  EM64L-G09RevC.01 23-Sep-2011
                17-May-2022 
 ******************************************
 %nprocshared=4
 Will use up to    4 processors via shared memory.
 ----------------------------------------------------------------
 # wb97xd/6-31+g** scrf=(pcm,solvent=chloroform,smd,dovacuum) nmr
 ----------------------------------------------------------------
 1/38=1/1;
 2/12=2,17=6,18=5,40=1/2;
 3/5=1,6=6,7=111,11=2,16=1,25=1,30=1,70=32101,72=7,74=-58/1,2,8,3;
 4//1;
 5/5=2,38=5,53=7/2;
 8/6=1,10=90,11=11/1;
 10/13=100,45=16/2;
 6/7=2,8=2,9=2,10=2,28=1/1;
 99/9=1/99;
 -------
 comment
 -------
 Charge =  0 Multiplicity = 1
 Symbolic Z-Matrix:
 6                    -2.4756    0.63753  -1.37357 
 6                    -0.38115  -0.11361  -3.05397 
 6                    -2.47978   1.02558  -2.71467 
 6                    -1.42607  -0.13758  -0.85684 
 6                    -0.3755   -0.50312  -1.71378 
 6                    -1.43388   0.6489   -3.55419 
 6                    -1.43107  -0.53698   0.6066 
 6                    -0.80601   0.50114   1.55178 
 6                     0.57909   0.94054   1.12697 
 8                     1.47377  -0.08261   1.14781 
 6                     2.80179   0.28211   0.75709 
 8                    -0.87176  -1.83799   0.78998 
 6                    -0.77629   0.03372   3.00645 
 8                     0.85438   2.09864   0.83276 
 6                     3.65775  -0.96909   0.77322 
 1                    -3.29896   0.94915  -0.73409 
 1                     0.44006  -0.39986  -3.70602 
 1                    -3.29732   1.62728  -3.10366 
 1                     0.46268  -1.0883   -1.33899 
 1                    -1.43567   0.95579  -4.59682 
 1                    -2.482    -0.65437   0.9039 
 1                    -1.42721   1.4072    1.50865 
 1                     3.2046    1.01673   1.4631 
 1                     2.78928   0.70728  -0.25285 
 1                    -1.16405  -2.38306   0.03857 
 1                    -0.36737   0.81641   3.65508 
 1                    -1.78581  -0.20308   3.358 
 1                    -0.15191  -0.85628   3.13903 
 1                     4.68679  -0.7419    0.48122 
 1                     3.25307  -1.72113   0.08772 
 1                     3.66413  -1.41903   1.77152 
 
                          Input orientation:                          
 ---------------------------------------------------------------------
 Center     Atomic      Atomic             Coordinates (Angstroms)
 Number     Number       Type             X           Y           Z
 ---------------------------------------------------------------------
      1          6           0       -2.475595    0.637531   -1.373572
      2          6           0       -0.381146   -0.113615   -3.053965
      3          6           0       -2.479781    1.025575   -2.714673
      4          6           0       -1.426073   -0.137581   -0.856837
      5          6           0       -0.375495   -0.503118   -1.713777
      6          6           0       -1.433877    0.648900   -3.554190
      7          6           0       -1.431072   -0.536975    0.606595
      8          6           0       -0.806007    0.501138    1.551782
      9          6           0        0.579093    0.940543    1.126968
     10          8           0        1.473773   -0.082615    1.147814
     11          6           0        2.801794    0.282106    0.757087
     12          8           0       -0.871761   -1.837988    0.789976
     13          6           0       -0.776291    0.033716    3.006452
     14          8           0        0.854378    2.098640    0.832758
     15          6           0        3.657747   -0.969087    0.773221
     16          1           0       -3.298955    0.949148   -0.734086
     17          1           0        0.440064   -0.399863   -3.706021
     18          1           0       -3.297324    1.627284   -3.103657
     19          1           0        0.462682   -1.088301   -1.338987
     20          1           0       -1.435673    0.955792   -4.596824
     21          1           0       -2.481999   -0.654365    0.903903
     22          1           0       -1.427212    1.407202    1.508650
     23          1           0        3.204601    1.016726    1.463099
     24          1           0        2.789284    0.707278   -0.252847
     25          1           0       -1.164047   -2.383058    0.038566
     26          1           0       -0.367369    0.816407    3.655080
     27          1           0       -1.785811   -0.203080    3.357999
     28          1           0       -0.151914   -0.856277    3.139026
     29          1           0        4.686787   -0.741902    0.481223
     30          1           0        3.253073   -1.721134    0.087715
     31          1           0        3.664125   -1.419027    1.771521
 ---------------------------------------------------------------------
                    Distance matrix (angstroms):
                    1          2          3          4          5
     1  C    0.000000
     2  C    2.788308   0.000000
     3  C    1.396119   2.411875   0.000000
     4  C    1.403322   2.433068   2.432034   0.000000
     5  C    2.413968   1.395654   2.786882   1.404164   0.000000
     6  C    2.416692   1.392802   1.393049   2.809685   2.415458
     7  C    2.528153   3.831616   3.817352   1.516962   2.549415
     8  C    3.371027   4.665976   4.612937   2.567857   3.443508
     9  C    3.959247   4.417410   4.911430   3.019689   3.326444
    10  O    4.740624   4.593108   5.637152   3.525727   3.432976
    11  C    5.702357   4.981147   6.364032   4.544859   4.100843
    12  O    3.658063   4.241468   4.802946   2.431180   2.880441
    13  C    4.736754   6.075073   6.051193   3.921296   4.767536
    14  O    4.253405   4.639742   4.985213   3.613291   3.842730
    15  C    6.693866   5.629551   7.335757   5.403121   4.761232
    16  H    1.088103   3.876199   2.144671   2.168810   3.408150
    17  H    3.875251   1.086968   3.397078   3.416007   2.155187
    18  H    2.155932   3.396658   1.087078   3.415338   3.873946
    19  H    3.407810   2.145509   3.875445   2.168808   1.088783
    20  H    3.401776   2.153154   2.153490   3.896544   3.400640
    21  H    2.618384   4.513394   3.989524   2.117133   3.363404
    22  H    3.162073   4.921849   4.369211   2.825223   3.890947
    23  H    6.360434   5.876999   7.054506   5.306380   5.021908
    24  H    5.383293   4.309496   5.824512   4.341408   3.689879
    25  H    3.583051   3.914979   4.574960   2.431577   2.688251
    26  H    5.455636   6.773214   6.714149   4.731632   5.528639
    27  H    4.854915   6.564631   6.234464   4.230667   5.272754
    28  H    5.290983   6.241573   6.574658   4.255223   4.870771
    29  H    7.526143   6.210978   8.043471   6.286705   5.522839
    30  H    6.365242   5.065750   6.947187   5.029336   4.230301
    31  H    7.198418   6.430680   7.990595   5.870305   5.413384
                    6          7          8          9         10
     6  C    0.000000
     7  C    4.326482   0.000000
     8  C    5.146553   1.536803   0.000000
     9  C    5.103954   2.548452   1.513949   0.000000
    10  O    5.576593   2.989563   2.387751   1.359316   0.000000
    11  C    6.054962   4.314012   3.700776   2.347500   1.431548
    12  O    5.037099   1.427967   2.460931   3.152582   2.951426
    13  C    6.622152   2.552203   1.528212   2.488345   2.920764
    14  O    5.155887   3.495840   2.413687   1.226185   2.289275
    15  C    6.875246   5.109850   4.763698   3.640047   2.386608
    16  H    3.394356   2.737696   3.411847   4.301494   5.233070
    17  H    2.152815   4.703042   5.478045   5.017350   4.972817
    18  H    2.152358   4.683256   5.398887   5.778963   6.615295
    19  H    3.394397   2.770479   3.534463   3.195417   2.866686
    20  H    1.086863   5.413312   6.197462   6.068056   6.522579
    21  H    4.761476   1.098463   2.136325   3.458869   4.004314
    22  H    5.119318   2.143255   1.099412   2.094924   3.281078
    23  H    6.842804   4.963572   4.044586   2.648034   2.074541
    24  H    5.360724   4.483103   4.028063   2.615961   2.077583
    25  H    4.708872   1.949867   3.276675   3.907618   3.671589
    26  H    7.289656   3.500910   2.171558   2.702323   3.237967
    27  H    6.973384   2.794199   2.172179   3.446468   3.940092
    28  H    6.979121   2.855066   2.188551   2.794872   2.684462
    29  H    7.461999   6.122574   5.732541   4.485617   3.347008
    30  H    6.391247   4.859288   4.853670   3.913405   2.640920
    31  H    7.656968   5.300576   4.870052   3.937061   2.640578
                   11         12         13         14         15
    11  C    0.000000
    12  O    4.241567   0.000000
    13  C    4.233679   2.902612   0.000000
    14  O    2.664198   4.298654   3.412908   0.000000
    15  C    1.516047   4.612127   5.064942   4.156124   0.000000
    16  H    6.315670   3.997770   4.603637   4.585468   7.372063
    17  H    5.095310   4.899293   6.835554   5.197565   5.544466
    18  H    7.342621   5.749073   6.799154   5.740572   8.375222
    19  H    3.426804   2.622070   4.655837   3.876402   3.831981
    20  H    6.861074   6.094327   7.687315   6.002566   7.647579
    21  H    5.368148   2.001702   2.793494   4.326143   6.149197
    22  H    4.440178   3.369907   2.133910   2.478017   5.660778
    23  H    1.095615   5.021874   4.381296   2.662971   2.150518
    24  H    1.095854   4.579204   4.877504   2.618833   2.148777
    25  H    4.831901   0.973216   3.847012   4.978995   5.078261
    26  H    4.327521   3.938152   1.095692   3.332010   5.262572
    27  H    5.295873   3.178545   1.094892   4.318027   6.074552
    28  H    3.961558   2.645746   1.095222   3.881112   4.485898
    29  H    2.162843   5.673993   6.068245   4.783263   1.093526
    30  H    2.159787   4.185819   5.275822   4.571596   1.095105
    31  H    2.160219   4.659745   4.832476   4.598906   1.095030
                   16         17         18         19         20
    16  H    0.000000
    17  H    4.963113   0.000000
    18  H    2.464698   4.294209   0.000000
    19  H    4.320534   2.465220   4.962469   0.000000
    20  H    4.288660   2.479863   2.479151   4.289006   0.000000
    21  H    2.433450   5.463939   4.683078   3.726930   5.826268
    22  H    2.956874   5.826233   4.981881   4.231816   6.122145
    23  H    6.865015   6.030687   7.968881   4.449825   7.632727
    24  H    6.112017   4.320764   6.783828   3.133190   6.064829
    25  H    4.032173   4.530802   5.523339   2.494052   5.719138
    26  H    5.279830   7.504470   7.410984   5.409030   8.321936
    27  H    4.512471   7.409023   6.883888   5.282141   8.046415
    28  H    5.307017   6.885740   7.418407   4.525943   8.048292
    29  H    8.252800   5.973663   9.066997   4.612615   8.133464
    30  H    7.122839   4.904203   8.019006   3.197223   7.148089
    31  H    7.769866   6.437137   9.028242   4.475922   8.497266
                   21         22         23         24         25
    21  H    0.000000
    22  H    2.393398   0.000000
    23  H    5.953375   4.648466   0.000000
    24  H    5.565840   4.622943   1.792405   0.000000
    25  H    2.339697   4.073877   5.716023   5.026323   0.000000
    26  H    3.768794   2.465657   4.195698   5.024765   4.893919
    27  H    2.590545   2.478244   5.475655   5.899022   4.019643
    28  H    3.235095   3.067221   4.193217   4.753962   3.601156
    29  H    7.181770   6.561649   2.500745   2.497899   6.092750
    30  H    5.890264   5.806083   3.064296   2.495650   4.466711
    31  H    6.253984   5.829098   2.497836   3.063427   5.219554
                   26         27         28         29         30
    26  H    0.000000
    27  H    1.771889   0.000000
    28  H    1.763691   1.773199   0.000000
    29  H    6.168159   7.103570   5.521778   0.000000
    30  H    5.680916   6.195934   4.653215   1.780248   0.000000
    31  H    4.979750   5.804933   4.092544   1.780226   1.759384
                   31
    31  H    0.000000
 Stoichiometry    C12H16O3
 Framework group  C1[X(C12H16O3)]
 Deg. of freedom    87
 Full point group                 C1      NOp   1
 Largest Abelian subgroup         C1      NOp   1
 Largest concise Abelian subgroup C1      NOp   1
                         Standard orientation:                         
 ---------------------------------------------------------------------
 Center     Atomic      Atomic             Coordinates (Angstroms)
 Number     Number       Type             X           Y           Z
 ---------------------------------------------------------------------
      1          6           0        2.595478    0.872730    0.293047
      2          6           0        2.356511   -1.822537   -0.380074
      3          6           0        3.619536   -0.021843    0.609578
      4          6           0        1.440524    0.431504   -0.370816
      5          6           0        1.332009   -0.929692   -0.697992
      6          6           0        3.500341   -1.368068    0.271853
      7          6           0        0.331654    1.415256   -0.693017
      8          6           0       -0.689346    1.616218    0.437883
      9          6           0       -1.267529    0.318250    0.960404
     10          8           0       -1.976262   -0.349423    0.011905
     11          6           0       -2.547926   -1.583946    0.457421
     12          8           0       -0.296470    1.098405   -1.935658
     13          6           0       -1.821240    2.566972    0.050177
     14          8           0       -1.131378   -0.057895    2.119502
     15          6           0       -3.247799   -2.231288   -0.721360
     16          1           0        2.706414    1.918381    0.572826
     17          1           0        2.258556   -2.874538   -0.635413
     18          1           0        4.509066    0.330957    1.125337
     19          1           0        0.440551   -1.306923   -1.196438
     20          1           0        4.295982   -2.064510    0.523238
     21          1           0        0.808265    2.387927   -0.875704
     22          1           0       -0.158489    2.064747    1.289774
     23          1           0       -3.271211   -1.387512    1.256574
     24          1           0       -1.758440   -2.247793    0.827440
     25          1           0        0.403105    0.794033   -2.539895
     26          1           0       -2.502090    2.721183    0.894691
     27          1           0       -1.423119    3.543153   -0.245386
     28          1           0       -2.418545    2.176896   -0.780832
     29          1           0       -3.703688   -3.181825   -0.430770
     30          1           0       -2.539914   -2.412872   -1.536945
     31          1           0       -4.026850   -1.571328   -1.117116
 ---------------------------------------------------------------------
 Rotational constants (GHZ):      0.8346164      0.4335615      0.3660596
 Standard basis: 6-31+G(d,p) (6D, 7F)
 There are   365 symmetry adapted basis functions of A   symmetry.
 Integral buffers will be    131072 words long.
 Raffenetti 2 integral format.
 Two-electron integral symmetry is turned on.
   365 basis functions,   592 primitive gaussians,   365 cartesian basis functions
    56 alpha electrons       56 beta electrons
       nuclear repulsion energy      1025.1542718863 Hartrees.
 NAtoms=   31 NActive=   31 NUniq=   31 SFac= 1.00D+00 NAtFMM=   60 NAOKFM=F Big=F
 Nuclear repulsion after empirical dispersion term =     1025.1328168947 Hartrees.
 ------------------------------------------------------------------------------
 Polarizable Continuum Model (PCM)
 =================================
 Model                : C-PCM.
 Atomic radii         : SMD-Coulomb.
 Polarization charges : Total charges.
 Charge compensation  : None.
 Solution method      : Matrix inversion.
 Cavity type          : VdW (van der Waals Surface) (Alpha=1.000).
 Cavity algorithm     : GePol (No added spheres)
                        Default sphere list used, NSphG=   31.
                        Lebedev-Laikov grids with approx.  5.0 points / Ang**2.
                        Smoothing algorithm: Karplus/York (Gamma=1.0000).
                        Polarization charges: spherical gaussians, with
                                              point-specific exponents (IZeta= 3).
                        Self-potential: point-specific (ISelfS= 7).
                        Self-field    : sphere-specific E.n sum rule (ISelfD= 2).
 Solvent              : Chloroform, Eps=   4.711300 Eps(inf)=   2.090627
 ------------------------------------------------------------------------------
 ------------------------------------------------------------------------------
 Atomic radii for non-electrostatic terms: SMD-CDS.
 ------------------------------------------------------------------------------
 Nuclear repulsion after PCM non-electrostatic terms =     1025.1259343182 Hartrees.
 One-electron integrals computed using PRISM.
 NBasis=   365 RedAO= T  NBF=   365
 NBsUse=   365 1.00D-06 NBFU=   365
 Harris functional with IExCor= 4639 diagonalized for initial guess.
 ExpMin= 4.38D-02 ExpMax= 5.48D+03 ExpMxC= 8.25D+02 IAcc=2 IRadAn=         4 AccDes= 0.00D+00
 HarFok:  IExCor= 4639 AccDes= 0.00D+00 IRadAn=         4 IDoV= 1
 ScaDFX=  1.000000  1.000000  1.000000  1.000000
 FoFCou: FMM=F IPFlag=           0 FMFlag=      100000 FMFlg1=           0
         NFxFlg=           0 DoJE=T BraDBF=F KetDBF=T FulRan=T
         Omega=  0.000000  0.000000  1.000000  0.000000  0.000000 ICntrl=     500 IOpCl=  0
         NMat0=    1 NMatS0=    1 NMatT0=    0 NMatD0=    1 NMtDS0=    0 NMtDT0=    0
         I1Cent=           4 NGrid=           0.
 Petite list used in FoFCou.
 Initial guess orbital symmetries:
       Occupied  (A) (A) (A) (A) (A) (A) (A) (A) (A) (A) (A) (A)
                 (A) (A) (A) (A) (A) (A) (A) (A) (A) (A) (A) (A)
                 (A) (A) (A) (A) (A) (A) (A) (A) (A) (A) (A) (A)
                 (A) (A) (A) (A) (A) (A) (A) (A) (A) (A) (A) (A)
                 (A) (A) (A) (A) (A) (A) (A) (A)
       Virtual   (A) (A) (A) (A) (A) (A) (A) (A) (A) (A) (A) (A)
                 (A) (A) (A) (A) (A) (A) (A) (A) (A) (A) (A) (A)
                 (A) (A) (A) (A) (A) (A) (A) (A) (A) (A) (A) (A)
                 (A) (A) (A) (A) (A) (A) (A) (A) (A) (A) (A) (A)
                 (A) (A) (A) (A) (A) (A) (A) (A) (A) (A) (A) (A)
                 (A) (A) (A) (A) (A) (A) (A) (A) (A) (A) (A) (A)
                 (A) (A) (A) (A) (A) (A) (A) (A) (A) (A) (A) (A)
                 (A) (A) (A) (A) (A) (A) (A) (A) (A) (A) (A) (A)
                 (A) (A) (A) (A) (A) (A) (A) (A) (A) (A) (A) (A)
                 (A) (A) (A) (A) (A) (A) (A) (A) (A) (A) (A) (A)
                 (A) (A) (A) (A) (A) (A) (A) (A) (A) (A) (A) (A)
                 (A) (A) (A) (A) (A) (A) (A) (A) (A) (A) (A) (A)
                 (A) (A) (A) (A) (A) (A) (A) (A) (A) (A) (A) (A)
                 (A) (A) (A) (A) (A) (A) (A) (A) (A) (A) (A) (A)
                 (A) (A) (A) (A) (A) (A) (A) (A) (A) (A) (A) (A)
                 (A) (A) (A) (A) (A) (A) (A) (A) (A) (A) (A) (A)
                 (A) (A) (A) (A) (A) (A) (A) (A) (A) (A) (A) (A)
                 (A) (A) (A) (A) (A) (A) (A) (A) (A) (A) (A) (A)
                 (A) (A) (A) (A) (A) (A) (A) (A) (A) (A) (A) (A)
                 (A) (A) (A) (A) (A) (A) (A) (A) (A) (A) (A) (A)
                 (A) (A) (A) (A) (A) (A) (A) (A) (A) (A) (A) (A)
                 (A) (A) (A) (A) (A) (A) (A) (A) (A) (A) (A) (A)
                 (A) (A) (A) (A) (A) (A) (A) (A) (A) (A) (A) (A)
                 (A) (A) (A) (A) (A) (A) (A) (A) (A) (A) (A) (A)
                 (A) (A) (A) (A) (A) (A) (A) (A) (A) (A) (A) (A)
                 (A) (A) (A) (A) (A) (A) (A) (A) (A)
 The electronic state of the initial guess is 1-A.
 Requested convergence on RMS density matrix=1.00D-08 within 128 cycles.
 Requested convergence on MAX density matrix=1.00D-06.
 Requested convergence on             energy=1.00D-06.
 No special actions if energy rises.
 FoFJK:  IHMeth= 1 ICntrl=     0 DoSepK=T KAlg= 1 I1Cent= 0 FoldK=F
 FoFJK:  IHMeth= 1 ICntrl=     0 DoSepK=T KAlg= 1 I1Cent= 0 FoldK=F
 FoFJK:  IHMeth= 1 ICntrl=     0 DoSepK=T KAlg= 1 I1Cent= 0 FoldK=F
 FoFJK:  IHMeth= 1 ICntrl=     0 DoSepK=T KAlg= 1 I1Cent= 0 FoldK=F
 FoFJK:  IHMeth= 1 ICntrl=     0 DoSepK=T KAlg= 1 I1Cent= 0 FoldK=F
 FoFJK:  IHMeth= 1 ICntrl=     0 DoSepK=T KAlg= 1 I1Cent= 0 FoldK=F
 FoFJK:  IHMeth= 1 ICntrl=     0 DoSepK=T KAlg= 1 I1Cent= 0 FoldK=F
 FoFJK:  IHMeth= 1 ICntrl=     0 DoSepK=T KAlg= 1 I1Cent= 0 FoldK=F
 FoFJK:  IHMeth= 1 ICntrl=     0 DoSepK=T KAlg= 1 I1Cent= 0 FoldK=F
 FoFJK:  IHMeth= 1 ICntrl=     0 DoSepK=T KAlg= 1 I1Cent= 0 FoldK=F
 FoFJK:  IHMeth= 1 ICntrl=     0 DoSepK=T KAlg= 1 I1Cent= 0 FoldK=F
 FoFJK:  IHMeth= 1 ICntrl=     0 DoSepK=T KAlg= 1 I1Cent= 0 FoldK=F
 FoFJK:  IHMeth= 1 ICntrl=     0 DoSepK=T KAlg= 1 I1Cent= 0 FoldK=F
 FoFJK:  IHMeth= 1 ICntrl=     0 DoSepK=T KAlg= 1 I1Cent= 0 FoldK=F
 FoFJK:  IHMeth= 1 ICntrl=     0 DoSepK=T KAlg= 1 I1Cent= 0 FoldK=F
 FoFJK:  IHMeth= 1 ICntrl=     0 DoSepK=T KAlg= 1 I1Cent= 0 FoldK=F
 Error on total polarization charges =  0.04030
 SCF Done:  E(RwB97XD) =  -692.442964835     A.U. after   16 cycles
             Convg  =    0.3572D-08             -V/T =  2.0095
 SMD-CDS (non-electrostatic) energy       (kcal/mol) =      -4.32
 (included in total energy above)
 Range of M.O.s used for correlation:     1   365
 NBasis=   365 NAE=    56 NBE=    56 NFC=     0 NFV=     0
 NROrb=    365 NOA=    56 NOB=    56 NVA=   309 NVB=   309

 **** Warning!!: The largest alpha MO coefficient is  0.12712675D+03

 NEqPCM:  Using equilibrium solvation (IEInf=0, Eps=   4.7113, EpsInf=   2.0906)
          Differentiating once with respect to magnetic field using GIAOs.
          Electric field/nuclear overlap derivatives assumed to be zero.
 FoFCou: FMM=F IPFlag=           0 FMFlag=    10101102 FMFlg1=           0
         NFxFlg=    40000000 DoJE=F BraDBF=F KetDBF=T FulRan=T
         Omega=  0.000000  0.000000  1.000000  0.000000  0.000000 ICntrl=    6100 IOpCl=  0
         NMat0=    1 NMatS0=    1 NMatT0=    0 NMatD0=    1 NMtDS0=    0 NMtDT0=    0
         I1Cent=           7 NGrid=        2270.
 Symmetry not used in FoFCou.
 FoFJK:  IHMeth= 1 ICntrl=  6127 DoSepK=T KAlg= 1 I1Cent= 0 FoldK=F
 FoFJK:  IHMeth= 1 ICntrl=     0 DoSepK=T KAlg= 1 I1Cent= 0 FoldK=F
          There are     3 degrees of freedom in the 1st order CPHF.  IDoFFX=0.
      3 vectors produced by pass  0 Test12= 5.77D-13 3.33D-08 XBig12= 1.52D+02 2.68D+00.
 AX will form     3 AO Fock derivatives at one time.
 FoFJK:  IHMeth= 1 ICntrl=     0 DoSepK=T KAlg= 1 I1Cent= 0 FoldK=F
      3 vectors produced by pass  1 Test12= 5.77D-13 3.33D-08 XBig12= 1.19D+00 3.18D-01.
 FoFJK:  IHMeth= 1 ICntrl=     0 DoSepK=T KAlg= 1 I1Cent= 0 FoldK=F
      3 vectors produced by pass  2 Test12= 5.77D-13 3.33D-08 XBig12= 2.08D-02 6.34D-02.
 FoFJK:  IHMeth= 1 ICntrl=     0 DoSepK=T KAlg= 1 I1Cent= 0 FoldK=F
      3 vectors produced by pass  3 Test12= 5.77D-13 3.33D-08 XBig12= 4.01D-04 5.51D-03.
 FoFJK:  IHMeth= 1 ICntrl=     0 DoSepK=T KAlg= 1 I1Cent= 0 FoldK=F
      3 vectors produced by pass  4 Test12= 5.77D-13 3.33D-08 XBig12= 6.91D-06 5.62D-04.
 FoFJK:  IHMeth= 1 ICntrl=     0 DoSepK=T KAlg= 1 I1Cent= 0 FoldK=F
      3 vectors produced by pass  5 Test12= 5.77D-13 3.33D-08 XBig12= 1.23D-07 8.85D-05.
 FoFJK:  IHMeth= 1 ICntrl=     0 DoSepK=T KAlg= 1 I1Cent= 0 FoldK=F
      3 vectors produced by pass  6 Test12= 5.77D-13 3.33D-08 XBig12= 1.95D-09 7.97D-06.
 FoFJK:  IHMeth= 1 ICntrl=     0 DoSepK=T KAlg= 1 I1Cent= 0 FoldK=F
      3 vectors produced by pass  7 Test12= 5.77D-13 3.33D-08 XBig12= 1.79D-11 7.50D-07.
 FoFJK:  IHMeth= 1 ICntrl=     0 DoSepK=T KAlg= 1 I1Cent= 0 FoldK=F
      3 vectors produced by pass  8 Test12= 5.77D-13 3.33D-08 XBig12= 1.81D-13 8.10D-08.
 FoFJK:  IHMeth= 1 ICntrl=     0 DoSepK=T KAlg= 1 I1Cent= 0 FoldK=F
 Inverted reduced A of dimension    27 with in-core refinement.
 Calculating GIAO nuclear magnetic shielding tensors.
 SCF GIAO Magnetic shielding tensor (ppm):
      1  C    Isotropic =    71.1983   Anisotropy =   164.6980
   XX=    76.4659   YX=     1.1243   ZX=   -51.8396
   XY=     1.5746   YY=   -14.6345   ZY=   -41.9996
   XZ=   -37.2546   YZ=   -46.4024   ZZ=   151.7635
   Eigenvalues:   -26.6086    59.2065   180.9970
      2  C    Isotropic =    69.3120   Anisotropy =   177.5879
   XX=    79.4946   YX=    -0.6925   ZX=   -53.9654
   XY=     1.7536   YY=   -26.0993   ZY=   -41.5283
   XZ=   -51.0536   YZ=   -39.0133   ZZ=   154.5407
   Eigenvalues:   -35.7342    55.9662   187.7039
      3  C    Isotropic =    70.2836   Anisotropy =   175.6585
   XX=    22.6866   YX=   -11.5803   ZX=   -83.4574
   XY=   -13.6177   YY=    51.3520   ZY=   -35.0604
   XZ=   -87.0787   YZ=   -36.9399   ZZ=   136.8123
   Eigenvalues:   -32.5981    56.0597   187.3893
      4  C    Isotropic =    51.8305   Anisotropy =   183.0595
   XX=    13.9856   YX=    28.2476   ZX=   -69.2502
   XY=    33.2061   YY=    -2.1400   ZY=   -17.0132
   XZ=   -60.7795   YZ=    -8.7576   ZZ=   143.6460
   Eigenvalues:   -32.7354    14.3568   173.8702
      5  C    Isotropic =    74.3099   Anisotropy =   179.8346
   XX=    25.5259   YX=    -9.5355   ZX=   -86.6787
   XY=   -14.8411   YY=    50.1270   ZY=   -37.1272
   XZ=   -75.3474   YZ=   -42.3266   ZZ=   147.2767
   Eigenvalues:   -26.3062    55.0362   194.1996
      6  C    Isotropic =    71.3762   Anisotropy =   176.1391
   XX=    37.7815   YX=    48.9534   ZX=   -64.4958
   XY=    51.9693   YY=    23.6657   ZY=    -8.2387
   XZ=   -71.0543   YZ=    -4.6372   ZZ=   152.6814
   Eigenvalues:   -30.3172    55.6436   188.8023
      7  C    Isotropic =   121.5650   Anisotropy =    36.3317
   XX=   124.5813   YX=     5.9900   ZX=    21.8852
   XY=     0.0910   YY=   111.9413   ZY=     5.7168
   XZ=    12.7713   YZ=    10.7962   ZZ=   128.1724
   Eigenvalues:   106.2340   112.6749   145.7861
      8  C    Isotropic =   145.9108   Anisotropy =    19.8568
   XX=   146.2241   YX=     6.5200   ZX=     0.7610
   XY=    13.2937   YY=   150.9772   ZY=    -0.8879
   XZ=    -7.5449   YZ=    -0.3127   ZZ=   140.5312
   Eigenvalues:   136.8559   141.7280   159.1487
      9  C    Isotropic =    19.0776   Anisotropy =   105.5112
   XX=    40.6058   YX=   -69.8110   ZX=   -19.4586
   XY=   -61.3773   YY=    -8.1770   ZY=    -9.7584
   XZ=   -45.1340   YZ=   -36.6091   ZZ=    24.8039
   Eigenvalues:   -68.9303    36.7446    89.4184
     10  O    Isotropic =   130.6596   Anisotropy =   161.7481
   XX=   205.4775   YX=   -19.7364   ZX=    -2.8069
   XY=   -32.1874   YY=   100.4428   ZY=    88.0414
   XZ=    64.1302   YZ=   201.6888   ZZ=    86.0585
   Eigenvalues:   -57.9013   211.3885   238.4917
     11  C    Isotropic =   136.7080   Anisotropy =    58.6287
   XX=   126.0826   YX=    23.5818   ZX=    -8.2103
   XY=    21.1591   YY=   160.0781   ZY=   -18.0339
   XZ=    -5.0373   YZ=    -9.9335   ZZ=   123.9633
   Eigenvalues:   114.9681   119.3621   175.7938
     12  O    Isotropic =   290.1781   Anisotropy =    77.1058
   XX=   288.2139   YX=   -33.5641   ZX=   -24.9957
   XY=   -35.4787   YY=   265.0427   ZY=    14.7012
   XZ=   -15.3404   YZ=    19.3517   ZZ=   317.2779
   Eigenvalues:   240.1527   288.7998   341.5820
     13  C    Isotropic =   180.8030   Anisotropy =    26.0837
   XX=   184.7564   YX=   -10.8767   ZX=     1.1153
   XY=    -9.3040   YY=   189.5330   ZY=    -4.6939
   XZ=     3.7963   YZ=    -2.9363   ZZ=   168.1196
   Eigenvalues:   167.4212   176.7957   198.1921
     14  O    Isotropic =   -58.9205   Anisotropy =   530.5874
   XX=   131.7583   YX=  -198.6033   ZX=  -131.6681
   XY=  -189.3264   YY=   -49.9969   ZY=    53.6731
   XZ=  -159.6203   YZ=    39.2145   ZZ=  -258.5228
   Eigenvalues:  -308.5167  -163.0492   294.8044
     15  C    Isotropic =   182.2208   Anisotropy =    22.8644
   XX=   176.6558   YX=    11.2743   ZX=     6.1340
   XY=     9.6455   YY=   183.0015   ZY=     1.7062
   XZ=     8.9001   YZ=     7.6206   ZZ=   187.0050
   Eigenvalues:   168.2247   180.9739   197.4637
     16  H    Isotropic =    23.8058   Anisotropy =     8.0805
   XX=    28.2681   YX=    -0.3942   ZX=     2.9760
   XY=    -0.8337   YY=    22.4686   ZY=     0.0314
   XZ=     2.4434   YZ=    -0.2321   ZZ=    20.6806
   Eigenvalues:    19.8091    22.4155    29.1928
     17  H    Isotropic =    23.7629   Anisotropy =     5.7294
   XX=    26.2316   YX=    -1.7907   ZX=     2.0426
   XY=    -1.5722   YY=    23.6744   ZY=     0.4221
   XZ=     2.1758   YZ=     0.2337   ZZ=    21.3828
   Eigenvalues:    20.3284    23.3779    27.5826
     18  H    Isotropic =    23.7755   Anisotropy =     4.6419
   XX=    24.4608   YX=    -1.4349   ZX=     1.3602
   XY=    -1.4529   YY=    25.9707   ZY=     0.4006
   XZ=     1.4417   YZ=     0.4407   ZZ=    20.8948
   Eigenvalues:    20.2697    24.1866    26.8701
     19  H    Isotropic =    23.4664   Anisotropy =     8.6093
   XX=    23.8834   YX=    -3.8597   ZX=    -0.9449
   XY=    -3.1845   YY=    26.7618   ZY=     0.7413
   XZ=     0.0842   YZ=     0.7567   ZZ=    19.7540
   Eigenvalues:    19.6735    21.5198    29.2059
     20  H    Isotropic =    23.8444   Anisotropy =     4.2225
   XX=    24.8162   YX=     0.4132   ZX=     1.9646
   XY=     0.6107   YY=    25.2840   ZY=     1.4275
   XZ=     1.7233   YZ=     1.6323   ZZ=    21.4329
   Eigenvalues:    20.3212    24.5525    26.6594
     21  H    Isotropic =    26.5514   Anisotropy =     7.8123
   XX=    27.4097   YX=     4.4878   ZX=     1.3523
   XY=     3.2934   YY=    27.5896   ZY=    -0.1090
   XZ=     3.0156   YZ=     0.2751   ZZ=    24.6549
   Eigenvalues:    22.4390    25.4556    31.7596
     22  H    Isotropic =    28.7121   Anisotropy =     5.4819
   XX=    28.8727   YX=    -0.6635   ZX=     3.6591
   XY=     0.8006   YY=    27.2501   ZY=     2.5358
   XZ=     0.5597   YZ=     2.0814   ZZ=    30.0137
   Eigenvalues:    25.5827    28.1870    32.3667
     23  H    Isotropic =    27.6531   Anisotropy =     7.7094
   XX=    28.2530   YX=     3.2417   ZX=    -3.3702
   XY=     3.6907   YY=    25.9602   ZY=    -0.1789
   XZ=    -3.6932   YZ=     0.9080   ZZ=    28.7460
   Eigenvalues:    22.4340    27.7325    32.7927
     24  H    Isotropic =    27.5999   Anisotropy =     5.6716
   XX=    27.0759   YX=     0.6792   ZX=     2.5273
   XY=    -0.0996   YY=    30.7357   ZY=    -2.1108
   XZ=     1.6818   YZ=    -1.8366   ZZ=    24.9880
   Eigenvalues:    23.2291    28.1895    31.3809
     25  H    Isotropic =    29.9170   Anisotropy =    15.5185
   XX=    30.2324   YX=    -2.7220   ZX=    -6.0294
   XY=    -4.7005   YY=    24.1135   ZY=     4.1288
   XZ=    -4.3894   YZ=     3.2940   ZZ=    35.4051
   Eigenvalues:    22.2221    27.2663    40.2626
     26  H    Isotropic =    30.3818   Anisotropy =     9.9252
   XX=    31.8022   YX=    -3.6682   ZX=    -4.2614
   XY=    -3.3488   YY=    29.4302   ZY=     1.6588
   XZ=    -3.7813   YZ=     2.0018   ZZ=    29.9131
   Eigenvalues:    26.3214    27.8255    36.9986
     27  H    Isotropic =    30.3028   Anisotropy =    10.6040
   XX=    27.6722   YX=    -0.4089   ZX=     0.0985
   XY=     0.5573   YY=    37.0518   ZY=    -2.2144
   XZ=    -0.6567   YZ=    -1.5625   ZZ=    26.1843
   Eigenvalues:    25.8280    27.7082    37.3721
     28  H    Isotropic =    29.6979   Anisotropy =     6.2671
   XX=    30.8412   YX=    -0.6523   ZX=     4.3622
   XY=    -1.0265   YY=    28.9584   ZY=     0.7616
   XZ=     3.0622   YZ=     2.1707   ZZ=    29.2941
   Eigenvalues:    25.4757    29.7420    33.8760
     29  H    Isotropic =    30.3561   Anisotropy =    11.1621
   XX=    29.3256   YX=     5.1425   ZX=     0.1191
   XY=     4.9830   YY=    34.7534   ZY=    -0.6264
   XZ=     0.0516   YZ=    -0.3727   ZZ=    26.9894
   Eigenvalues:    26.1617    27.1091    37.7976
     30  H    Isotropic =    30.1031   Anisotropy =     7.1475
   XX=    29.8782   YX=     0.0939   ZX=    -2.0215
   XY=     0.3754   YY=    28.3453   ZY=     3.3230
   XZ=    -3.2727   YZ=     2.9173   ZZ=    32.0857
   Eigenvalues:    25.9029    29.5382    34.8681
     31  H    Isotropic =    30.1850   Anisotropy =     8.3359
   XX=    32.9496   YX=    -1.7783   ZX=     3.9787
   XY=    -1.6567   YY=    29.1748   ZY=    -0.3194
   XZ=     3.7915   YZ=    -1.3851   ZZ=    28.4305
   Eigenvalues:    26.1902    28.6224    35.7422
 End of Minotr Frequency-dependent properties file   721 does not exist.
 End of Minotr Frequency-dependent properties file   722 does not exist.

 **********************************************************************

            Population analysis using the SCF density.

 **********************************************************************

 Orbital symmetries:
       Occupied  (A) (A) (A) (A) (A) (A) (A) (A) (A) (A) (A) (A)
                 (A) (A) (A) (A) (A) (A) (A) (A) (A) (A) (A) (A)
                 (A) (A) (A) (A) (A) (A) (A) (A) (A) (A) (A) (A)
                 (A) (A) (A) (A) (A) (A) (A) (A) (A) (A) (A) (A)
                 (A) (A) (A) (A) (A) (A) (A) (A)
       Virtual   (A) (A) (A) (A) (A) (A) (A) (A) (A) (A) (A) (A)
                 (A) (A) (A) (A) (A) (A) (A) (A) (A) (A) (A) (A)
                 (A) (A) (A) (A) (A) (A) (A) (A) (A) (A) (A) (A)
                 (A) (A) (A) (A) (A) (A) (A) (A) (A) (A) (A) (A)
                 (A) (A) (A) (A) (A) (A) (A) (A) (A) (A) (A) (A)
                 (A) (A) (A) (A) (A) (A) (A) (A) (A) (A) (A) (A)
                 (A) (A) (A) (A) (A) (A) (A) (A) (A) (A) (A) (A)
                 (A) (A) (A) (A) (A) (A) (A) (A) (A) (A) (A) (A)
                 (A) (A) (A) (A) (A) (A) (A) (A) (A) (A) (A) (A)
                 (A) (A) (A) (A) (A) (A) (A) (A) (A) (A) (A) (A)
                 (A) (A) (A) (A) (A) (A) (A) (A) (A) (A) (A) (A)
                 (A) (A) (A) (A) (A) (A) (A) (A) (A) (A) (A) (A)
                 (A) (A) (A) (A) (A) (A) (A) (A) (A) (A) (A) (A)
                 (A) (A) (A) (A) (A) (A) (A) (A) (A) (A) (A) (A)
                 (A) (A) (A) (A) (A) (A) (A) (A) (A) (A) (A) (A)
                 (A) (A) (A) (A) (A) (A) (A) (A) (A) (A) (A) (A)
                 (A) (A) (A) (A) (A) (A) (A) (A) (A) (A) (A) (A)
                 (A) (A) (A) (A) (A) (A) (A) (A) (A) (A) (A) (A)
                 (A) (A) (A) (A) (A) (A) (A) (A) (A) (A) (A) (A)
                 (A) (A) (A) (A) (A) (A) (A) (A) (A) (A) (A) (A)
                 (A) (A) (A) (A) (A) (A) (A) (A) (A) (A) (A) (A)
                 (A) (A) (A) (A) (A) (A) (A) (A) (A) (A) (A) (A)
                 (A) (A) (A) (A) (A) (A) (A) (A) (A) (A) (A) (A)
                 (A) (A) (A) (A) (A) (A) (A) (A) (A) (A) (A) (A)
                 (A) (A) (A) (A) (A) (A) (A) (A) (A) (A) (A) (A)
                 (A) (A) (A) (A) (A) (A) (A) (A) (A)
 The electronic state is 1-A.
 Alpha  occ. eigenvalues --  -19.32444 -19.27951 -19.27239 -10.43598 -10.36157
 Alpha  occ. eigenvalues --  -10.34828 -10.31965 -10.31727 -10.30881 -10.30804
 Alpha  occ. eigenvalues --  -10.30774 -10.30742 -10.30597 -10.28988 -10.28677
 Alpha  occ. eigenvalues --   -1.20803  -1.12906  -1.12072  -0.96334  -0.91398
 Alpha  occ. eigenvalues --   -0.86764  -0.85405  -0.84853  -0.77738  -0.75318
 Alpha  occ. eigenvalues --   -0.70679  -0.70198  -0.68336  -0.65582  -0.62177
 Alpha  occ. eigenvalues --   -0.59741  -0.58606  -0.57220  -0.56297  -0.54918
 Alpha  occ. eigenvalues --   -0.53656  -0.52915  -0.51042  -0.50563  -0.50387
 Alpha  occ. eigenvalues --   -0.48698  -0.47507  -0.47187  -0.46086  -0.45554
 Alpha  occ. eigenvalues --   -0.45064  -0.43544  -0.43154  -0.42874  -0.42253
 Alpha  occ. eigenvalues --   -0.40364  -0.38611  -0.37054  -0.35606  -0.33418
 Alpha  occ. eigenvalues --   -0.32397
 Alpha virt. eigenvalues --    0.04893   0.05029   0.06517   0.07314   0.07679
 Alpha virt. eigenvalues --    0.08271   0.08681   0.09550   0.09620   0.09999
 Alpha virt. eigenvalues --    0.10670   0.11168   0.11665   0.12467   0.12544
 Alpha virt. eigenvalues --    0.13411   0.13857   0.14137   0.14743   0.15046
 Alpha virt. eigenvalues --    0.15406   0.16578   0.17006   0.17234   0.18091
 Alpha virt. eigenvalues --    0.18600   0.18978   0.19512   0.20158   0.20832
 Alpha virt. eigenvalues --    0.21054   0.21330   0.21965   0.22818   0.22960
 Alpha virt. eigenvalues --    0.23478   0.24003   0.24186   0.24483   0.24727
 Alpha virt. eigenvalues --    0.25145   0.25595   0.26320   0.26715   0.27146
 Alpha virt. eigenvalues --    0.27378   0.27874   0.28109   0.28573   0.28841
 Alpha virt. eigenvalues --    0.29215   0.30038   0.30403   0.30786   0.30898
 Alpha virt. eigenvalues --    0.31753   0.32082   0.32657   0.33075   0.33459
 Alpha virt. eigenvalues --    0.33817   0.34391   0.34821   0.35570   0.35891
 Alpha virt. eigenvalues --    0.36287   0.37636   0.38037   0.38314   0.38475
 Alpha virt. eigenvalues --    0.40314   0.40705   0.41084   0.41270   0.42456
 Alpha virt. eigenvalues --    0.42799   0.43373   0.44181   0.44901   0.45500
 Alpha virt. eigenvalues --    0.45794   0.46276   0.46324   0.47859   0.48318
 Alpha virt. eigenvalues --    0.48381   0.50080   0.52102   0.52288   0.54430
 Alpha virt. eigenvalues --    0.54911   0.57812   0.60809   0.66262   0.70410
 Alpha virt. eigenvalues --    0.73296   0.74968   0.75243   0.76204   0.77174
 Alpha virt. eigenvalues --    0.77723   0.78001   0.79949   0.80570   0.81067
 Alpha virt. eigenvalues --    0.81675   0.82397   0.83401   0.83643   0.84714
 Alpha virt. eigenvalues --    0.85194   0.85994   0.87026   0.88865   0.90786
 Alpha virt. eigenvalues --    0.91237   0.91830   0.94229   0.95898   0.97610
 Alpha virt. eigenvalues --    0.98552   0.99660   1.00553   1.01693   1.02626
 Alpha virt. eigenvalues --    1.03011   1.04026   1.05176   1.05356   1.06924
 Alpha virt. eigenvalues --    1.08437   1.09262   1.10177   1.10585   1.11649
 Alpha virt. eigenvalues --    1.12841   1.14706   1.17031   1.19102   1.20395
 Alpha virt. eigenvalues --    1.21176   1.21448   1.21765   1.23276   1.24690
 Alpha virt. eigenvalues --    1.25411   1.26557   1.28132   1.28964   1.29823
 Alpha virt. eigenvalues --    1.32330   1.33434   1.35073   1.36535   1.37866
 Alpha virt. eigenvalues --    1.40876   1.42337   1.42479   1.46456   1.47031
 Alpha virt. eigenvalues --    1.47958   1.49145   1.49331   1.49872   1.50867
 Alpha virt. eigenvalues --    1.51096   1.53208   1.53778   1.54635   1.56386
 Alpha virt. eigenvalues --    1.57060   1.59366   1.60805   1.62526   1.63839
 Alpha virt. eigenvalues --    1.69004   1.71227   1.75458   1.77169   1.78626
 Alpha virt. eigenvalues --    1.81747   1.81948   1.84469   1.85685   1.87777
 Alpha virt. eigenvalues --    1.90305   1.91025   1.92979   1.94192   1.95441
 Alpha virt. eigenvalues --    1.96255   1.98018   1.99587   2.01064   2.02149
 Alpha virt. eigenvalues --    2.03011   2.03916   2.05120   2.05717   2.07115
 Alpha virt. eigenvalues --    2.08387   2.08583   2.10098   2.10521   2.11335
 Alpha virt. eigenvalues --    2.12128   2.14094   2.15793   2.17473   2.19186
 Alpha virt. eigenvalues --    2.19512   2.20141   2.21307   2.21540   2.22576
 Alpha virt. eigenvalues --    2.23424   2.24953   2.26770   2.29746   2.31597
 Alpha virt. eigenvalues --    2.32232   2.35075   2.37805   2.38948   2.39444
 Alpha virt. eigenvalues --    2.41473   2.43554   2.45066   2.47481   2.48224
 Alpha virt. eigenvalues --    2.49206   2.50749   2.51717   2.54553   2.55285
 Alpha virt. eigenvalues --    2.55716   2.56981   2.58653   2.59914   2.60725
 Alpha virt. eigenvalues --    2.62169   2.63670   2.64937   2.68235   2.68703
 Alpha virt. eigenvalues --    2.68904   2.70354   2.73109   2.73270   2.74997
 Alpha virt. eigenvalues --    2.76130   2.78665   2.79750   2.82662   2.83600
 Alpha virt. eigenvalues --    2.84370   2.84593   2.84979   2.87285   2.88877
 Alpha virt. eigenvalues --    2.90391   2.92289   2.94695   2.97689   2.98858
 Alpha virt. eigenvalues --    3.00030   3.01126   3.02036   3.08093   3.08834
 Alpha virt. eigenvalues --    3.13313   3.16092   3.16971   3.18021   3.26290
 Alpha virt. eigenvalues --    3.28020   3.31014   3.36684   3.37245   3.38874
 Alpha virt. eigenvalues --    3.39259   3.44876   3.45232   3.50239   3.50717
 Alpha virt. eigenvalues --    3.53906   3.58250   3.59170   3.60358   3.62852
 Alpha virt. eigenvalues --    3.64317   3.65531   3.68519   3.99523   4.41685
 Alpha virt. eigenvalues --    4.42829   4.43165   4.51214   4.54493   4.56090
 Alpha virt. eigenvalues --    4.58617   4.62924   4.64250   4.65556   4.70966
 Alpha virt. eigenvalues --    4.80090   4.86989   4.96231   4.98413
          Condensed to atoms (all electrons):
              1          2          3          4          5          6
     1  C   17.167228  -0.713389  -0.633997  -5.595715  -8.561169   0.527097
     2  C   -0.713389   7.643248   0.138739  -0.756524   0.159557   0.802171
     3  C   -0.633997   0.138739   6.271937  -0.059407   0.197379   0.449283
     4  C   -5.595715  -0.756524  -0.059407  16.633926   0.742639  -0.968756
     5  C   -8.561169   0.159557   0.197379   0.742639  16.816999  -0.329230
     6  C    0.527097   0.802171   0.449283  -0.968756  -0.329230   5.537475
     7  C    4.203440  -1.552544  -0.509700  -4.654650  -4.055129  -0.187317
     8  C   -0.360750   0.355212   0.037364   1.005743   0.731632   0.009162
     9  C   -0.363973  -0.208458   0.024711   0.075648   0.029182  -0.007997
    10  O   -0.069530  -0.018129  -0.003393  -0.147549   0.194313   0.003855
    11  C   -0.088540   0.026743   0.010813  -0.081420   0.178739  -0.001572
    12  O   -0.111313   0.153189   0.005265   0.080251   0.221937   0.012097
    13  C    0.140477  -0.035767  -0.014577  -0.277983  -0.298711  -0.011654
    14  O   -0.049090   0.029983   0.005017   0.093506  -0.010183   0.000505
    15  C   -0.013138   0.009286   0.001005  -0.027236   0.041432   0.003132
    16  H    0.145460   0.007249   0.065765   0.090809   0.021985  -0.012047
    17  H    0.010753   0.253084  -0.010268   0.032652   0.027107   0.017332
    18  H    0.016292  -0.002624   0.274778   0.020169   0.001206   0.021077
    19  H    0.046592  -0.066869  -0.001743   0.154811   0.204219  -0.010517
    20  H   -0.008362   0.032397   0.030904   0.009415  -0.006841   0.266722
    21  H    0.089037   0.020420   0.045497   0.120657   0.004312   0.005122
    22  H   -0.023328  -0.001513  -0.006691   0.020855   0.017889   0.000221
    23  H    0.000244  -0.001097  -0.000059  -0.000918   0.000407   0.000104
    24  H   -0.001616   0.008997   0.000291  -0.012137   0.001469   0.000453
    25  H    0.081921  -0.013956  -0.001730  -0.027431  -0.098358   0.001017
    26  H    0.003098  -0.000560   0.000099  -0.012707  -0.006182   0.000015
    27  H    0.014897   0.000255   0.000789  -0.007564  -0.007761   0.000019
    28  H   -0.000561   0.000254  -0.000051   0.004726   0.001594  -0.000021
    29  H    0.000050  -0.000720  -0.000006   0.000328   0.000387  -0.000036
    30  H    0.000102  -0.004233  -0.000014   0.003692  -0.001136  -0.000192
    31  H   -0.000168   0.000850  -0.000011  -0.003318   0.001790   0.000057
              7          8          9         10         11         12
     1  C    4.203440  -0.360750  -0.363973  -0.069530  -0.088540  -0.111313
     2  C   -1.552544   0.355212  -0.208458  -0.018129   0.026743   0.153189
     3  C   -0.509700   0.037364   0.024711  -0.003393   0.010813   0.005265
     4  C   -4.654650   1.005743   0.075648  -0.147549  -0.081420   0.080251
     5  C   -4.055129   0.731632   0.029182   0.194313   0.178739   0.221937
     6  C   -0.187317   0.009162  -0.007997   0.003855  -0.001572   0.012097
     7  C   14.015406  -2.673604   0.628076   0.083943  -0.093791  -0.196568
     8  C   -2.673604   9.801835  -1.805565  -0.620347  -0.062170  -0.073564
     9  C    0.628076  -1.805565   6.864806   0.462815  -0.155626  -0.077266
    10  O    0.083943  -0.620347   0.462815   8.483503   0.044727   0.000414
    11  C   -0.093791  -0.062170  -0.155626   0.044727   5.418488   0.006456
    12  O   -0.196568  -0.073564  -0.077266   0.000414   0.006456   8.336028
    13  C    0.750847  -0.661545  -0.104400   0.040842  -0.009462   0.007888
    14  O   -0.103278  -0.060350   0.689754  -0.166851  -0.071272   0.004025
    15  C   -0.025757  -0.041547   0.016851  -0.002077   0.124039   0.003922
    16  H   -0.025368   0.014229   0.002908  -0.000030   0.000057   0.000499
    17  H   -0.004677  -0.000708   0.001903  -0.000068  -0.000180   0.000105
    18  H   -0.003875  -0.000830   0.000665   0.000002   0.000012   0.000018
    19  H   -0.009811  -0.005504   0.006073  -0.000707  -0.001654   0.005464
    20  H    0.002599  -0.000133  -0.000164   0.000001   0.000009  -0.000005
    21  H   -0.022459   0.098026  -0.016965  -0.000461   0.000198  -0.054670
    22  H   -0.011062   0.312004  -0.029163   0.012430   0.002035   0.007366
    23  H    0.000652  -0.017127   0.000815  -0.045014   0.408067  -0.000149
    24  H    0.007058  -0.012320  -0.031778  -0.034634   0.408500   0.000048
    25  H    0.055482   0.042144  -0.008828  -0.002126   0.000318   0.228170
    26  H    0.053402  -0.145569   0.041623  -0.004169  -0.002667  -0.000442
    27  H    0.008600  -0.062295  -0.021990  -0.000097  -0.000856  -0.000791
    28  H   -0.013784  -0.068648  -0.020259   0.007606   0.000561   0.003748
    29  H    0.000245  -0.000377   0.001031   0.007511  -0.061508  -0.000001
    30  H    0.001055  -0.004926   0.001854  -0.002319  -0.062538  -0.000037
    31  H    0.001931  -0.005820  -0.003847  -0.003737  -0.058128  -0.000096
             13         14         15         16         17         18
     1  C    0.140477  -0.049090  -0.013138   0.145460   0.010753   0.016292
     2  C   -0.035767   0.029983   0.009286   0.007249   0.253084  -0.002624
     3  C   -0.014577   0.005017   0.001005   0.065765  -0.010268   0.274778
     4  C   -0.277983   0.093506  -0.027236   0.090809   0.032652   0.020169
     5  C   -0.298711  -0.010183   0.041432   0.021985   0.027107   0.001206
     6  C   -0.011654   0.000505   0.003132  -0.012047   0.017332   0.021077
     7  C    0.750847  -0.103278  -0.025757  -0.025368  -0.004677  -0.003875
     8  C   -0.661545  -0.060350  -0.041547   0.014229  -0.000708  -0.000830
     9  C   -0.104400   0.689754   0.016851   0.002908   0.001903   0.000665
    10  O    0.040842  -0.166851  -0.002077  -0.000030  -0.000068   0.000002
    11  C   -0.009462  -0.071272   0.124039   0.000057  -0.000180   0.000012
    12  O    0.007888   0.004025   0.003922   0.000499   0.000105   0.000018
    13  C    5.954103  -0.043060  -0.010025   0.005844  -0.000014  -0.000005
    14  O   -0.043060   8.122231   0.009795  -0.000122  -0.000070  -0.000010
    15  C   -0.010025   0.009795   5.306563   0.000007  -0.000284   0.000000
    16  H    0.005844  -0.000122   0.000007   0.508496   0.000011  -0.003957
    17  H   -0.000014  -0.000070  -0.000284   0.000011   0.497625  -0.000122
    18  H   -0.000005  -0.000010   0.000000  -0.003957  -0.000122   0.495238
    19  H   -0.000663  -0.000402  -0.002187  -0.000112  -0.003999   0.000011
    20  H   -0.000007   0.000006   0.000006  -0.000120  -0.003891  -0.003857
    21  H   -0.049980   0.000343   0.000156   0.001757   0.000002  -0.000001
    22  H   -0.003716  -0.004417   0.000770  -0.000087   0.000000   0.000001
    23  H   -0.001969   0.000741  -0.015076   0.000000   0.000000   0.000000
    24  H    0.002705   0.004220  -0.011714   0.000000  -0.000013   0.000000
    25  H   -0.003441   0.000003  -0.000093   0.000029   0.000000   0.000000
    26  H    0.434159  -0.000442  -0.000390   0.000001   0.000000   0.000000
    27  H    0.434328   0.000111   0.000103   0.000001   0.000000   0.000000
    28  H    0.442240   0.000216   0.001783   0.000000   0.000000   0.000000
    29  H    0.000004   0.000140   0.419661   0.000000   0.000000   0.000000
    30  H    0.000659  -0.000208   0.430235   0.000000   0.000000   0.000000
    31  H    0.000481  -0.000061   0.433284   0.000000   0.000000   0.000000
             19         20         21         22         23         24
     1  C    0.046592  -0.008362   0.089037  -0.023328   0.000244  -0.001616
     2  C   -0.066869   0.032397   0.020420  -0.001513  -0.001097   0.008997
     3  C   -0.001743   0.030904   0.045497  -0.006691  -0.000059   0.000291
     4  C    0.154811   0.009415   0.120657   0.020855  -0.000918  -0.012137
     5  C    0.204219  -0.006841   0.004312   0.017889   0.000407   0.001469
     6  C   -0.010517   0.266722   0.005122   0.000221   0.000104   0.000453
     7  C   -0.009811   0.002599  -0.022459  -0.011062   0.000652   0.007058
     8  C   -0.005504  -0.000133   0.098026   0.312004  -0.017127  -0.012320
     9  C    0.006073  -0.000164  -0.016965  -0.029163   0.000815  -0.031778
    10  O   -0.000707   0.000001  -0.000461   0.012430  -0.045014  -0.034634
    11  C   -0.001654   0.000009   0.000198   0.002035   0.408067   0.408500
    12  O    0.005464  -0.000005  -0.054670   0.007366  -0.000149   0.000048
    13  C   -0.000663  -0.000007  -0.049980  -0.003716  -0.001969   0.002705
    14  O   -0.000402   0.000006   0.000343  -0.004417   0.000741   0.004220
    15  C   -0.002187   0.000006   0.000156   0.000770  -0.015076  -0.011714
    16  H   -0.000112  -0.000120   0.001757  -0.000087   0.000000   0.000000
    17  H   -0.003999  -0.003891   0.000002   0.000000   0.000000  -0.000013
    18  H    0.000011  -0.003857  -0.000001   0.000001   0.000000   0.000000
    19  H    0.504288  -0.000122  -0.000019  -0.000003   0.000004   0.000071
    20  H   -0.000122   0.498306   0.000000   0.000000   0.000000   0.000000
    21  H   -0.000019   0.000000   0.615538  -0.003767   0.000000  -0.000001
    22  H   -0.000003   0.000000  -0.003767   0.511270   0.000003   0.000002
    23  H    0.000004   0.000000   0.000000   0.000003   0.531946  -0.033734
    24  H    0.000071   0.000000  -0.000001   0.000002  -0.033734   0.533772
    25  H   -0.000986   0.000000  -0.004268  -0.000158   0.000000   0.000001
    26  H    0.000000   0.000000  -0.000027  -0.003771   0.000002   0.000000
    27  H    0.000000   0.000000   0.003700  -0.003512  -0.000001   0.000000
    28  H   -0.000003   0.000000  -0.000008   0.003882   0.000018  -0.000005
    29  H   -0.000001   0.000000   0.000000   0.000000  -0.001642  -0.001645
    30  H    0.000244   0.000000   0.000000   0.000000   0.003988  -0.005197
    31  H    0.000000   0.000000   0.000000   0.000000  -0.005031   0.004026
             25         26         27         28         29         30
     1  C    0.081921   0.003098   0.014897  -0.000561   0.000050   0.000102
     2  C   -0.013956  -0.000560   0.000255   0.000254  -0.000720  -0.004233
     3  C   -0.001730   0.000099   0.000789  -0.000051  -0.000006  -0.000014
     4  C   -0.027431  -0.012707  -0.007564   0.004726   0.000328   0.003692
     5  C   -0.098358  -0.006182  -0.007761   0.001594   0.000387  -0.001136
     6  C    0.001017   0.000015   0.000019  -0.000021  -0.000036  -0.000192
     7  C    0.055482   0.053402   0.008600  -0.013784   0.000245   0.001055
     8  C    0.042144  -0.145569  -0.062295  -0.068648  -0.000377  -0.004926
     9  C   -0.008828   0.041623  -0.021990  -0.020259   0.001031   0.001854
    10  O   -0.002126  -0.004169  -0.000097   0.007606   0.007511  -0.002319
    11  C    0.000318  -0.002667  -0.000856   0.000561  -0.061508  -0.062538
    12  O    0.228170  -0.000442  -0.000791   0.003748  -0.000001  -0.000037
    13  C   -0.003441   0.434159   0.434328   0.442240   0.000004   0.000659
    14  O    0.000003  -0.000442   0.000111   0.000216   0.000140  -0.000208
    15  C   -0.000093  -0.000390   0.000103   0.001783   0.419661   0.430235
    16  H    0.000029   0.000001   0.000001   0.000000   0.000000   0.000000
    17  H    0.000000   0.000000   0.000000   0.000000   0.000000   0.000000
    18  H    0.000000   0.000000   0.000000   0.000000   0.000000   0.000000
    19  H   -0.000986   0.000000   0.000000  -0.000003  -0.000001   0.000244
    20  H    0.000000   0.000000   0.000000   0.000000   0.000000   0.000000
    21  H   -0.004268  -0.000027   0.003700  -0.000008   0.000000   0.000000
    22  H   -0.000158  -0.003771  -0.003512   0.003882   0.000000   0.000000
    23  H    0.000000   0.000002  -0.000001   0.000018  -0.001642   0.003988
    24  H    0.000001   0.000000   0.000000  -0.000005  -0.001645  -0.005197
    25  H    0.358686  -0.000001  -0.000039  -0.000064   0.000000  -0.000001
    26  H   -0.000001   0.515488  -0.023140  -0.026228   0.000000   0.000000
    27  H   -0.000039  -0.023140   0.514005  -0.023665   0.000000   0.000000
    28  H   -0.000064  -0.026228  -0.023665   0.496227   0.000000   0.000000
    29  H    0.000000   0.000000   0.000000   0.000000   0.502956  -0.022848
    30  H   -0.000001   0.000000   0.000000   0.000000  -0.022848   0.515771
    31  H    0.000000   0.000000   0.000000  -0.000011  -0.022832  -0.028366
             31
     1  C   -0.000168
     2  C    0.000850
     3  C   -0.000011
     4  C   -0.003318
     5  C    0.001790
     6  C    0.000057
     7  C    0.001931
     8  C   -0.005820
     9  C   -0.003847
    10  O   -0.003737
    11  C   -0.058128
    12  O   -0.000096
    13  C    0.000481
    14  O   -0.000061
    15  C    0.433284
    16  H    0.000000
    17  H    0.000000
    18  H    0.000000
    19  H    0.000000
    20  H    0.000000
    21  H    0.000000
    22  H    0.000000
    23  H   -0.005031
    24  H    0.004026
    25  H    0.000000
    26  H    0.000000
    27  H    0.000000
    28  H   -0.000011
    29  H   -0.022832
    30  H   -0.028366
    31  H    0.513182
 Mulliken atomic charges:
              1
     1  C    0.147950
     2  C   -0.265252
     3  C   -0.317989
     4  C   -0.456508
     5  C   -0.221475
     6  C   -0.127578
     7  C    0.330638
     8  C    0.276346
     9  C    0.007565
    10  O   -0.220722
    11  C    0.121622
    12  O   -0.561988
    13  C   -0.687598
    14  O   -0.450781
    15  C   -0.652505
    16  H    0.176738
    17  H    0.183720
    18  H    0.185812
    19  H    0.183526
    20  H    0.183138
    21  H    0.147861
    22  H    0.202460
    23  H    0.174826
    24  H    0.173180
    25  H    0.393710
    26  H    0.178409
    27  H    0.174901
    28  H    0.190453
    29  H    0.179303
    30  H    0.174416
    31  H    0.175823
 Sum of Mulliken atomic charges =   0.00000
 Mulliken charges with hydrogens summed into heavy atoms:
              1
     1  C    0.324688
     2  C   -0.081532
     3  C   -0.132177
     4  C   -0.456508
     5  C   -0.037949
     6  C    0.055560
     7  C    0.478499
     8  C    0.478806
     9  C    0.007565
    10  O   -0.220722
    11  C    0.469628
    12  O   -0.168279
    13  C   -0.143834
    14  O   -0.450781
    15  C   -0.122963
 Sum of Mulliken charges with hydrogens summed into heavy atoms =   0.00000
 Electronic spatial extent (au):  <R**2>=           3386.7682
 Charge=              0.0000 electrons
 Dipole moment (field-independent basis, Debye):
    X=              1.1923    Y=             -0.1552    Z=             -1.8914  Tot=              2.2412
 Quadrupole moment (field-independent basis, Debye-Ang):
   XX=            -79.9297   YY=            -77.2544   ZZ=            -99.5259
   XY=              3.9772   XZ=              0.7162   YZ=              4.0483
 Traceless Quadrupole moment (field-independent basis, Debye-Ang):
   XX=              5.6403   YY=              8.3156   ZZ=            -13.9559
   XY=              3.9772   XZ=              0.7162   YZ=              4.0483
 Octapole moment (field-independent basis, Debye-Ang**2):
  XXX=            -14.5320  YYY=             -3.8587  ZZZ=            -32.7118  XYY=             -5.1179
  XXY=            -14.8346  XXZ=             20.8949  XZZ=              5.9321  YZZ=              1.6771
  YYZ=              3.8795  XYZ=             -2.3821
 Hexadecapole moment (field-independent basis, Debye-Ang**3):
 XXXX=          -2542.1026 YYYY=          -1182.0307 ZZZZ=           -603.3805 XXXY=             17.2996
 XXXZ=             70.6413 YYYX=             12.2619 YYYZ=              6.0714 ZZZX=             -4.4757
 ZZZY=              0.2107 XXYY=           -590.9700 XXZZ=           -571.1108 YYZZ=           -315.3171
 XXYZ=             -3.2202 YYXZ=             -9.5077 ZZXY=             16.6165
 N-N= 1.025125934318D+03 E-N=-3.662328550235D+03  KE= 6.859114130259D+02
 1\1\GINC-COMPUTE-9-6\SP\RwB97XD\6-31+G(d,p)\C12H16O3\ELUCIANO.IQUIR\17
 -May-2022\0\\# wb97xd/6-31+g** scrf=(pcm,solvent=chloroform,smd,dovacu
 um) nmr\\comment\\0,1\C,0,-2.47559532,0.637531481,-1.373572226\C,0,-0.
 38114582,-0.113614688,-3.05396541\C,0,-2.479780602,1.025575395,-2.7146
 73282\C,0,-1.426072586,-0.137581487,-0.856836983\C,0,-0.375495407,-0.5
 03117981,-1.713777361\C,0,-1.433877486,0.648899983,-3.554190017\C,0,-1
 .431071847,-0.536975264,0.606595362\C,0,-0.806006711,0.501138014,1.551
 781746\C,0,0.579092542,0.940542916,1.126968363\O,0,1.473773358,-0.0826
 14783,1.147814102\C,0,2.80179433,0.282105715,0.757086978\O,0,-0.871761
 148,-1.837987636,0.789976356\C,0,-0.776291356,0.033716052,3.006452215\
 O,0,0.854378425,2.098639729,0.832758088\C,0,3.657747419,-0.969086906,0
 .773220737\H,0,-3.298955376,0.949147651,-0.734086258\H,0,0.440064149,-
 0.399863182,-3.706020567\H,0,-3.297323537,1.627283687,-3.103657357\H,0
 ,0.462681919,-1.0883008,-1.338986552\H,0,-1.43567317,0.955792129,-4.59
 6823628\H,0,-2.481999482,-0.654365211,0.903903361\H,0,-1.427211598,1.4
 07201739,1.508650385\H,0,3.204601283,1.016726399,1.463098507\H,0,2.789
 284107,0.707277809,-0.252847267\H,0,-1.16404735,-2.383057755,0.0385661
 15\H,0,-0.367368712,0.81640721,3.655080308\H,0,-1.785811162,-0.2030802
 29,3.357999252\H,0,-0.151914157,-0.856276985,3.139025946\H,0,4.6867872
 3,-0.741901637,0.481222864\H,0,3.253072588,-1.721134112,0.087715411\H,
 0,3.664125478,-1.419027253,1.771520814\\Version=EM64L-G09RevC.01\State
 =1-A\HF=-692.4429648\RMSD=3.572e-09\Dipole=-0.3275505,-0.699845,-0.424
 763\Quadrupole=7.714977,-10.0091585,2.2941814,-3.9493402,-0.7950396,1.
 0516052\PG=C01 [X(C12H16O3)]\\@


                                                                                    A
                                                                                  AA
                                                                                 AAA
                                                                                AAAA
                                                                               AAAAA
                                                                              AAAAAA   KKKKKKKK
                                                                             AAAAAAA   KKKKKKKK
                                                                            AAAAAAAA   KKKKKKKK
                                       ZZZZZZZZZZZZZZZZZZZZ                AAAA  AAA   KKKKKKKK
                                       ZZZZZZZZZZZZZZZZZZZ                AAAA   AAA   KKKKKKKK          K
                                       ZZZZZZZZZZZZZZZZZZ                AAAA    AAA   KKKKKKKK         KKK
                                       ZZZZZZZZZZZZZZZZZ                AAAA     AAA   KKKKKKKK        KKKKK
                                       ZZZZZZZZZZZZZZZZ                AAAA      AAA   KKKKKKKK       KKKKKKK
                                                ZZZZZZ                AAAA       AAA   KKKKKKKK      KKKKKKK
                                               ZZZZZZ                AAAA        AAA   KKKKKKKK     KKKKKKK
                                              ZZZZZZ                AAAA         AAA   KKKKKKKK    KKKKKKK
                                             ZZZZZZ                AAAA          AAA   KKKKKKKK   KKKKKKK
                                            ZZZZZZ                AAAAAAAAAAAAAAAAAA   KKKKKKKK  KKKKKKK
                                           ZZZZZZ                AAAAAAAAAAAAAAAAAAA   KKKKKKKK KKKKKKK
                                          ZZZZZZ                AAAAAAAAAAAAAAAAAAAA   KKKKKKKKKKKKKKK
                                         ZZZZZZ                AAAAAAAAAAAAAAAAAAAAA   KKKKKKKKKKKKKK
                                        ZZZZZZ                AAAAAA        AAAAAAAA   KKKKKKKKKKKKK
                                       ZZZZZZ                AAAAAA         AAAAAAAA   KKKKKKKKKKKK
                                      ZZZZZZ                AAAAAA          AAAAAAAA   KKKKKKKKKKK
                                     ZZZZZZ                AAAAAA           AAAAAAAA   KKKKKKKKKKKK
                                    ZZZZZZ                AAAAAA            AAAAAAAA   KKKKKKKKKKKKK
                                   ZZZZZZ                AAAAAA             AAAAAAAA   KKKKKKKKKKKKKK
                                  ZZZZZZ                AAAAAA              AAAAAAAA   KKKKKKKKKKKKKKK
                                 ZZZZZZ                AAAAAA               AAAAAAAA   KKKKK KKKKKKKKKK
                                ZZZZZZ                AAAAAA                AAAAAAAA   KKKKK  KKKKKKKKKK
                               ZZZZZZ                AAAAAA                            KKKKK   KKKKKKKKKK
                              ZZZZZZ                AAAAAA                             KKKKK    KKKKKKKKKK
                             ZZZZZZ                                                    KKKKK     KKKKKKKKKK
                            ZZZZZZ                                                     KKKKK      KKKKKKKKKK
                           ZZZZZZ                                                      KKKKK       KKKKKKKKKK
                          ZZZZZZ                                                       KKKKK        KKKKKKKKKK
                         ZZZZZZZZZZZZZZZZZZZZZZZZZZZZZZZZZZZZZZZZ                      KKKKK         KKKKKKKKKK
                        ZZZZZZZZZZZZZZZZZZZZZZZZZZZZZZZZZZZZZZZZZ                      KKKKK          KKKKKKKKKK
                       ZZZZZZZZZZZZZZZZZZZZZZZZZZZZZZZZZZZZZZZZZZ                      KKKKK           KKKKKKKKKK
                       ZZZZZZZZZZZZZZZZZZZZZZZZZZZZZZZZZZZZZZZZZZ                      KKKKK            KKKKKKKKKK
                       ZZZZZZZZZZZZZZZZZZZZZZZZZZZZZZZZZZZZZZZZZZ                      KKKKK             KKKKKKKKKK
                       ZZZZZZZZZZZZZZZZZZZZZZZZZZZZZZZZZZZZZZZZZZ                      KKKKK              KKKKKKKKKK
                       ZZZZZZZZZZZZZZZZZZZZZZZZZZZZZZZZZZZZZZZZZZ                      KKKKK               KKKKKKKKKK
                       ZZZZZZZZZZZZZZZZZZZZZZZZZZZZZZZZZZZZZZZZZZ                      KKKKK                KKKKKKKKKK
                       ZZZZZZZZZZZZZZZZZZZZZZZZZZZZZZZZZZZZZZZZZZ                      KKKKK
                                                                                       KKKKK
                                                                                          (J.P.)
 Job cpu time:  0 days  0 hours 26 minutes 31.8 seconds.
 File lengths (MBytes):  RWF=    123 Int=      0 D2E=      0 Chk=      9 Scr=      1
 Normal termination of Gaussian 09 at Tue May 17 16:30:58 2022.
