 Entering Gaussian System, Link 0=g09
 Input=/home/eluciano.iquir/wb9/73b_030.gjc
 Output=/home/eluciano.iquir/wb9/73b_030.log
 Initial command:
 /share/apps/Gaussian09/EM64T.SSE4.2-enabled/g09/l1.exe /tmp/Gau-31662.inp -scrdir=/tmp/
 Entering Link 1 = /share/apps/Gaussian09/EM64T.SSE4.2-enabled/g09/l1.exe PID=     31663.
  
 Copyright (c) 1988,1990,1992,1993,1995,1998,2003,2009,2011,
            Gaussian, Inc.  All Rights Reserved.
  
 This is part of the Gaussian(R) 09 program.  It is based on
 the Gaussian(R) 03 system (copyright 2003, Gaussian, Inc.),
 the Gaussian(R) 98 system (copyright 1998, Gaussian, Inc.),
 the Gaussian(R) 94 system (copyright 1995, Gaussian, Inc.),
 the Gaussian 92(TM) system (copyright 1992, Gaussian, Inc.),
 the Gaussian 90(TM) system (copyright 1990, Gaussian, Inc.),
 the Gaussian 88(TM) system (copyright 1988, Gaussian, Inc.),
 the Gaussian 86(TM) system (copyright 1986, Carnegie Mellon
 University), and the Gaussian 82(TM) system (copyright 1983,
 Carnegie Mellon University). Gaussian is a federally registered
 trademark of Gaussian, Inc.
  
 This software contains proprietary and confidential information,
 including trade secrets, belonging to Gaussian, Inc.
  
 This software is provided under written license and may be
 used, copied, transmitted, or stored only in accord with that
 written license.
  
 The following legend is applicable only to US Government
 contracts under FAR:
  
                    RESTRICTED RIGHTS LEGEND
  
 Use, reproduction and disclosure by the US Government is
 subject to restrictions as set forth in subparagraphs (a)
 and (c) of the Commercial Computer Software - Restricted
 Rights clause in FAR 52.227-19.
  
 Gaussian, Inc.
 340 Quinnipiac St., Bldg. 40, Wallingford CT 06492
  
  
 ---------------------------------------------------------------
 Warning -- This program may not be used in any manner that
 competes with the business of Gaussian, Inc. or will provide
 assistance to any competitor of Gaussian, Inc.  The licensee
 of this program is prohibited from giving any competitor of
 Gaussian, Inc. access to this program.  By using this program,
 the user acknowledges that Gaussian, Inc. is engaged in the
 business of creating and licensing software in the field of
 computational chemistry and represents and warrants to the
 licensee that it is not a competitor of Gaussian, Inc. and that
 it will not use this program in any manner prohibited above.
 ---------------------------------------------------------------
  

 Cite this work as:
 Gaussian 09, Revision C.01,
 M. J. Frisch, G. W. Trucks, H. B. Schlegel, G. E. Scuseria, 
 M. A. Robb, J. R. Cheeseman, G. Scalmani, V. Barone, B. Mennucci, 
 G. A. Petersson, H. Nakatsuji, M. Caricato, X. Li, H. P. Hratchian, 
 A. F. Izmaylov, J. Bloino, G. Zheng, J. L. Sonnenberg, M. Hada, 
 M. Ehara, K. Toyota, R. Fukuda, J. Hasegawa, M. Ishida, T. Nakajima, 
 Y. Honda, O. Kitao, H. Nakai, T. Vreven, J. A. Montgomery, Jr., 
 J. E. Peralta, F. Ogliaro, M. Bearpark, J. J. Heyd, E. Brothers, 
 K. N. Kudin, V. N. Staroverov, T. Keith, R. Kobayashi, J. Normand, 
 K. Raghavachari, A. Rendell, J. C. Burant, S. S. Iyengar, J. Tomasi, 
 M. Cossi, N. Rega, J. M. Millam, M. Klene, J. E. Knox, J. B. Cross, 
 V. Bakken, C. Adamo, J. Jaramillo, R. Gomperts, R. E. Stratmann, 
 O. Yazyev, A. J. Austin, R. Cammi, C. Pomelli, J. W. Ochterski, 
 R. L. Martin, K. Morokuma, V. G. Zakrzewski, G. A. Voth, 
 P. Salvador, J. J. Dannenberg, S. Dapprich, A. D. Daniels, 
 O. Farkas, J. B. Foresman, J. V. Ortiz, J. Cioslowski, 
 and D. J. Fox, Gaussian, Inc., Wallingford CT, 2010.
 
 ******************************************
 Gaussian 09:  EM64L-G09RevC.01 23-Sep-2011
                17-May-2022 
 ******************************************
 %nprocshared=4
 Will use up to    4 processors via shared memory.
 ----------------------------------------------------------------
 # wb97xd/6-31+g** scrf=(pcm,solvent=chloroform,smd,dovacuum) nmr
 ----------------------------------------------------------------
 1/38=1/1;
 2/12=2,17=6,18=5,40=1/2;
 3/5=1,6=6,7=111,11=2,16=1,25=1,30=1,70=32101,72=7,74=-58/1,2,8,3;
 4//1;
 5/5=2,38=5,53=7/2;
 8/6=1,10=90,11=11/1;
 10/13=100,45=16/2;
 6/7=2,8=2,9=2,10=2,28=1/1;
 99/9=1/99;
 -------
 comment
 -------
 Charge =  0 Multiplicity = 1
 Symbolic Z-Matrix:
 6                    -1.7463    0.59602  -1.30679 
 6                    -0.64107  -1.04781  -3.26543 
 6                    -1.76245   0.98984  -2.64826 
 6                    -1.15474  -0.61669  -0.9161 
 6                    -0.6233   -1.44048  -1.92505 
 6                    -1.20601   0.17092  -3.62618 
 6                    -1.14282  -1.08154   0.53508 
 6                    -1.10761   0.01315   1.62199 
 6                     0.00779   1.01516   1.40622 
 8                     1.18966   0.40344   1.1152 
 6                     2.27915   1.30656   0.88768 
 8                    -0.07556  -2.01398   0.74983 
 6                    -0.99081  -0.5582    3.03459 
 8                    -0.14427   2.22528   1.52153 
 6                     3.49761   0.48626   0.51247 
 1                    -2.20921   1.26094  -0.58137 
 1                    -0.21903  -1.69912  -4.02639 
 1                    -2.21653   1.93722  -2.92864 
 1                    -0.1924   -2.4084   -1.67277 
 1                    -1.22241   0.47744  -4.66855 
 1                    -2.0662   -1.65811   0.67622 
 1                    -2.04688   0.5789    1.56727 
 1                     2.48127   1.8763    1.80136 
 1                     2.02926   1.99217   0.07019 
 1                     0.75325  -1.5171    0.6084 
 1                    -1.05089   0.24308   3.77964 
 1                    -1.80033  -1.26727   3.23561 
 1                    -0.0361   -1.07185   3.19104 
 1                     3.74765  -0.21996   1.31111 
 1                     4.36096   1.13145   0.32778 
 1                     3.30011  -0.10718  -0.38648 
 
                          Input orientation:                          
 ---------------------------------------------------------------------
 Center     Atomic      Atomic             Coordinates (Angstroms)
 Number     Number       Type             X           Y           Z
 ---------------------------------------------------------------------
      1          6           0       -1.746299    0.596020   -1.306789
      2          6           0       -0.641071   -1.047809   -3.265428
      3          6           0       -1.762452    0.989845   -2.648261
      4          6           0       -1.154742   -0.616687   -0.916099
      5          6           0       -0.623303   -1.440478   -1.925055
      6          6           0       -1.206015    0.170918   -3.626176
      7          6           0       -1.142818   -1.081543    0.535078
      8          6           0       -1.107605    0.013155    1.621987
      9          6           0        0.007787    1.015157    1.406218
     10          8           0        1.189658    0.403436    1.115202
     11          6           0        2.279147    1.306558    0.887681
     12          8           0       -0.075555   -2.013981    0.749829
     13          6           0       -0.990806   -0.558195    3.034593
     14          8           0       -0.144269    2.225281    1.521532
     15          6           0        3.497609    0.486262    0.512471
     16          1           0       -2.209209    1.260941   -0.581371
     17          1           0       -0.219029   -1.699122   -4.026392
     18          1           0       -2.216532    1.937220   -2.928638
     19          1           0       -0.192398   -2.408396   -1.672772
     20          1           0       -1.222406    0.477437   -4.668549
     21          1           0       -2.066195   -1.658105    0.676223
     22          1           0       -2.046883    0.578896    1.567273
     23          1           0        2.481274    1.876300    1.801361
     24          1           0        2.029263    1.992172    0.070192
     25          1           0        0.753250   -1.517104    0.608395
     26          1           0       -1.050891    0.243080    3.779644
     27          1           0       -1.800327   -1.267273    3.235610
     28          1           0       -0.036097   -1.071849    3.191037
     29          1           0        3.747648   -0.219964    1.311113
     30          1           0        4.360964    1.131451    0.327778
     31          1           0        3.300111   -0.107179   -0.386480
 ---------------------------------------------------------------------
                    Distance matrix (angstroms):
                    1          2          3          4          5
     1  C    0.000000
     2  C    2.785672   0.000000
     3  C    1.398179   2.406330   0.000000
     4  C    1.404719   2.443168   2.439394   0.000000
     5  C    2.406386   1.396819   2.779776   1.406788   0.000000
     6  C    2.419127   1.390897   1.391611   2.822671   2.414531
     7  C    2.563373   3.833632   3.848148   1.523859   2.539879
     8  C    3.053751   5.022959   4.429195   2.615492   3.863820
     9  C    3.257745   5.147924   4.424160   3.067172   4.186383
    10  O    3.810902   4.964635   4.818971   3.265432   3.991242
    11  C    4.639480   5.596340   5.379378   4.329443   4.886911
    12  O    3.719296   4.168403   4.838967   2.427424   2.789971
    13  C    4.555281   6.328688   5.940261   3.954524   5.050900
    14  O    3.635986   5.820216   4.640258   3.878128   5.054327
    15  C    5.551606   5.809868   6.157277   4.990158   5.160987
    16  H    1.087491   3.872150   2.131929   2.179319   3.408555
    17  H    3.872527   1.086919   3.392925   3.423616   2.155447
    18  H    2.156463   3.392035   1.087346   3.420549   3.867092
    19  H    3.402215   2.142209   3.868422   2.169996   1.089124
    20  H    3.404402   2.152458   2.153085   3.909292   3.400600
    21  H    3.019230   4.235570   4.260997   2.109689   2.982607
    22  H    2.889788   5.289373   4.245056   2.896976   4.277944
    23  H    5.401119   6.631123   6.212419   5.178820   5.875848
    24  H    4.254431   5.243903   4.771975   4.232824   4.774956
    25  H    3.792225   4.143775   4.818647   2.602934   2.884292
    26  H    5.145868   7.174077   6.510141   4.774932   5.963287
    27  H    4.910007   6.607233   6.302059   4.251673   5.296021
    28  H    5.092840   6.484790   6.428708   4.281016   5.162857
    29  H    6.140252   6.394600   6.892132   5.399193   5.573837
    30  H    6.344853   6.533043   6.809778   5.918296   6.044254
    31  H    5.177616   4.970517   5.652314   4.515064   4.420190
                    6          7          8          9         10
     6  C    0.000000
     7  C    4.346112   0.000000
     8  C    5.251456   1.543040   0.000000
     9  C    5.245097   2.545374   1.514815   0.000000
    10  O    5.317329   2.825270   2.384652   1.362245   0.000000
    11  C    5.814717   4.187744   3.698944   2.347950   1.433311
    12  O    5.020074   1.433391   2.436199   3.100560   2.752847
    13  C    6.704011   2.558236   1.528247   2.474719   3.059937
    14  O    5.643280   3.592391   2.414873   1.225078   2.294250
    15  C    6.273111   4.898172   4.760552   3.641067   2.386794
    16  H    3.386058   2.805508   2.761393   2.987640   3.894351
    17  H    2.152059   4.694869   5.968722   6.077171   5.730719
    18  H    2.151169   4.718381   5.063589   4.958707   5.505204
    19  H    3.390585   2.745622   4.190101   4.608793   4.193957
    20  H    1.086629   5.432724   6.308691   6.221359   6.267001
    21  H    4.753512   1.097712   2.146270   3.461305   3.878561
    22  H    5.276876   2.154023   1.097861   2.106640   3.272667
    23  H    6.779571   4.846272   4.047658   2.648743   2.075672
    24  H    5.239000   4.441389   4.020512   2.612639   2.078717
    25  H    4.961827   1.946835   2.613779   2.757641   2.033661
    26  H    7.407796   3.505750   2.170614   2.711098   3.484971
    27  H    7.036029   2.785621   2.173278   3.438813   4.028325
    28  H    7.027629   2.877332   2.187985   2.746470   2.826310
    29  H    7.004883   5.026053   4.870777   3.939686   2.640137
    30  H    6.895479   5.935650   5.729818   4.486280   3.347720
    31  H    5.556810   4.640934   4.845243   3.913157   2.640035
                   11         12         13         14         15
    11  C    0.000000
    12  O    4.073033   0.000000
    13  C    4.333489   2.859571   0.000000
    14  O    2.668101   4.309476   3.279286   0.000000
    15  C    1.516020   4.367500   5.253366   4.160008   0.000000
    16  H    4.722873   4.129126   4.227169   3.100989   5.862115
    17  H    6.278782   4.788737   7.194085   6.796027   6.260238
    18  H    5.930695   5.807486   6.579485   4.917445   6.826267
    19  H    5.144447   2.457276   5.120545   5.628220   5.174021
    20  H    6.619667   6.072993   7.775896   6.521843   7.008679
    21  H    5.264593   2.023540   2.815701   4.414639   5.964985
    22  H    4.439129   3.358178   2.135721   2.516469   5.644694
    23  H    1.095570   4.772565   4.416217   2.663375   2.150902
    24  H    1.095809   4.576180   4.940937   2.623922   2.149283
    25  H    3.221712   0.976631   3.138100   3.955351   3.399144
    26  H    4.536914   3.901972   1.095789   3.138495   5.605569
    27  H    5.364651   3.116331   1.094770   4.228300   6.209548
    28  H    4.040127   2.616996   1.095346   3.697298   4.699947
    29  H    2.160106   4.260331   5.053487   4.601142   1.095036
    30  H    2.162895   5.454775   6.230827   4.787341   1.093510
    31  H    2.159746   4.040075   5.506280   4.576530   1.095121
                   16         17         18         19         20
    16  H    0.000000
    17  H    4.958927   0.000000
    18  H    2.442759   4.291627   0.000000
    19  H    4.326975   2.458314   4.955674   0.000000
    20  H    4.276994   2.481237   2.479222   4.285281   0.000000
    21  H    3.181639   5.052553   5.093524   3.097067   5.817139
    22  H    2.260134   6.310269   4.699685   4.781309   6.290908
    23  H    5.296858   7.351053   6.666782   6.129987   7.585103
    24  H    4.350158   5.955037   5.198343   5.228642   5.943352
    25  H    4.231931   4.739168   5.767371   2.625333   5.977253
    26  H    4.625602   8.086924   7.016400   6.123412   8.453183
    27  H    4.596563   7.444707   6.959882   5.289594   8.115031
    28  H    4.939168   7.246945   7.159554   5.046526   8.098191
    29  H    6.423295   6.812591   7.628917   5.405254   7.806674
    30  H    6.634041   6.924397   7.383560   6.104575   7.520973
    31  H    5.679994   5.307315   6.409015   4.375816   6.255481
                   21         22         23         24         25
    21  H    0.000000
    22  H    2.408011   0.000000
    23  H    5.868342   4.716170   0.000000
    24  H    5.519472   4.566570   1.792954   0.000000
    25  H    2.823784   3.626762   3.990542   3.772650   0.000000
    26  H    3.778435   2.449358   4.365456   5.129006   4.050925
    27  H    2.602671   2.500496   5.501929   5.942188   3.672251
    28  H    3.284704   3.066729   4.118245   4.836694   2.737035
    29  H    6.022633   5.854945   2.497673   3.063703   3.338084
    30  H    7.015085   6.549975   2.501896   2.498804   4.484327
    31  H    5.686119   5.733950   3.064527   2.496172   3.076388
                   26         27         28         29         30
    26  H    0.000000
    27  H    1.771664   0.000000
    28  H    1.762187   1.775579   0.000000
    29  H    5.416090   5.964945   4.310052   0.000000
    30  H    6.480182   7.222941   5.690952   1.780289   0.000000
    31  H    6.034110   6.362375   4.985930   1.759214   1.780387
                   31
    31  H    0.000000
 Stoichiometry    C12H16O3
 Framework group  C1[X(C12H16O3)]
 Deg. of freedom    87
 Full point group                 C1      NOp   1
 Largest Abelian subgroup         C1      NOp   1
 Largest concise Abelian subgroup C1      NOp   1
                         Standard orientation:                         
 ---------------------------------------------------------------------
 Center     Atomic      Atomic             Coordinates (Angstroms)
 Number     Number       Type             X           Y           Z
 ---------------------------------------------------------------------
      1          6           0       -1.731187   -0.575436    1.075228
      2          6           0       -3.240780    0.759514   -0.848051
      3          6           0       -2.863979    0.153415    1.450010
      4          6           0       -1.317478   -0.630192   -0.266072
      5          6           0       -2.108072    0.032866   -1.222297
      6          6           0       -3.615390    0.824321    0.489881
      7          6           0       -0.100587   -1.434974   -0.706126
      8          6           0        1.049511   -1.580864    0.312189
      9          6           0        1.504061   -0.249930    0.874920
     10          8           0        1.666992    0.684812   -0.102536
     11          6           0        2.084239    1.969834    0.376010
     12          8           0        0.409528   -0.927431   -1.945800
     13          6           0        2.261354   -2.312516   -0.263711
     14          8           0        1.730182   -0.065286    2.064707
     15          6           0        2.155791    2.911293   -0.810097
     16          1           0       -1.186677   -1.097543    1.858523
     17          1           0       -3.832493    1.268223   -1.604678
     18          1           0       -3.161663    0.191348    2.495125
     19          1           0       -1.848632   -0.017494   -2.278870
     20          1           0       -4.497211    1.387621    0.782880
     21          1           0       -0.470245   -2.443106   -0.934148
     22          1           0        0.679334   -2.166805    1.163624
     23          1           0        3.071312    1.885156    0.843759
     24          1           0        1.359093    2.348509    1.105096
     25          1           0        0.725022   -0.021918   -1.760548
     26          1           0        3.020895   -2.467293    0.510818
     27          1           0        1.973639   -3.293646   -0.655025
     28          1           0        2.736552   -1.745313   -1.071332
     29          1           0        2.861072    2.535292   -1.558633
     30          1           0        2.471445    3.910391   -0.497160
     31          1           0        1.180052    2.985833   -1.301694
 ---------------------------------------------------------------------
 Rotational constants (GHZ):      0.7827459      0.4387667      0.3934107
 Standard basis: 6-31+G(d,p) (6D, 7F)
 There are   365 symmetry adapted basis functions of A   symmetry.
 Integral buffers will be    131072 words long.
 Raffenetti 2 integral format.
 Two-electron integral symmetry is turned on.
   365 basis functions,   592 primitive gaussians,   365 cartesian basis functions
    56 alpha electrons       56 beta electrons
       nuclear repulsion energy      1029.5586306438 Hartrees.
 NAtoms=   31 NActive=   31 NUniq=   31 SFac= 1.00D+00 NAtFMM=   60 NAOKFM=F Big=F
 Nuclear repulsion after empirical dispersion term =     1029.5369413627 Hartrees.
 ------------------------------------------------------------------------------
 Polarizable Continuum Model (PCM)
 =================================
 Model                : C-PCM.
 Atomic radii         : SMD-Coulomb.
 Polarization charges : Total charges.
 Charge compensation  : None.
 Solution method      : Matrix inversion.
 Cavity type          : VdW (van der Waals Surface) (Alpha=1.000).
 Cavity algorithm     : GePol (No added spheres)
                        Default sphere list used, NSphG=   31.
                        Lebedev-Laikov grids with approx.  5.0 points / Ang**2.
                        Smoothing algorithm: Karplus/York (Gamma=1.0000).
                        Polarization charges: spherical gaussians, with
                                              point-specific exponents (IZeta= 3).
                        Self-potential: point-specific (ISelfS= 7).
                        Self-field    : sphere-specific E.n sum rule (ISelfD= 2).
 Solvent              : Chloroform, Eps=   4.711300 Eps(inf)=   2.090627
 ------------------------------------------------------------------------------
 ------------------------------------------------------------------------------
 Atomic radii for non-electrostatic terms: SMD-CDS.
 ------------------------------------------------------------------------------
 Nuclear repulsion after PCM non-electrostatic terms =     1029.5300716422 Hartrees.
 One-electron integrals computed using PRISM.
 NBasis=   365 RedAO= T  NBF=   365
 NBsUse=   365 1.00D-06 NBFU=   365
 Harris functional with IExCor= 4639 diagonalized for initial guess.
 ExpMin= 4.38D-02 ExpMax= 5.48D+03 ExpMxC= 8.25D+02 IAcc=2 IRadAn=         4 AccDes= 0.00D+00
 HarFok:  IExCor= 4639 AccDes= 0.00D+00 IRadAn=         4 IDoV= 1
 ScaDFX=  1.000000  1.000000  1.000000  1.000000
 FoFCou: FMM=F IPFlag=           0 FMFlag=      100000 FMFlg1=           0
         NFxFlg=           0 DoJE=T BraDBF=F KetDBF=T FulRan=T
         Omega=  0.000000  0.000000  1.000000  0.000000  0.000000 ICntrl=     500 IOpCl=  0
         NMat0=    1 NMatS0=    1 NMatT0=    0 NMatD0=    1 NMtDS0=    0 NMtDT0=    0
         I1Cent=           4 NGrid=           0.
 Petite list used in FoFCou.
 Initial guess orbital symmetries:
       Occupied  (A) (A) (A) (A) (A) (A) (A) (A) (A) (A) (A) (A)
                 (A) (A) (A) (A) (A) (A) (A) (A) (A) (A) (A) (A)
                 (A) (A) (A) (A) (A) (A) (A) (A) (A) (A) (A) (A)
                 (A) (A) (A) (A) (A) (A) (A) (A) (A) (A) (A) (A)
                 (A) (A) (A) (A) (A) (A) (A) (A)
       Virtual   (A) (A) (A) (A) (A) (A) (A) (A) (A) (A) (A) (A)
                 (A) (A) (A) (A) (A) (A) (A) (A) (A) (A) (A) (A)
                 (A) (A) (A) (A) (A) (A) (A) (A) (A) (A) (A) (A)
                 (A) (A) (A) (A) (A) (A) (A) (A) (A) (A) (A) (A)
                 (A) (A) (A) (A) (A) (A) (A) (A) (A) (A) (A) (A)
                 (A) (A) (A) (A) (A) (A) (A) (A) (A) (A) (A) (A)
                 (A) (A) (A) (A) (A) (A) (A) (A) (A) (A) (A) (A)
                 (A) (A) (A) (A) (A) (A) (A) (A) (A) (A) (A) (A)
                 (A) (A) (A) (A) (A) (A) (A) (A) (A) (A) (A) (A)
                 (A) (A) (A) (A) (A) (A) (A) (A) (A) (A) (A) (A)
                 (A) (A) (A) (A) (A) (A) (A) (A) (A) (A) (A) (A)
                 (A) (A) (A) (A) (A) (A) (A) (A) (A) (A) (A) (A)
                 (A) (A) (A) (A) (A) (A) (A) (A) (A) (A) (A) (A)
                 (A) (A) (A) (A) (A) (A) (A) (A) (A) (A) (A) (A)
                 (A) (A) (A) (A) (A) (A) (A) (A) (A) (A) (A) (A)
                 (A) (A) (A) (A) (A) (A) (A) (A) (A) (A) (A) (A)
                 (A) (A) (A) (A) (A) (A) (A) (A) (A) (A) (A) (A)
                 (A) (A) (A) (A) (A) (A) (A) (A) (A) (A) (A) (A)
                 (A) (A) (A) (A) (A) (A) (A) (A) (A) (A) (A) (A)
                 (A) (A) (A) (A) (A) (A) (A) (A) (A) (A) (A) (A)
                 (A) (A) (A) (A) (A) (A) (A) (A) (A) (A) (A) (A)
                 (A) (A) (A) (A) (A) (A) (A) (A) (A) (A) (A) (A)
                 (A) (A) (A) (A) (A) (A) (A) (A) (A) (A) (A) (A)
                 (A) (A) (A) (A) (A) (A) (A) (A) (A) (A) (A) (A)
                 (A) (A) (A) (A) (A) (A) (A) (A) (A) (A) (A) (A)
                 (A) (A) (A) (A) (A) (A) (A) (A) (A)
 The electronic state of the initial guess is 1-A.
 Requested convergence on RMS density matrix=1.00D-08 within 128 cycles.
 Requested convergence on MAX density matrix=1.00D-06.
 Requested convergence on             energy=1.00D-06.
 No special actions if energy rises.
 FoFJK:  IHMeth= 1 ICntrl=     0 DoSepK=T KAlg= 1 I1Cent= 0 FoldK=F
 FoFJK:  IHMeth= 1 ICntrl=     0 DoSepK=T KAlg= 1 I1Cent= 0 FoldK=F
 FoFJK:  IHMeth= 1 ICntrl=     0 DoSepK=T KAlg= 1 I1Cent= 0 FoldK=F
 FoFJK:  IHMeth= 1 ICntrl=     0 DoSepK=T KAlg= 1 I1Cent= 0 FoldK=F
 FoFJK:  IHMeth= 1 ICntrl=     0 DoSepK=T KAlg= 1 I1Cent= 0 FoldK=F
 FoFJK:  IHMeth= 1 ICntrl=     0 DoSepK=T KAlg= 1 I1Cent= 0 FoldK=F
 FoFJK:  IHMeth= 1 ICntrl=     0 DoSepK=T KAlg= 1 I1Cent= 0 FoldK=F
 FoFJK:  IHMeth= 1 ICntrl=     0 DoSepK=T KAlg= 1 I1Cent= 0 FoldK=F
 FoFJK:  IHMeth= 1 ICntrl=     0 DoSepK=T KAlg= 1 I1Cent= 0 FoldK=F
 FoFJK:  IHMeth= 1 ICntrl=     0 DoSepK=T KAlg= 1 I1Cent= 0 FoldK=F
 FoFJK:  IHMeth= 1 ICntrl=     0 DoSepK=T KAlg= 1 I1Cent= 0 FoldK=F
 FoFJK:  IHMeth= 1 ICntrl=     0 DoSepK=T KAlg= 1 I1Cent= 0 FoldK=F
 FoFJK:  IHMeth= 1 ICntrl=     0 DoSepK=T KAlg= 1 I1Cent= 0 FoldK=F
 FoFJK:  IHMeth= 1 ICntrl=     0 DoSepK=T KAlg= 1 I1Cent= 0 FoldK=F
 FoFJK:  IHMeth= 1 ICntrl=     0 DoSepK=T KAlg= 1 I1Cent= 0 FoldK=F
 FoFJK:  IHMeth= 1 ICntrl=     0 DoSepK=T KAlg= 1 I1Cent= 0 FoldK=F
 Error on total polarization charges =  0.03992
 SCF Done:  E(RwB97XD) =  -692.445572071     A.U. after   16 cycles
             Convg  =    0.3173D-08             -V/T =  2.0095
 SMD-CDS (non-electrostatic) energy       (kcal/mol) =      -4.31
 (included in total energy above)
 Range of M.O.s used for correlation:     1   365
 NBasis=   365 NAE=    56 NBE=    56 NFC=     0 NFV=     0
 NROrb=    365 NOA=    56 NOB=    56 NVA=   309 NVB=   309

 **** Warning!!: The largest alpha MO coefficient is  0.11664998D+03

 NEqPCM:  Using equilibrium solvation (IEInf=0, Eps=   4.7113, EpsInf=   2.0906)
          Differentiating once with respect to magnetic field using GIAOs.
          Electric field/nuclear overlap derivatives assumed to be zero.
 FoFCou: FMM=F IPFlag=           0 FMFlag=    10101102 FMFlg1=           0
         NFxFlg=    40000000 DoJE=F BraDBF=F KetDBF=T FulRan=T
         Omega=  0.000000  0.000000  1.000000  0.000000  0.000000 ICntrl=    6100 IOpCl=  0
         NMat0=    1 NMatS0=    1 NMatT0=    0 NMatD0=    1 NMtDS0=    0 NMtDT0=    0
         I1Cent=           7 NGrid=        2257.
 Symmetry not used in FoFCou.
 FoFJK:  IHMeth= 1 ICntrl=  6127 DoSepK=T KAlg= 1 I1Cent= 0 FoldK=F
 FoFJK:  IHMeth= 1 ICntrl=     0 DoSepK=T KAlg= 1 I1Cent= 0 FoldK=F
          There are     3 degrees of freedom in the 1st order CPHF.  IDoFFX=0.
      3 vectors produced by pass  0 Test12= 5.77D-13 3.33D-08 XBig12= 1.13D+02 2.10D+00.
 AX will form     3 AO Fock derivatives at one time.
 FoFJK:  IHMeth= 1 ICntrl=     0 DoSepK=T KAlg= 1 I1Cent= 0 FoldK=F
      3 vectors produced by pass  1 Test12= 5.77D-13 3.33D-08 XBig12= 1.11D+00 3.06D-01.
 FoFJK:  IHMeth= 1 ICntrl=     0 DoSepK=T KAlg= 1 I1Cent= 0 FoldK=F
      3 vectors produced by pass  2 Test12= 5.77D-13 3.33D-08 XBig12= 2.10D-02 5.95D-02.
 FoFJK:  IHMeth= 1 ICntrl=     0 DoSepK=T KAlg= 1 I1Cent= 0 FoldK=F
      3 vectors produced by pass  3 Test12= 5.77D-13 3.33D-08 XBig12= 2.92D-04 3.96D-03.
 FoFJK:  IHMeth= 1 ICntrl=     0 DoSepK=T KAlg= 1 I1Cent= 0 FoldK=F
      3 vectors produced by pass  4 Test12= 5.77D-13 3.33D-08 XBig12= 3.77D-06 3.17D-04.
 FoFJK:  IHMeth= 1 ICntrl=     0 DoSepK=T KAlg= 1 I1Cent= 0 FoldK=F
      3 vectors produced by pass  5 Test12= 5.77D-13 3.33D-08 XBig12= 6.26D-08 4.94D-05.
 FoFJK:  IHMeth= 1 ICntrl=     0 DoSepK=T KAlg= 1 I1Cent= 0 FoldK=F
      3 vectors produced by pass  6 Test12= 5.77D-13 3.33D-08 XBig12= 8.25D-10 5.98D-06.
 FoFJK:  IHMeth= 1 ICntrl=     0 DoSepK=T KAlg= 1 I1Cent= 0 FoldK=F
      3 vectors produced by pass  7 Test12= 5.77D-13 3.33D-08 XBig12= 9.47D-12 7.68D-07.
 FoFJK:  IHMeth= 1 ICntrl=     0 DoSepK=T KAlg= 1 I1Cent= 0 FoldK=F
      3 vectors produced by pass  8 Test12= 5.77D-13 3.33D-08 XBig12= 9.94D-14 7.60D-08.
 FoFJK:  IHMeth= 1 ICntrl=     0 DoSepK=T KAlg= 1 I1Cent= 0 FoldK=F
 Inverted reduced A of dimension    27 with in-core refinement.
 Calculating GIAO nuclear magnetic shielding tensors.
 SCF GIAO Magnetic shielding tensor (ppm):
      1  C    Isotropic =    73.8062   Anisotropy =   172.3538
   XX=    83.4007   YX=    78.8142   ZX=   -21.3198
   XY=    82.6979   YY=   122.9007   ZY=    39.6822
   XZ=   -18.4084   YZ=    42.1242   ZZ=    15.1173
   Eigenvalues:   -24.3956    57.1055   188.7087
      2  C    Isotropic =    69.8391   Anisotropy =   175.2139
   XX=    70.6502   YX=    84.9306   ZX=   -29.3968
   XY=    80.7994   YY=   124.8557   ZY=    39.8139
   XZ=   -26.4382   YZ=    41.5876   ZZ=    14.0115
   Eigenvalues:   -34.8402    57.7091   186.6484
      3  C    Isotropic =    70.0183   Anisotropy =   174.8766
   XX=    92.5407   YX=    61.0452   ZX=    36.9357
   XY=    60.4156   YY=   141.4681   ZY=    13.0276
   XZ=    33.1357   YZ=    10.1464   ZZ=   -23.9537
   Eigenvalues:   -33.8538    57.3061   186.6027
      4  C    Isotropic =    52.4664   Anisotropy =   177.9711
   XX=    31.2340   YX=    90.7991   ZX=    18.9390
   XY=    92.6364   YY=   109.2496   ZY=    -0.3912
   XZ=    18.7565   YZ=     8.0308   ZZ=    16.9156
   Eigenvalues:   -33.1932    19.4785   171.1138
      5  C    Isotropic =    71.4722   Anisotropy =   179.6637
   XX=    95.4968   YX=    63.7220   ZX=    25.7131
   XY=    68.0569   YY=   141.8551   ZY=    11.1044
   XZ=    27.6055   YZ=    10.0974   ZZ=   -22.9352
   Eigenvalues:   -28.7477    51.9164   191.2481
      6  C    Isotropic =    72.3298   Anisotropy =   175.8812
   XX=    40.9955   YX=    98.7462   ZX=    29.2430
   XY=    94.6255   YY=   123.5838   ZY=     1.9826
   XZ=    27.6575   YZ=     1.3234   ZZ=    52.4101
   Eigenvalues:   -29.3288    56.7342   189.5839
      7  C    Isotropic =   123.2988   Anisotropy =    35.9992
   XX=   121.6782   YX=     3.7199   ZX=   -11.0614
   XY=    -3.5948   YY=   108.2795   ZY=   -11.3915
   XZ=    -5.8295   YZ=   -15.2903   ZZ=   139.9388
   Eigenvalues:   102.9398   119.6583   147.2983
      8  C    Isotropic =   149.4483   Anisotropy =    23.6150
   XX=   141.8382   YX=     7.0195   ZX=     5.0089
   XY=     6.2297   YY=   155.6664   ZY=    10.8299
   XZ=     5.7815   YZ=     6.1294   ZZ=   150.8402
   Eigenvalues:   138.7016   144.4515   165.1916
      9  C    Isotropic =    17.8189   Anisotropy =   102.1579
   XX=    75.3909   YX=   -34.2584   ZX=    -1.5178
   XY=   -36.5473   YY=   -44.7002   ZY=    26.1412
   XZ=    11.6550   YZ=    61.0871   ZZ=    22.7661
   Eigenvalues:   -73.9080    41.4406    85.9242
     10  O    Isotropic =   137.4903   Anisotropy =   156.1294
   XX=   191.2368   YX=   -60.8629   ZX=   -24.8341
   XY=   -22.4306   YY=   142.7067   ZY=   -72.4740
   XZ=   -60.5600   YZ=  -178.9502   ZZ=    78.5273
   Eigenvalues:   -34.6854   205.5796   241.5765
     11  C    Isotropic =   136.5572   Anisotropy =    60.4950
   XX=   120.3521   YX=    15.9271   ZX=     7.6743
   XY=    18.3416   YY=   165.9904   ZY=    20.1801
   XZ=     5.2986   YZ=    10.6008   ZZ=   123.3290
   Eigenvalues:   114.2489   118.5353   176.8872
     12  O    Isotropic =   291.6298   Anisotropy =    59.0358
   XX=   284.0394   YX=    12.4438   ZX=   -14.6427
   XY=    16.0802   YY=   326.4414   ZY=    -7.8673
   XZ=    -0.7576   YZ=     5.0854   ZZ=   264.4086
   Eigenvalues:   261.5533   282.3491   330.9870
     13  C    Isotropic =   180.2552   Anisotropy =    26.8394
   XX=   185.3902   YX=   -12.6548   ZX=    -3.4882
   XY=   -10.7343   YY=   182.2989   ZY=     6.2444
   XZ=    -5.4962   YZ=     7.4737   ZZ=   173.0766
   Eigenvalues:   169.0929   173.5246   198.1482
     14  O    Isotropic =   -63.2386   Anisotropy =   533.3877
   XX=   245.0217   YX=  -128.8160   ZX=   -62.2898
   XY=  -128.0662   YY=  -145.7708   ZY=    49.4307
   XZ=   -51.1416   YZ=    71.6453   ZZ=  -288.9667
   Eigenvalues:  -311.3132  -170.7559   292.3532
     15  C    Isotropic =   182.7930   Anisotropy =    23.0949
   XX=   170.5736   YX=     4.9893   ZX=     2.0172
   XY=     6.4032   YY=   190.0289   ZY=    -5.4308
   XZ=     0.1349   YZ=   -12.0366   ZZ=   187.7765
   Eigenvalues:   168.3608   181.8286   198.1896
     16  H    Isotropic =    23.8399   Anisotropy =     9.3516
   XX=    26.6754   YX=    -1.8322   ZX=    -4.1734
   XY=    -2.2394   YY=    20.3116   ZY=     0.5929
   XZ=    -3.7886   YZ=     0.1183   ZZ=    24.5326
   Eigenvalues:    19.5174    21.9280    30.0743
     17  H    Isotropic =    23.6688   Anisotropy =     4.8828
   XX=    24.7672   YX=    -2.3349   ZX=    -1.4366
   XY=    -2.3184   YY=    21.5190   ZY=     0.3786
   XZ=    -1.3706   YZ=     0.4587   ZZ=    24.7201
   Eigenvalues:    20.2867    23.7957    26.9240
     18  H    Isotropic =    23.8301   Anisotropy =     5.2367
   XX=    25.6670   YX=    -2.9987   ZX=    -0.1280
   XY=    -2.8368   YY=    22.1357   ZY=    -0.6038
   XZ=    -0.2570   YZ=    -0.8277   ZZ=    23.6876
   Eigenvalues:    20.3369    23.8322    27.3212
     19  H    Isotropic =    23.1613   Anisotropy =    10.0007
   XX=    27.2034   YX=    -4.1694   ZX=     1.8310
   XY=    -4.5762   YY=    21.0145   ZY=    -1.1249
   XZ=     1.2749   YZ=    -0.5406   ZZ=    21.2660
   Eigenvalues:    18.7517    20.9038    29.8285
     20  H    Isotropic =    23.8642   Anisotropy =     4.1141
   XX=    23.5652   YX=    -1.6762   ZX=     0.2121
   XY=    -2.1460   YY=    21.6938   ZY=    -0.9212
   XZ=    -0.0642   YZ=    -0.9934   ZZ=    26.3338
   Eigenvalues:    20.3996    24.5862    26.6070
     21  H    Isotropic =    26.7420   Anisotropy =     4.9336
   XX=    25.7850   YX=     2.8504   ZX=     1.0269
   XY=     0.1604   YY=    29.4621   ZY=     1.0033
   XZ=    -0.4796   YZ=    -0.3547   ZZ=    24.9790
   Eigenvalues:    24.8868    25.3082    30.0311
     22  H    Isotropic =    28.0800   Anisotropy =     6.6564
   XX=    27.4224   YX=    -0.5211   ZX=    -2.7765
   XY=    -1.0846   YY=    26.1612   ZY=    -3.6287
   XZ=    -1.7755   YZ=    -1.6760   ZZ=    30.6564
   Eigenvalues:    23.9993    27.7231    32.5176
     23  H    Isotropic =    27.6936   Anisotropy =     7.9840
   XX=    29.0787   YX=     2.4955   ZX=     3.8851
   XY=     4.1824   YY=    27.7763   ZY=    -0.1383
   XZ=     3.9296   YZ=    -1.1903   ZZ=    26.2259
   Eigenvalues:    22.2667    27.7979    33.0163
     24  H    Isotropic =    28.0402   Anisotropy =     5.8411
   XX=    25.2018   YX=     0.2538   ZX=    -2.0454
   XY=     1.0507   YY=    30.6631   ZY=     2.8475
   XZ=    -2.5008   YZ=     1.3434   ZZ=    28.2556
   Eigenvalues:    23.6230    28.5634    31.9342
     25  H    Isotropic =    28.4039   Anisotropy =    17.5746
   XX=    23.6146   YX=     6.7256   ZX=     1.1143
   XY=     9.1417   YY=    36.1581   ZY=     0.3460
   XZ=     1.8928   YZ=     1.1512   ZZ=    25.4389
   Eigenvalues:    19.5901    25.5012    40.1203
     26  H    Isotropic =    30.2435   Anisotropy =     9.9838
   XX=    32.9685   YX=    -4.1154   ZX=     4.0381
   XY=    -3.5893   YY=    28.1241   ZY=    -1.0565
   XZ=     3.1399   YZ=    -0.8360   ZZ=    29.6378
   Eigenvalues:    25.6773    28.1537    36.8994
     27  H    Isotropic =    30.2266   Anisotropy =    10.7151
   XX=    27.3305   YX=    -1.7499   ZX=    -0.2916
   XY=    -1.3048   YY=    36.0116   ZY=     3.3260
   XZ=     0.2538   YZ=     3.3904   ZZ=    27.3378
   Eigenvalues:    25.9923    27.3176    37.3700
     28  H    Isotropic =    29.8125   Anisotropy =     6.4589
   XX=    30.8403   YX=    -0.9876   ZX=    -4.0816
   XY=    -0.6628   YY=    28.4913   ZY=    -1.6955
   XZ=    -2.8703   YZ=    -2.7160   ZZ=    30.1058
   Eigenvalues:    25.3864    29.9326    34.1184
     29  H    Isotropic =    30.4329   Anisotropy =     8.2649
   XX=    30.5916   YX=     0.0860   ZX=    -4.4983
   XY=     0.4996   YY=    28.7652   ZY=    -0.9866
   XZ=    -4.6925   YZ=     0.2392   ZZ=    31.9419
   Eigenvalues:    26.6218    28.7341    35.9428
     30  H    Isotropic =    30.6061   Anisotropy =    11.5890
   XX=    27.4279   YX=     3.3882   ZX=     0.3270
   XY=     3.8241   YY=    37.1177   ZY=     0.5093
   XZ=     0.3633   YZ=     0.2440   ZZ=    27.2727
   Eigenvalues:    26.1920    27.2942    38.3321
     31  H    Isotropic =    30.7283   Anisotropy =     7.1274
   XX=    33.0588   YX=    -0.3599   ZX=     2.7656
   XY=     0.2578   YY=    29.9135   ZY=    -3.2541
   XZ=     4.1617   YZ=    -2.0042   ZZ=    29.2125
   Eigenvalues:    25.8674    30.8375    35.4799
 End of Minotr Frequency-dependent properties file   721 does not exist.
 End of Minotr Frequency-dependent properties file   722 does not exist.

 **********************************************************************

            Population analysis using the SCF density.

 **********************************************************************

 Orbital symmetries:
       Occupied  (A) (A) (A) (A) (A) (A) (A) (A) (A) (A) (A) (A)
                 (A) (A) (A) (A) (A) (A) (A) (A) (A) (A) (A) (A)
                 (A) (A) (A) (A) (A) (A) (A) (A) (A) (A) (A) (A)
                 (A) (A) (A) (A) (A) (A) (A) (A) (A) (A) (A) (A)
                 (A) (A) (A) (A) (A) (A) (A) (A)
       Virtual   (A) (A) (A) (A) (A) (A) (A) (A) (A) (A) (A) (A)
                 (A) (A) (A) (A) (A) (A) (A) (A) (A) (A) (A) (A)
                 (A) (A) (A) (A) (A) (A) (A) (A) (A) (A) (A) (A)
                 (A) (A) (A) (A) (A) (A) (A) (A) (A) (A) (A) (A)
                 (A) (A) (A) (A) (A) (A) (A) (A) (A) (A) (A) (A)
                 (A) (A) (A) (A) (A) (A) (A) (A) (A) (A) (A) (A)
                 (A) (A) (A) (A) (A) (A) (A) (A) (A) (A) (A) (A)
                 (A) (A) (A) (A) (A) (A) (A) (A) (A) (A) (A) (A)
                 (A) (A) (A) (A) (A) (A) (A) (A) (A) (A) (A) (A)
                 (A) (A) (A) (A) (A) (A) (A) (A) (A) (A) (A) (A)
                 (A) (A) (A) (A) (A) (A) (A) (A) (A) (A) (A) (A)
                 (A) (A) (A) (A) (A) (A) (A) (A) (A) (A) (A) (A)
                 (A) (A) (A) (A) (A) (A) (A) (A) (A) (A) (A) (A)
                 (A) (A) (A) (A) (A) (A) (A) (A) (A) (A) (A) (A)
                 (A) (A) (A) (A) (A) (A) (A) (A) (A) (A) (A) (A)
                 (A) (A) (A) (A) (A) (A) (A) (A) (A) (A) (A) (A)
                 (A) (A) (A) (A) (A) (A) (A) (A) (A) (A) (A) (A)
                 (A) (A) (A) (A) (A) (A) (A) (A) (A) (A) (A) (A)
                 (A) (A) (A) (A) (A) (A) (A) (A) (A) (A) (A) (A)
                 (A) (A) (A) (A) (A) (A) (A) (A) (A) (A) (A) (A)
                 (A) (A) (A) (A) (A) (A) (A) (A) (A) (A) (A) (A)
                 (A) (A) (A) (A) (A) (A) (A) (A) (A) (A) (A) (A)
                 (A) (A) (A) (A) (A) (A) (A) (A) (A) (A) (A) (A)
                 (A) (A) (A) (A) (A) (A) (A) (A) (A) (A) (A) (A)
                 (A) (A) (A) (A) (A) (A) (A) (A) (A) (A) (A) (A)
                 (A) (A) (A) (A) (A) (A) (A) (A) (A)
 The electronic state is 1-A.
 Alpha  occ. eigenvalues --  -19.33756 -19.27916 -19.27505 -10.44344 -10.36183
 Alpha  occ. eigenvalues --  -10.35406 -10.31999 -10.31804 -10.30729 -10.30607
 Alpha  occ. eigenvalues --  -10.30582 -10.30490 -10.30385 -10.29269 -10.29039
 Alpha  occ. eigenvalues --   -1.21811  -1.13094  -1.12354  -0.96103  -0.91394
 Alpha  occ. eigenvalues --   -0.87041  -0.85587  -0.84567  -0.77814  -0.75956
 Alpha  occ. eigenvalues --   -0.71305  -0.69568  -0.68171  -0.66661  -0.61510
 Alpha  occ. eigenvalues --   -0.59956  -0.58680  -0.58229  -0.56271  -0.54680
 Alpha  occ. eigenvalues --   -0.53584  -0.52946  -0.52185  -0.51400  -0.50245
 Alpha  occ. eigenvalues --   -0.49459  -0.47793  -0.46920  -0.46094  -0.45601
 Alpha  occ. eigenvalues --   -0.44689  -0.44147  -0.43334  -0.43036  -0.42023
 Alpha  occ. eigenvalues --   -0.40509  -0.39531  -0.37132  -0.36123  -0.33208
 Alpha  occ. eigenvalues --   -0.32401
 Alpha virt. eigenvalues --    0.04900   0.04973   0.06754   0.07158   0.07930
 Alpha virt. eigenvalues --    0.08363   0.08642   0.09523   0.10105   0.10142
 Alpha virt. eigenvalues --    0.10585   0.10824   0.11628   0.12034   0.12622
 Alpha virt. eigenvalues --    0.13049   0.13529   0.14373   0.14783   0.15068
 Alpha virt. eigenvalues --    0.16224   0.16349   0.17294   0.17734   0.18047
 Alpha virt. eigenvalues --    0.18441   0.19282   0.19417   0.19720   0.20416
 Alpha virt. eigenvalues --    0.20893   0.21343   0.21600   0.22127   0.23005
 Alpha virt. eigenvalues --    0.23528   0.23724   0.24327   0.24356   0.25237
 Alpha virt. eigenvalues --    0.25296   0.25869   0.26402   0.26596   0.26788
 Alpha virt. eigenvalues --    0.27370   0.28162   0.28419   0.28611   0.28955
 Alpha virt. eigenvalues --    0.29197   0.29648   0.30575   0.30961   0.31276
 Alpha virt. eigenvalues --    0.31596   0.32081   0.32099   0.32490   0.33546
 Alpha virt. eigenvalues --    0.33803   0.34256   0.34606   0.34835   0.35404
 Alpha virt. eigenvalues --    0.36055   0.37368   0.37705   0.38497   0.38913
 Alpha virt. eigenvalues --    0.39489   0.40380   0.40863   0.41189   0.41576
 Alpha virt. eigenvalues --    0.42466   0.43023   0.43655   0.43924   0.45017
 Alpha virt. eigenvalues --    0.45808   0.46384   0.46939   0.47892   0.48356
 Alpha virt. eigenvalues --    0.50141   0.50438   0.52216   0.52462   0.55843
 Alpha virt. eigenvalues --    0.57973   0.58463   0.60790   0.66690   0.69777
 Alpha virt. eigenvalues --    0.71912   0.73456   0.74035   0.74922   0.76283
 Alpha virt. eigenvalues --    0.77886   0.78866   0.79448   0.80479   0.81363
 Alpha virt. eigenvalues --    0.81851   0.82103   0.82778   0.83502   0.84197
 Alpha virt. eigenvalues --    0.85124   0.85728   0.86935   0.90384   0.90418
 Alpha virt. eigenvalues --    0.91373   0.93010   0.94411   0.95041   0.95936
 Alpha virt. eigenvalues --    0.96592   0.98962   0.99553   1.01683   1.02357
 Alpha virt. eigenvalues --    1.03115   1.03717   1.04410   1.06237   1.07246
 Alpha virt. eigenvalues --    1.08197   1.09215   1.10760   1.11134   1.12190
 Alpha virt. eigenvalues --    1.14492   1.16478   1.18071   1.19157   1.20459
 Alpha virt. eigenvalues --    1.20589   1.21168   1.22263   1.23399   1.24660
 Alpha virt. eigenvalues --    1.24916   1.26441   1.27506   1.29768   1.30038
 Alpha virt. eigenvalues --    1.31293   1.35051   1.35992   1.37316   1.38552
 Alpha virt. eigenvalues --    1.39009   1.40134   1.40718   1.42911   1.44193
 Alpha virt. eigenvalues --    1.46100   1.46905   1.48717   1.49529   1.50206
 Alpha virt. eigenvalues --    1.51062   1.52566   1.53020   1.55681   1.56538
 Alpha virt. eigenvalues --    1.57844   1.58754   1.61803   1.63310   1.66248
 Alpha virt. eigenvalues --    1.67976   1.72427   1.73108   1.74524   1.76635
 Alpha virt. eigenvalues --    1.80901   1.83689   1.84752   1.87846   1.87946
 Alpha virt. eigenvalues --    1.88564   1.92738   1.93198   1.93827   1.94691
 Alpha virt. eigenvalues --    1.96489   1.97080   1.98203   2.00701   2.01299
 Alpha virt. eigenvalues --    2.02172   2.02945   2.04934   2.05766   2.07440
 Alpha virt. eigenvalues --    2.09349   2.09843   2.10898   2.11243   2.12420
 Alpha virt. eigenvalues --    2.12937   2.13679   2.14861   2.15992   2.17578
 Alpha virt. eigenvalues --    2.19257   2.20039   2.20282   2.21006   2.22540
 Alpha virt. eigenvalues --    2.22990   2.23638   2.28874   2.29531   2.29716
 Alpha virt. eigenvalues --    2.32209   2.36848   2.37247   2.38440   2.40048
 Alpha virt. eigenvalues --    2.41921   2.44287   2.45359   2.47760   2.48191
 Alpha virt. eigenvalues --    2.50106   2.50905   2.51657   2.53684   2.55167
 Alpha virt. eigenvalues --    2.56792   2.57328   2.59219   2.60334   2.61419
 Alpha virt. eigenvalues --    2.63187   2.63674   2.65774   2.66222   2.68240
 Alpha virt. eigenvalues --    2.68745   2.70706   2.72028   2.73388   2.75305
 Alpha virt. eigenvalues --    2.76915   2.77706   2.79324   2.81808   2.83788
 Alpha virt. eigenvalues --    2.84486   2.85430   2.86062   2.86719   2.88856
 Alpha virt. eigenvalues --    2.91153   2.93004   2.93920   2.97411   2.99209
 Alpha virt. eigenvalues --    3.00232   3.00955   3.02465   3.06814   3.08636
 Alpha virt. eigenvalues --    3.11739   3.14715   3.16565   3.20478   3.26383
 Alpha virt. eigenvalues --    3.28262   3.29677   3.36378   3.37428   3.39047
 Alpha virt. eigenvalues --    3.39348   3.44263   3.45675   3.49407   3.50865
 Alpha virt. eigenvalues --    3.55201   3.56953   3.58627   3.59863   3.62496
 Alpha virt. eigenvalues --    3.64121   3.66131   3.74513   3.99039   4.41318
 Alpha virt. eigenvalues --    4.42796   4.45785   4.53788   4.54725   4.56968
 Alpha virt. eigenvalues --    4.60457   4.60614   4.64135   4.65965   4.73880
 Alpha virt. eigenvalues --    4.82234   4.86328   4.93201   4.98758
          Condensed to atoms (all electrons):
              1          2          3          4          5          6
     1  C   13.271094  -0.131271  -0.749167  -2.510634  -4.336025   0.404910
     2  C   -0.131271   6.722871   0.382553   0.620835  -1.490009   0.369550
     3  C   -0.749167   0.382553   8.191817  -0.640247  -1.567134   0.082105
     4  C   -2.510634   0.620835  -0.640247  13.022321  -1.234954  -0.695619
     5  C   -4.336025  -1.490009  -1.567134  -1.234954  13.685211   0.304522
     6  C    0.404910   0.369550   0.082105  -0.695619   0.304522   5.535759
     7  C    0.461498  -0.436729   0.778316  -3.322544  -0.202468  -0.199289
     8  C    0.186343  -0.040529  -0.280621   0.135351  -0.035315   0.014196
     9  C   -0.309170  -0.086145  -0.015998   0.218408   0.253508   0.068070
    10  O    0.009318   0.012479   0.063156   0.034678  -0.086396  -0.013694
    11  C    0.078978  -0.021552   0.027923  -0.094239  -0.052234  -0.004042
    12  O    0.163607   0.022053  -0.024967  -0.004353  -0.247937   0.007444
    13  C   -0.342193  -0.014653  -0.187931   0.172607   0.385894   0.018274
    14  O    0.044274  -0.002059  -0.023098  -0.029192  -0.005200   0.005482
    15  C   -0.003650  -0.000125  -0.011895   0.009094   0.019963   0.002884
    16  H    0.021999  -0.000569   0.006846   0.191274   0.072046  -0.014861
    17  H   -0.013523   0.275982   0.002659   0.000856   0.035786   0.027688
    18  H    0.088337  -0.011503   0.204190  -0.000700   0.007243   0.040330
    19  H    0.042053  -0.029632  -0.007216   0.050282   0.260385  -0.001104
    20  H    0.002853   0.032310   0.025058   0.004566  -0.011982   0.272938
    21  H   -0.010045   0.024432   0.007715   0.202608  -0.015883   0.001718
    22  H    0.009659  -0.002890   0.002722  -0.036353   0.006702  -0.000655
    23  H   -0.001515   0.000257   0.000561   0.001916  -0.000189  -0.000161
    24  H    0.007047  -0.000876  -0.001807  -0.010565  -0.000802   0.000426
    25  H   -0.057351   0.013833  -0.006704   0.037489   0.081857   0.002228
    26  H   -0.005503  -0.000099  -0.000445  -0.002422  -0.000251  -0.000014
    27  H   -0.002184   0.000417  -0.000859   0.009696   0.001473   0.000060
    28  H   -0.004573  -0.000119  -0.000282   0.000008   0.007001   0.000057
    29  H    0.000641   0.000006   0.000135  -0.000914  -0.001468  -0.000030
    30  H   -0.000197   0.000029  -0.000131  -0.000473   0.000462   0.000033
    31  H    0.000707  -0.000615  -0.000130  -0.001729   0.001975   0.000013
              7          8          9         10         11         12
     1  C    0.461498   0.186343  -0.309170   0.009318   0.078978   0.163607
     2  C   -0.436729  -0.040529  -0.086145   0.012479  -0.021552   0.022053
     3  C    0.778316  -0.280621  -0.015998   0.063156   0.027923  -0.024967
     4  C   -3.322544   0.135351   0.218408   0.034678  -0.094239  -0.004353
     5  C   -0.202468  -0.035315   0.253508  -0.086396  -0.052234  -0.247937
     6  C   -0.199289   0.014196   0.068070  -0.013694  -0.004042   0.007444
     7  C    9.342406  -0.000962  -0.723913   0.093431   0.068131   0.282856
     8  C   -0.000962   8.378961  -0.920740  -0.539299  -0.080883  -0.028460
     9  C   -0.723913  -0.920740   6.634634   0.324656  -0.144884  -0.034419
    10  O    0.093431  -0.539299   0.324656   8.614017   0.045000   0.018671
    11  C    0.068131  -0.080883  -0.144884   0.045000   5.386695   0.010566
    12  O    0.282856  -0.028460  -0.034419   0.018671   0.010566   8.169370
    13  C   -0.206177  -0.682800  -0.032452  -0.057434  -0.032359  -0.059203
    14  O   -0.066558  -0.076086   0.720275  -0.164035  -0.054545   0.000537
    15  C   -0.027152  -0.068451   0.055489  -0.017525   0.118082  -0.004129
    16  H    0.031325   0.008957  -0.008672  -0.001267  -0.004231   0.000546
    17  H   -0.002916  -0.000023  -0.000001  -0.000015  -0.000041   0.000204
    18  H   -0.005798   0.002759   0.001910  -0.000070  -0.000233   0.000006
    19  H   -0.010669   0.011659   0.002715  -0.000476  -0.000136   0.001242
    20  H    0.000727   0.000013  -0.000440   0.000008   0.000072  -0.000002
    21  H    0.174852  -0.069121   0.018133   0.001232  -0.000942  -0.044113
    22  H    0.034960   0.263670  -0.017913   0.019593   0.005733   0.010347
    23  H   -0.001437  -0.003320  -0.009487  -0.047159   0.416962  -0.000169
    24  H    0.014944  -0.018288  -0.023517  -0.040716   0.415654  -0.000197
    25  H   -0.062371  -0.081680   0.040031   0.010525  -0.009512   0.277049
    26  H    0.011198  -0.111654   0.032667  -0.003223  -0.001564   0.000287
    27  H    0.033330  -0.135872  -0.019304  -0.000642  -0.001177  -0.002625
    28  H   -0.018509  -0.103371  -0.005866   0.012714   0.003440   0.004977
    29  H    0.004016  -0.004811  -0.002894  -0.002815  -0.059221  -0.000229
    30  H    0.000290   0.000367   0.001700   0.006415  -0.051962   0.000006
    31  H   -0.000712  -0.001915  -0.001596  -0.001195  -0.059229  -0.000280
             13         14         15         16         17         18
     1  C   -0.342193   0.044274  -0.003650   0.021999  -0.013523   0.088337
     2  C   -0.014653  -0.002059  -0.000125  -0.000569   0.275982  -0.011503
     3  C   -0.187931  -0.023098  -0.011895   0.006846   0.002659   0.204190
     4  C    0.172607  -0.029192   0.009094   0.191274   0.000856  -0.000700
     5  C    0.385894  -0.005200   0.019963   0.072046   0.035786   0.007243
     6  C    0.018274   0.005482   0.002884  -0.014861   0.027688   0.040330
     7  C   -0.206177  -0.066558  -0.027152   0.031325  -0.002916  -0.005798
     8  C   -0.682800  -0.076086  -0.068451   0.008957  -0.000023   0.002759
     9  C   -0.032452   0.720275   0.055489  -0.008672  -0.000001   0.001910
    10  O   -0.057434  -0.164035  -0.017525  -0.001267  -0.000015  -0.000070
    11  C   -0.032359  -0.054545   0.118082  -0.004231  -0.000041  -0.000233
    12  O   -0.059203   0.000537  -0.004129   0.000546   0.000204   0.000006
    13  C    6.297692  -0.037551   0.009912   0.011488  -0.000023   0.000189
    14  O   -0.037551   8.113745   0.008418  -0.000435   0.000001  -0.000116
    15  C    0.009912   0.008418   5.312554  -0.000632   0.000021  -0.000025
    16  H    0.011488  -0.000435  -0.000632   0.521824   0.000012  -0.004368
    17  H   -0.000023   0.000001   0.000021   0.000012   0.497376  -0.000124
    18  H    0.000189  -0.000116  -0.000025  -0.004368  -0.000124   0.498062
    19  H   -0.000421  -0.000025   0.000705  -0.000114  -0.004232   0.000011
    20  H   -0.000003   0.000002   0.000007  -0.000131  -0.003796  -0.003890
    21  H   -0.017761  -0.000272   0.000428   0.000252   0.000001   0.000001
    22  H   -0.012404  -0.004308   0.000779  -0.000206   0.000000  -0.000003
    23  H   -0.000885   0.001018  -0.024897   0.000000   0.000000   0.000000
    24  H    0.000101   0.003932  -0.014691  -0.000001   0.000000   0.000000
    25  H    0.007877  -0.000013   0.007207  -0.000002   0.000000   0.000000
    26  H    0.441962  -0.000013  -0.000076   0.000002   0.000000   0.000000
    27  H    0.475849  -0.000020   0.000047   0.000002   0.000000   0.000000
    28  H    0.458929   0.000532   0.001189   0.000000   0.000000   0.000000
    29  H   -0.000999  -0.000058   0.431011   0.000000   0.000000   0.000000
    30  H    0.000132   0.000100   0.410793   0.000000   0.000000   0.000000
    31  H    0.000484  -0.000157   0.426735   0.000000   0.000000   0.000000
             19         20         21         22         23         24
     1  C    0.042053   0.002853  -0.010045   0.009659  -0.001515   0.007047
     2  C   -0.029632   0.032310   0.024432  -0.002890   0.000257  -0.000876
     3  C   -0.007216   0.025058   0.007715   0.002722   0.000561  -0.001807
     4  C    0.050282   0.004566   0.202608  -0.036353   0.001916  -0.010565
     5  C    0.260385  -0.011982  -0.015883   0.006702  -0.000189  -0.000802
     6  C   -0.001104   0.272938   0.001718  -0.000655  -0.000161   0.000426
     7  C   -0.010669   0.000727   0.174852   0.034960  -0.001437   0.014944
     8  C    0.011659   0.000013  -0.069121   0.263670  -0.003320  -0.018288
     9  C    0.002715  -0.000440   0.018133  -0.017913  -0.009487  -0.023517
    10  O   -0.000476   0.000008   0.001232   0.019593  -0.047159  -0.040716
    11  C   -0.000136   0.000072  -0.000942   0.005733   0.416962   0.415654
    12  O    0.001242  -0.000002  -0.044113   0.010347  -0.000169  -0.000197
    13  C   -0.000421  -0.000003  -0.017761  -0.012404  -0.000885   0.000101
    14  O   -0.000025   0.000002  -0.000272  -0.004308   0.001018   0.003932
    15  C    0.000705   0.000007   0.000428   0.000779  -0.024897  -0.014691
    16  H   -0.000114  -0.000131   0.000252  -0.000206   0.000000  -0.000001
    17  H   -0.004232  -0.003796   0.000001   0.000000   0.000000   0.000000
    18  H    0.000011  -0.003890   0.000001  -0.000003   0.000000   0.000000
    19  H    0.496785  -0.000121   0.000046  -0.000005   0.000000   0.000000
    20  H   -0.000121   0.499848   0.000000   0.000000   0.000000   0.000000
    21  H    0.000046   0.000000   0.535501  -0.002450   0.000000  -0.000001
    22  H   -0.000005   0.000000  -0.002450   0.532735  -0.000003   0.000015
    23  H    0.000000   0.000000   0.000000  -0.000003   0.523081  -0.032289
    24  H    0.000000   0.000000  -0.000001   0.000015  -0.032289   0.524435
    25  H   -0.000939   0.000000   0.005813  -0.000134   0.000031   0.000072
    26  H    0.000000   0.000000  -0.000023  -0.004400   0.000000   0.000000
    27  H    0.000000   0.000000   0.002965  -0.003444  -0.000001   0.000000
    28  H   -0.000001   0.000000   0.000114   0.004025   0.000014  -0.000002
    29  H    0.000000   0.000000   0.000000   0.000000  -0.004942   0.003977
    30  H    0.000000   0.000000   0.000000   0.000000  -0.001727  -0.001624
    31  H   -0.000003   0.000000   0.000000   0.000000   0.003919  -0.005040
             25         26         27         28         29         30
     1  C   -0.057351  -0.005503  -0.002184  -0.004573   0.000641  -0.000197
     2  C    0.013833  -0.000099   0.000417  -0.000119   0.000006   0.000029
     3  C   -0.006704  -0.000445  -0.000859  -0.000282   0.000135  -0.000131
     4  C    0.037489  -0.002422   0.009696   0.000008  -0.000914  -0.000473
     5  C    0.081857  -0.000251   0.001473   0.007001  -0.001468   0.000462
     6  C    0.002228  -0.000014   0.000060   0.000057  -0.000030   0.000033
     7  C   -0.062371   0.011198   0.033330  -0.018509   0.004016   0.000290
     8  C   -0.081680  -0.111654  -0.135872  -0.103371  -0.004811   0.000367
     9  C    0.040031   0.032667  -0.019304  -0.005866  -0.002894   0.001700
    10  O    0.010525  -0.003223  -0.000642   0.012714  -0.002815   0.006415
    11  C   -0.009512  -0.001564  -0.001177   0.003440  -0.059221  -0.051962
    12  O    0.277049   0.000287  -0.002625   0.004977  -0.000229   0.000006
    13  C    0.007877   0.441962   0.475849   0.458929  -0.000999   0.000132
    14  O   -0.000013  -0.000013  -0.000020   0.000532  -0.000058   0.000100
    15  C    0.007207  -0.000076   0.000047   0.001189   0.431011   0.410793
    16  H   -0.000002   0.000002   0.000002   0.000000   0.000000   0.000000
    17  H    0.000000   0.000000   0.000000   0.000000   0.000000   0.000000
    18  H    0.000000   0.000000   0.000000   0.000000   0.000000   0.000000
    19  H   -0.000939   0.000000   0.000000  -0.000001   0.000000   0.000000
    20  H    0.000000   0.000000   0.000000   0.000000   0.000000   0.000000
    21  H    0.005813  -0.000023   0.002965   0.000114   0.000000   0.000000
    22  H   -0.000134  -0.004400  -0.003444   0.004025   0.000000   0.000000
    23  H    0.000031   0.000000  -0.000001   0.000014  -0.004942  -0.001727
    24  H    0.000072   0.000000   0.000000  -0.000002   0.003977  -0.001624
    25  H    0.332717  -0.000022   0.000238  -0.000224   0.000048   0.000000
    26  H   -0.000022   0.512669  -0.022672  -0.027532   0.000000   0.000000
    27  H    0.000238  -0.022672   0.507086  -0.021596   0.000000   0.000000
    28  H   -0.000224  -0.027532  -0.021596   0.501656  -0.000005   0.000000
    29  H    0.000048   0.000000   0.000000  -0.000005   0.511854  -0.022110
    30  H    0.000000   0.000000   0.000000   0.000000  -0.022110   0.496138
    31  H    0.000142   0.000000   0.000000   0.000001  -0.028857  -0.022057
             31
     1  C    0.000707
     2  C   -0.000615
     3  C   -0.000130
     4  C   -0.001729
     5  C    0.001975
     6  C    0.000013
     7  C   -0.000712
     8  C   -0.001915
     9  C   -0.001596
    10  O   -0.001195
    11  C   -0.059229
    12  O   -0.000280
    13  C    0.000484
    14  O   -0.000157
    15  C    0.426735
    16  H    0.000000
    17  H    0.000000
    18  H    0.000000
    19  H   -0.000003
    20  H    0.000000
    21  H    0.000000
    22  H    0.000000
    23  H    0.003919
    24  H   -0.005040
    25  H    0.000142
    26  H    0.000000
    27  H    0.000000
    28  H    0.000001
    29  H   -0.028857
    30  H   -0.022057
    31  H    0.511560
 Mulliken atomic charges:
              1
     1  C   -0.316314
     2  C   -0.208233
     3  C   -0.257124
     4  C   -0.127051
     5  C    0.164220
     6  C   -0.229214
     7  C   -0.044077
     8  C    0.281926
     9  C   -0.014783
    10  O   -0.289932
    11  C    0.095751
    12  O   -0.518683
    13  C   -0.596140
    14  O   -0.434576
    15  C   -0.642068
    16  H    0.168915
    17  H    0.184107
    18  H    0.183793
    19  H    0.189209
    20  H    0.181967
    21  H    0.184801
    22  H    0.194227
    23  H    0.180423
    24  H    0.179811
    25  H    0.401798
    26  H    0.181126
    27  H    0.179233
    28  H    0.187425
    29  H    0.177666
    30  H    0.183817
    31  H    0.177980
 Sum of Mulliken atomic charges =   0.00000
 Mulliken charges with hydrogens summed into heavy atoms:
              1
     1  C   -0.147399
     2  C   -0.024126
     3  C   -0.073331
     4  C   -0.127051
     5  C    0.353429
     6  C   -0.047247
     7  C    0.140724
     8  C    0.476154
     9  C   -0.014783
    10  O   -0.289932
    11  C    0.455984
    12  O   -0.116885
    13  C   -0.048356
    14  O   -0.434576
    15  C   -0.102605
 Sum of Mulliken charges with hydrogens summed into heavy atoms =   0.00000
 Electronic spatial extent (au):  <R**2>=           3311.1922
 Charge=              0.0000 electrons
 Dipole moment (field-independent basis, Debye):
    X=              0.0091    Y=              1.3714    Z=             -0.4829  Tot=              1.4540
 Quadrupole moment (field-independent basis, Debye-Ang):
   XX=            -84.2992   YY=            -80.1565   ZZ=            -98.9029
   XY=              0.1070   XZ=             -4.7434   YZ=             -4.2896
 Traceless Quadrupole moment (field-independent basis, Debye-Ang):
   XX=              3.4870   YY=              7.6297   ZZ=            -11.1167
   XY=              0.1070   XZ=             -4.7434   YZ=             -4.2896
 Octapole moment (field-independent basis, Debye-Ang**2):
  XXX=             17.5982  YYY=              2.5718  ZZZ=             -5.5863  XYY=             25.2679
  XXY=             29.7924  XXZ=             -5.7175  XZZ=            -22.2333  YZZ=             10.8691
  YYZ=              3.3030  XYZ=             -0.0818
 Hexadecapole moment (field-independent basis, Debye-Ang**3):
 XXXX=          -2411.4319 YYYY=          -1123.4432 ZZZZ=           -808.3777 XXXY=            -72.8568
 XXXZ=            -19.5981 YYYX=             38.5284 YYYZ=             11.6110 ZZZX=            -38.4136
 ZZZY=            -26.0301 XXYY=           -579.3099 XXZZ=           -532.4764 YYZZ=           -332.6400
 XXYZ=             -1.0426 YYXZ=             13.9310 ZZXY=              1.0972
 N-N= 1.029530071642D+03 E-N=-3.670679646718D+03  KE= 6.859041147807D+02
 1\1\GINC-COMPUTE-9-6\SP\RwB97XD\6-31+G(d,p)\C12H16O3\ELUCIANO.IQUIR\17
 -May-2022\0\\# wb97xd/6-31+g** scrf=(pcm,solvent=chloroform,smd,dovacu
 um) nmr\\comment\\0,1\C,0,-1.74629863,0.596019956,-1.306789328\C,0,-0.
 641070611,-1.047808835,-3.265427674\C,0,-1.762451696,0.989844814,-2.64
 8261078\C,0,-1.154741609,-0.616686744,-0.916098647\C,0,-0.623303407,-1
 .440477982,-1.925054928\C,0,-1.206014664,0.170917503,-3.62617624\C,0,-
 1.142818417,-1.081542594,0.535078271\C,0,-1.107605079,0.013154672,1.62
 198702\C,0,0.007787358,1.015157318,1.406217961\O,0,1.189657791,0.40343
 6027,1.115202499\C,0,2.279146918,1.306557669,0.887680504\O,0,-0.075555
 032,-2.013980844,0.749828669\C,0,-0.990805941,-0.558195347,3.034592982
 \O,0,-0.144268523,2.225280858,1.521531998\C,0,3.497609123,0.486262035,
 0.512471426\H,0,-2.209208859,1.260941042,-0.581371131\H,0,-0.219029283
 ,-1.699121624,-4.026391757\H,0,-2.21653153,1.937220483,-2.928638086\H,
 0,-0.192398354,-2.408396281,-1.672771553\H,0,-1.222405535,0.47743721,-
 4.66854876\H,0,-2.066195115,-1.658105277,0.676222883\H,0,-2.046882562,
 0.578896389,1.567272636\H,0,2.48127404,1.87630015,1.801360618\H,0,2.02
 9262655,1.992171881,0.070192103\H,0,0.753250162,-1.51710383,0.60839530
 6\H,0,-1.050891376,0.243080179,3.779643701\H,0,-1.800326802,-1.2672726
 75,3.235609657\H,0,-0.036097443,-1.071849032,3.191036941\H,0,3.7476479
 2,-0.219964035,1.311113393\H,0,4.360964295,1.131451471,0.327777699\H,0
 ,3.300110503,-0.107178531,-0.386479702\\Version=EM64L-G09RevC.01\State
 =1-A\HF=-692.4455721\RMSD=3.173e-09\Dipole=0.515358,-0.0154297,-0.2478
 025\Quadrupole=6.3842064,-9.5741162,3.1899099,0.8353256,-0.5920154,-1.
 9676238\PG=C01 [X(C12H16O3)]\\@


 If your ship doesn't come in, swim out to it!
                          -- Jonathan Winters
 Job cpu time:  0 days  0 hours 26 minutes 32.5 seconds.
 File lengths (MBytes):  RWF=    123 Int=      0 D2E=      0 Chk=      9 Scr=      1
 Normal termination of Gaussian 09 at Tue May 17 16:04:56 2022.
