 Entering Gaussian System, Link 0=g09
 Input=/home/eluciano.iquir/wb9/73b_012.gjc
 Output=/home/eluciano.iquir/wb9/73b_012.log
 Initial command:
 /share/apps/Gaussian09/EM64T.SSE4.2-enabled/g09/l1.exe /tmp/Gau-6069.inp -scrdir=/tmp/
 Entering Link 1 = /share/apps/Gaussian09/EM64T.SSE4.2-enabled/g09/l1.exe PID=      6070.
  
 Copyright (c) 1988,1990,1992,1993,1995,1998,2003,2009,2011,
            Gaussian, Inc.  All Rights Reserved.
  
 This is part of the Gaussian(R) 09 program.  It is based on
 the Gaussian(R) 03 system (copyright 2003, Gaussian, Inc.),
 the Gaussian(R) 98 system (copyright 1998, Gaussian, Inc.),
 the Gaussian(R) 94 system (copyright 1995, Gaussian, Inc.),
 the Gaussian 92(TM) system (copyright 1992, Gaussian, Inc.),
 the Gaussian 90(TM) system (copyright 1990, Gaussian, Inc.),
 the Gaussian 88(TM) system (copyright 1988, Gaussian, Inc.),
 the Gaussian 86(TM) system (copyright 1986, Carnegie Mellon
 University), and the Gaussian 82(TM) system (copyright 1983,
 Carnegie Mellon University). Gaussian is a federally registered
 trademark of Gaussian, Inc.
  
 This software contains proprietary and confidential information,
 including trade secrets, belonging to Gaussian, Inc.
  
 This software is provided under written license and may be
 used, copied, transmitted, or stored only in accord with that
 written license.
  
 The following legend is applicable only to US Government
 contracts under FAR:
  
                    RESTRICTED RIGHTS LEGEND
  
 Use, reproduction and disclosure by the US Government is
 subject to restrictions as set forth in subparagraphs (a)
 and (c) of the Commercial Computer Software - Restricted
 Rights clause in FAR 52.227-19.
  
 Gaussian, Inc.
 340 Quinnipiac St., Bldg. 40, Wallingford CT 06492
  
  
 ---------------------------------------------------------------
 Warning -- This program may not be used in any manner that
 competes with the business of Gaussian, Inc. or will provide
 assistance to any competitor of Gaussian, Inc.  The licensee
 of this program is prohibited from giving any competitor of
 Gaussian, Inc. access to this program.  By using this program,
 the user acknowledges that Gaussian, Inc. is engaged in the
 business of creating and licensing software in the field of
 computational chemistry and represents and warrants to the
 licensee that it is not a competitor of Gaussian, Inc. and that
 it will not use this program in any manner prohibited above.
 ---------------------------------------------------------------
  

 Cite this work as:
 Gaussian 09, Revision C.01,
 M. J. Frisch, G. W. Trucks, H. B. Schlegel, G. E. Scuseria, 
 M. A. Robb, J. R. Cheeseman, G. Scalmani, V. Barone, B. Mennucci, 
 G. A. Petersson, H. Nakatsuji, M. Caricato, X. Li, H. P. Hratchian, 
 A. F. Izmaylov, J. Bloino, G. Zheng, J. L. Sonnenberg, M. Hada, 
 M. Ehara, K. Toyota, R. Fukuda, J. Hasegawa, M. Ishida, T. Nakajima, 
 Y. Honda, O. Kitao, H. Nakai, T. Vreven, J. A. Montgomery, Jr., 
 J. E. Peralta, F. Ogliaro, M. Bearpark, J. J. Heyd, E. Brothers, 
 K. N. Kudin, V. N. Staroverov, T. Keith, R. Kobayashi, J. Normand, 
 K. Raghavachari, A. Rendell, J. C. Burant, S. S. Iyengar, J. Tomasi, 
 M. Cossi, N. Rega, J. M. Millam, M. Klene, J. E. Knox, J. B. Cross, 
 V. Bakken, C. Adamo, J. Jaramillo, R. Gomperts, R. E. Stratmann, 
 O. Yazyev, A. J. Austin, R. Cammi, C. Pomelli, J. W. Ochterski, 
 R. L. Martin, K. Morokuma, V. G. Zakrzewski, G. A. Voth, 
 P. Salvador, J. J. Dannenberg, S. Dapprich, A. D. Daniels, 
 O. Farkas, J. B. Foresman, J. V. Ortiz, J. Cioslowski, 
 and D. J. Fox, Gaussian, Inc., Wallingford CT, 2010.
 
 ******************************************
 Gaussian 09:  EM64L-G09RevC.01 23-Sep-2011
                17-May-2022 
 ******************************************
 %nprocshared=4
 Will use up to    4 processors via shared memory.
 ----------------------------------------------------------------
 # wb97xd/6-31+g** scrf=(pcm,solvent=chloroform,smd,dovacuum) nmr
 ----------------------------------------------------------------
 1/38=1/1;
 2/12=2,17=6,18=5,40=1/2;
 3/5=1,6=6,7=111,11=2,16=1,25=1,30=1,70=32101,72=7,74=-58/1,2,8,3;
 4//1;
 5/5=2,38=5,53=7/2;
 8/6=1,10=90,11=11/1;
 10/13=100,45=16/2;
 6/7=2,8=2,9=2,10=2,28=1/1;
 99/9=1/99;
 -------
 comment
 -------
 Charge =  0 Multiplicity = 1
 Symbolic Z-Matrix:
 6                     0.58294  -1.49994  -1.22723 
 6                     0.30658  -3.66765   0.50321 
 6                     1.5062   -2.54664  -1.26273 
 6                    -0.49219  -1.52295  -0.32487 
 6                    -0.61717  -2.62184   0.53992 
 6                     1.36763  -3.62971  -0.39802 
 6                    -1.48253  -0.37341  -0.29785 
 6                    -1.21807   0.71562   0.75471 
 6                     0.09787   1.41892   0.48793 
 8                     0.07133   2.01817  -0.73855 
 6                     1.25389   2.74501  -1.1054 
 8                    -2.81433  -0.87827  -0.13068 
 6                    -1.29279   0.22306   2.20187 
 8                     1.03665   1.48025   1.26984 
 6                     1.17906   4.16606  -0.5799 
 1                     0.71247  -0.66401  -1.91184 
 1                     0.20017  -4.50975   1.18232 
 1                     2.33647  -2.51536  -1.96368 
 1                    -1.43568  -2.66688   1.25639 
 1                     2.08887  -4.44236  -0.42354 
 1                    -1.48602   0.08673  -1.29417 
 1                    -2.00468   1.47802   0.66285 
 1                     1.29279   2.75885  -2.19955 
 1                     2.15954   2.23428  -0.75864 
 1                    -2.87437  -1.69525  -0.65699 
 1                    -1.21458   1.06826   2.89547 
 1                    -2.24231  -0.28276   2.40288 
 1                    -0.47465  -0.46248   2.44476 
 1                     0.2703    4.66087  -0.93801 
 1                     2.04785   4.74573  -0.90429 
 1                     1.13872   4.1794    0.51382 
 
                          Input orientation:                          
 ---------------------------------------------------------------------
 Center     Atomic      Atomic             Coordinates (Angstroms)
 Number     Number       Type             X           Y           Z
 ---------------------------------------------------------------------
      1          6           0        0.582939   -1.499937   -1.227226
      2          6           0        0.306583   -3.667647    0.503205
      3          6           0        1.506202   -2.546638   -1.262735
      4          6           0       -0.492188   -1.522947   -0.324873
      5          6           0       -0.617170   -2.621836    0.539921
      6          6           0        1.367625   -3.629710   -0.398025
      7          6           0       -1.482534   -0.373411   -0.297852
      8          6           0       -1.218067    0.715621    0.754709
      9          6           0        0.097865    1.418923    0.487930
     10          8           0        0.071332    2.018172   -0.738549
     11          6           0        1.253895    2.745011   -1.105404
     12          8           0       -2.814326   -0.878269   -0.130684
     13          6           0       -1.292785    0.223059    2.201868
     14          8           0        1.036654    1.480249    1.269835
     15          6           0        1.179063    4.166064   -0.579895
     16          1           0        0.712475   -0.664007   -1.911841
     17          1           0        0.200174   -4.509745    1.182315
     18          1           0        2.336473   -2.515356   -1.963684
     19          1           0       -1.435678   -2.666882    1.256395
     20          1           0        2.088869   -4.442363   -0.423535
     21          1           0       -1.486017    0.086735   -1.294169
     22          1           0       -2.004678    1.478020    0.662854
     23          1           0        1.292795    2.758845   -2.199551
     24          1           0        2.159539    2.234282   -0.758645
     25          1           0       -2.874374   -1.695248   -0.656994
     26          1           0       -1.214581    1.068257    2.895471
     27          1           0       -2.242307   -0.282757    2.402884
     28          1           0       -0.474648   -0.462480    2.444761
     29          1           0        0.270300    4.660869   -0.938015
     30          1           0        2.047853    4.745726   -0.904291
     31          1           0        1.138717    4.179401    0.513819
 ---------------------------------------------------------------------
                    Distance matrix (angstroms):
                    1          2          3          4          5
     1  C    0.000000
     2  C    2.787424   0.000000
     3  C    1.396159   2.411284   0.000000
     4  C    1.403804   2.433821   2.433329   0.000000
     5  C    2.412826   1.395846   2.786383   1.403940   0.000000
     6  C    2.416452   1.392647   1.392829   2.811175   2.415567
     7  C    2.529619   3.833356   3.819222   1.517547   2.550712
     8  C    3.475686   4.647672   4.704685   2.589129   3.397916
     9  C    3.420059   5.090873   4.557841   3.108602   4.103865
    10  O    3.588543   5.824589   4.813638   3.609461   4.861913
    11  C    4.299373   6.678862   5.299996   4.676911   5.917011
    12  O    3.623573   4.233499   4.767804   2.417777   2.883961
    13  C    4.271504   4.536631   5.244904   3.173943   3.363324
    14  O    3.914420   5.255621   4.780189   3.728221   4.482745
    15  C    5.733932   7.956215   6.755269   5.934894   7.110277
    16  H    1.088235   3.875442   2.143745   2.169667   3.407666
    17  H    3.874447   1.087034   3.396729   3.416423   2.155208
    18  H    2.155998   3.396141   1.087042   3.416416   3.873420
    19  H    3.406604   2.145763   3.874936   2.167757   1.088724
    20  H    3.401708   2.153039   2.153493   3.898023   3.400767
    21  H    2.608177   4.532036   3.986103   2.125631   3.384544
    22  H    4.374516   5.643165   5.677327   3.502718   4.330025
    23  H    4.425668   7.041116   5.391783   5.003431   6.332804
    24  H    4.080395   6.313357   4.851613   4.619153   5.742670
    25  H    3.509462   3.918534   4.503469   2.411391   2.717746
    26  H    5.179125   5.519571   6.144982   4.196047   4.418405
    27  H    4.758282   4.643608   5.710800   3.470108   3.403379
    28  H    3.959583   3.827931   4.691802   2.965766   2.882975
    29  H    6.175510   8.452373   7.319908   6.260744   7.483962
    30  H    6.423283   8.706199   7.321232   6.788504   7.966747
    31  H    5.966156   7.891053   6.966405   5.989994   7.024290
                    6          7          8          9         10
     6  C    0.000000
     7  C    4.328617   0.000000
     8  C    5.186184   1.537472   0.000000
     9  C    5.280710   2.515467   1.515744   0.000000
    10  O    5.804731   2.885894   2.364109   1.365304   0.000000
    11  C    6.414857   4.226670   3.699870   2.373527   1.435734
    12  O    5.013044   1.434049   2.423314   3.760403   4.133509
    13  C    5.355470   2.576893   1.530513   2.510295   3.705307
    14  O    5.385441   3.498571   2.435934   1.223299   2.292338
    15  C    7.800175   5.269771   4.408283   3.139431   2.421917
    16  H    3.393561   2.739976   3.569434   3.236548   2.996959
    17  H    2.152877   4.704430   5.431272   5.970070   6.805881
    18  H    2.152148   4.684842   5.519387   5.147847   5.213894
    19  H    3.394504   2.770900   3.426423   4.431263   5.310425
    20  H    1.086853   5.415449   6.239302   6.256959   6.775560
    21  H    4.770567   1.097449   2.159907   2.731170   2.542539
    22  H    6.211828   2.150206   1.099294   2.110635   2.562326
    23  H    6.638128   4.596731   4.382561   3.231997   2.043305
    24  H    5.928201   4.503008   4.000599   2.543473   2.099456
    25  H    4.669451   1.952808   3.247854   4.454562   4.740604
    26  H    6.291725   3.513903   2.169614   2.764368   3.970140
    27  H    5.663815   2.807035   2.182271   3.469751   4.529438
    28  H    4.637537   2.923301   2.190175   2.774280   4.072492
    29  H    8.380299   5.369005   4.543735   3.545881   2.657672
    30  H    8.418251   6.247956   5.446123   4.099799   3.372485
    31  H    7.865499   5.315813   4.196454   2.950303   2.716367
                   11         12         13         14         15
    11  C    0.000000
    12  O    5.534316   0.000000
    13  C    4.876871   2.994797   0.000000
    14  O    2.699736   4.728013   2.806332   0.000000
    15  C    1.516955   6.449360   5.421765   3.264259   0.000000
    16  H    3.544698   3.956861   4.661605   3.850453   5.032035
    17  H    7.679549   4.898857   5.066345   6.048751   8.906923
    18  H    5.438757   5.707072   6.166219   5.301889   6.920682
    19  H    6.488488   2.650244   3.044026   4.828178   7.543076
    20  H    7.267770   6.068760   6.332021   6.249159   8.657784
    21  H    3.822196   2.012295   3.504026   3.857444   4.924812
    22  H    3.917946   2.614829   2.109570   3.101312   4.348128
    23  H    1.094926   5.863212   5.699818   3.706354   2.148601
    24  H    1.096028   5.900986   4.972745   2.438066   2.173722
    25  H    6.079439   0.973685   3.788722   5.393755   7.126801
    26  H    4.991180   3.937736   1.096158   2.807221   5.234894
    27  H    5.805075   2.664734   1.094463   3.891475   6.355688
    28  H    5.087192   3.504267   1.094672   2.727394   5.771198
    29  H    2.160091   6.391303   5.656524   3.946929   1.094958
    30  H    2.161869   7.474528   6.423597   4.051258   1.093634
    31  H    2.166247   6.451509   4.941089   2.804889   1.094540
                   16         17         18         19         20
    16  H    0.000000
    17  H    4.962455   0.000000
    18  H    2.463240   4.294028   0.000000
    19  H    4.320161   2.465288   4.961955   0.000000
    20  H    4.287831   2.480013   2.479259   4.289165   0.000000
    21  H    2.403851   5.486697   4.672318   3.753707   5.835284
    22  H    4.312801   6.401918   6.456884   4.225667   7.279307
    23  H    3.483600   8.090936   5.381644   6.987607   7.459583
    24  H    3.438595   7.286174   4.903313   6.403700   6.685423
    25  H    3.937459   4.556018   5.434423   2.583597   5.677581
    26  H    5.461184   6.004211   7.004546   4.084938   7.231564
    27  H    5.243371   5.032189   6.709445   2.765707   6.637022
    28  H    4.519940   4.292961   5.617036   2.682383   5.535180
    29  H    5.431221   9.412804   7.537856   7.837202   9.297350
    30  H    5.662473   9.666001   7.343631   8.470555   9.200749
    31  H    5.433610   8.765216   7.238260   7.351906   8.724462
                   21         22         23         24         25
    21  H    0.000000
    22  H    2.456547   0.000000
    23  H    3.960011   4.550517   0.000000
    24  H    4.264836   4.464672   1.761426   0.000000
    25  H    2.347124   3.545138   6.291560   6.386847   0.000000
    26  H    4.311630   2.403485   5.924886   5.108508   4.797070
    27  H    3.791662   2.486868   6.552153   5.975533   3.428920
    28  H    3.912046   3.046592   5.922028   4.947047   4.110874
    29  H    4.912658   4.227154   2.500933   3.080540   7.097054
    30  H    5.860584   5.436621   2.489077   2.518142   8.110217
    31  H    5.187290   4.147362   3.066610   2.538647   7.210216
                   26         27         28         29         30
    26  H    0.000000
    27  H    1.767514   0.000000
    28  H    1.758919   1.777266   0.000000
    29  H    5.459610   6.474121   6.184401   0.000000
    30  H    6.213328   7.391111   6.686147   1.779897   0.000000
    31  H    4.570503   5.908532   5.280013   1.758915   1.777157
                   31
    31  H    0.000000
 Stoichiometry    C12H16O3
 Framework group  C1[X(C12H16O3)]
 Deg. of freedom    87
 Full point group                 C1      NOp   1
 Largest Abelian subgroup         C1      NOp   1
 Largest concise Abelian subgroup C1      NOp   1
                         Standard orientation:                         
 ---------------------------------------------------------------------
 Center     Atomic      Atomic             Coordinates (Angstroms)
 Number     Number       Type             X           Y           Z
 ---------------------------------------------------------------------
      1          6           0       -1.265966   -1.293059   -0.703847
      2          6           0       -3.494629   -0.412068    0.719758
      3          6           0       -2.212795   -2.211465   -0.246350
      4          6           0       -1.420825    0.079866   -0.455328
      5          6           0       -2.548765    0.507271    0.263091
      6          6           0       -3.326375   -1.770799    0.464793
      7          6           0       -0.378276    1.062189   -0.956408
      8          6           0        0.704244    1.467208    0.057459
      9          6           0        1.543531    0.271234    0.460850
     10          8           0        2.168628   -0.255693   -0.632611
     11          6           0        3.020449   -1.384151   -0.382977
     12          8           0       -1.019221    2.242225   -1.459599
     13          6           0        0.169305    2.201860    1.288961
     14          8           0        1.679067   -0.142682    1.603987
     15          6           0        4.412576   -0.915530   -0.004124
     16          1           0       -0.403763   -1.661193   -1.256421
     17          1           0       -4.360488   -0.067221    1.279231
     18          1           0       -2.079659   -3.272396   -0.442205
     19          1           0       -2.694805    1.564404    0.478640
     20          1           0       -4.061095   -2.486636    0.823977
     21          1           0        0.104837    0.615897   -1.834941
     22          1           0        1.385424    2.175952   -0.434602
     23          1           0        3.066501   -1.960462   -1.312819
     24          1           0        2.594980   -2.043402    0.382295
     25          1           0       -1.824168    1.950125   -1.923065
     26          1           0        0.999814    2.564355    1.905738
     27          1           0       -0.434863    3.069229    1.005233
     28          1           0       -0.436165    1.548792    1.925528
     29          1           0        4.822186   -0.260840   -0.780354
     30          1           0        5.085231   -1.767276    0.130410
     31          1           0        4.393412   -0.335458    0.923866
 ---------------------------------------------------------------------
 Rotational constants (GHZ):      0.9105449      0.3965482      0.3342570
 Standard basis: 6-31+G(d,p) (6D, 7F)
 There are   365 symmetry adapted basis functions of A   symmetry.
 Integral buffers will be    131072 words long.
 Raffenetti 2 integral format.
 Two-electron integral symmetry is turned on.
   365 basis functions,   592 primitive gaussians,   365 cartesian basis functions
    56 alpha electrons       56 beta electrons
       nuclear repulsion energy      1017.0093546217 Hartrees.
 NAtoms=   31 NActive=   31 NUniq=   31 SFac= 1.00D+00 NAtFMM=   60 NAOKFM=F Big=F
 Nuclear repulsion after empirical dispersion term =     1016.9874965047 Hartrees.
 ------------------------------------------------------------------------------
 Polarizable Continuum Model (PCM)
 =================================
 Model                : C-PCM.
 Atomic radii         : SMD-Coulomb.
 Polarization charges : Total charges.
 Charge compensation  : None.
 Solution method      : Matrix inversion.
 Cavity type          : VdW (van der Waals Surface) (Alpha=1.000).
 Cavity algorithm     : GePol (No added spheres)
                        Default sphere list used, NSphG=   31.
                        Lebedev-Laikov grids with approx.  5.0 points / Ang**2.
                        Smoothing algorithm: Karplus/York (Gamma=1.0000).
                        Polarization charges: spherical gaussians, with
                                              point-specific exponents (IZeta= 3).
                        Self-potential: point-specific (ISelfS= 7).
                        Self-field    : sphere-specific E.n sum rule (ISelfD= 2).
 Solvent              : Chloroform, Eps=   4.711300 Eps(inf)=   2.090627
 ------------------------------------------------------------------------------
 ------------------------------------------------------------------------------
 Atomic radii for non-electrostatic terms: SMD-CDS.
 ------------------------------------------------------------------------------
 Nuclear repulsion after PCM non-electrostatic terms =     1016.9810268347 Hartrees.
 One-electron integrals computed using PRISM.
 NBasis=   365 RedAO= T  NBF=   365
 NBsUse=   365 1.00D-06 NBFU=   365
 Harris functional with IExCor= 4639 diagonalized for initial guess.
 ExpMin= 4.38D-02 ExpMax= 5.48D+03 ExpMxC= 8.25D+02 IAcc=2 IRadAn=         4 AccDes= 0.00D+00
 HarFok:  IExCor= 4639 AccDes= 0.00D+00 IRadAn=         4 IDoV= 1
 ScaDFX=  1.000000  1.000000  1.000000  1.000000
 FoFCou: FMM=F IPFlag=           0 FMFlag=      100000 FMFlg1=           0
         NFxFlg=           0 DoJE=T BraDBF=F KetDBF=T FulRan=T
         Omega=  0.000000  0.000000  1.000000  0.000000  0.000000 ICntrl=     500 IOpCl=  0
         NMat0=    1 NMatS0=    1 NMatT0=    0 NMatD0=    1 NMtDS0=    0 NMtDT0=    0
         I1Cent=           4 NGrid=           0.
 Petite list used in FoFCou.
 Initial guess orbital symmetries:
       Occupied  (A) (A) (A) (A) (A) (A) (A) (A) (A) (A) (A) (A)
                 (A) (A) (A) (A) (A) (A) (A) (A) (A) (A) (A) (A)
                 (A) (A) (A) (A) (A) (A) (A) (A) (A) (A) (A) (A)
                 (A) (A) (A) (A) (A) (A) (A) (A) (A) (A) (A) (A)
                 (A) (A) (A) (A) (A) (A) (A) (A)
       Virtual   (A) (A) (A) (A) (A) (A) (A) (A) (A) (A) (A) (A)
                 (A) (A) (A) (A) (A) (A) (A) (A) (A) (A) (A) (A)
                 (A) (A) (A) (A) (A) (A) (A) (A) (A) (A) (A) (A)
                 (A) (A) (A) (A) (A) (A) (A) (A) (A) (A) (A) (A)
                 (A) (A) (A) (A) (A) (A) (A) (A) (A) (A) (A) (A)
                 (A) (A) (A) (A) (A) (A) (A) (A) (A) (A) (A) (A)
                 (A) (A) (A) (A) (A) (A) (A) (A) (A) (A) (A) (A)
                 (A) (A) (A) (A) (A) (A) (A) (A) (A) (A) (A) (A)
                 (A) (A) (A) (A) (A) (A) (A) (A) (A) (A) (A) (A)
                 (A) (A) (A) (A) (A) (A) (A) (A) (A) (A) (A) (A)
                 (A) (A) (A) (A) (A) (A) (A) (A) (A) (A) (A) (A)
                 (A) (A) (A) (A) (A) (A) (A) (A) (A) (A) (A) (A)
                 (A) (A) (A) (A) (A) (A) (A) (A) (A) (A) (A) (A)
                 (A) (A) (A) (A) (A) (A) (A) (A) (A) (A) (A) (A)
                 (A) (A) (A) (A) (A) (A) (A) (A) (A) (A) (A) (A)
                 (A) (A) (A) (A) (A) (A) (A) (A) (A) (A) (A) (A)
                 (A) (A) (A) (A) (A) (A) (A) (A) (A) (A) (A) (A)
                 (A) (A) (A) (A) (A) (A) (A) (A) (A) (A) (A) (A)
                 (A) (A) (A) (A) (A) (A) (A) (A) (A) (A) (A) (A)
                 (A) (A) (A) (A) (A) (A) (A) (A) (A) (A) (A) (A)
                 (A) (A) (A) (A) (A) (A) (A) (A) (A) (A) (A) (A)
                 (A) (A) (A) (A) (A) (A) (A) (A) (A) (A) (A) (A)
                 (A) (A) (A) (A) (A) (A) (A) (A) (A) (A) (A) (A)
                 (A) (A) (A) (A) (A) (A) (A) (A) (A) (A) (A) (A)
                 (A) (A) (A) (A) (A) (A) (A) (A) (A) (A) (A) (A)
                 (A) (A) (A) (A) (A) (A) (A) (A) (A)
 The electronic state of the initial guess is 1-A.
 Requested convergence on RMS density matrix=1.00D-08 within 128 cycles.
 Requested convergence on MAX density matrix=1.00D-06.
 Requested convergence on             energy=1.00D-06.
 No special actions if energy rises.
 FoFJK:  IHMeth= 1 ICntrl=     0 DoSepK=T KAlg= 1 I1Cent= 0 FoldK=F
 FoFJK:  IHMeth= 1 ICntrl=     0 DoSepK=T KAlg= 1 I1Cent= 0 FoldK=F
 FoFJK:  IHMeth= 1 ICntrl=     0 DoSepK=T KAlg= 1 I1Cent= 0 FoldK=F
 FoFJK:  IHMeth= 1 ICntrl=     0 DoSepK=T KAlg= 1 I1Cent= 0 FoldK=F
 FoFJK:  IHMeth= 1 ICntrl=     0 DoSepK=T KAlg= 1 I1Cent= 0 FoldK=F
 FoFJK:  IHMeth= 1 ICntrl=     0 DoSepK=T KAlg= 1 I1Cent= 0 FoldK=F
 FoFJK:  IHMeth= 1 ICntrl=     0 DoSepK=T KAlg= 1 I1Cent= 0 FoldK=F
 FoFJK:  IHMeth= 1 ICntrl=     0 DoSepK=T KAlg= 1 I1Cent= 0 FoldK=F
 FoFJK:  IHMeth= 1 ICntrl=     0 DoSepK=T KAlg= 1 I1Cent= 0 FoldK=F
 FoFJK:  IHMeth= 1 ICntrl=     0 DoSepK=T KAlg= 1 I1Cent= 0 FoldK=F
 FoFJK:  IHMeth= 1 ICntrl=     0 DoSepK=T KAlg= 1 I1Cent= 0 FoldK=F
 FoFJK:  IHMeth= 1 ICntrl=     0 DoSepK=T KAlg= 1 I1Cent= 0 FoldK=F
 FoFJK:  IHMeth= 1 ICntrl=     0 DoSepK=T KAlg= 1 I1Cent= 0 FoldK=F
 FoFJK:  IHMeth= 1 ICntrl=     0 DoSepK=T KAlg= 1 I1Cent= 0 FoldK=F
 FoFJK:  IHMeth= 1 ICntrl=     0 DoSepK=T KAlg= 1 I1Cent= 0 FoldK=F
 FoFJK:  IHMeth= 1 ICntrl=     0 DoSepK=T KAlg= 1 I1Cent= 0 FoldK=F
 Error on total polarization charges =  0.03891
 SCF Done:  E(RwB97XD) =  -692.444203906     A.U. after   16 cycles
             Convg  =    0.3434D-08             -V/T =  2.0096
 SMD-CDS (non-electrostatic) energy       (kcal/mol) =      -4.06
 (included in total energy above)
 Range of M.O.s used for correlation:     1   365
 NBasis=   365 NAE=    56 NBE=    56 NFC=     0 NFV=     0
 NROrb=    365 NOA=    56 NOB=    56 NVA=   309 NVB=   309

 **** Warning!!: The largest alpha MO coefficient is  0.11803609D+03

 NEqPCM:  Using equilibrium solvation (IEInf=0, Eps=   4.7113, EpsInf=   2.0906)
          Differentiating once with respect to magnetic field using GIAOs.
          Electric field/nuclear overlap derivatives assumed to be zero.
 FoFCou: FMM=F IPFlag=           0 FMFlag=    10101102 FMFlg1=           0
         NFxFlg=    40000000 DoJE=F BraDBF=F KetDBF=T FulRan=T
         Omega=  0.000000  0.000000  1.000000  0.000000  0.000000 ICntrl=    6100 IOpCl=  0
         NMat0=    1 NMatS0=    1 NMatT0=    0 NMatD0=    1 NMtDS0=    0 NMtDT0=    0
         I1Cent=           7 NGrid=        2277.
 Symmetry not used in FoFCou.
 FoFJK:  IHMeth= 1 ICntrl=  6127 DoSepK=T KAlg= 1 I1Cent= 0 FoldK=F
 FoFJK:  IHMeth= 1 ICntrl=     0 DoSepK=T KAlg= 1 I1Cent= 0 FoldK=F
          There are     3 degrees of freedom in the 1st order CPHF.  IDoFFX=0.
      3 vectors produced by pass  0 Test12= 5.77D-13 3.33D-08 XBig12= 1.53D+02 2.15D+00.
 AX will form     3 AO Fock derivatives at one time.
 FoFJK:  IHMeth= 1 ICntrl=     0 DoSepK=T KAlg= 1 I1Cent= 0 FoldK=F
      3 vectors produced by pass  1 Test12= 5.77D-13 3.33D-08 XBig12= 1.14D+00 2.96D-01.
 FoFJK:  IHMeth= 1 ICntrl=     0 DoSepK=T KAlg= 1 I1Cent= 0 FoldK=F
      3 vectors produced by pass  2 Test12= 5.77D-13 3.33D-08 XBig12= 2.21D-02 5.69D-02.
 FoFJK:  IHMeth= 1 ICntrl=     0 DoSepK=T KAlg= 1 I1Cent= 0 FoldK=F
      3 vectors produced by pass  3 Test12= 5.77D-13 3.33D-08 XBig12= 3.58D-04 4.18D-03.
 FoFJK:  IHMeth= 1 ICntrl=     0 DoSepK=T KAlg= 1 I1Cent= 0 FoldK=F
      3 vectors produced by pass  4 Test12= 5.77D-13 3.33D-08 XBig12= 6.10D-06 6.23D-04.
 FoFJK:  IHMeth= 1 ICntrl=     0 DoSepK=T KAlg= 1 I1Cent= 0 FoldK=F
      3 vectors produced by pass  5 Test12= 5.77D-13 3.33D-08 XBig12= 1.35D-07 1.35D-04.
 FoFJK:  IHMeth= 1 ICntrl=     0 DoSepK=T KAlg= 1 I1Cent= 0 FoldK=F
      3 vectors produced by pass  6 Test12= 5.77D-13 3.33D-08 XBig12= 2.78D-09 1.71D-05.
 FoFJK:  IHMeth= 1 ICntrl=     0 DoSepK=T KAlg= 1 I1Cent= 0 FoldK=F
      3 vectors produced by pass  7 Test12= 5.77D-13 3.33D-08 XBig12= 2.98D-11 1.44D-06.
 FoFJK:  IHMeth= 1 ICntrl=     0 DoSepK=T KAlg= 1 I1Cent= 0 FoldK=F
      1 vectors produced by pass  8 Test12= 5.77D-13 3.33D-08 XBig12= 3.52D-13 1.75D-07.
 FoFJK:  IHMeth= 1 ICntrl=     0 DoSepK=T KAlg= 1 I1Cent= 0 FoldK=F
 Inverted reduced A of dimension    25 with in-core refinement.
 Calculating GIAO nuclear magnetic shielding tensors.
 SCF GIAO Magnetic shielding tensor (ppm):
      1  C    Isotropic =    71.0113   Anisotropy =   163.9798
   XX=    33.5161   YX=    11.7221   ZX=    88.3397
   XY=    20.0873   YY=    52.1838   ZY=   -25.6176
   XZ=    81.6489   YZ=   -36.5898   ZZ=   127.3339
   Eigenvalues:   -27.7803    60.4829   180.3312
      2  C    Isotropic =    70.2959   Anisotropy =   176.5841
   XX=    35.9164   YX=    14.5610   ZX=    92.8705
   XY=    16.7315   YY=    48.4751   ZY=   -25.4634
   XZ=    97.0866   YZ=   -29.0287   ZZ=   126.4961
   Eigenvalues:   -33.5363    56.4053   188.0186
      3  C    Isotropic =    70.1795   Anisotropy =   175.0078
   XX=    88.7704   YX=     5.2570   ZX=    59.7112
   XY=     4.1454   YY=   -28.2183   ZY=   -26.8239
   XZ=    56.6244   YZ=   -23.8629   ZZ=   149.9864
   Eigenvalues:   -33.2906    56.9777   186.8513
      4  C    Isotropic =    55.2232   Anisotropy =   180.1267
   XX=    43.1384   YX=   -38.9081   ZX=    75.7284
   XY=   -33.2256   YY=     2.4504   ZY=    -6.4852
   XZ=    85.3467   YZ=   -12.8920   ZZ=   120.0809
   Eigenvalues:   -30.0089    20.3710   175.3077
      5  C    Isotropic =    71.6637   Anisotropy =   181.3543
   XX=    83.1686   YX=     2.9941   ZX=    65.3297
   XY=     9.6810   YY=   -23.7038   ZY=   -25.3213
   XZ=    56.6834   YZ=   -32.8125   ZZ=   155.5265
   Eigenvalues:   -30.9049    53.3295   192.5666
      6  C    Isotropic =    71.1560   Anisotropy =   177.0827
   XX=    53.3764   YX=   -41.9831   ZX=    76.4952
   XY=   -45.1762   YY=    18.0226   ZY=     7.5657
   XZ=    81.0277   YZ=    12.5299   ZZ=   142.0688
   Eigenvalues:   -30.7050    54.9618   189.2111
      7  C    Isotropic =   122.1468   Anisotropy =    37.9535
   XX=   114.1351   YX=   -12.6256   ZX=     4.6568
   XY=   -12.3615   YY=   140.5324   ZY=   -10.5103
   XZ=     2.2210   YZ=    -4.6658   ZZ=   111.7729
   Eigenvalues:   108.9903   110.0010   147.4491
      8  C    Isotropic =   150.8257   Anisotropy =    28.9720
   XX=   154.4811   YX=   -13.5903   ZX=     0.8162
   XY=   -12.6622   YY=   158.5395   ZY=     6.4931
   XZ=    13.9446   YZ=    -2.1865   ZZ=   139.4565
   Eigenvalues:   133.9107   148.4260   170.1404
      9  C    Isotropic =    21.4218   Anisotropy =    94.3560
   XX=    28.1757   YX=    65.7919   ZX=    23.6591
   XY=    57.0935   YY=    15.6040   ZY=   -21.6832
   XZ=    49.1268   YZ=   -42.4863   ZZ=    20.4856
   Eigenvalues:   -66.6126    46.5521    84.3258
     10  O    Isotropic =   129.7624   Anisotropy =   166.3312
   XX=   193.0555   YX=    75.9885   ZX=   -23.0334
   XY=    82.0127   YY=   104.8940   ZY=    41.1483
   XZ=  -117.6587   YZ=   163.4220   ZZ=    91.3377
   Eigenvalues:   -50.1014   198.7387   240.6499
     11  C    Isotropic =   137.5605   Anisotropy =    65.9088
   XX=   150.5914   YX=   -27.7480   ZX=    13.8454
   XY=   -23.3609   YY=   158.7298   ZY=    -1.5631
   XZ=    10.4873   YZ=    -0.2668   ZZ=   103.3601
   Eigenvalues:    99.8523   131.3294   181.4996
     12  O    Isotropic =   279.7089   Anisotropy =    79.1721
   XX=   311.0405   YX=    20.8939   ZX=    34.8681
   XY=    22.4673   YY=   269.3822   ZY=   -25.9795
   XZ=    44.1822   YZ=   -41.3827   ZZ=   258.7039
   Eigenvalues:   210.3990   296.2373   332.4903
     13  C    Isotropic =   187.0171   Anisotropy =    10.5222
   XX=   186.4615   YX=    -3.2997   ZX=    -3.7285
   XY=    -3.1417   YY=   186.6235   ZY=     5.2751
   XZ=    -2.5670   YZ=     2.7654   ZZ=   187.9661
   Eigenvalues:   183.0409   183.9784   194.0319
     14  O    Isotropic =   -49.9518   Anisotropy =   580.6839
   XX=   124.9925   YX=   249.6795   ZX=    64.2818
   XY=   240.3064   YY=    34.3556   ZY=     7.0078
   XZ=    82.4843   YZ=    46.0400   ZZ=  -309.2036
   Eigenvalues:  -322.0918  -164.9345   337.1707
     15  C    Isotropic =   181.4344   Anisotropy =    26.7554
   XX=   197.2642   YX=    -1.6129   ZX=     7.2085
   XY=     3.8272   YY=   183.0095   ZY=    -0.1535
   XZ=     9.3257   YZ=    -0.3379   ZZ=   164.0294
   Eigenvalues:   162.0750   182.9569   199.2713
     16  H    Isotropic =    23.9684   Anisotropy =     7.8085
   XX=    24.1798   YX=     3.2529   ZX=     0.0761
   XY=     2.8197   YY=    27.2129   ZY=     1.1674
   XZ=    -0.4757   YZ=     1.0723   ZZ=    20.5124
   Eigenvalues:    20.1628    22.5683    29.1740
     17  H    Isotropic =    23.7141   Anisotropy =     5.0427
   XX=    24.0995   YX=     1.4931   ZX=    -1.7467
   XY=     1.5959   YY=    26.0730   ZY=    -0.2210
   XZ=    -1.5349   YZ=    -0.1230   ZZ=    20.9697
   Eigenvalues:    20.2295    23.8369    27.0759
     18  H    Isotropic =    23.8850   Anisotropy =     5.1819
   XX=    25.4268   YX=     1.4508   ZX=    -2.5004
   XY=     1.5373   YY=    24.3221   ZY=     0.1451
   XZ=    -2.6179   YZ=    -0.0043   ZZ=    21.9062
   Eigenvalues:    20.4034    23.9120    27.3396
     19  H    Isotropic =    23.4018   Anisotropy =     9.6722
   XX=    28.1927   YX=     1.3322   ZX=    -3.8346
   XY=     2.0100   YY=    21.1967   ZY=    -0.7576
   XZ=    -2.7578   YZ=    -0.9059   ZZ=    20.8160
   Eigenvalues:    19.5328    20.8226    29.8499
     20  H    Isotropic =    23.7972   Anisotropy =     4.1047
   XX=    24.4069   YX=    -0.4203   ZX=    -2.2241
   XY=    -0.4814   YY=    25.4461   ZY=     1.1209
   XZ=    -1.9797   YZ=     1.3905   ZZ=    21.5384
   Eigenvalues:    20.2660    24.5918    26.5336
     21  H    Isotropic =    26.0105   Anisotropy =     6.7036
   XX=    24.8334   YX=    -3.4710   ZX=    -0.9470
   XY=    -3.4523   YY=    27.2318   ZY=     1.8169
   XZ=    -2.1967   YZ=     0.5394   ZZ=    25.9665
   Eigenvalues:    22.2589    25.2931    30.4796
     22  H    Isotropic =    28.3249   Anisotropy =     6.3875
   XX=    29.8812   YX=     1.9542   ZX=    -3.7330
   XY=     1.7330   YY=    28.3805   ZY=    -1.2916
   XZ=    -2.7154   YZ=     0.8097   ZZ=    26.7130
   Eigenvalues:    24.5332    27.8582    32.5833
     23  H    Isotropic =    27.6723   Anisotropy =     7.3340
   XX=    27.4750   YX=    -1.4505   ZX=     0.8169
   XY=    -1.7990   YY=    29.0352   ZY=     5.5606
   XZ=     1.5415   YZ=     3.5325   ZZ=    26.5067
   Eigenvalues:    22.3294    28.1258    32.5616
     24  H    Isotropic =    26.9354   Anisotropy =     5.4934
   XX=    27.7762   YX=    -0.6634   ZX=    -0.4545
   XY=    -0.3518   YY=    29.9845   ZY=    -2.8870
   XZ=    -0.3573   YZ=    -1.2142   ZZ=    23.0457
   Eigenvalues:    22.4331    27.7755    30.5977
     25  H    Isotropic =    29.9029   Anisotropy =    15.1869
   XX=    34.8494   YX=     0.7497   ZX=     9.2220
   XY=     0.8431   YY=    26.8463   ZY=    -0.9745
   XZ=     6.5372   YZ=    -2.5656   ZZ=    28.0131
   Eigenvalues:    22.0718    27.6094    40.0275
     26  H    Isotropic =    30.6521   Anisotropy =    10.9115
   XX=    31.1381   YX=     2.8922   ZX=     3.3897
   XY=     1.8022   YY=    29.5370   ZY=     4.5926
   XZ=     4.1958   YZ=     4.4976   ZZ=    31.2811
   Eigenvalues:    25.6722    28.3576    37.9264
     27  H    Isotropic =    30.1583   Anisotropy =     8.9207
   XX=    28.7875   YX=    -3.7561   ZX=     1.0076
   XY=    -4.5654   YY=    33.5980   ZY=     1.2443
   XZ=     1.0225   YZ=     2.0227   ZZ=    28.0893
   Eigenvalues:    25.3192    29.0502    36.1054
     28  H    Isotropic =    30.6331   Anisotropy =     6.7229
   XX=    31.1400   YX=     3.7670   ZX=    -3.0337
   XY=     2.0139   YY=    28.1494   ZY=    -1.3560
   XZ=    -2.0143   YZ=     0.8365   ZZ=    32.6098
   Eigenvalues:    26.1799    30.6043    35.1150
     29  H    Isotropic =    30.4469   Anisotropy =     8.5518
   XX=    32.4517   YX=     2.6634   ZX=    -3.4813
   XY=     2.2726   YY=    29.0609   ZY=    -3.5486
   XZ=    -2.1002   YZ=    -2.2989   ZZ=    29.8280
   Eigenvalues:    26.4956    28.6970    36.1481
     30  H    Isotropic =    30.6373   Anisotropy =    11.5604
   XX=    34.3934   YX=    -5.6325   ZX=     1.1795
   XY=    -4.6465   YY=    30.9457   ZY=    -0.9521
   XZ=     1.6389   YZ=    -1.0498   ZZ=    26.5729
   Eigenvalues:    26.3190    27.2488    38.3442
     31  H    Isotropic =    30.2873   Anisotropy =     6.5344
   XX=    31.6716   YX=     0.2343   ZX=     1.7534
   XY=     0.6045   YY=    27.5255   ZY=     4.1611
   XZ=     1.3257   YZ=     3.2522   ZZ=    31.6648
   Eigenvalues:    25.3212    30.8972    34.6436
 End of Minotr Frequency-dependent properties file   721 does not exist.
 End of Minotr Frequency-dependent properties file   722 does not exist.

 **********************************************************************

            Population analysis using the SCF density.

 **********************************************************************

 Orbital symmetries:
       Occupied  (A) (A) (A) (A) (A) (A) (A) (A) (A) (A) (A) (A)
                 (A) (A) (A) (A) (A) (A) (A) (A) (A) (A) (A) (A)
                 (A) (A) (A) (A) (A) (A) (A) (A) (A) (A) (A) (A)
                 (A) (A) (A) (A) (A) (A) (A) (A) (A) (A) (A) (A)
                 (A) (A) (A) (A) (A) (A) (A) (A)
       Virtual   (A) (A) (A) (A) (A) (A) (A) (A) (A) (A) (A) (A)
                 (A) (A) (A) (A) (A) (A) (A) (A) (A) (A) (A) (A)
                 (A) (A) (A) (A) (A) (A) (A) (A) (A) (A) (A) (A)
                 (A) (A) (A) (A) (A) (A) (A) (A) (A) (A) (A) (A)
                 (A) (A) (A) (A) (A) (A) (A) (A) (A) (A) (A) (A)
                 (A) (A) (A) (A) (A) (A) (A) (A) (A) (A) (A) (A)
                 (A) (A) (A) (A) (A) (A) (A) (A) (A) (A) (A) (A)
                 (A) (A) (A) (A) (A) (A) (A) (A) (A) (A) (A) (A)
                 (A) (A) (A) (A) (A) (A) (A) (A) (A) (A) (A) (A)
                 (A) (A) (A) (A) (A) (A) (A) (A) (A) (A) (A) (A)
                 (A) (A) (A) (A) (A) (A) (A) (A) (A) (A) (A) (A)
                 (A) (A) (A) (A) (A) (A) (A) (A) (A) (A) (A) (A)
                 (A) (A) (A) (A) (A) (A) (A) (A) (A) (A) (A) (A)
                 (A) (A) (A) (A) (A) (A) (A) (A) (A) (A) (A) (A)
                 (A) (A) (A) (A) (A) (A) (A) (A) (A) (A) (A) (A)
                 (A) (A) (A) (A) (A) (A) (A) (A) (A) (A) (A) (A)
                 (A) (A) (A) (A) (A) (A) (A) (A) (A) (A) (A) (A)
                 (A) (A) (A) (A) (A) (A) (A) (A) (A) (A) (A) (A)
                 (A) (A) (A) (A) (A) (A) (A) (A) (A) (A) (A) (A)
                 (A) (A) (A) (A) (A) (A) (A) (A) (A) (A) (A) (A)
                 (A) (A) (A) (A) (A) (A) (A) (A) (A) (A) (A) (A)
                 (A) (A) (A) (A) (A) (A) (A) (A) (A) (A) (A) (A)
                 (A) (A) (A) (A) (A) (A) (A) (A) (A) (A) (A) (A)
                 (A) (A) (A) (A) (A) (A) (A) (A) (A) (A) (A) (A)
                 (A) (A) (A) (A) (A) (A) (A) (A) (A) (A) (A) (A)
                 (A) (A) (A) (A) (A) (A) (A) (A) (A)
 The electronic state is 1-A.
 Alpha  occ. eigenvalues --  -19.32752 -19.28228 -19.27733 -10.44204 -10.36188
 Alpha  occ. eigenvalues --  -10.35071 -10.32083 -10.31705 -10.30901 -10.30835
 Alpha  occ. eigenvalues --  -10.30767 -10.30752 -10.30634 -10.28669 -10.28378
 Alpha  occ. eigenvalues --   -1.20966  -1.12978  -1.12530  -0.96347  -0.91370
 Alpha  occ. eigenvalues --   -0.86562  -0.85279  -0.84833  -0.78085  -0.76036
 Alpha  occ. eigenvalues --   -0.70909  -0.70139  -0.68166  -0.64370  -0.62610
 Alpha  occ. eigenvalues --   -0.59340  -0.58146  -0.57761  -0.56846  -0.55516
 Alpha  occ. eigenvalues --   -0.53256  -0.53015  -0.52500  -0.51005  -0.50409
 Alpha  occ. eigenvalues --   -0.48572  -0.47317  -0.46734  -0.46260  -0.45491
 Alpha  occ. eigenvalues --   -0.44572  -0.44064  -0.43481  -0.42335  -0.41929
 Alpha  occ. eigenvalues --   -0.40233  -0.38904  -0.36977  -0.36587  -0.33406
 Alpha  occ. eigenvalues --   -0.32597
 Alpha virt. eigenvalues --    0.04840   0.05037   0.06528   0.06757   0.07978
 Alpha virt. eigenvalues --    0.08135   0.08437   0.09336   0.09772   0.10306
 Alpha virt. eigenvalues --    0.10838   0.11224   0.11700   0.12101   0.12997
 Alpha virt. eigenvalues --    0.13362   0.13979   0.14529   0.14823   0.15136
 Alpha virt. eigenvalues --    0.15583   0.16124   0.16824   0.17595   0.18175
 Alpha virt. eigenvalues --    0.18593   0.19170   0.19633   0.19903   0.20387
 Alpha virt. eigenvalues --    0.20533   0.21020   0.21929   0.22263   0.22867
 Alpha virt. eigenvalues --    0.23057   0.23614   0.24235   0.24631   0.24906
 Alpha virt. eigenvalues --    0.25428   0.25853   0.26226   0.26718   0.27261
 Alpha virt. eigenvalues --    0.27634   0.27818   0.28238   0.28620   0.29135
 Alpha virt. eigenvalues --    0.29316   0.29999   0.30844   0.31029   0.31410
 Alpha virt. eigenvalues --    0.31885   0.32070   0.32265   0.33004   0.33430
 Alpha virt. eigenvalues --    0.33983   0.34821   0.34965   0.35478   0.36509
 Alpha virt. eigenvalues --    0.36898   0.37863   0.38006   0.38257   0.38820
 Alpha virt. eigenvalues --    0.39295   0.39567   0.40177   0.40982   0.41414
 Alpha virt. eigenvalues --    0.42501   0.42851   0.43772   0.44109   0.44263
 Alpha virt. eigenvalues --    0.44967   0.45559   0.46395   0.47296   0.47932
 Alpha virt. eigenvalues --    0.49034   0.49912   0.50416   0.51503   0.53945
 Alpha virt. eigenvalues --    0.56040   0.56377   0.61087   0.66414   0.69912
 Alpha virt. eigenvalues --    0.73288   0.74197   0.74969   0.76552   0.77019
 Alpha virt. eigenvalues --    0.77881   0.78259   0.79067   0.79753   0.81522
 Alpha virt. eigenvalues --    0.81912   0.82146   0.83047   0.83741   0.83816
 Alpha virt. eigenvalues --    0.85665   0.85846   0.87391   0.88840   0.89490
 Alpha virt. eigenvalues --    0.90769   0.91268   0.93180   0.94665   0.96832
 Alpha virt. eigenvalues --    0.98313   0.99014   0.99450   1.01788   1.02101
 Alpha virt. eigenvalues --    1.03043   1.04070   1.04968   1.07308   1.07463
 Alpha virt. eigenvalues --    1.08076   1.09532   1.10722   1.11736   1.12756
 Alpha virt. eigenvalues --    1.13388   1.15194   1.17170   1.18194   1.19067
 Alpha virt. eigenvalues --    1.20092   1.21024   1.21730   1.22836   1.24037
 Alpha virt. eigenvalues --    1.25058   1.26836   1.28193   1.28901   1.31386
 Alpha virt. eigenvalues --    1.33595   1.34842   1.35907   1.37080   1.38201
 Alpha virt. eigenvalues --    1.38771   1.41056   1.42300   1.43135   1.44813
 Alpha virt. eigenvalues --    1.45222   1.47444   1.49172   1.49428   1.49861
 Alpha virt. eigenvalues --    1.50842   1.51241   1.52307   1.53914   1.55646
 Alpha virt. eigenvalues --    1.57317   1.59079   1.59757   1.61149   1.65676
 Alpha virt. eigenvalues --    1.68615   1.70772   1.73714   1.74167   1.76972
 Alpha virt. eigenvalues --    1.80441   1.83104   1.85859   1.86435   1.88831
 Alpha virt. eigenvalues --    1.89810   1.91593   1.91934   1.94037   1.95346
 Alpha virt. eigenvalues --    1.96893   1.97952   1.99245   2.00428   2.01368
 Alpha virt. eigenvalues --    2.02287   2.03689   2.04971   2.05236   2.05933
 Alpha virt. eigenvalues --    2.07014   2.08570   2.10154   2.10368   2.10893
 Alpha virt. eigenvalues --    2.11764   2.14282   2.16116   2.17479   2.18283
 Alpha virt. eigenvalues --    2.20083   2.20965   2.21492   2.21965   2.24131
 Alpha virt. eigenvalues --    2.25429   2.26444   2.27361   2.28539   2.29919
 Alpha virt. eigenvalues --    2.33802   2.33894   2.36659   2.38436   2.39067
 Alpha virt. eigenvalues --    2.42590   2.42976   2.44397   2.46944   2.48285
 Alpha virt. eigenvalues --    2.49247   2.50048   2.51540   2.52519   2.55757
 Alpha virt. eigenvalues --    2.55834   2.56624   2.56962   2.59001   2.60321
 Alpha virt. eigenvalues --    2.63081   2.64338   2.66366   2.66588   2.68980
 Alpha virt. eigenvalues --    2.69093   2.70891   2.71649   2.73225   2.75679
 Alpha virt. eigenvalues --    2.76559   2.78503   2.79795   2.81732   2.83169
 Alpha virt. eigenvalues --    2.84896   2.85680   2.86586   2.87521   2.89523
 Alpha virt. eigenvalues --    2.90866   2.92539   2.94840   2.95227   2.97323
 Alpha virt. eigenvalues --    2.97705   2.98937   3.02858   3.04962   3.10521
 Alpha virt. eigenvalues --    3.12459   3.16790   3.17758   3.20159   3.27580
 Alpha virt. eigenvalues --    3.30075   3.30637   3.36842   3.37257   3.38933
 Alpha virt. eigenvalues --    3.39656   3.43747   3.45452   3.51855   3.52399
 Alpha virt. eigenvalues --    3.53642   3.57426   3.58933   3.60771   3.62789
 Alpha virt. eigenvalues --    3.64657   3.66169   3.66887   3.99548   4.39307
 Alpha virt. eigenvalues --    4.40876   4.43392   4.49187   4.52725   4.55418
 Alpha virt. eigenvalues --    4.58762   4.62597   4.65069   4.70555   4.74587
 Alpha virt. eigenvalues --    4.78572   4.84068   4.93623   4.98237
          Condensed to atoms (all electrons):
              1          2          3          4          5          6
     1  C   17.647971  -0.553443  -0.444103  -4.275434  -8.256939   0.235868
     2  C   -0.553443   7.538854   0.129610  -0.180812  -0.417960   0.640727
     3  C   -0.444103   0.129610   6.395068  -0.140213  -0.109698   0.442913
     4  C   -4.275434  -0.180812  -0.140213  15.988388  -1.461301  -1.077276
     5  C   -8.256939  -0.417960  -0.109698  -1.461301  16.271239   0.067660
     6  C    0.235868   0.640727   0.442913  -1.077276   0.067660   5.592185
     7  C    1.798858  -1.552901  -0.401314  -3.340004  -0.714410  -0.056029
     8  C   -0.328826   0.302645   0.135234   0.160071   0.487337   0.009650
     9  C   -0.308801   0.052000  -0.103667   0.421679  -0.063785  -0.023738
    10  O    0.133045   0.002526   0.008401  -0.098637  -0.039458   0.004250
    11  C    0.050559   0.002365  -0.006431  -0.024511   0.011686   0.003238
    12  O   -0.158707   0.151077   0.000454  -0.161075   0.249166   0.017702
    13  C   -0.029969  -0.086277  -0.007035  -0.005419  -0.033866  -0.007731
    14  O   -0.003130   0.006323   0.005863   0.029693  -0.035412  -0.001020
    15  C    0.037798   0.000633   0.000991  -0.028476  -0.011712   0.001680
    16  H    0.162439   0.006155   0.032599   0.115093   0.023325  -0.006970
    17  H    0.009237   0.265519  -0.007881   0.031545   0.021139   0.013167
    18  H    0.014943  -0.006900   0.262830   0.020038   0.006377   0.031255
    19  H    0.049708  -0.039769  -0.001140   0.112197   0.220702  -0.005925
    20  H   -0.011934   0.033369   0.045297   0.014082  -0.015602   0.259320
    21  H    0.178448   0.020995   0.048559  -0.008434  -0.058147   0.003448
    22  H    0.004939   0.002003  -0.000703   0.043122  -0.015975  -0.000351
    23  H    0.002019   0.000108   0.000867  -0.002789  -0.001032  -0.000029
    24  H    0.000569   0.000199   0.000872   0.005684   0.000827   0.000281
    25  H    0.019850  -0.007527  -0.003164   0.003014  -0.034816   0.001025
    26  H   -0.007309  -0.001814  -0.001119  -0.020600   0.015152   0.000507
    27  H   -0.011906   0.005392   0.000345  -0.036294   0.054363   0.000875
    28  H    0.037204   0.012544  -0.003222   0.039518  -0.075129   0.000007
    29  H   -0.000732  -0.000001  -0.000094   0.001479   0.000239   0.000003
    30  H    0.000262   0.000002   0.000114  -0.000219  -0.000042   0.000004
    31  H    0.000518   0.000000   0.000113  -0.000580  -0.000265   0.000002
              7          8          9         10         11         12
     1  C    1.798858  -0.328826  -0.308801   0.133045   0.050559  -0.158707
     2  C   -1.552901   0.302645   0.052000   0.002526   0.002365   0.151077
     3  C   -0.401314   0.135234  -0.103667   0.008401  -0.006431   0.000454
     4  C   -3.340004   0.160071   0.421679  -0.098637  -0.024511  -0.161075
     5  C   -0.714410   0.487337  -0.063785  -0.039458   0.011686   0.249166
     6  C   -0.056029   0.009650  -0.023738   0.004250   0.003238   0.017702
     7  C   11.404940  -1.457996   0.086705  -0.067311  -0.075931  -0.032361
     8  C   -1.457996   8.100143  -1.300585  -0.294853   0.094389   0.013245
     9  C    0.086705  -1.300585   6.559779   0.355651  -0.218900   0.029881
    10  O   -0.067311  -0.294853   0.355651   8.447478   0.058812  -0.001530
    11  C   -0.075931   0.094389  -0.218900   0.058812   5.242675   0.000432
    12  O   -0.032361   0.013245   0.029881  -0.001530   0.000432   8.303732
    13  C    0.204544   0.001523  -0.062471   0.021938  -0.005836  -0.054067
    14  O   -0.005417  -0.128246   0.651135  -0.163478   0.019448  -0.001648
    15  C    0.006480  -0.080845   0.038154  -0.039081   0.161268  -0.000464
    16  H   -0.028877   0.003547   0.009178  -0.000014  -0.001198   0.000102
    17  H   -0.006705   0.000215  -0.000365   0.000002   0.000005   0.000156
    18  H   -0.001679  -0.001163   0.001546  -0.000031  -0.000307   0.000024
    19  H   -0.013611  -0.010383  -0.001853  -0.000002  -0.000049   0.003842
    20  H    0.001675   0.000340  -0.000224   0.000001   0.000002  -0.000004
    21  H    0.013512   0.173758  -0.104163   0.020274   0.005809  -0.039962
    22  H   -0.012370   0.284217   0.033120  -0.000247  -0.005388  -0.006925
    23  H    0.003447  -0.011892   0.022229  -0.062405   0.396342  -0.000007
    24  H   -0.016098   0.015875  -0.008283  -0.036018   0.388268   0.000006
    25  H    0.035212   0.001475   0.001892   0.000273   0.000046   0.237236
    26  H    0.031076  -0.102796   0.027625  -0.000761   0.000225   0.000287
    27  H   -0.052313  -0.025249  -0.002769  -0.000087  -0.000015   0.009061
    28  H    0.033359  -0.100689   0.013219   0.000317  -0.000297  -0.004681
    29  H   -0.002839   0.003529   0.008588  -0.004914  -0.048566   0.000003
    30  H   -0.000373   0.003025   0.003679   0.006910  -0.050496   0.000000
    31  H    0.001456  -0.009578   0.004649  -0.005959  -0.063748  -0.000001
             13         14         15         16         17         18
     1  C   -0.029969  -0.003130   0.037798   0.162439   0.009237   0.014943
     2  C   -0.086277   0.006323   0.000633   0.006155   0.265519  -0.006900
     3  C   -0.007035   0.005863   0.000991   0.032599  -0.007881   0.262830
     4  C   -0.005419   0.029693  -0.028476   0.115093   0.031545   0.020038
     5  C   -0.033866  -0.035412  -0.011712   0.023325   0.021139   0.006377
     6  C   -0.007731  -0.001020   0.001680  -0.006970   0.013167   0.031255
     7  C    0.204544  -0.005417   0.006480  -0.028877  -0.006705  -0.001679
     8  C    0.001523  -0.128246  -0.080845   0.003547   0.000215  -0.001163
     9  C   -0.062471   0.651135   0.038154   0.009178  -0.000365   0.001546
    10  O    0.021938  -0.163478  -0.039081  -0.000014   0.000002  -0.000031
    11  C   -0.005836   0.019448   0.161268  -0.001198   0.000005  -0.000307
    12  O   -0.054067  -0.001648  -0.000464   0.000102   0.000156   0.000024
    13  C    5.433393  -0.012171  -0.006269   0.000003   0.000513   0.000036
    14  O   -0.012171   8.137525  -0.054084  -0.000504   0.000000  -0.000046
    15  C   -0.006269  -0.054084   5.333331   0.000910   0.000000   0.000011
    16  H    0.000003  -0.000504   0.000910   0.512113   0.000011  -0.004013
    17  H    0.000513   0.000000   0.000000   0.000011   0.495617  -0.000121
    18  H    0.000036  -0.000046   0.000011  -0.004013  -0.000121   0.496806
    19  H    0.005464  -0.000026  -0.000002  -0.000116  -0.004060   0.000011
    20  H   -0.000004   0.000004  -0.000002  -0.000125  -0.003867  -0.003924
    21  H   -0.016757   0.000010  -0.000073   0.001298   0.000002  -0.000001
    22  H   -0.034725   0.003181   0.003449  -0.000011   0.000000   0.000000
    23  H   -0.000315   0.000076  -0.016041   0.000011   0.000000   0.000000
    24  H   -0.000078   0.000755  -0.020906   0.000001   0.000000   0.000000
    25  H   -0.002067   0.000013  -0.000001   0.000037   0.000000   0.000000
    26  H    0.421462  -0.001030   0.000008   0.000000   0.000000   0.000000
    27  H    0.418818   0.001468   0.000001   0.000000   0.000000   0.000000
    28  H    0.404361  -0.000168   0.000222  -0.000003  -0.000015   0.000000
    29  H   -0.000095  -0.000408   0.406781   0.000000   0.000000   0.000000
    30  H    0.000051  -0.000144   0.401449   0.000000   0.000000   0.000000
    31  H   -0.000336   0.001879   0.436615   0.000000   0.000000   0.000000
             19         20         21         22         23         24
     1  C    0.049708  -0.011934   0.178448   0.004939   0.002019   0.000569
     2  C   -0.039769   0.033369   0.020995   0.002003   0.000108   0.000199
     3  C   -0.001140   0.045297   0.048559  -0.000703   0.000867   0.000872
     4  C    0.112197   0.014082  -0.008434   0.043122  -0.002789   0.005684
     5  C    0.220702  -0.015602  -0.058147  -0.015975  -0.001032   0.000827
     6  C   -0.005925   0.259320   0.003448  -0.000351  -0.000029   0.000281
     7  C   -0.013611   0.001675   0.013512  -0.012370   0.003447  -0.016098
     8  C   -0.010383   0.000340   0.173758   0.284217  -0.011892   0.015875
     9  C   -0.001853  -0.000224  -0.104163   0.033120   0.022229  -0.008283
    10  O   -0.000002   0.000001   0.020274  -0.000247  -0.062405  -0.036018
    11  C   -0.000049   0.000002   0.005809  -0.005388   0.396342   0.388268
    12  O    0.003842  -0.000004  -0.039962  -0.006925  -0.000007   0.000006
    13  C    0.005464  -0.000004  -0.016757  -0.034725  -0.000315  -0.000078
    14  O   -0.000026   0.000004   0.000010   0.003181   0.000076   0.000755
    15  C   -0.000002  -0.000002  -0.000073   0.003449  -0.016041  -0.020906
    16  H   -0.000116  -0.000125   0.001298  -0.000011   0.000011   0.000001
    17  H   -0.004060  -0.003867   0.000002   0.000000   0.000000   0.000000
    18  H    0.000011  -0.003924  -0.000001   0.000000   0.000000   0.000000
    19  H    0.500162  -0.000119  -0.000049  -0.000017   0.000000   0.000000
    20  H   -0.000119   0.498345   0.000000   0.000000   0.000000   0.000000
    21  H   -0.000049   0.000000   0.610800  -0.005671   0.000017   0.000026
    22  H   -0.000017   0.000000  -0.005671   0.501687   0.000002  -0.000014
    23  H    0.000000   0.000000   0.000017   0.000002   0.531852  -0.031552
    24  H    0.000000   0.000000   0.000026  -0.000014  -0.031552   0.521670
    25  H   -0.000918   0.000000  -0.004520   0.000082   0.000000   0.000000
    26  H    0.000054   0.000000  -0.000098  -0.003892   0.000000   0.000001
    27  H   -0.000372   0.000000   0.000046  -0.002124   0.000000   0.000000
    28  H   -0.000591   0.000000  -0.000110   0.003994   0.000000  -0.000003
    29  H    0.000000   0.000000   0.000001  -0.000019  -0.005228   0.003788
    30  H    0.000000   0.000000   0.000000  -0.000001  -0.001269  -0.001068
    31  H    0.000000   0.000000   0.000000   0.000002   0.003926  -0.004886
             25         26         27         28         29         30
     1  C    0.019850  -0.007309  -0.011906   0.037204  -0.000732   0.000262
     2  C   -0.007527  -0.001814   0.005392   0.012544  -0.000001   0.000002
     3  C   -0.003164  -0.001119   0.000345  -0.003222  -0.000094   0.000114
     4  C    0.003014  -0.020600  -0.036294   0.039518   0.001479  -0.000219
     5  C   -0.034816   0.015152   0.054363  -0.075129   0.000239  -0.000042
     6  C    0.001025   0.000507   0.000875   0.000007   0.000003   0.000004
     7  C    0.035212   0.031076  -0.052313   0.033359  -0.002839  -0.000373
     8  C    0.001475  -0.102796  -0.025249  -0.100689   0.003529   0.003025
     9  C    0.001892   0.027625  -0.002769   0.013219   0.008588   0.003679
    10  O    0.000273  -0.000761  -0.000087   0.000317  -0.004914   0.006910
    11  C    0.000046   0.000225  -0.000015  -0.000297  -0.048566  -0.050496
    12  O    0.237236   0.000287   0.009061  -0.004681   0.000003   0.000000
    13  C   -0.002067   0.421462   0.418818   0.404361  -0.000095   0.000051
    14  O    0.000013  -0.001030   0.001468  -0.000168  -0.000408  -0.000144
    15  C   -0.000001   0.000008   0.000001   0.000222   0.406781   0.401449
    16  H    0.000037   0.000000   0.000000  -0.000003   0.000000   0.000000
    17  H    0.000000   0.000000   0.000000  -0.000015   0.000000   0.000000
    18  H    0.000000   0.000000   0.000000   0.000000   0.000000   0.000000
    19  H   -0.000918   0.000054  -0.000372  -0.000591   0.000000   0.000000
    20  H    0.000000   0.000000   0.000000   0.000000   0.000000   0.000000
    21  H   -0.004520  -0.000098   0.000046  -0.000110   0.000001   0.000000
    22  H    0.000082  -0.003892  -0.002124   0.003994  -0.000019  -0.000001
    23  H    0.000000   0.000000   0.000000   0.000000  -0.005228  -0.001269
    24  H    0.000000   0.000001   0.000000  -0.000003   0.003788  -0.001068
    25  H    0.361141   0.000002  -0.000148   0.000006   0.000000   0.000000
    26  H    0.000002   0.517790  -0.024645  -0.023785   0.000000   0.000000
    27  H   -0.000148  -0.024645   0.512425  -0.025553   0.000000   0.000000
    28  H    0.000006  -0.023785  -0.025553   0.505772   0.000000   0.000000
    29  H    0.000000   0.000000   0.000000   0.000000   0.516798  -0.022731
    30  H    0.000000   0.000000   0.000000   0.000000  -0.022731   0.505099
    31  H    0.000000  -0.000002   0.000000   0.000000  -0.029541  -0.022139
             31
     1  C    0.000518
     2  C    0.000000
     3  C    0.000113
     4  C   -0.000580
     5  C   -0.000265
     6  C    0.000002
     7  C    0.001456
     8  C   -0.009578
     9  C    0.004649
    10  O   -0.005959
    11  C   -0.063748
    12  O   -0.000001
    13  C   -0.000336
    14  O    0.001879
    15  C    0.436615
    16  H    0.000000
    17  H    0.000000
    18  H    0.000000
    19  H    0.000000
    20  H    0.000000
    21  H    0.000000
    22  H    0.000002
    23  H    0.003926
    24  H   -0.004886
    25  H    0.000000
    26  H   -0.000002
    27  H    0.000000
    28  H    0.000000
    29  H   -0.029541
    30  H   -0.022139
    31  H    0.507797
 Mulliken atomic charges:
              1
     1  C    0.007000
     2  C   -0.325638
     3  C   -0.280345
     4  C   -0.123528
     5  C   -0.083660
     6  C   -0.146697
     7  C    0.217277
     8  C    0.062885
     9  C   -0.121104
    10  O   -0.245092
    11  C    0.066104
    12  O   -0.554972
    13  C   -0.546618
    14  O   -0.450439
    15  C   -0.571826
    16  H    0.175008
    17  H    0.185889
    18  H    0.184310
    19  H    0.186862
    20  H    0.183369
    21  H    0.160983
    22  H    0.208635
    23  H    0.171663
    24  H    0.180085
    25  H    0.391858
    26  H    0.173664
    27  H    0.178681
    28  H    0.183722
    29  H    0.173957
    30  H    0.177887
    31  H    0.180080
 Sum of Mulliken atomic charges =   0.00000
 Mulliken charges with hydrogens summed into heavy atoms:
              1
     1  C    0.182008
     2  C   -0.139749
     3  C   -0.096035
     4  C   -0.123528
     5  C    0.103203
     6  C    0.036672
     7  C    0.378259
     8  C    0.271519
     9  C   -0.121104
    10  O   -0.245092
    11  C    0.417851
    12  O   -0.163114
    13  C   -0.010551
    14  O   -0.450439
    15  C   -0.039901
 Sum of Mulliken charges with hydrogens summed into heavy atoms =   0.00000
 Electronic spatial extent (au):  <R**2>=           3569.6171
 Charge=              0.0000 electrons
 Dipole moment (field-independent basis, Debye):
    X=             -0.2406    Y=             -1.8247    Z=             -2.1826  Tot=              2.8551
 Quadrupole moment (field-independent basis, Debye-Ang):
   XX=            -76.4537   YY=            -85.9996   ZZ=            -95.6792
   XY=             -2.1281   XZ=             -5.5328   YZ=              4.6538
 Traceless Quadrupole moment (field-independent basis, Debye-Ang):
   XX=              9.5904   YY=              0.0446   ZZ=             -9.6350
   XY=             -2.1281   XZ=             -5.5328   YZ=              4.6538
 Octapole moment (field-independent basis, Debye-Ang**2):
  XXX=             20.0046  YYY=            -28.2161  ZZZ=            -20.2096  XYY=              9.2643
  XXY=            -10.4849  XXZ=              3.4335  XZZ=             -6.7087  YZZ=              4.6556
  YYZ=              6.0859  XYZ=              9.3519
 Hexadecapole moment (field-independent basis, Debye-Ang**3):
 XXXX=          -2887.1882 YYYY=          -1159.0432 ZZZZ=           -523.2165 XXXY=            -68.3363
 XXXZ=            -85.0008 YYYX=             14.2423 YYYZ=             28.7574 ZZZX=              2.7458
 ZZZY=             -9.0387 XXYY=           -627.5438 XXZZ=           -604.6208 YYZZ=           -291.4791
 XXYZ=            -22.5777 YYXZ=             -6.6452 ZZXY=            -22.8040
 N-N= 1.016981026835D+03 E-N=-3.645804809973D+03  KE= 6.858765161724D+02
 1\1\GINC-COMPUTE-8-6\SP\RwB97XD\6-31+G(d,p)\C12H16O3\ELUCIANO.IQUIR\17
 -May-2022\0\\# wb97xd/6-31+g** scrf=(pcm,solvent=chloroform,smd,dovacu
 um) nmr\\comment\\0,1\C,0,0.582938576,-1.499937203,-1.227226322\C,0,0.
 306582929,-3.667646946,0.503205308\C,0,1.506201899,-2.546638179,-1.262
 734716\C,0,-0.492187654,-1.522946895,-0.324873306\C,0,-0.617169549,-2.
 621835926,0.539921396\C,0,1.367625453,-3.62971009,-0.398024526\C,0,-1.
 482533615,-0.373411013,-0.29785154\C,0,-1.218067015,0.715621496,0.7547
 09354\C,0,0.097865331,1.418922523,0.487930386\O,0,0.07133215,2.0181721
 15,-0.738549116\C,0,1.253894943,2.745010834,-1.105403878\O,0,-2.814325
 819,-0.878269111,-0.130684415\C,0,-1.292785097,0.223058708,2.201868159
 \O,0,1.036654011,1.480248655,1.269835034\C,0,1.179063453,4.166064342,-
 0.579895159\H,0,0.712474729,-0.664007182,-1.91184125\H,0,0.200174163,-
 4.509745059,1.182315235\H,0,2.336473352,-2.515355687,-1.963684314\H,0,
 -1.435678463,-2.666881907,1.256394907\H,0,2.088869166,-4.442363328,-0.
 423535428\H,0,-1.486017354,0.086734509,-1.294169273\H,0,-2.004678416,1
 .478020206,0.662853624\H,0,1.292794835,2.758845455,-2.19955089\H,0,2.1
 59538631,2.234281587,-0.758644919\H,0,-2.874374456,-1.695248185,-0.656
 993822\H,0,-1.214580772,1.068257317,2.895470988\H,0,-2.242307474,-0.28
 2757384,2.402884088\H,0,-0.474648191,-0.462479759,2.444760678\H,0,0.27
 0299904,4.660869199,-0.93801454\H,0,2.047852874,4.745725819,-0.9042909
 96\H,0,1.138717478,4.179401087,0.513819252\\Version=EM64L-G09RevC.01\S
 tate=1-A\HF=-692.4442039\RMSD=3.434e-09\Dipole=0.1820621,-0.1423031,-1
 .0992445\Quadrupole=-4.7767186,6.9401248,-2.1634062,0.3859163,-5.27348
 7,-4.0845419\PG=C01 [X(C12H16O3)]\\@


 IF AT FIRST YOU DON'T SUCCEED, TRY, TRY AGAIN.
 THEN GIVE UP;
 THERE'S NO USE BEING A DAMN FOOL ABOUT IT.

                                 -- W. C. FIELDS
 Job cpu time:  0 days  1 hours 53 minutes 59.1 seconds.
 File lengths (MBytes):  RWF=    124 Int=      0 D2E=      0 Chk=      9 Scr=      1
 Normal termination of Gaussian 09 at Tue May 17 18:21:54 2022.
