 Entering Gaussian System, Link 0=g09
 Input=/home/eluciano.iquir/wb9/73b_010.gjc
 Output=/home/eluciano.iquir/wb9/73b_010.log
 Initial command:
 /share/apps/Gaussian09/EM64T.SSE4.2-enabled/g09/l1.exe /tmp/Gau-2402.inp -scrdir=/tmp/
 Entering Link 1 = /share/apps/Gaussian09/EM64T.SSE4.2-enabled/g09/l1.exe PID=      2403.
  
 Copyright (c) 1988,1990,1992,1993,1995,1998,2003,2009,2011,
            Gaussian, Inc.  All Rights Reserved.
  
 This is part of the Gaussian(R) 09 program.  It is based on
 the Gaussian(R) 03 system (copyright 2003, Gaussian, Inc.),
 the Gaussian(R) 98 system (copyright 1998, Gaussian, Inc.),
 the Gaussian(R) 94 system (copyright 1995, Gaussian, Inc.),
 the Gaussian 92(TM) system (copyright 1992, Gaussian, Inc.),
 the Gaussian 90(TM) system (copyright 1990, Gaussian, Inc.),
 the Gaussian 88(TM) system (copyright 1988, Gaussian, Inc.),
 the Gaussian 86(TM) system (copyright 1986, Carnegie Mellon
 University), and the Gaussian 82(TM) system (copyright 1983,
 Carnegie Mellon University). Gaussian is a federally registered
 trademark of Gaussian, Inc.
  
 This software contains proprietary and confidential information,
 including trade secrets, belonging to Gaussian, Inc.
  
 This software is provided under written license and may be
 used, copied, transmitted, or stored only in accord with that
 written license.
  
 The following legend is applicable only to US Government
 contracts under FAR:
  
                    RESTRICTED RIGHTS LEGEND
  
 Use, reproduction and disclosure by the US Government is
 subject to restrictions as set forth in subparagraphs (a)
 and (c) of the Commercial Computer Software - Restricted
 Rights clause in FAR 52.227-19.
  
 Gaussian, Inc.
 340 Quinnipiac St., Bldg. 40, Wallingford CT 06492
  
  
 ---------------------------------------------------------------
 Warning -- This program may not be used in any manner that
 competes with the business of Gaussian, Inc. or will provide
 assistance to any competitor of Gaussian, Inc.  The licensee
 of this program is prohibited from giving any competitor of
 Gaussian, Inc. access to this program.  By using this program,
 the user acknowledges that Gaussian, Inc. is engaged in the
 business of creating and licensing software in the field of
 computational chemistry and represents and warrants to the
 licensee that it is not a competitor of Gaussian, Inc. and that
 it will not use this program in any manner prohibited above.
 ---------------------------------------------------------------
  

 Cite this work as:
 Gaussian 09, Revision C.01,
 M. J. Frisch, G. W. Trucks, H. B. Schlegel, G. E. Scuseria, 
 M. A. Robb, J. R. Cheeseman, G. Scalmani, V. Barone, B. Mennucci, 
 G. A. Petersson, H. Nakatsuji, M. Caricato, X. Li, H. P. Hratchian, 
 A. F. Izmaylov, J. Bloino, G. Zheng, J. L. Sonnenberg, M. Hada, 
 M. Ehara, K. Toyota, R. Fukuda, J. Hasegawa, M. Ishida, T. Nakajima, 
 Y. Honda, O. Kitao, H. Nakai, T. Vreven, J. A. Montgomery, Jr., 
 J. E. Peralta, F. Ogliaro, M. Bearpark, J. J. Heyd, E. Brothers, 
 K. N. Kudin, V. N. Staroverov, T. Keith, R. Kobayashi, J. Normand, 
 K. Raghavachari, A. Rendell, J. C. Burant, S. S. Iyengar, J. Tomasi, 
 M. Cossi, N. Rega, J. M. Millam, M. Klene, J. E. Knox, J. B. Cross, 
 V. Bakken, C. Adamo, J. Jaramillo, R. Gomperts, R. E. Stratmann, 
 O. Yazyev, A. J. Austin, R. Cammi, C. Pomelli, J. W. Ochterski, 
 R. L. Martin, K. Morokuma, V. G. Zakrzewski, G. A. Voth, 
 P. Salvador, J. J. Dannenberg, S. Dapprich, A. D. Daniels, 
 O. Farkas, J. B. Foresman, J. V. Ortiz, J. Cioslowski, 
 and D. J. Fox, Gaussian, Inc., Wallingford CT, 2010.
 
 ******************************************
 Gaussian 09:  EM64L-G09RevC.01 23-Sep-2011
                17-May-2022 
 ******************************************
 %nprocshared=4
 Will use up to    4 processors via shared memory.
 ----------------------------------------------------------------
 # wb97xd/6-31+g** scrf=(pcm,solvent=chloroform,smd,dovacuum) nmr
 ----------------------------------------------------------------
 1/38=1/1;
 2/12=2,17=6,18=5,40=1/2;
 3/5=1,6=6,7=111,11=2,16=1,25=1,30=1,70=32101,72=7,74=-58/1,2,8,3;
 4//1;
 5/5=2,38=5,53=7/2;
 8/6=1,10=90,11=11/1;
 10/13=100,45=16/2;
 6/7=2,8=2,9=2,10=2,28=1/1;
 99/9=1/99;
 -------
 comment
 -------
 Charge =  0 Multiplicity = 1
 Symbolic Z-Matrix:
 6                    -0.43076  -3.06244  -0.46362 
 6                    -3.16242  -2.50288  -0.51141 
 6                    -1.35956  -4.0887   -0.27882 
 6                    -0.85693  -1.7413   -0.67176 
 6                    -2.23524  -1.47589  -0.69548 
 6                    -2.72422  -3.80841  -0.30118 
 6                     0.15934  -0.62907  -0.84311 
 6                     0.23076   0.31775   0.37197 
 6                     1.26634   1.39132   0.10006 
 8                     1.19031   2.3745    1.0409 
 6                     2.10871   3.46683   0.88668 
 8                    -0.21899   0.10666  -2.01302 
 6                     0.59837  -0.4112    1.66535 
 8                     2.04245   1.38587  -0.84774 
 6                     1.52256   4.51585  -0.0393 
 1                     0.6298   -3.30288  -0.44449 
 1                    -4.22634  -2.28327  -0.53903 
 1                    -1.01782  -5.10822  -0.12062 
 1                    -2.59028  -0.46268  -0.87321 
 1                    -3.44651  -4.60815  -0.1614 
 1                     1.14299  -1.07037  -1.05064 
 1                    -0.73246   0.83182   0.48805 
 1                     3.0855    3.1184    0.53214 
 1                     2.26258   3.89799   1.88128 
 1                     0.57875   0.5962   -2.29407 
 1                     0.71237   0.29001   2.4992 
 1                    -0.17355  -1.131     1.95404 
 1                     1.54792  -0.94765   1.55919 
 1                     1.35871   4.108    -1.04176 
 1                     2.18895   5.37939  -0.11826 
 1                     0.54865   4.8535    0.33006 
 
                          Input orientation:                          
 ---------------------------------------------------------------------
 Center     Atomic      Atomic             Coordinates (Angstroms)
 Number     Number       Type             X           Y           Z
 ---------------------------------------------------------------------
      1          6           0       -0.430755   -3.062438   -0.463620
      2          6           0       -3.162420   -2.502885   -0.511411
      3          6           0       -1.359557   -4.088699   -0.278819
      4          6           0       -0.856935   -1.741299   -0.671755
      5          6           0       -2.235239   -1.475891   -0.695481
      6          6           0       -2.724222   -3.808407   -0.301176
      7          6           0        0.159338   -0.629070   -0.843109
      8          6           0        0.230760    0.317749    0.371973
      9          6           0        1.266335    1.391323    0.100059
     10          8           0        1.190315    2.374500    1.040899
     11          6           0        2.108715    3.466830    0.886682
     12          8           0       -0.218985    0.106662   -2.013023
     13          6           0        0.598372   -0.411200    1.665347
     14          8           0        2.042449    1.385873   -0.847737
     15          6           0        1.522559    4.515845   -0.039303
     16          1           0        0.629805   -3.302877   -0.444493
     17          1           0       -4.226343   -2.283269   -0.539032
     18          1           0       -1.017823   -5.108218   -0.120620
     19          1           0       -2.590284   -0.462675   -0.873214
     20          1           0       -3.446507   -4.608151   -0.161396
     21          1           0        1.142987   -1.070373   -1.050637
     22          1           0       -0.732462    0.831821    0.488049
     23          1           0        3.085505    3.118403    0.532140
     24          1           0        2.262579    3.897989    1.881283
     25          1           0        0.578754    0.596197   -2.294069
     26          1           0        0.712370    0.290012    2.499199
     27          1           0       -0.173551   -1.131004    1.954037
     28          1           0        1.547924   -0.947649    1.559190
     29          1           0        1.358711    4.108002   -1.041760
     30          1           0        2.188952    5.379394   -0.118260
     31          1           0        0.548652    4.853504    0.330059
 ---------------------------------------------------------------------
                    Distance matrix (angstroms):
                    1          2          3          4          5
     1  C    0.000000
     2  C    2.788795   0.000000
     3  C    1.396436   2.412306   0.000000
     4  C    1.403694   2.433308   2.432553   0.000000
     5  C    2.413929   1.395802   2.786968   1.403826   0.000000
     6  C    2.417198   1.393055   1.393332   2.810165   2.415618
     7  C    2.532489   3.828222   3.820274   1.516320   2.544189
     8  C    3.544218   4.500002   4.729632   2.551887   3.230752
     9  C    4.799358   5.928965   6.088472   3.862291   4.595087
    10  O    5.869561   6.718992   7.072230   4.905530   5.438286
    11  C    7.134674   8.085606   8.394839   6.192610   6.767841
    12  O    3.533934   4.210508   4.680749   2.370851   2.881956
    13  C    3.552558   4.822549   4.597528   3.057635   3.838806
    14  O    5.104092   6.505860   6.470568   4.268091   5.148931
    15  C    7.837465   8.451893   9.077562   6.724124   7.102994
    16  H    1.087642   3.876266   2.145349   2.168079   3.407250
    17  H    3.875471   1.086704   3.397903   3.415298   2.154259
    18  H    2.155809   3.397024   1.086843   3.415520   3.873805
    19  H    3.404423   2.149580   3.875053   2.163322   1.088233
    20  H    3.402253   2.152989   2.153829   3.896818   3.400510
    21  H    2.605682   4.569397   3.996088   2.143217   3.420964
    22  H    4.020193   4.245454   5.019248   2.825170   2.997435
    23  H    7.180419   8.469028   8.506382   6.372511   7.136169
    24  H    7.823054   8.725067   9.031782   6.931879   7.466503
    25  H    4.213700   5.174801   5.455871   3.187004   3.842862
    26  H    4.617787   5.646064   5.584207   4.079693   4.691779
    27  H    3.105102   4.110210   3.891042   2.781054   3.374826
    28  H    3.532601   5.375267   4.658102   3.374959   4.435641
    29  H    7.412938   8.026563   8.669311   6.265805   6.649530
    30  H    8.845715   9.535307  10.112491   7.764538   8.179339
    31  H    8.015691   8.282306   9.163786   6.816945   6.990209
                    6          7          8          9         10
     6  C    0.000000
     7  C    4.326291   0.000000
     8  C    5.119591   1.542074   0.000000
     9  C    6.566790   2.489377   1.516217   0.000000
    10  O    7.439967   3.692402   2.366101   1.362937   0.000000
    11  C    8.814611   4.854755   3.702479   2.374049   1.435418
    12  O    4.953220   1.432874   2.436193   2.884727   4.056558
    13  C    5.142749   2.555889   1.529484   2.478990   2.915554
    14  O    7.071098   2.757920   2.431213   1.225030   2.295749
    15  C    9.348631   5.382809   4.411565   3.138106   2.421277
    16  H    3.394937   2.743989   3.732932   4.768356   5.895182
    17  H    2.153831   4.697131   5.240324   6.639321   7.316501
    18  H    2.152651   4.687266   5.589519   6.892758   7.887717
    19  H    3.396923   2.754817   3.180856   4.388403   5.099639
    20  H    1.086657   5.412941   6.170191   7.633670   8.467765
    21  H    4.797273   1.097899   2.186975   2.720159   4.030375
    22  H    5.110939   2.168292   1.097971   2.111580   2.526376
    23  H    9.078988   4.949476   4.002359   2.545363   2.098564
    24  H    9.435033   5.686844   4.384567   3.232435   2.043774
    25  H    5.855067   1.944859   2.703038   2.614736   3.828627
    26  H    6.037326   3.510210   2.181240   2.697338   2.588466
    27  H    4.331327   2.861255   2.182952   3.445670   3.870725
    28  H    5.467736   2.792974   2.178448   2.771127   3.381299
    29  H    8.938027   4.890584   4.199635   2.948326   2.714931
    30  H   10.420577   6.383289   5.449321   4.099219   3.371989
    31  H    9.281102   5.620187   4.547074   3.543256   2.657533
                   11         12         13         14         15
    11  C    0.000000
    12  O    5.011707   0.000000
    13  C    4.233978   3.803506   0.000000
    14  O    2.709794   2.847518   3.410340   0.000000
    15  C    1.517056   5.135119   5.294877   3.274229   0.000000
    16  H    7.056071   3.847815   3.579694   4.913507   7.879950
    17  H    8.673480   4.893192   5.625105   7.270190   8.917823
    18  H    9.182665   5.604846   5.278612   7.215759   9.954031
    19  H    6.373291   2.691907   4.076085   4.987985   6.511263
    20  H    9.857194   6.006236   6.108390   8.156471  10.390083
    21  H    5.027131   2.041217   2.847400   2.623613   5.689702
    22  H    3.895442   2.654219   2.168467   3.129126   4.351466
    23  H    1.096002   5.144715   4.464087   2.448200   2.173061
    24  H    1.094899   5.974776   4.624427   3.715741   2.148959
    25  H    4.549560   0.977252   4.085610   2.204057   4.619348
    26  H    3.826508   4.610985   1.095446   3.764572   4.995804
    27  H    5.242906   4.155893   1.094224   4.369813   6.223914
    28  H    4.500486   4.122408   1.095763   3.388684   5.692591
    29  H    2.166216   4.409445   5.322567   2.813384   1.094578
    30  H    2.162000   6.098360   6.264357   4.062242   1.093632
    31  H    2.160206   5.349001   5.431627   3.955136   1.094960
                   16         17         18         19         20
    16  H    0.000000
    17  H    4.962933   0.000000
    18  H    2.465528   4.295347   0.000000
    19  H    4.315034   2.470411   4.961864   0.000000
    20  H    4.289545   2.481094   2.479967   4.292408   0.000000
    21  H    2.369565   5.528342   4.673138   3.786567   5.862600
    22  H    4.452093   4.792274   5.977957   2.642018   6.114009
    23  H    6.943854   9.153610   9.216327   6.856655  10.141390
    24  H    7.741296   9.282887   9.791855   7.081873  10.446081
    25  H    4.315822   5.870302   6.309777   3.630818   6.916376
    26  H    4.645535   6.343777   6.244830   4.779877   6.954640
    27  H    3.333970   4.895736   4.564562   3.778969   5.222819
    28  H    3.225646   6.287176   5.168671   4.824578   6.426821
    29  H    7.470553   8.502583   9.562171   6.042686   9.991820
    30  H    8.827185  10.002473  10.966924   7.585567  11.467838
    31  H    8.193477   8.630726  10.094199   6.289877  10.282302
                   21         22         23         24         25
    21  H    0.000000
    22  H    3.082727   0.000000
    23  H    4.881025   4.450536   0.000000
    24  H    5.876586   4.506968   1.762142   0.000000
    25  H    2.154516   3.084638   4.542332   5.583069   0.000000
    26  H    3.825887   2.534920   4.183405   3.975232   4.804895
    27  H    3.281008   2.512804   5.540821   5.588453   4.647106
    28  H    2.643905   3.084480   4.466739   4.908633   4.262671
    29  H    5.182874   4.176922   2.537377   3.066799   3.809119
    30  H    6.600217   5.438997   2.517719   2.489609   5.495985
    31  H    6.111618   4.223760   3.080103   2.501370   5.001162
                   26         27         28         29         30
    26  H    0.000000
    27  H    1.761064   0.000000
    28  H    1.764532   1.775669   0.000000
    29  H    5.247207   6.226541   5.688615   0.000000
    30  H    5.910430   7.229185   6.576946   1.777242   0.000000
    31  H    5.055435   6.242854   6.013541   1.758936   1.779926
                   31
    31  H    0.000000
 Stoichiometry    C12H16O3
 Framework group  C1[X(C12H16O3)]
 Deg. of freedom    87
 Full point group                 C1      NOp   1
 Largest Abelian subgroup         C1      NOp   1
 Largest concise Abelian subgroup C1      NOp   1
                         Standard orientation:                         
 ---------------------------------------------------------------------
 Center     Atomic      Atomic             Coordinates (Angstroms)
 Number     Number       Type             X           Y           Z
 ---------------------------------------------------------------------
      1          6           0       -2.760602    0.662086    0.937111
      2          6           0       -3.662701   -0.857887   -1.220034
      3          6           0       -4.088490    0.761442    0.516542
      4          6           0       -1.865292   -0.197399    0.281320
      5          6           0       -2.334924   -0.957686   -0.801333
      6          6           0       -4.538345    0.003040   -0.562268
      7          6           0       -0.418204   -0.277376    0.727150
      8          6           0        0.559275    0.376308   -0.270459
      9          6           0        1.972203    0.239129    0.262206
     10          8           0        2.877209    0.590598   -0.694367
     11          6           0        4.259753    0.486218   -0.322748
     12          8           0       -0.103406   -1.666991    0.878811
     13          6           0        0.258100    1.857411   -0.504869
     14          8           0        2.257258   -0.157448    1.385669
     15          6           0        4.764423   -0.921731   -0.576617
     16          1           0       -2.430184    1.261343    1.782498
     17          1           0       -4.013571   -1.457736   -2.055496
     18          1           0       -4.773180    1.428752    1.033385
     19          1           0       -1.664434   -1.644504   -1.314144
     20          1           0       -5.572831    0.077777   -0.886422
     21          1           0       -0.322948    0.179396    1.720965
     22          1           0        0.526900   -0.171506   -1.221455
     23          1           0        4.415430    0.787159    0.719566
     24          1           0        4.813225    1.194313   -0.948106
     25          1           0        0.688116   -1.703870    1.450784
     26          1           0        1.005747    2.317028   -1.160443
     27          1           0       -0.716957    1.998556   -0.980965
     28          1           0        0.265468    2.415180    0.438283
     29          1           0        4.225064   -1.649496    0.037834
     30          1           0        5.831937   -0.997582   -0.351470
     31          1           0        4.602554   -1.205416   -1.621729
 ---------------------------------------------------------------------
 Rotational constants (GHZ):      1.6292246      0.2662694      0.2607223
 Standard basis: 6-31+G(d,p) (6D, 7F)
 There are   365 symmetry adapted basis functions of A   symmetry.
 Integral buffers will be    131072 words long.
 Raffenetti 2 integral format.
 Two-electron integral symmetry is turned on.
   365 basis functions,   592 primitive gaussians,   365 cartesian basis functions
    56 alpha electrons       56 beta electrons
       nuclear repulsion energy       992.6203533154 Hartrees.
 NAtoms=   31 NActive=   31 NUniq=   31 SFac= 1.00D+00 NAtFMM=   60 NAOKFM=F Big=F
 Nuclear repulsion after empirical dispersion term =      992.5998413642 Hartrees.
 ------------------------------------------------------------------------------
 Polarizable Continuum Model (PCM)
 =================================
 Model                : C-PCM.
 Atomic radii         : SMD-Coulomb.
 Polarization charges : Total charges.
 Charge compensation  : None.
 Solution method      : Matrix inversion.
 Cavity type          : VdW (van der Waals Surface) (Alpha=1.000).
 Cavity algorithm     : GePol (No added spheres)
                        Default sphere list used, NSphG=   31.
                        Lebedev-Laikov grids with approx.  5.0 points / Ang**2.
                        Smoothing algorithm: Karplus/York (Gamma=1.0000).
                        Polarization charges: spherical gaussians, with
                                              point-specific exponents (IZeta= 3).
                        Self-potential: point-specific (ISelfS= 7).
                        Self-field    : sphere-specific E.n sum rule (ISelfD= 2).
 Solvent              : Chloroform, Eps=   4.711300 Eps(inf)=   2.090627
 ------------------------------------------------------------------------------
 ------------------------------------------------------------------------------
 Atomic radii for non-electrostatic terms: SMD-CDS.
 ------------------------------------------------------------------------------
 Nuclear repulsion after PCM non-electrostatic terms =      992.5934882387 Hartrees.
 One-electron integrals computed using PRISM.
 NBasis=   365 RedAO= T  NBF=   365
 NBsUse=   365 1.00D-06 NBFU=   365
 Harris functional with IExCor= 4639 diagonalized for initial guess.
 ExpMin= 4.38D-02 ExpMax= 5.48D+03 ExpMxC= 8.25D+02 IAcc=2 IRadAn=         4 AccDes= 0.00D+00
 HarFok:  IExCor= 4639 AccDes= 0.00D+00 IRadAn=         4 IDoV= 1
 ScaDFX=  1.000000  1.000000  1.000000  1.000000
 FoFCou: FMM=F IPFlag=           0 FMFlag=      100000 FMFlg1=           0
         NFxFlg=           0 DoJE=T BraDBF=F KetDBF=T FulRan=T
         Omega=  0.000000  0.000000  1.000000  0.000000  0.000000 ICntrl=     500 IOpCl=  0
         NMat0=    1 NMatS0=    1 NMatT0=    0 NMatD0=    1 NMtDS0=    0 NMtDT0=    0
         I1Cent=           4 NGrid=           0.
 Petite list used in FoFCou.
 Initial guess orbital symmetries:
       Occupied  (A) (A) (A) (A) (A) (A) (A) (A) (A) (A) (A) (A)
                 (A) (A) (A) (A) (A) (A) (A) (A) (A) (A) (A) (A)
                 (A) (A) (A) (A) (A) (A) (A) (A) (A) (A) (A) (A)
                 (A) (A) (A) (A) (A) (A) (A) (A) (A) (A) (A) (A)
                 (A) (A) (A) (A) (A) (A) (A) (A)
       Virtual   (A) (A) (A) (A) (A) (A) (A) (A) (A) (A) (A) (A)
                 (A) (A) (A) (A) (A) (A) (A) (A) (A) (A) (A) (A)
                 (A) (A) (A) (A) (A) (A) (A) (A) (A) (A) (A) (A)
                 (A) (A) (A) (A) (A) (A) (A) (A) (A) (A) (A) (A)
                 (A) (A) (A) (A) (A) (A) (A) (A) (A) (A) (A) (A)
                 (A) (A) (A) (A) (A) (A) (A) (A) (A) (A) (A) (A)
                 (A) (A) (A) (A) (A) (A) (A) (A) (A) (A) (A) (A)
                 (A) (A) (A) (A) (A) (A) (A) (A) (A) (A) (A) (A)
                 (A) (A) (A) (A) (A) (A) (A) (A) (A) (A) (A) (A)
                 (A) (A) (A) (A) (A) (A) (A) (A) (A) (A) (A) (A)
                 (A) (A) (A) (A) (A) (A) (A) (A) (A) (A) (A) (A)
                 (A) (A) (A) (A) (A) (A) (A) (A) (A) (A) (A) (A)
                 (A) (A) (A) (A) (A) (A) (A) (A) (A) (A) (A) (A)
                 (A) (A) (A) (A) (A) (A) (A) (A) (A) (A) (A) (A)
                 (A) (A) (A) (A) (A) (A) (A) (A) (A) (A) (A) (A)
                 (A) (A) (A) (A) (A) (A) (A) (A) (A) (A) (A) (A)
                 (A) (A) (A) (A) (A) (A) (A) (A) (A) (A) (A) (A)
                 (A) (A) (A) (A) (A) (A) (A) (A) (A) (A) (A) (A)
                 (A) (A) (A) (A) (A) (A) (A) (A) (A) (A) (A) (A)
                 (A) (A) (A) (A) (A) (A) (A) (A) (A) (A) (A) (A)
                 (A) (A) (A) (A) (A) (A) (A) (A) (A) (A) (A) (A)
                 (A) (A) (A) (A) (A) (A) (A) (A) (A) (A) (A) (A)
                 (A) (A) (A) (A) (A) (A) (A) (A) (A) (A) (A) (A)
                 (A) (A) (A) (A) (A) (A) (A) (A) (A) (A) (A) (A)
                 (A) (A) (A) (A) (A) (A) (A) (A) (A) (A) (A) (A)
                 (A) (A) (A) (A) (A) (A) (A) (A) (A)
 The electronic state of the initial guess is 1-A.
 Requested convergence on RMS density matrix=1.00D-08 within 128 cycles.
 Requested convergence on MAX density matrix=1.00D-06.
 Requested convergence on             energy=1.00D-06.
 No special actions if energy rises.
 FoFJK:  IHMeth= 1 ICntrl=     0 DoSepK=T KAlg= 1 I1Cent= 0 FoldK=F
 FoFJK:  IHMeth= 1 ICntrl=     0 DoSepK=T KAlg= 1 I1Cent= 0 FoldK=F
 FoFJK:  IHMeth= 1 ICntrl=     0 DoSepK=T KAlg= 1 I1Cent= 0 FoldK=F
 FoFJK:  IHMeth= 1 ICntrl=     0 DoSepK=T KAlg= 1 I1Cent= 0 FoldK=F
 FoFJK:  IHMeth= 1 ICntrl=     0 DoSepK=T KAlg= 1 I1Cent= 0 FoldK=F
 FoFJK:  IHMeth= 1 ICntrl=     0 DoSepK=T KAlg= 1 I1Cent= 0 FoldK=F
 FoFJK:  IHMeth= 1 ICntrl=     0 DoSepK=T KAlg= 1 I1Cent= 0 FoldK=F
 FoFJK:  IHMeth= 1 ICntrl=     0 DoSepK=T KAlg= 1 I1Cent= 0 FoldK=F
 FoFJK:  IHMeth= 1 ICntrl=     0 DoSepK=T KAlg= 1 I1Cent= 0 FoldK=F
 FoFJK:  IHMeth= 1 ICntrl=     0 DoSepK=T KAlg= 1 I1Cent= 0 FoldK=F
 FoFJK:  IHMeth= 1 ICntrl=     0 DoSepK=T KAlg= 1 I1Cent= 0 FoldK=F
 FoFJK:  IHMeth= 1 ICntrl=     0 DoSepK=T KAlg= 1 I1Cent= 0 FoldK=F
 FoFJK:  IHMeth= 1 ICntrl=     0 DoSepK=T KAlg= 1 I1Cent= 0 FoldK=F
 FoFJK:  IHMeth= 1 ICntrl=     0 DoSepK=T KAlg= 1 I1Cent= 0 FoldK=F
 FoFJK:  IHMeth= 1 ICntrl=     0 DoSepK=T KAlg= 1 I1Cent= 0 FoldK=F
 Error on total polarization charges =  0.04063
 SCF Done:  E(RwB97XD) =  -692.447015304     A.U. after   15 cycles
             Convg  =    0.9261D-08             -V/T =  2.0096
 SMD-CDS (non-electrostatic) energy       (kcal/mol) =      -3.99
 (included in total energy above)
 Range of M.O.s used for correlation:     1   365
 NBasis=   365 NAE=    56 NBE=    56 NFC=     0 NFV=     0
 NROrb=    365 NOA=    56 NOB=    56 NVA=   309 NVB=   309

 **** Warning!!: The largest alpha MO coefficient is  0.12978988D+03

 NEqPCM:  Using equilibrium solvation (IEInf=0, Eps=   4.7113, EpsInf=   2.0906)
          Differentiating once with respect to magnetic field using GIAOs.
          Electric field/nuclear overlap derivatives assumed to be zero.
 FoFCou: FMM=F IPFlag=           0 FMFlag=    10101102 FMFlg1=           0
         NFxFlg=    40000000 DoJE=F BraDBF=F KetDBF=T FulRan=T
         Omega=  0.000000  0.000000  1.000000  0.000000  0.000000 ICntrl=    6100 IOpCl=  0
         NMat0=    1 NMatS0=    1 NMatT0=    0 NMatD0=    1 NMtDS0=    0 NMtDT0=    0
         I1Cent=           7 NGrid=        2288.
 Symmetry not used in FoFCou.
 FoFJK:  IHMeth= 1 ICntrl=  6127 DoSepK=T KAlg= 1 I1Cent= 0 FoldK=F
 FoFJK:  IHMeth= 1 ICntrl=     0 DoSepK=T KAlg= 1 I1Cent= 0 FoldK=F
          There are     3 degrees of freedom in the 1st order CPHF.  IDoFFX=0.
      3 vectors produced by pass  0 Test12= 5.77D-13 3.33D-08 XBig12= 1.19D+02 2.57D+00.
 AX will form     3 AO Fock derivatives at one time.
 FoFJK:  IHMeth= 1 ICntrl=     0 DoSepK=T KAlg= 1 I1Cent= 0 FoldK=F
      3 vectors produced by pass  1 Test12= 5.77D-13 3.33D-08 XBig12= 1.02D+00 2.88D-01.
 FoFJK:  IHMeth= 1 ICntrl=     0 DoSepK=T KAlg= 1 I1Cent= 0 FoldK=F
      3 vectors produced by pass  2 Test12= 5.77D-13 3.33D-08 XBig12= 2.02D-02 5.51D-02.
 FoFJK:  IHMeth= 1 ICntrl=     0 DoSepK=T KAlg= 1 I1Cent= 0 FoldK=F
      3 vectors produced by pass  3 Test12= 5.77D-13 3.33D-08 XBig12= 3.04D-04 5.53D-03.
 FoFJK:  IHMeth= 1 ICntrl=     0 DoSepK=T KAlg= 1 I1Cent= 0 FoldK=F
      3 vectors produced by pass  4 Test12= 5.77D-13 3.33D-08 XBig12= 4.21D-06 5.31D-04.
 FoFJK:  IHMeth= 1 ICntrl=     0 DoSepK=T KAlg= 1 I1Cent= 0 FoldK=F
      3 vectors produced by pass  5 Test12= 5.77D-13 3.33D-08 XBig12= 5.93D-08 5.16D-05.
 FoFJK:  IHMeth= 1 ICntrl=     0 DoSepK=T KAlg= 1 I1Cent= 0 FoldK=F
      3 vectors produced by pass  6 Test12= 5.77D-13 3.33D-08 XBig12= 8.00D-10 8.77D-06.
 FoFJK:  IHMeth= 1 ICntrl=     0 DoSepK=T KAlg= 1 I1Cent= 0 FoldK=F
      3 vectors produced by pass  7 Test12= 5.77D-13 3.33D-08 XBig12= 1.10D-11 1.01D-06.
 FoFJK:  IHMeth= 1 ICntrl=     0 DoSepK=T KAlg= 1 I1Cent= 0 FoldK=F
      2 vectors produced by pass  8 Test12= 5.77D-13 3.33D-08 XBig12= 1.31D-13 7.15D-08.
 FoFJK:  IHMeth= 1 ICntrl=     0 DoSepK=T KAlg= 1 I1Cent= 0 FoldK=F
 Inverted reduced A of dimension    26 with in-core refinement.
 Calculating GIAO nuclear magnetic shielding tensors.
 SCF GIAO Magnetic shielding tensor (ppm):
      1  C    Isotropic =    69.4540   Anisotropy =   161.8482
   XX=    59.9271   YX=     8.9420   ZX=   -38.4628
   XY=     0.0728   YY=    97.6719   ZY=   -93.5080
   XZ=   -33.6670   YZ=   -95.3918   ZZ=    50.7630
   Eigenvalues:   -30.6294    61.6386   177.3528
      2  C    Isotropic =    69.4267   Anisotropy =   175.9337
   XX=    56.0555   YX=    10.4218   ZX=   -41.5105
   XY=     8.4203   YY=    99.5021   ZY=   -98.1174
   XZ=   -42.0591   YZ=  -100.1969   ZZ=    52.7224
   Eigenvalues:   -34.2789    55.8431   186.7158
      3  C    Isotropic =    70.4737   Anisotropy =   172.7906
   XX=    29.8924   YX=    58.6867   ZX=     5.7133
   XY=    58.9216   YY=    93.8751   ZY=   -84.9341
   XZ=     6.9928   YZ=   -84.8248   ZZ=    87.6535
   Eigenvalues:   -31.7933    57.5470   185.6674
      4  C    Isotropic =    53.9154   Anisotropy =   184.9819
   XX=   -22.0328   YX=    32.6618   ZX=   -34.6019
   XY=    34.8389   YY=   108.9447   ZY=   -70.5564
   XZ=   -42.1125   YZ=   -70.6695   ZZ=    74.8345
   Eigenvalues:   -36.1605    20.6701   177.2367
      5  C    Isotropic =    73.8982   Anisotropy =   182.6895
   XX=    32.0623   YX=    56.0310   ZX=     0.9890
   XY=    54.3795   YY=    97.9064   ZY=   -90.2709
   XZ=     5.8658   YZ=   -93.4163   ZZ=    91.7260
   Eigenvalues:   -28.1284    54.1318   195.6913
      6  C    Isotropic =    72.2408   Anisotropy =   177.7611
   XX=   -13.2406   YX=    31.3078   ZX=   -45.0403
   XY=    31.8241   YY=   128.0695   ZY=   -61.1603
   XZ=   -46.2877   YZ=   -59.5330   ZZ=   101.8934
   Eigenvalues:   -29.9306    55.9047   190.7482
      7  C    Isotropic =   118.4755   Anisotropy =    32.2985
   XX=   114.6877   YX=    -5.9682   ZX=    -5.6777
   XY=    -8.8750   YY=   137.8283   ZY=    -2.2069
   XZ=    -4.7226   YZ=    -1.6097   ZZ=   102.9103
   Eigenvalues:   100.3874   115.0312   140.0078
      8  C    Isotropic =   145.2185   Anisotropy =    35.7740
   XX=   164.5425   YX=    12.0011   ZX=   -11.6073
   XY=     5.2779   YY=   137.7349   ZY=    -2.9075
   XZ=    -4.9457   YZ=    -0.4176   ZZ=   133.3782
   Eigenvalues:   131.2639   135.3239   169.0678
      9  C    Isotropic =    17.2905   Anisotropy =   102.0667
   XX=   -48.3985   YX=   -12.3601   ZX=    21.4183
   XY=   -20.7004   YY=    75.7505   ZY=    26.5474
   XZ=    53.3525   YZ=    21.6721   ZZ=    24.5195
   Eigenvalues:   -68.4241    34.9606    85.3349
     10  O    Isotropic =   131.4107   Anisotropy =   164.0655
   XX=    85.9239   YX=     0.6408   ZX=   -54.0947
   XY=    62.5450   YY=   210.0392   ZY=    61.6055
   XZ=  -190.7094   YZ=    55.0429   ZZ=    98.2690
   Eigenvalues:   -46.0968   199.5412   240.7877
     11  C    Isotropic =   137.2712   Anisotropy =    66.1378
   XX=   178.2776   YX=    -5.0259   ZX=    16.6995
   XY=    -6.7480   YY=   130.4076   ZY=     2.8217
   XZ=    11.6559   YZ=     5.6770   ZZ=   103.1285
   Eigenvalues:    99.6422   130.8084   181.3631
     12  O    Isotropic =   283.9193   Anisotropy =    43.8779
   XX=   296.8600   YX=   -15.7477   ZX=    19.4397
   XY=   -11.0766   YY=   292.2066   ZY=    -1.8297
   XZ=    18.4278   YZ=    -0.6908   ZZ=   262.6913
   Eigenvalues:   253.7503   284.8363   313.1713
     13  C    Isotropic =   181.5049   Anisotropy =    22.0787
   XX=   181.8399   YX=    -3.4425   ZX=    -2.5687
   XY=    -2.1451   YY=   195.2123   ZY=    -6.0329
   XZ=    -5.2367   YZ=    -2.6932   ZZ=   167.4626
   Eigenvalues:   165.6496   182.6411   196.2241
     14  O    Isotropic =   -31.6044   Anisotropy =   546.9265
   XX=  -156.7943   YX=   -24.8225   ZX=    23.6201
   XY=   -13.2779   YY=   248.3576   ZY=   228.1758
   XZ=    38.2623   YZ=   190.9825   ZZ=  -186.3765
   Eigenvalues:  -281.2702  -146.5562   333.0133
     15  C    Isotropic =   181.5638   Anisotropy =    25.7911
   XX=   187.1391   YX=    -5.7784   ZX=     4.6404
   XY=   -11.2031   YY=   191.9506   ZY=     7.5508
   XZ=     3.0765   YZ=     6.8530   ZZ=   165.6017
   Eigenvalues:   162.2896   183.6438   198.7579
     16  H    Isotropic =    23.7602   Anisotropy =     8.0855
   XX=    28.0455   YX=    -2.3674   ZX=    -1.3492
   XY=    -2.4054   YY=    21.0853   ZY=     1.3075
   XZ=    -1.0991   YZ=     1.5127   ZZ=    22.1497
   Eigenvalues:    19.8623    22.2676    29.1505
     17  H    Isotropic =    23.7550   Anisotropy =     4.9616
   XX=    26.7389   YX=    -1.2798   ZX=     0.7452
   XY=    -1.1556   YY=    22.2620   ZY=     1.5283
   XZ=     0.5454   YZ=     1.5654   ZZ=    22.2640
   Eigenvalues:    20.4385    23.7637    27.0627
     18  H    Isotropic =    23.8526   Anisotropy =     4.8020
   XX=    26.0879   YX=    -0.1016   ZX=     1.7017
   XY=    -0.3075   YY=    21.9157   ZY=     1.9139
   XZ=     1.7142   YZ=     1.9377   ZZ=    23.5542
   Eigenvalues:    20.4081    24.0958    27.0539
     19  H    Isotropic =    23.3724   Anisotropy =     9.8105
   XX=    26.1126   YX=     2.0113   ZX=     4.2706
   XY=     1.3431   YY=    21.0496   ZY=     2.7379
   XZ=     4.0760   YZ=     2.3621   ZZ=    22.9549
   Eigenvalues:    19.0117    21.1927    29.9127
     20  H    Isotropic =    23.7116   Anisotropy =     4.2337
   XX=    24.3684   YX=    -0.8611   ZX=     0.3007
   XY=    -0.9467   YY=    22.9225   ZY=     3.0013
   XZ=     0.2957   YZ=     3.1019   ZZ=    23.8440
   Eigenvalues:    20.1142    24.4865    26.5341
     21  H    Isotropic =    26.6447   Anisotropy =     5.0181
   XX=    26.0988   YX=    -2.1168   ZX=    -0.9596
   XY=    -2.8820   YY=    26.5597   ZY=     2.5344
   XZ=     0.1562   YZ=     1.3669   ZZ=    27.2756
   Eigenvalues:    23.4985    26.4456    29.9901
     22  H    Isotropic =    28.7076   Anisotropy =     3.7296
   XX=    29.6276   YX=     0.1914   ZX=     0.1407
   XY=     2.7653   YY=    27.1886   ZY=     2.5928
   XZ=    -1.9301   YZ=     2.8868   ZZ=    29.3066
   Eigenvalues:    24.7054    30.2234    31.1940
     23  H    Isotropic =    26.8438   Anisotropy =     6.1975
   XX=    29.0034   YX=     0.5118   ZX=     3.0646
   XY=     1.2798   YY=    25.2259   ZY=     3.1666
   XZ=     0.8600   YZ=     2.6759   ZZ=    26.3022
   Eigenvalues:    22.7356    26.8204    30.9755
     24  H    Isotropic =    27.7215   Anisotropy =     8.0674
   XX=    30.2980   YX=     2.5339   ZX=    -2.2574
   XY=     2.2975   YY=    29.5293   ZY=    -2.8074
   XZ=    -0.8787   YZ=    -1.7598   ZZ=    23.3370
   Eigenvalues:    22.5065    27.5581    33.0997
     25  H    Isotropic =    28.0268   Anisotropy =    18.0599
   XX=    33.3126   YX=    -0.0484   ZX=     9.3722
   XY=    -1.1304   YY=    25.7883   ZY=    -4.1902
   XZ=     9.8920   YZ=    -2.8963   ZZ=    24.9795
   Eigenvalues:    17.7550    26.2587    40.0667
     26  H    Isotropic =    30.4706   Anisotropy =     9.7069
   XX=    31.5584   YX=     1.1555   ZX=    -2.9296
   XY=     2.8892   YY=    31.2155   ZY=    -4.7459
   XZ=    -4.1435   YZ=    -3.4974   ZZ=    28.6378
   Eigenvalues:    25.0611    29.4087    36.9418
     27  H    Isotropic =    31.2267   Anisotropy =     6.6237
   XX=    34.9793   YX=    -0.8123   ZX=     3.3509
   XY=     0.5615   YY=    30.9823   ZY=    -3.2570
   XZ=     0.1768   YZ=    -3.8197   ZZ=    27.7186
   Eigenvalues:    25.2444    32.7933    35.6426
     28  H    Isotropic =    30.8516   Anisotropy =     8.4613
   XX=    28.2147   YX=    -0.5843   ZX=    -0.3123
   XY=     0.4096   YY=    34.1553   ZY=     4.7521
   XZ=    -1.5591   YZ=     2.8409   ZZ=    30.1847
   Eigenvalues:    27.2638    28.7985    36.4924
     29  H    Isotropic =    30.2048   Anisotropy =     5.9906
   XX=    29.5901   YX=    -0.0283   ZX=    -2.6707
   XY=    -0.3490   YY=    32.9303   ZY=    -3.1970
   XZ=    -2.6309   YZ=    -1.8255   ZZ=    28.0940
   Eigenvalues:    25.4626    30.9533    34.1986
     30  H    Isotropic =    30.5706   Anisotropy =    11.4568
   XX=    37.1320   YX=    -2.6975   ZX=     1.3590
   XY=    -3.5885   YY=    27.9296   ZY=    -0.0373
   XZ=     0.9711   YZ=     0.1010   ZZ=    26.6503
   Eigenvalues:    26.3255    27.1778    38.2085
     31  H    Isotropic =    30.3735   Anisotropy =     8.4975
   XX=    28.1350   YX=    -1.5304   ZX=    -0.4832
   XY=    -1.1011   YY=    29.0078   ZY=     4.3969
   XZ=    -0.7430   YZ=     2.8052   ZZ=    33.9778
   Eigenvalues:    26.5720    28.5101    36.0386
 End of Minotr Frequency-dependent properties file   721 does not exist.
 End of Minotr Frequency-dependent properties file   722 does not exist.

 **********************************************************************

            Population analysis using the SCF density.

 **********************************************************************

 Orbital symmetries:
       Occupied  (A) (A) (A) (A) (A) (A) (A) (A) (A) (A) (A) (A)
                 (A) (A) (A) (A) (A) (A) (A) (A) (A) (A) (A) (A)
                 (A) (A) (A) (A) (A) (A) (A) (A) (A) (A) (A) (A)
                 (A) (A) (A) (A) (A) (A) (A) (A) (A) (A) (A) (A)
                 (A) (A) (A) (A) (A) (A) (A) (A)
       Virtual   (A) (A) (A) (A) (A) (A) (A) (A) (A) (A) (A) (A)
                 (A) (A) (A) (A) (A) (A) (A) (A) (A) (A) (A) (A)
                 (A) (A) (A) (A) (A) (A) (A) (A) (A) (A) (A) (A)
                 (A) (A) (A) (A) (A) (A) (A) (A) (A) (A) (A) (A)
                 (A) (A) (A) (A) (A) (A) (A) (A) (A) (A) (A) (A)
                 (A) (A) (A) (A) (A) (A) (A) (A) (A) (A) (A) (A)
                 (A) (A) (A) (A) (A) (A) (A) (A) (A) (A) (A) (A)
                 (A) (A) (A) (A) (A) (A) (A) (A) (A) (A) (A) (A)
                 (A) (A) (A) (A) (A) (A) (A) (A) (A) (A) (A) (A)
                 (A) (A) (A) (A) (A) (A) (A) (A) (A) (A) (A) (A)
                 (A) (A) (A) (A) (A) (A) (A) (A) (A) (A) (A) (A)
                 (A) (A) (A) (A) (A) (A) (A) (A) (A) (A) (A) (A)
                 (A) (A) (A) (A) (A) (A) (A) (A) (A) (A) (A) (A)
                 (A) (A) (A) (A) (A) (A) (A) (A) (A) (A) (A) (A)
                 (A) (A) (A) (A) (A) (A) (A) (A) (A) (A) (A) (A)
                 (A) (A) (A) (A) (A) (A) (A) (A) (A) (A) (A) (A)
                 (A) (A) (A) (A) (A) (A) (A) (A) (A) (A) (A) (A)
                 (A) (A) (A) (A) (A) (A) (A) (A) (A) (A) (A) (A)
                 (A) (A) (A) (A) (A) (A) (A) (A) (A) (A) (A) (A)
                 (A) (A) (A) (A) (A) (A) (A) (A) (A) (A) (A) (A)
                 (A) (A) (A) (A) (A) (A) (A) (A) (A) (A) (A) (A)
                 (A) (A) (A) (A) (A) (A) (A) (A) (A) (A) (A) (A)
                 (A) (A) (A) (A) (A) (A) (A) (A) (A) (A) (A) (A)
                 (A) (A) (A) (A) (A) (A) (A) (A) (A) (A) (A) (A)
                 (A) (A) (A) (A) (A) (A) (A) (A) (A) (A) (A) (A)
                 (A) (A) (A) (A) (A) (A) (A) (A) (A)
 The electronic state is 1-A.
 Alpha  occ. eigenvalues --  -19.33066 -19.28274 -19.27587 -10.44530 -10.35666
 Alpha  occ. eigenvalues --  -10.35226 -10.31954 -10.31411 -10.30606 -10.30560
 Alpha  occ. eigenvalues --  -10.30528 -10.30480 -10.30411 -10.29333 -10.28770
 Alpha  occ. eigenvalues --   -1.21371  -1.13487  -1.11977  -0.96095  -0.91439
 Alpha  occ. eigenvalues --   -0.86938  -0.84964  -0.84598  -0.77310  -0.76514
 Alpha  occ. eigenvalues --   -0.71765  -0.70115  -0.67017  -0.64941  -0.61654
 Alpha  occ. eigenvalues --   -0.59782  -0.59516  -0.58391  -0.55982  -0.54476
 Alpha  occ. eigenvalues --   -0.53492  -0.53091  -0.51453  -0.51048  -0.50163
 Alpha  occ. eigenvalues --   -0.49527  -0.47751  -0.46840  -0.46491  -0.45531
 Alpha  occ. eigenvalues --   -0.45046  -0.43899  -0.43448  -0.42248  -0.41947
 Alpha  occ. eigenvalues --   -0.41143  -0.38978  -0.37147  -0.35789  -0.33175
 Alpha  occ. eigenvalues --   -0.32632
 Alpha virt. eigenvalues --    0.05106   0.05453   0.06075   0.07383   0.07838
 Alpha virt. eigenvalues --    0.08181   0.08537   0.09335   0.09614   0.10651
 Alpha virt. eigenvalues --    0.10765   0.11172   0.11441   0.11936   0.12818
 Alpha virt. eigenvalues --    0.13026   0.13672   0.13976   0.14425   0.15009
 Alpha virt. eigenvalues --    0.16057   0.16484   0.16712   0.17143   0.17719
 Alpha virt. eigenvalues --    0.18011   0.19174   0.19426   0.19762   0.20383
 Alpha virt. eigenvalues --    0.20562   0.20762   0.21483   0.21902   0.22195
 Alpha virt. eigenvalues --    0.22842   0.23187   0.24138   0.24276   0.25223
 Alpha virt. eigenvalues --    0.25499   0.25869   0.26328   0.26812   0.27140
 Alpha virt. eigenvalues --    0.27710   0.27768   0.28491   0.28969   0.29049
 Alpha virt. eigenvalues --    0.29600   0.30168   0.30520   0.31345   0.31378
 Alpha virt. eigenvalues --    0.31600   0.31948   0.32591   0.33178   0.34016
 Alpha virt. eigenvalues --    0.34256   0.34504   0.35025   0.35716   0.35815
 Alpha virt. eigenvalues --    0.36995   0.37276   0.37517   0.37806   0.38539
 Alpha virt. eigenvalues --    0.38837   0.39637   0.40047   0.40913   0.41308
 Alpha virt. eigenvalues --    0.42331   0.42745   0.43199   0.43726   0.44414
 Alpha virt. eigenvalues --    0.44649   0.46318   0.46617   0.47731   0.48403
 Alpha virt. eigenvalues --    0.49043   0.49493   0.50905   0.52405   0.54139
 Alpha virt. eigenvalues --    0.54655   0.56576   0.61123   0.66538   0.70189
 Alpha virt. eigenvalues --    0.72356   0.73218   0.75108   0.76005   0.76462
 Alpha virt. eigenvalues --    0.77101   0.77681   0.79051   0.79926   0.80754
 Alpha virt. eigenvalues --    0.81466   0.82374   0.83461   0.83770   0.84234
 Alpha virt. eigenvalues --    0.85076   0.85679   0.86865   0.87338   0.89369
 Alpha virt. eigenvalues --    0.89889   0.91068   0.91462   0.92762   0.95248
 Alpha virt. eigenvalues --    0.97100   0.98621   0.99860   1.00097   1.01340
 Alpha virt. eigenvalues --    1.02439   1.04530   1.05625   1.06596   1.07073
 Alpha virt. eigenvalues --    1.08825   1.09466   1.11225   1.11368   1.12020
 Alpha virt. eigenvalues --    1.14213   1.14397   1.16652   1.18093   1.19149
 Alpha virt. eigenvalues --    1.20436   1.21676   1.22126   1.23220   1.24212
 Alpha virt. eigenvalues --    1.25451   1.26614   1.28255   1.28862   1.30849
 Alpha virt. eigenvalues --    1.32035   1.32760   1.33847   1.36171   1.38333
 Alpha virt. eigenvalues --    1.39340   1.40426   1.41639   1.43280   1.43848
 Alpha virt. eigenvalues --    1.44384   1.45646   1.46704   1.48314   1.49330
 Alpha virt. eigenvalues --    1.49680   1.51238   1.52662   1.54039   1.55807
 Alpha virt. eigenvalues --    1.57358   1.60410   1.61298   1.64154   1.65661
 Alpha virt. eigenvalues --    1.68143   1.71632   1.72058   1.74287   1.75929
 Alpha virt. eigenvalues --    1.76811   1.79629   1.81280   1.84780   1.86563
 Alpha virt. eigenvalues --    1.90292   1.90854   1.92743   1.94849   1.95543
 Alpha virt. eigenvalues --    1.96606   1.96898   1.98846   1.99517   2.00489
 Alpha virt. eigenvalues --    2.01186   2.02103   2.04736   2.05167   2.06137
 Alpha virt. eigenvalues --    2.07185   2.08600   2.09191   2.10295   2.10488
 Alpha virt. eigenvalues --    2.12159   2.13292   2.14722   2.16063   2.18526
 Alpha virt. eigenvalues --    2.19291   2.20090   2.21026   2.22461   2.23723
 Alpha virt. eigenvalues --    2.24863   2.25397   2.25608   2.29055   2.30568
 Alpha virt. eigenvalues --    2.31383   2.36239   2.38604   2.39742   2.40890
 Alpha virt. eigenvalues --    2.42296   2.42822   2.43569   2.46474   2.48205
 Alpha virt. eigenvalues --    2.49235   2.50454   2.50891   2.53799   2.54201
 Alpha virt. eigenvalues --    2.55980   2.56395   2.57454   2.60429   2.62276
 Alpha virt. eigenvalues --    2.63045   2.64176   2.65891   2.68043   2.68827
 Alpha virt. eigenvalues --    2.69549   2.70358   2.72456   2.73729   2.74720
 Alpha virt. eigenvalues --    2.77415   2.78584   2.79894   2.81599   2.83350
 Alpha virt. eigenvalues --    2.83780   2.84418   2.86559   2.88877   2.89639
 Alpha virt. eigenvalues --    2.90559   2.92421   2.93502   2.95532   2.96161
 Alpha virt. eigenvalues --    2.99941   3.01927   3.02068   3.06091   3.09964
 Alpha virt. eigenvalues --    3.13047   3.15557   3.16772   3.18628   3.27532
 Alpha virt. eigenvalues --    3.28521   3.31316   3.36175   3.37195   3.38593
 Alpha virt. eigenvalues --    3.38705   3.43405   3.44972   3.48765   3.51916
 Alpha virt. eigenvalues --    3.54409   3.58569   3.59015   3.60916   3.62609
 Alpha virt. eigenvalues --    3.65377   3.65696   3.67763   3.99948   4.39221
 Alpha virt. eigenvalues --    4.41451   4.42682   4.45491   4.51908   4.54686
 Alpha virt. eigenvalues --    4.57446   4.60456   4.65029   4.66010   4.71638
 Alpha virt. eigenvalues --    4.76769   4.82104   4.93493   4.97632
          Condensed to atoms (all electrons):
              1          2          3          4          5          6
     1  C   15.125276  -0.202192  -1.514573  -4.897016  -6.663535   0.123323
     2  C   -0.202192   6.662577   0.188776   0.113270  -0.818836   0.249693
     3  C   -1.514573   0.188776   6.582449   0.685939   0.324923   0.366443
     4  C   -4.897016   0.113270   0.685939  13.196400   0.635558  -0.573332
     5  C   -6.663535  -0.818836   0.324923   0.635558  14.872994   0.400754
     6  C    0.123323   0.249693   0.366443  -0.573332   0.400754   5.328412
     7  C    4.776863  -0.354590  -0.803377  -4.060536  -3.742321  -0.015679
     8  C   -1.142045   0.179861   0.086814   0.614604   1.156239  -0.035999
     9  C    0.447868  -0.043919  -0.006592  -0.312729  -0.502767  -0.002258
    10  O    0.001360  -0.000884  -0.000579  -0.015598  -0.004500   0.000118
    11  C    0.002397  -0.000009   0.000612  -0.003541  -0.006757  -0.000245
    12  O   -0.052716   0.073214  -0.028134   0.102340  -0.059422  -0.004459
    13  C   -0.137050  -0.051091   0.009579   0.203973   0.163565   0.024347
    14  O   -0.027462   0.002528  -0.001004   0.028406   0.033007  -0.000188
    15  C    0.002611  -0.001264  -0.000052  -0.000895  -0.005425  -0.000002
    16  H    0.237828   0.003700   0.036338   0.058731  -0.000577  -0.006879
    17  H    0.010274   0.273320  -0.005507   0.028134   0.007887   0.010400
    18  H    0.049400  -0.000407   0.261199   0.009338  -0.007870   0.017041
    19  H    0.045040  -0.041642  -0.007529   0.037755   0.211457  -0.012237
    20  H   -0.009071   0.023344   0.030704   0.005082  -0.006205   0.281608
    21  H    0.121643   0.002469   0.050358  -0.085563  -0.125361  -0.004825
    22  H    0.035544  -0.003954   0.002935  -0.002254  -0.052414  -0.001630
    23  H   -0.000117   0.000000  -0.000002  -0.001384   0.000185   0.000000
    24  H   -0.000004   0.000002  -0.000002   0.000135  -0.000010   0.000000
    25  H    0.006011  -0.010158   0.002851   0.015365   0.010590   0.000653
    26  H    0.007980  -0.001670  -0.002140  -0.018728  -0.009597   0.000187
    27  H   -0.010037  -0.005615   0.002411   0.049563   0.030313   0.005595
    28  H    0.031658  -0.001508   0.002379  -0.039184  -0.003550   0.000855
    29  H   -0.000021   0.000000  -0.000003   0.000969  -0.000018   0.000001
    30  H   -0.000002   0.000000   0.000000  -0.000062  -0.000002   0.000000
    31  H    0.000009   0.000002   0.000001  -0.000353   0.000068   0.000000
              7          8          9         10         11         12
     1  C    4.776863  -1.142045   0.447868   0.001360   0.002397  -0.052716
     2  C   -0.354590   0.179861  -0.043919  -0.000884  -0.000009   0.073214
     3  C   -0.803377   0.086814  -0.006592  -0.000579   0.000612  -0.028134
     4  C   -4.060536   0.614604  -0.312729  -0.015598  -0.003541   0.102340
     5  C   -3.742321   1.156239  -0.502767  -0.004500  -0.006757  -0.059422
     6  C   -0.015679  -0.035999  -0.002258   0.000118  -0.000245  -0.004459
     7  C   11.568188  -1.982302   0.640925   0.139077  -0.032296   0.028798
     8  C   -1.982302   9.398705  -1.252879  -0.335403  -0.118240  -0.066339
     9  C    0.640925  -1.252879   5.957208   0.289764  -0.028831  -0.004437
    10  O    0.139077  -0.335403   0.289764   8.452360   0.053205  -0.008125
    11  C   -0.032296  -0.118240  -0.028831   0.053205   5.156862   0.004763
    12  O    0.028798  -0.066339  -0.004437  -0.008125   0.004763   8.325488
    13  C   -0.289739  -0.539606   0.038746  -0.004384   0.030503   0.060244
    14  O   -0.054068   0.037325   0.452926  -0.134226   0.017172   0.006463
    15  C    0.021124  -0.037943  -0.008568  -0.063649   0.274640  -0.003665
    16  H   -0.009588  -0.001602  -0.006092   0.000006  -0.000034  -0.000089
    17  H    0.002550  -0.000615   0.000219   0.000000   0.000000  -0.000031
    18  H   -0.002026  -0.000198   0.000023   0.000000   0.000000   0.000008
    19  H    0.079473  -0.005753   0.018218   0.000030   0.000063   0.000505
    20  H    0.001232  -0.000244  -0.000028   0.000000   0.000000  -0.000001
    21  H    0.313791   0.074854  -0.009153  -0.001258   0.000790  -0.045604
    22  H   -0.002351   0.425288  -0.027332  -0.003476  -0.003553  -0.002455
    23  H   -0.002928   0.005631  -0.004119  -0.034758   0.407342   0.000013
    24  H    0.000880  -0.002770   0.017395  -0.060894   0.417193  -0.000012
    25  H    0.044446  -0.084135   0.022819   0.000701  -0.000610   0.230229
    26  H    0.057064  -0.179273   0.044339   0.008554   0.004977  -0.000594
    27  H   -0.068133  -0.068471  -0.014729  -0.000258  -0.000228  -0.000115
    28  H   -0.015369   0.039986  -0.030041  -0.002391  -0.002029   0.000172
    29  H    0.000977   0.001545  -0.003922  -0.006238  -0.045759  -0.000158
    30  H   -0.000286   0.003030   0.003707   0.007257  -0.047268   0.000000
    31  H   -0.001379  -0.000663   0.009384  -0.003548  -0.040394   0.000042
             13         14         15         16         17         18
     1  C   -0.137050  -0.027462   0.002611   0.237828   0.010274   0.049400
     2  C   -0.051091   0.002528  -0.001264   0.003700   0.273320  -0.000407
     3  C    0.009579  -0.001004  -0.000052   0.036338  -0.005507   0.261199
     4  C    0.203973   0.028406  -0.000895   0.058731   0.028134   0.009338
     5  C    0.163565   0.033007  -0.005425  -0.000577   0.007887  -0.007870
     6  C    0.024347  -0.000188  -0.000002  -0.006879   0.010400   0.017041
     7  C   -0.289739  -0.054068   0.021124  -0.009588   0.002550  -0.002026
     8  C   -0.539606   0.037325  -0.037943  -0.001602  -0.000615  -0.000198
     9  C    0.038746   0.452926  -0.008568  -0.006092   0.000219   0.000023
    10  O   -0.004384  -0.134226  -0.063649   0.000006   0.000000   0.000000
    11  C    0.030503   0.017172   0.274640  -0.000034   0.000000   0.000000
    12  O    0.060244   0.006463  -0.003665  -0.000089  -0.000031   0.000008
    13  C    5.880665  -0.051546   0.002452   0.005480  -0.000067   0.000023
    14  O   -0.051546   8.251830  -0.037416   0.000015   0.000000   0.000000
    15  C    0.002452  -0.037416   5.196006   0.000001   0.000000   0.000000
    16  H    0.005480   0.000015   0.000001   0.509031   0.000011  -0.003923
    17  H   -0.000067   0.000000   0.000000   0.000011   0.496933  -0.000122
    18  H    0.000023   0.000000   0.000000  -0.003923  -0.000122   0.497528
    19  H   -0.006072  -0.000017  -0.000035  -0.000111  -0.004010   0.000011
    20  H   -0.000001   0.000000   0.000000  -0.000121  -0.003835  -0.003885
    21  H   -0.021479  -0.001767   0.000274   0.001935   0.000002  -0.000006
    22  H   -0.059325   0.002773   0.002026  -0.000007   0.000002   0.000000
    23  H   -0.003790  -0.000632  -0.033448   0.000000   0.000000   0.000000
    24  H    0.001296   0.000222  -0.041315   0.000000   0.000000   0.000000
    25  H    0.000515   0.011326   0.000380  -0.000003   0.000000   0.000000
    26  H    0.449147  -0.000249  -0.000382   0.000006   0.000000   0.000000
    27  H    0.442424  -0.000270  -0.000036  -0.000125  -0.000002  -0.000005
    28  H    0.371607   0.000864   0.000035  -0.000153   0.000000   0.000000
    29  H    0.000202   0.002008   0.413784   0.000000   0.000000   0.000000
    30  H   -0.000020  -0.000237   0.397900   0.000000   0.000000   0.000000
    31  H   -0.000481  -0.000664   0.401114   0.000000   0.000000   0.000000
             19         20         21         22         23         24
     1  C    0.045040  -0.009071   0.121643   0.035544  -0.000117  -0.000004
     2  C   -0.041642   0.023344   0.002469  -0.003954   0.000000   0.000002
     3  C   -0.007529   0.030704   0.050358   0.002935  -0.000002  -0.000002
     4  C    0.037755   0.005082  -0.085563  -0.002254  -0.001384   0.000135
     5  C    0.211457  -0.006205  -0.125361  -0.052414   0.000185  -0.000010
     6  C   -0.012237   0.281608  -0.004825  -0.001630   0.000000   0.000000
     7  C    0.079473   0.001232   0.313791  -0.002351  -0.002928   0.000880
     8  C   -0.005753  -0.000244   0.074854   0.425288   0.005631  -0.002770
     9  C    0.018218  -0.000028  -0.009153  -0.027332  -0.004119   0.017395
    10  O    0.000030   0.000000  -0.001258  -0.003476  -0.034758  -0.060894
    11  C    0.000063   0.000000   0.000790  -0.003553   0.407342   0.417193
    12  O    0.000505  -0.000001  -0.045604  -0.002455   0.000013  -0.000012
    13  C   -0.006072  -0.000001  -0.021479  -0.059325  -0.003790   0.001296
    14  O   -0.000017   0.000000  -0.001767   0.002773  -0.000632   0.000222
    15  C   -0.000035   0.000000   0.000274   0.002026  -0.033448  -0.041315
    16  H   -0.000111  -0.000121   0.001935  -0.000007   0.000000   0.000000
    17  H   -0.004010  -0.003835   0.000002   0.000002   0.000000   0.000000
    18  H    0.000011  -0.003885  -0.000006   0.000000   0.000000   0.000000
    19  H    0.504353  -0.000117  -0.000034  -0.000114   0.000000   0.000000
    20  H   -0.000117   0.499567   0.000000   0.000000   0.000000   0.000000
    21  H   -0.000034   0.000000   0.568352   0.003126  -0.000004   0.000000
    22  H   -0.000114   0.000000   0.003126   0.475902  -0.000019  -0.000005
    23  H    0.000000   0.000000  -0.000004  -0.000019   0.521491  -0.031463
    24  H    0.000000   0.000000   0.000000  -0.000005  -0.031463   0.526718
    25  H    0.000032   0.000000  -0.008009  -0.000001   0.000002   0.000000
    26  H    0.000003   0.000000  -0.000081  -0.002262   0.000014   0.000006
    27  H    0.000002   0.000000  -0.000027  -0.003987   0.000000  -0.000001
    28  H   -0.000001   0.000000   0.001883   0.003556  -0.000003  -0.000002
    29  H    0.000000   0.000000   0.000000   0.000002  -0.004877   0.003901
    30  H    0.000000   0.000000   0.000000  -0.000001  -0.001069  -0.001171
    31  H    0.000000   0.000000   0.000000  -0.000018   0.003811  -0.005089
             25         26         27         28         29         30
     1  C    0.006011   0.007980  -0.010037   0.031658  -0.000021  -0.000002
     2  C   -0.010158  -0.001670  -0.005615  -0.001508   0.000000   0.000000
     3  C    0.002851  -0.002140   0.002411   0.002379  -0.000003   0.000000
     4  C    0.015365  -0.018728   0.049563  -0.039184   0.000969  -0.000062
     5  C    0.010590  -0.009597   0.030313  -0.003550  -0.000018  -0.000002
     6  C    0.000653   0.000187   0.005595   0.000855   0.000001   0.000000
     7  C    0.044446   0.057064  -0.068133  -0.015369   0.000977  -0.000286
     8  C   -0.084135  -0.179273  -0.068471   0.039986   0.001545   0.003030
     9  C    0.022819   0.044339  -0.014729  -0.030041  -0.003922   0.003707
    10  O    0.000701   0.008554  -0.000258  -0.002391  -0.006238   0.007257
    11  C   -0.000610   0.004977  -0.000228  -0.002029  -0.045759  -0.047268
    12  O    0.230229  -0.000594  -0.000115   0.000172  -0.000158   0.000000
    13  C    0.000515   0.449147   0.442424   0.371607   0.000202  -0.000020
    14  O    0.011326  -0.000249  -0.000270   0.000864   0.002008  -0.000237
    15  C    0.000380  -0.000382  -0.000036   0.000035   0.413784   0.397900
    16  H   -0.000003   0.000006  -0.000125  -0.000153   0.000000   0.000000
    17  H    0.000000   0.000000  -0.000002   0.000000   0.000000   0.000000
    18  H    0.000000   0.000000  -0.000005   0.000000   0.000000   0.000000
    19  H    0.000032   0.000003   0.000002  -0.000001   0.000000   0.000000
    20  H    0.000000   0.000000   0.000000   0.000000   0.000000   0.000000
    21  H   -0.008009  -0.000081  -0.000027   0.001883   0.000000   0.000000
    22  H   -0.000001  -0.002262  -0.003987   0.003556   0.000002  -0.000001
    23  H    0.000002   0.000014   0.000000  -0.000003  -0.004877  -0.001069
    24  H    0.000000   0.000006  -0.000001  -0.000002   0.003901  -0.001171
    25  H    0.356345  -0.000001  -0.000001   0.000022  -0.000019   0.000000
    26  H   -0.000001   0.507484  -0.023412  -0.025204   0.000000   0.000000
    27  H   -0.000001  -0.023412   0.499849  -0.024077   0.000000   0.000000
    28  H    0.000022  -0.025204  -0.024077   0.505806   0.000000   0.000000
    29  H   -0.000019   0.000000   0.000000   0.000000   0.508818  -0.021875
    30  H    0.000000   0.000000   0.000000   0.000000  -0.021875   0.504313
    31  H    0.000000   0.000000   0.000000   0.000000  -0.029134  -0.022674
             31
     1  C    0.000009
     2  C    0.000002
     3  C    0.000001
     4  C   -0.000353
     5  C    0.000068
     6  C    0.000000
     7  C   -0.001379
     8  C   -0.000663
     9  C    0.009384
    10  O   -0.003548
    11  C   -0.040394
    12  O    0.000042
    13  C   -0.000481
    14  O   -0.000664
    15  C    0.401114
    16  H    0.000000
    17  H    0.000000
    18  H    0.000000
    19  H    0.000000
    20  H    0.000000
    21  H    0.000000
    22  H   -0.000018
    23  H    0.003811
    24  H   -0.005089
    25  H    0.000000
    26  H    0.000000
    27  H    0.000000
    28  H    0.000000
    29  H   -0.029134
    30  H   -0.022674
    31  H    0.515545
 Mulliken atomic charges:
              1
     1  C   -0.369243
     2  C   -0.235017
     3  C   -0.265214
     4  C    0.225614
     5  C    0.161627
     6  C   -0.151694
     7  C   -0.238425
     8  C   -0.169403
     9  C    0.314852
    10  O   -0.272262
    11  C   -0.040725
    12  O   -0.555920
    13  C   -0.520117
    14  O   -0.537119
    15  C   -0.478252
    16  H    0.176219
    17  H    0.184459
    18  H    0.183871
    19  H    0.180728
    20  H    0.181973
    21  H    0.163693
    22  H    0.214001
    23  H    0.180125
    24  H    0.174991
    25  H    0.400649
    26  H    0.183830
    27  H    0.189370
    28  H    0.184688
    29  H    0.179817
    30  H    0.178459
    31  H    0.174422
 Sum of Mulliken atomic charges =   0.00000
 Mulliken charges with hydrogens summed into heavy atoms:
              1
     1  C   -0.193023
     2  C   -0.050558
     3  C   -0.081343
     4  C    0.225614
     5  C    0.342356
     6  C    0.030279
     7  C   -0.074732
     8  C    0.044598
     9  C    0.314852
    10  O   -0.272262
    11  C    0.314391
    12  O   -0.155270
    13  C    0.037771
    14  O   -0.537119
    15  C    0.054447
 Sum of Mulliken charges with hydrogens summed into heavy atoms =   0.00000
 Electronic spatial extent (au):  <R**2>=           4343.3972
 Charge=              0.0000 electrons
 Dipole moment (field-independent basis, Debye):
    X=              1.6844    Y=              2.5693    Z=             -1.5586  Tot=              3.4449
 Quadrupole moment (field-independent basis, Debye-Ang):
   XX=            -72.4643   YY=            -91.8518   ZZ=            -90.2467
   XY=             -2.4133   XZ=             -1.6029   YZ=              5.4933
 Traceless Quadrupole moment (field-independent basis, Debye-Ang):
   XX=             12.3900   YY=             -6.9976   ZZ=             -5.3924
   XY=             -2.4133   XZ=             -1.6029   YZ=              5.4933
 Octapole moment (field-independent basis, Debye-Ang**2):
  XXX=             65.1115  YYY=              6.9943  ZZZ=              1.7548  XYY=             18.7259
  XXY=             15.5654  XXZ=            -22.6282  XZZ=             -2.0896  YZZ=             -3.6996
  YYZ=              0.5983  XYZ=            -15.7192
 Hexadecapole moment (field-independent basis, Debye-Ang**3):
 XXXX=          -4110.7086 YYYY=           -603.9838 ZZZZ=           -459.8987 XXXY=            -20.2168
 XXXZ=             11.7083 YYYX=             -4.0750 YYYZ=              1.7704 ZZZX=             -7.2609
 ZZZY=              6.3638 XXYY=           -895.9474 XXZZ=           -885.9031 YYZZ=           -157.2207
 XXYZ=             53.8555 YYXZ=              7.2339 ZZXY=              4.3073
 N-N= 9.925934882387D+02 E-N=-3.597042559026D+03  KE= 6.858863413996D+02
 1\1\GINC-COMPUTE-8-6\SP\RwB97XD\6-31+G(d,p)\C12H16O3\ELUCIANO.IQUIR\17
 -May-2022\0\\# wb97xd/6-31+g** scrf=(pcm,solvent=chloroform,smd,dovacu
 um) nmr\\comment\\0,1\C,0,-0.430755407,-3.062437982,-0.463620103\C,0,-
 3.162420114,-2.502884884,-0.511411124\C,0,-1.359556925,-4.088698547,-0
 .27881889\C,0,-0.85693473,-1.741299033,-0.671755404\C,0,-2.235239167,-
 1.475891062,-0.69548122\C,0,-2.724222192,-3.808406757,-0.301176218\C,0
 ,0.15933812,-0.629070032,-0.843109007\C,0,0.230760322,0.317748858,0.37
 1972855\C,0,1.266335459,1.391323049,0.100058755\O,0,1.190314889,2.3745
 00368,1.040899354\C,0,2.108714919,3.466830216,0.886681809\O,0,-0.21898
 5479,0.10666151,-2.013023023\C,0,0.598372011,-0.41119956,1.665347087\O
 ,0,2.042449292,1.385873194,-0.847737089\C,0,1.522559013,4.515845208,-0
 .03930345\H,0,0.629804884,-3.30287697,-0.444493176\H,0,-4.226342863,-2
 .28326944,-0.539032227\H,0,-1.017822879,-5.108217848,-0.120620297\H,0,
 -2.590283847,-0.462675456,-0.873213903\H,0,-3.446506631,-4.608150732,-
 0.161395795\H,0,1.142987196,-1.070373257,-1.050637068\H,0,-0.732461864
 ,0.831821,0.48804906\H,0,3.085504563,3.118402559,0.532140429\H,0,2.262
 579274,3.897989322,1.881282599\H,0,0.578753985,0.596197251,-2.29406945
 8\H,0,0.712369765,0.290012409,2.499198542\H,0,-0.173550869,-1.13100446
 3,1.954037037\H,0,1.547924167,-0.947648659,1.559190282\H,0,1.358711002
 ,4.108001871,-1.041759561\H,0,2.188952141,5.379393922,-0.118259858\H,0
 ,0.548651965,4.853503945,0.330059061\\Version=EM64L-G09RevC.01\State=1
 -A\HF=-692.4470153\RMSD=9.261e-09\Dipole=0.358768,0.407246,1.2419107\Q
 uadrupole=0.1408947,8.4923898,-8.6332845,3.2248299,0.9770385,0.7908418
 \PG=C01 [X(C12H16O3)]\\@


 IT IS NOT EASY TO DESCRIBE
     THE SEA WITH THE MOUTH

                   -- KOKYU
 Job cpu time:  0 days  1 hours 42 minutes  7.4 seconds.
 File lengths (MBytes):  RWF=    124 Int=      0 D2E=      0 Chk=      9 Scr=      1
 Normal termination of Gaussian 09 at Tue May 17 17:25:22 2022.
