 Entering Gaussian System, Link 0=g09
 Input=/home/eluciano.iquir/wb9/73b_032.gjc
 Output=/home/eluciano.iquir/wb9/73b_032.log
 Initial command:
 /share/apps/Gaussian09/EM64T.SSE4.2-enabled/g09/l1.exe /tmp/Gau-32507.inp -scrdir=/tmp/
 Entering Link 1 = /share/apps/Gaussian09/EM64T.SSE4.2-enabled/g09/l1.exe PID=     32508.
  
 Copyright (c) 1988,1990,1992,1993,1995,1998,2003,2009,2011,
            Gaussian, Inc.  All Rights Reserved.
  
 This is part of the Gaussian(R) 09 program.  It is based on
 the Gaussian(R) 03 system (copyright 2003, Gaussian, Inc.),
 the Gaussian(R) 98 system (copyright 1998, Gaussian, Inc.),
 the Gaussian(R) 94 system (copyright 1995, Gaussian, Inc.),
 the Gaussian 92(TM) system (copyright 1992, Gaussian, Inc.),
 the Gaussian 90(TM) system (copyright 1990, Gaussian, Inc.),
 the Gaussian 88(TM) system (copyright 1988, Gaussian, Inc.),
 the Gaussian 86(TM) system (copyright 1986, Carnegie Mellon
 University), and the Gaussian 82(TM) system (copyright 1983,
 Carnegie Mellon University). Gaussian is a federally registered
 trademark of Gaussian, Inc.
  
 This software contains proprietary and confidential information,
 including trade secrets, belonging to Gaussian, Inc.
  
 This software is provided under written license and may be
 used, copied, transmitted, or stored only in accord with that
 written license.
  
 The following legend is applicable only to US Government
 contracts under FAR:
  
                    RESTRICTED RIGHTS LEGEND
  
 Use, reproduction and disclosure by the US Government is
 subject to restrictions as set forth in subparagraphs (a)
 and (c) of the Commercial Computer Software - Restricted
 Rights clause in FAR 52.227-19.
  
 Gaussian, Inc.
 340 Quinnipiac St., Bldg. 40, Wallingford CT 06492
  
  
 ---------------------------------------------------------------
 Warning -- This program may not be used in any manner that
 competes with the business of Gaussian, Inc. or will provide
 assistance to any competitor of Gaussian, Inc.  The licensee
 of this program is prohibited from giving any competitor of
 Gaussian, Inc. access to this program.  By using this program,
 the user acknowledges that Gaussian, Inc. is engaged in the
 business of creating and licensing software in the field of
 computational chemistry and represents and warrants to the
 licensee that it is not a competitor of Gaussian, Inc. and that
 it will not use this program in any manner prohibited above.
 ---------------------------------------------------------------
  

 Cite this work as:
 Gaussian 09, Revision C.01,
 M. J. Frisch, G. W. Trucks, H. B. Schlegel, G. E. Scuseria, 
 M. A. Robb, J. R. Cheeseman, G. Scalmani, V. Barone, B. Mennucci, 
 G. A. Petersson, H. Nakatsuji, M. Caricato, X. Li, H. P. Hratchian, 
 A. F. Izmaylov, J. Bloino, G. Zheng, J. L. Sonnenberg, M. Hada, 
 M. Ehara, K. Toyota, R. Fukuda, J. Hasegawa, M. Ishida, T. Nakajima, 
 Y. Honda, O. Kitao, H. Nakai, T. Vreven, J. A. Montgomery, Jr., 
 J. E. Peralta, F. Ogliaro, M. Bearpark, J. J. Heyd, E. Brothers, 
 K. N. Kudin, V. N. Staroverov, T. Keith, R. Kobayashi, J. Normand, 
 K. Raghavachari, A. Rendell, J. C. Burant, S. S. Iyengar, J. Tomasi, 
 M. Cossi, N. Rega, J. M. Millam, M. Klene, J. E. Knox, J. B. Cross, 
 V. Bakken, C. Adamo, J. Jaramillo, R. Gomperts, R. E. Stratmann, 
 O. Yazyev, A. J. Austin, R. Cammi, C. Pomelli, J. W. Ochterski, 
 R. L. Martin, K. Morokuma, V. G. Zakrzewski, G. A. Voth, 
 P. Salvador, J. J. Dannenberg, S. Dapprich, A. D. Daniels, 
 O. Farkas, J. B. Foresman, J. V. Ortiz, J. Cioslowski, 
 and D. J. Fox, Gaussian, Inc., Wallingford CT, 2010.
 
 ******************************************
 Gaussian 09:  EM64L-G09RevC.01 23-Sep-2011
                17-May-2022 
 ******************************************
 %nprocshared=4
 Will use up to    4 processors via shared memory.
 ----------------------------------------------------------------
 # wb97xd/6-31+g** scrf=(pcm,solvent=chloroform,smd,dovacuum) nmr
 ----------------------------------------------------------------
 1/38=1/1;
 2/12=2,17=6,18=5,40=1/2;
 3/5=1,6=6,7=111,11=2,16=1,25=1,30=1,70=32101,72=7,74=-58/1,2,8,3;
 4//1;
 5/5=2,38=5,53=7/2;
 8/6=1,10=90,11=11/1;
 10/13=100,45=16/2;
 6/7=2,8=2,9=2,10=2,28=1/1;
 99/9=1/99;
 -------
 comment
 -------
 Charge =  0 Multiplicity = 1
 Symbolic Z-Matrix:
 6                    -1.23648   0.95312  -1.29684 
 6                    -0.85328  -1.2107   -3.00833 
 6                    -1.03797   1.16374  -2.66461 
 6                    -1.22127  -0.34275  -0.75468 
 6                    -1.04959  -1.42106  -1.64146 
 6                    -0.84137   0.08304  -3.51891 
 6                    -1.45057  -0.59953   0.72998 
 6                    -0.96339   0.48843   1.7102 
 6                     0.47806   0.88516   1.46578 
 8                     1.28517  -0.20449   1.3314 
 6                     2.66612   0.0725    1.05223 
 8                    -0.90491  -1.87062   1.10571 
 6                    -1.12622   0.08567   3.17515 
 8                     0.85474   2.04996   1.42479 
 6                     2.86831   0.24411  -0.44181 
 1                    -1.4023    1.82714  -0.67126 
 1                    -0.71655  -2.0598   -3.67296 
 1                    -1.04214   2.17566  -3.06246 
 1                    -1.07334  -2.44518  -1.2718 
 1                    -0.69016   0.24863  -4.58215 
 1                    -2.53619  -0.69935   0.85761 
 1                    -1.56502   1.39166   1.544 
 1                     3.24204  -0.78917   1.40515 
 1                     3.01945   0.94695   1.61031 
 1                     0.06155  -1.79879   0.98554 
 1                    -0.8448    0.914     3.835 
 1                    -2.16577  -0.18048   3.39201 
 1                    -0.49031  -0.76611   3.43936 
 1                     2.50651  -0.63677  -0.9824 
 1                     3.92624   0.39253  -0.67562 
 1                     2.30342   1.1025   -0.81893 
 
                          Input orientation:                          
 ---------------------------------------------------------------------
 Center     Atomic      Atomic             Coordinates (Angstroms)
 Number     Number       Type             X           Y           Z
 ---------------------------------------------------------------------
      1          6           0       -1.236482    0.953125   -1.296843
      2          6           0       -0.853276   -1.210700   -3.008329
      3          6           0       -1.037968    1.163741   -2.664611
      4          6           0       -1.221272   -0.342749   -0.754678
      5          6           0       -1.049586   -1.421060   -1.641455
      6          6           0       -0.841370    0.083044   -3.518914
      7          6           0       -1.450569   -0.599529    0.729984
      8          6           0       -0.963389    0.488430    1.710197
      9          6           0        0.478063    0.885158    1.465785
     10          8           0        1.285169   -0.204485    1.331405
     11          6           0        2.666122    0.072495    1.052230
     12          8           0       -0.904909   -1.870620    1.105712
     13          6           0       -1.126221    0.085667    3.175150
     14          8           0        0.854735    2.049959    1.424792
     15          6           0        2.868314    0.244115   -0.441813
     16          1           0       -1.402301    1.827142   -0.671262
     17          1           0       -0.716546   -2.059797   -3.672957
     18          1           0       -1.042143    2.175656   -3.062460
     19          1           0       -1.073338   -2.445181   -1.271801
     20          1           0       -0.690158    0.248626   -4.582147
     21          1           0       -2.536187   -0.699351    0.857605
     22          1           0       -1.565020    1.391658    1.543999
     23          1           0        3.242042   -0.789170    1.405149
     24          1           0        3.019453    0.946946    1.610308
     25          1           0        0.061547   -1.798791    0.985540
     26          1           0       -0.844802    0.913999    3.835002
     27          1           0       -2.165768   -0.180480    3.392005
     28          1           0       -0.490312   -0.766109    3.439357
     29          1           0        2.506515   -0.636769   -0.982402
     30          1           0        3.926237    0.392534   -0.675622
     31          1           0        2.303421    1.102496   -0.818926
 ---------------------------------------------------------------------
                    Distance matrix (angstroms):
                    1          2          3          4          5
     1  C    0.000000
     2  C    2.785349   0.000000
     3  C    1.398055   2.406287   0.000000
     4  C    1.404799   2.442888   2.439457   0.000000
     5  C    2.406333   1.396829   2.779959   1.406629   0.000000
     6  C    2.418833   1.390903   1.391542   2.822521   2.414650
     7  C    2.562146   3.834745   3.847419   1.524052   2.541540
     8  C    3.054964   5.016338   4.427251   2.613995   3.858387
     9  C    3.252137   5.116911   4.408642   3.053842   4.160203
    10  O    3.821841   4.941528   4.820492   3.263910   3.971024
    11  C    4.639393   5.524571   5.359664   4.306876   4.826296
    12  O    3.722330   4.166952   4.841527   2.428071   2.787465
    13  C    4.556683   6.323802   5.939094   3.954254   5.047354
    14  O    3.603266   5.762096   4.592485   3.845119   5.007622
    15  C    4.252425   4.749075   4.587546   4.143308   4.422882
    16  H    1.087545   3.871924   2.132201   2.179026   3.408298
    17  H    3.872202   1.086919   3.392826   3.423354   2.155435
    18  H    2.156329   3.392050   1.087324   3.420571   3.867256
    19  H    3.402312   2.141938   3.868525   2.170143   1.089052
    20  H    3.404117   2.152474   2.152987   3.909133   3.400692
    21  H    3.010241   4.247247   4.256968   2.110835   2.996022
    22  H    2.893204   5.291742   4.247603   2.900042   4.280674
    23  H    5.513032   6.035570   6.220554   4.978485   5.300864
    24  H    5.154080   6.401974   5.897847   5.023965   5.721757
    25  H    3.803576   4.139292   4.827952   2.606538   2.877221
    26  H    5.146919   7.165584   6.507277   4.773501   5.957014
    27  H    4.912629   6.614247   6.305669   4.255982   5.302888
    28  H    5.093537   6.473179   6.425159   4.278255   5.153290
    29  H    4.078806   3.965094   4.316830   3.746292   3.700719
    30  H    5.230090   5.554784   5.403163   5.200360   5.383380
    31  H    3.575140   4.484317   3.817746   3.810029   4.276394
                    6          7          8          9         10
     6  C    0.000000
     7  C    4.346281   0.000000
     8  C    5.246220   1.543313   0.000000
     9  C    5.218382   2.542699   1.514897   0.000000
    10  O    5.303813   2.828786   2.383197   1.362645   0.000000
    11  C    5.761767   4.183611   3.712045   2.370454   1.435858
    12  O    5.020757   1.433384   2.435968   3.104284   2.761048
    13  C    6.700122   2.559987   1.528012   2.476861   3.049326
    14  O    5.584420   3.580079   2.413587   1.224877   2.297066
    15  C    4.822473   4.553855   4.401453   3.124607   2.419068
    16  H    3.386096   2.802597   2.766973   2.998345   3.919270
    17  H    2.151994   4.696495   5.960934   6.042063   5.700236
    18  H    2.151205   4.717106   5.062725   4.947870   5.512486
    19  H    3.390464   2.748796   4.184552   4.581744   4.166528
    20  H    1.086622   5.432893   6.302837   6.192527   6.251186
    21  H    4.757989   1.097642   2.147424   3.459227   3.882286
    22  H    5.279131   2.154192   1.097907   2.106382   3.273598
    23  H    6.456114   4.744724   4.405787   3.232125   2.043684
    24  H    6.477746   4.811201   4.010392   2.546246   2.100315
    25  H    4.964540   1.946801   2.609023   2.758206   2.039285
    26  H    7.400714   3.506973   2.170246   2.713668   3.472144
    27  H    7.041610   2.788094   2.172932   3.440312   4.019405
    28  H    7.018677   2.879330   2.188073   2.749440   2.812689
    29  H    4.261497   4.311863   4.533916   3.524840   2.651840
    30  H    5.559691   5.645348   5.441486   4.088791   3.370434
    31  H    4.268363   4.403231   4.176791   2.932417   2.714582
                   11         12         13         14         15
    11  C    0.000000
    12  O    4.065812   0.000000
    13  C    4.346129   2.856329   0.000000
    14  O    2.707450   4.309188   3.293385   0.000000
    15  C    1.517399   4.593925   5.391089   3.286303   0.000000
    16  H    4.754080   4.132612   4.231293   3.088252   4.560348
    17  H    6.190033   4.786120   7.188005   6.733948   5.347852
    18  H    5.924963   5.810752   6.578974   4.873333   5.088253
    19  H    5.071821   2.451745   5.116968   5.585280   4.843326
    20  H    6.560628   6.073637   7.771252   6.458700   5.459405
    21  H    5.262855   2.023486   2.824052   4.402131   5.638018
    22  H    4.459214   3.357126   2.135136   2.510535   4.991468
    23  H    1.094853   4.296091   4.793742   3.709484   2.149098
    24  H    1.095883   4.857357   4.514105   2.436608   2.174401
    25  H    3.207799   0.976544   3.123519   3.954107   3.753497
    26  H    4.558348   3.899582   1.095781   3.160371   5.703255
    27  H    5.374543   3.110221   1.094768   4.238894   6.341957
    28  H    4.045332   2.614906   1.095312   3.714548   5.231100
    29  H    2.160615   4.185740   5.568117   3.967551   1.095030
    30  H    2.162356   5.624499   6.360027   4.073440   1.093570
    31  H    2.166489   4.778811   5.361812   2.833839   1.094594
                   16         17         18         19         20
    16  H    0.000000
    17  H    4.958702   0.000000
    18  H    2.443155   4.291594   0.000000
    19  H    4.326847   2.457920   4.955761   0.000000
    20  H    4.277135   2.481156   2.479271   4.285069   0.000000
    21  H    3.163273   5.068323   5.085739   3.118048   5.822146
    22  H    2.263516   6.312613   4.701864   4.784539   6.292978
    23  H    5.720707   6.562932   6.863233   5.341436   7.237882
    24  H    5.052942   7.135201   6.311977   6.046819   7.252267
    25  H    4.246791   4.730237   5.779331   2.607943   5.979641
    26  H    4.631527   8.076470   7.014678   6.116842   8.444823
    27  H    4.596038   7.452903   6.962329   5.298430   8.120878
    28  H    4.945084   7.232552   7.157662   5.035296   8.087901
    29  H    4.631038   4.433083   4.982906   4.021126   4.894978
    30  H    5.518283   6.045940   5.793214   5.779602   6.049195
    31  H    3.778795   5.221666   4.168683   4.918700   4.883896
                   21         22         23         24         25
    21  H    0.000000
    22  H    2.405539   0.000000
    23  H    5.804808   5.280447   0.000000
    24  H    5.843115   4.606469   1.762309   0.000000
    25  H    2.823714   3.624439   3.363176   4.083946   0.000000
    26  H    3.785310   2.448584   5.050471   4.459015   4.037342
    27  H    2.613354   2.499528   5.793315   5.597504   3.656629
    28  H    3.294769   3.066485   4.250764   4.312590   2.718860
    29  H    5.368276   5.203327   2.502923   3.081137   3.346783
    30  H    6.730967   6.006568   2.488806   2.520933   4.743120
    31  H    5.429476   4.542230   3.066907   2.537336   4.086509
                   26         27         28         29         30
    26  H    0.000000
    27  H    1.771746   0.000000
    28  H    1.762091   1.775487   0.000000
    29  H    6.069892   6.416686   5.343187   0.000000
    30  H    6.586385   7.347548   6.146658   1.780222   0.000000
    31  H    5.621910   6.273086   5.424905   1.758697   1.777109
                   31
    31  H    0.000000
 Stoichiometry    C12H16O3
 Framework group  C1[X(C12H16O3)]
 Deg. of freedom    87
 Full point group                 C1      NOp   1
 Largest Abelian subgroup         C1      NOp   1
 Largest concise Abelian subgroup C1      NOp   1
                         Standard orientation:                         
 ---------------------------------------------------------------------
 Center     Atomic      Atomic             Coordinates (Angstroms)
 Number     Number       Type             X           Y           Z
 ---------------------------------------------------------------------
      1          6           0       -1.475389   -0.372081    1.257382
      2          6           0       -3.227674   -0.030212   -0.880559
      3          6           0       -2.683132    0.308382    1.438719
      4          6           0       -1.108940   -0.872182   -0.003204
      5          6           0       -2.020074   -0.708314   -1.062253
      6          6           0       -3.556248    0.483704    0.369457
      7          6           0        0.194531   -1.630693   -0.223109
      8          6           0        1.396142   -1.223562    0.655635
      9          6           0        1.651076    0.269558    0.632952
     10          8           0        1.643668    0.763180   -0.637121
     11          6           0        1.833364    2.181437   -0.756488
     12          8           0        0.568404   -1.588000   -1.606217
     13          6           0        2.684295   -1.953260    0.277451
     14          8           0        1.862667    0.928624    1.643488
     15          6           0        0.502855    2.896186   -0.610263
     16          1           0       -0.833092   -0.498807    2.125800
     17          1           0       -3.912857    0.089270   -1.715807
     18          1           0       -2.942818    0.697595    2.420223
     19          1           0       -1.796978   -1.116914   -2.046787
     20          1           0       -4.495817    1.010325    0.513083
     21          1           0       -0.027702   -2.685035   -0.013838
     22          1           0        1.160474   -1.481126    1.696559
     23          1           0        2.242505    2.365681   -1.755167
     24          1           0        2.570317    2.548694   -0.033313
     25          1           0        0.758064   -0.651689   -1.808674
     26          1           0        3.490139   -1.696504    0.974177
     27          1           0        2.541128   -3.038080    0.311882
     28          1           0        3.029040   -1.683038   -0.726461
     29          1           0       -0.220898    2.513865   -1.337658
     30          1           0        0.621921    3.972570   -0.762308
     31          1           0        0.073830    2.728984    0.382771
 ---------------------------------------------------------------------
 Rotational constants (GHZ):      0.8131410      0.4826097      0.4066741
 Standard basis: 6-31+G(d,p) (6D, 7F)
 There are   365 symmetry adapted basis functions of A   symmetry.
 Integral buffers will be    131072 words long.
 Raffenetti 2 integral format.
 Two-electron integral symmetry is turned on.
   365 basis functions,   592 primitive gaussians,   365 cartesian basis functions
    56 alpha electrons       56 beta electrons
       nuclear repulsion energy      1041.8883193700 Hartrees.
 NAtoms=   31 NActive=   31 NUniq=   31 SFac= 1.00D+00 NAtFMM=   60 NAOKFM=F Big=F
 Nuclear repulsion after empirical dispersion term =     1041.8654644888 Hartrees.
 ------------------------------------------------------------------------------
 Polarizable Continuum Model (PCM)
 =================================
 Model                : C-PCM.
 Atomic radii         : SMD-Coulomb.
 Polarization charges : Total charges.
 Charge compensation  : None.
 Solution method      : Matrix inversion.
 Cavity type          : VdW (van der Waals Surface) (Alpha=1.000).
 Cavity algorithm     : GePol (No added spheres)
                        Default sphere list used, NSphG=   31.
                        Lebedev-Laikov grids with approx.  5.0 points / Ang**2.
                        Smoothing algorithm: Karplus/York (Gamma=1.0000).
                        Polarization charges: spherical gaussians, with
                                              point-specific exponents (IZeta= 3).
                        Self-potential: point-specific (ISelfS= 7).
                        Self-field    : sphere-specific E.n sum rule (ISelfD= 2).
 Solvent              : Chloroform, Eps=   4.711300 Eps(inf)=   2.090627
 ------------------------------------------------------------------------------
 ------------------------------------------------------------------------------
 Atomic radii for non-electrostatic terms: SMD-CDS.
 ------------------------------------------------------------------------------
 Nuclear repulsion after PCM non-electrostatic terms =     1041.8587188240 Hartrees.
 One-electron integrals computed using PRISM.
 NBasis=   365 RedAO= T  NBF=   365
 NBsUse=   365 1.00D-06 NBFU=   365
 Harris functional with IExCor= 4639 diagonalized for initial guess.
 ExpMin= 4.38D-02 ExpMax= 5.48D+03 ExpMxC= 8.25D+02 IAcc=2 IRadAn=         4 AccDes= 0.00D+00
 HarFok:  IExCor= 4639 AccDes= 0.00D+00 IRadAn=         4 IDoV= 1
 ScaDFX=  1.000000  1.000000  1.000000  1.000000
 FoFCou: FMM=F IPFlag=           0 FMFlag=      100000 FMFlg1=           0
         NFxFlg=           0 DoJE=T BraDBF=F KetDBF=T FulRan=T
         Omega=  0.000000  0.000000  1.000000  0.000000  0.000000 ICntrl=     500 IOpCl=  0
         NMat0=    1 NMatS0=    1 NMatT0=    0 NMatD0=    1 NMtDS0=    0 NMtDT0=    0
         I1Cent=           4 NGrid=           0.
 Petite list used in FoFCou.
 Initial guess orbital symmetries:
       Occupied  (A) (A) (A) (A) (A) (A) (A) (A) (A) (A) (A) (A)
                 (A) (A) (A) (A) (A) (A) (A) (A) (A) (A) (A) (A)
                 (A) (A) (A) (A) (A) (A) (A) (A) (A) (A) (A) (A)
                 (A) (A) (A) (A) (A) (A) (A) (A) (A) (A) (A) (A)
                 (A) (A) (A) (A) (A) (A) (A) (A)
       Virtual   (A) (A) (A) (A) (A) (A) (A) (A) (A) (A) (A) (A)
                 (A) (A) (A) (A) (A) (A) (A) (A) (A) (A) (A) (A)
                 (A) (A) (A) (A) (A) (A) (A) (A) (A) (A) (A) (A)
                 (A) (A) (A) (A) (A) (A) (A) (A) (A) (A) (A) (A)
                 (A) (A) (A) (A) (A) (A) (A) (A) (A) (A) (A) (A)
                 (A) (A) (A) (A) (A) (A) (A) (A) (A) (A) (A) (A)
                 (A) (A) (A) (A) (A) (A) (A) (A) (A) (A) (A) (A)
                 (A) (A) (A) (A) (A) (A) (A) (A) (A) (A) (A) (A)
                 (A) (A) (A) (A) (A) (A) (A) (A) (A) (A) (A) (A)
                 (A) (A) (A) (A) (A) (A) (A) (A) (A) (A) (A) (A)
                 (A) (A) (A) (A) (A) (A) (A) (A) (A) (A) (A) (A)
                 (A) (A) (A) (A) (A) (A) (A) (A) (A) (A) (A) (A)
                 (A) (A) (A) (A) (A) (A) (A) (A) (A) (A) (A) (A)
                 (A) (A) (A) (A) (A) (A) (A) (A) (A) (A) (A) (A)
                 (A) (A) (A) (A) (A) (A) (A) (A) (A) (A) (A) (A)
                 (A) (A) (A) (A) (A) (A) (A) (A) (A) (A) (A) (A)
                 (A) (A) (A) (A) (A) (A) (A) (A) (A) (A) (A) (A)
                 (A) (A) (A) (A) (A) (A) (A) (A) (A) (A) (A) (A)
                 (A) (A) (A) (A) (A) (A) (A) (A) (A) (A) (A) (A)
                 (A) (A) (A) (A) (A) (A) (A) (A) (A) (A) (A) (A)
                 (A) (A) (A) (A) (A) (A) (A) (A) (A) (A) (A) (A)
                 (A) (A) (A) (A) (A) (A) (A) (A) (A) (A) (A) (A)
                 (A) (A) (A) (A) (A) (A) (A) (A) (A) (A) (A) (A)
                 (A) (A) (A) (A) (A) (A) (A) (A) (A) (A) (A) (A)
                 (A) (A) (A) (A) (A) (A) (A) (A) (A) (A) (A) (A)
                 (A) (A) (A) (A) (A) (A) (A) (A) (A)
 The electronic state of the initial guess is 1-A.
 Requested convergence on RMS density matrix=1.00D-08 within 128 cycles.
 Requested convergence on MAX density matrix=1.00D-06.
 Requested convergence on             energy=1.00D-06.
 No special actions if energy rises.
 FoFJK:  IHMeth= 1 ICntrl=     0 DoSepK=T KAlg= 1 I1Cent= 0 FoldK=F
 FoFJK:  IHMeth= 1 ICntrl=     0 DoSepK=T KAlg= 1 I1Cent= 0 FoldK=F
 FoFJK:  IHMeth= 1 ICntrl=     0 DoSepK=T KAlg= 1 I1Cent= 0 FoldK=F
 FoFJK:  IHMeth= 1 ICntrl=     0 DoSepK=T KAlg= 1 I1Cent= 0 FoldK=F
 FoFJK:  IHMeth= 1 ICntrl=     0 DoSepK=T KAlg= 1 I1Cent= 0 FoldK=F
 FoFJK:  IHMeth= 1 ICntrl=     0 DoSepK=T KAlg= 1 I1Cent= 0 FoldK=F
 FoFJK:  IHMeth= 1 ICntrl=     0 DoSepK=T KAlg= 1 I1Cent= 0 FoldK=F
 FoFJK:  IHMeth= 1 ICntrl=     0 DoSepK=T KAlg= 1 I1Cent= 0 FoldK=F
 FoFJK:  IHMeth= 1 ICntrl=     0 DoSepK=T KAlg= 1 I1Cent= 0 FoldK=F
 FoFJK:  IHMeth= 1 ICntrl=     0 DoSepK=T KAlg= 1 I1Cent= 0 FoldK=F
 FoFJK:  IHMeth= 1 ICntrl=     0 DoSepK=T KAlg= 1 I1Cent= 0 FoldK=F
 FoFJK:  IHMeth= 1 ICntrl=     0 DoSepK=T KAlg= 1 I1Cent= 0 FoldK=F
 FoFJK:  IHMeth= 1 ICntrl=     0 DoSepK=T KAlg= 1 I1Cent= 0 FoldK=F
 FoFJK:  IHMeth= 1 ICntrl=     0 DoSepK=T KAlg= 1 I1Cent= 0 FoldK=F
 FoFJK:  IHMeth= 1 ICntrl=     0 DoSepK=T KAlg= 1 I1Cent= 0 FoldK=F
 FoFJK:  IHMeth= 1 ICntrl=     0 DoSepK=T KAlg= 1 I1Cent= 0 FoldK=F
 Error on total polarization charges =  0.03854
 SCF Done:  E(RwB97XD) =  -692.445833557     A.U. after   16 cycles
             Convg  =    0.3562D-08             -V/T =  2.0095
 SMD-CDS (non-electrostatic) energy       (kcal/mol) =      -4.23
 (included in total energy above)
 Range of M.O.s used for correlation:     1   365
 NBasis=   365 NAE=    56 NBE=    56 NFC=     0 NFV=     0
 NROrb=    365 NOA=    56 NOB=    56 NVA=   309 NVB=   309

 **** Warning!!: The largest alpha MO coefficient is  0.13254308D+03

 NEqPCM:  Using equilibrium solvation (IEInf=0, Eps=   4.7113, EpsInf=   2.0906)
          Differentiating once with respect to magnetic field using GIAOs.
          Electric field/nuclear overlap derivatives assumed to be zero.
 FoFCou: FMM=F IPFlag=           0 FMFlag=    10101102 FMFlg1=           0
         NFxFlg=    40000000 DoJE=F BraDBF=F KetDBF=T FulRan=T
         Omega=  0.000000  0.000000  1.000000  0.000000  0.000000 ICntrl=    6100 IOpCl=  0
         NMat0=    1 NMatS0=    1 NMatT0=    0 NMatD0=    1 NMtDS0=    0 NMtDT0=    0
         I1Cent=           7 NGrid=        2245.
 Symmetry not used in FoFCou.
 FoFJK:  IHMeth= 1 ICntrl=  6127 DoSepK=T KAlg= 1 I1Cent= 0 FoldK=F
 FoFJK:  IHMeth= 1 ICntrl=     0 DoSepK=T KAlg= 1 I1Cent= 0 FoldK=F
          There are     3 degrees of freedom in the 1st order CPHF.  IDoFFX=0.
      3 vectors produced by pass  0 Test12= 5.77D-13 3.33D-08 XBig12= 1.03D+02 2.39D+00.
 AX will form     3 AO Fock derivatives at one time.
 FoFJK:  IHMeth= 1 ICntrl=     0 DoSepK=T KAlg= 1 I1Cent= 0 FoldK=F
      3 vectors produced by pass  1 Test12= 5.77D-13 3.33D-08 XBig12= 1.05D+00 2.82D-01.
 FoFJK:  IHMeth= 1 ICntrl=     0 DoSepK=T KAlg= 1 I1Cent= 0 FoldK=F
      3 vectors produced by pass  2 Test12= 5.77D-13 3.33D-08 XBig12= 2.03D-02 5.48D-02.
 FoFJK:  IHMeth= 1 ICntrl=     0 DoSepK=T KAlg= 1 I1Cent= 0 FoldK=F
      3 vectors produced by pass  3 Test12= 5.77D-13 3.33D-08 XBig12= 2.96D-04 3.94D-03.
 FoFJK:  IHMeth= 1 ICntrl=     0 DoSepK=T KAlg= 1 I1Cent= 0 FoldK=F
      3 vectors produced by pass  4 Test12= 5.77D-13 3.33D-08 XBig12= 3.64D-06 2.84D-04.
 FoFJK:  IHMeth= 1 ICntrl=     0 DoSepK=T KAlg= 1 I1Cent= 0 FoldK=F
      3 vectors produced by pass  5 Test12= 5.77D-13 3.33D-08 XBig12= 6.24D-08 3.97D-05.
 FoFJK:  IHMeth= 1 ICntrl=     0 DoSepK=T KAlg= 1 I1Cent= 0 FoldK=F
      3 vectors produced by pass  6 Test12= 5.77D-13 3.33D-08 XBig12= 8.98D-10 4.80D-06.
 FoFJK:  IHMeth= 1 ICntrl=     0 DoSepK=T KAlg= 1 I1Cent= 0 FoldK=F
      3 vectors produced by pass  7 Test12= 5.77D-13 3.33D-08 XBig12= 1.05D-11 5.82D-07.
 FoFJK:  IHMeth= 1 ICntrl=     0 DoSepK=T KAlg= 1 I1Cent= 0 FoldK=F
      2 vectors produced by pass  8 Test12= 5.77D-13 3.33D-08 XBig12= 1.06D-13 5.85D-08.
 FoFJK:  IHMeth= 1 ICntrl=     0 DoSepK=T KAlg= 1 I1Cent= 0 FoldK=F
 Inverted reduced A of dimension    26 with in-core refinement.
 Calculating GIAO nuclear magnetic shielding tensors.
 SCF GIAO Magnetic shielding tensor (ppm):
      1  C    Isotropic =    73.4692   Anisotropy =   173.1902
   XX=    59.0570   YX=    56.4921   ZX=   -52.4606
   XY=    60.2291   YY=   150.8909   ZY=   -21.4745
   XZ=   -52.1611   YZ=   -17.7526   ZZ=    10.4598
   Eigenvalues:   -24.4454    55.9237   188.9294
      2  C    Isotropic =    69.6376   Anisotropy =   174.9710
   XX=    46.3067   YX=    57.2812   ZX=   -60.7599
   XY=    54.0725   YY=   151.5469   ZY=   -20.8649
   XZ=   -57.1088   YZ=   -19.2943   ZZ=    11.0594
   Eigenvalues:   -34.6625    57.2905   186.2850
      3  C    Isotropic =    69.8511   Anisotropy =   175.2462
   XX=    79.1898   YX=    60.7161   ZX=     8.7585
   XY=    58.3743   YY=   141.5137   ZY=   -51.4438
   XZ=     6.1595   YZ=   -54.8797   ZZ=   -11.1501
   Eigenvalues:   -34.1968    57.0682   186.6820
      4  C    Isotropic =    52.5975   Anisotropy =   178.3592
   XX=     8.1044   YX=    78.1570   ZX=   -10.2881
   XY=    79.5979   YY=   120.0682   ZY=   -42.4124
   XZ=   -12.0775   YZ=   -33.6293   ZZ=    29.6200
   Eigenvalues:   -33.6555    19.9443   171.5037
      5  C    Isotropic =    71.4447   Anisotropy =   180.8927
   XX=    79.6506   YX=    58.9502   ZX=    -2.2276
   XY=    64.0111   YY=   142.8012   ZY=   -54.2952
   XZ=    -2.1382   YZ=   -55.0864   ZZ=    -8.1176
   Eigenvalues:   -29.0145    51.3089   192.0398
      6  C    Isotropic =    72.1325   Anisotropy =   176.2229
   XX=    18.3263   YX=    88.9757   ZX=    -3.3249
   XY=    85.4011   YY=   136.2930   ZY=   -31.6925
   XZ=    -3.2392   YZ=   -32.5662   ZZ=    61.7781
   Eigenvalues:   -29.6529    56.4359   189.6144
      7  C    Isotropic =   123.7948   Anisotropy =    36.3727
   XX=   120.9959   YX=     1.1203   ZX=   -10.1404
   XY=    -3.4079   YY=   103.6539   ZY=     3.1026
   XZ=    -1.5326   YZ=    -0.6402   ZZ=   146.7346
   Eigenvalues:   103.5614   119.7797   148.0433
      8  C    Isotropic =   149.7122   Anisotropy =    25.0213
   XX=   140.5039   YX=     6.1591   ZX=     2.5071
   XY=     5.6433   YY=   163.6946   ZY=     6.4822
   XZ=     2.8003   YZ=     3.0164   ZZ=   144.9381
   Eigenvalues:   138.6735   144.0700   166.3930
      9  C    Isotropic =    18.7642   Anisotropy =   101.2704
   XX=    84.6098   YX=   -10.0171   ZX=     2.3964
   XY=   -14.1865   YY=    -8.4525   ZY=    40.2667
   XZ=     6.8563   YZ=    77.7140   ZZ=   -19.8647
   Eigenvalues:   -74.2669    44.2817    86.2778
     10  O    Isotropic =   137.2290   Anisotropy =   163.4164
   XX=   227.9197   YX=   -68.1316   ZX=    10.6687
   XY=   -36.4373   YY=    33.6023   ZY=   -29.1334
   XZ=   -18.5451   YZ=  -148.0492   ZZ=   150.1651
   Eigenvalues:   -23.3622   188.8760   246.1733
     11  C    Isotropic =   138.1035   Anisotropy =    66.7904
   XX=   131.4830   YX=     0.0093   ZX=    -8.6786
   XY=     5.7560   YY=   180.7182   ZY=    -9.6748
   XZ=    -7.6038   YZ=   -12.9554   ZZ=   102.1093
   Eigenvalues:    98.7127   132.9674   182.6304
     12  O    Isotropic =   291.5025   Anisotropy =    58.0698
   XX=   280.7467   YX=     3.0647   ZX=   -14.3240
   XY=     6.6551   YY=   317.7224   ZY=   -30.9786
   XZ=    -4.7566   YZ=   -17.3019   ZZ=   276.0384
   Eigenvalues:   262.4244   281.8673   330.2157
     13  C    Isotropic =   180.5040   Anisotropy =    26.4195
   XX=   188.5850   YX=   -12.2366   ZX=    -0.6621
   XY=   -11.4427   YY=   182.6428   ZY=     2.0871
   XZ=    -2.8867   YZ=     2.6977   ZZ=   170.2842
   Eigenvalues:   169.8140   173.5810   198.1170
     14  O    Isotropic =   -57.4306   Anisotropy =   538.0534
   XX=   284.9828   YX=   -78.9377   ZX=   -28.9384
   XY=   -79.3107   YY=  -145.3353   ZY=     1.7322
   XZ=   -44.1273   YZ=     7.0751   ZZ=  -311.9393
   Eigenvalues:  -314.1680  -159.3955   301.2717
     15  C    Isotropic =   182.3579   Anisotropy =    24.5237
   XX=   192.4775   YX=    -9.4650   ZX=    -1.6712
   XY=    -3.1158   YY=   192.2958   ZY=    -2.2299
   XZ=    -4.3064   YZ=    -0.9242   ZZ=   162.3004
   Eigenvalues:   161.8442   186.5225   198.7070
     16  H    Isotropic =    23.7522   Anisotropy =     9.1257
   XX=    26.4944   YX=    -2.3375   ZX=    -3.8051
   XY=    -2.5283   YY=    20.5333   ZY=     1.6051
   XZ=    -3.0685   YZ=     1.2919   ZZ=    24.2290
   Eigenvalues:    19.6505    21.7702    29.8360
     17  H    Isotropic =    23.6792   Anisotropy =     4.7443
   XX=    25.2364   YX=    -2.0961   ZX=    -0.6364
   XY=    -2.1147   YY=    21.6923   ZY=     1.6021
   XZ=    -0.6080   YZ=     1.6460   ZZ=    24.1089
   Eigenvalues:    20.2996    23.8960    26.8420
     18  H    Isotropic =    23.8472   Anisotropy =     5.1536
   XX=    26.4045   YX=    -2.1722   ZX=     0.6419
   XY=    -2.2060   YY=    21.2620   ZY=     0.2554
   XZ=     0.5400   YZ=     0.0810   ZZ=    23.8750
   Eigenvalues:    20.4180    23.8406    27.2829
     19  H    Isotropic =    23.1209   Anisotropy =     9.8304
   XX=    28.1666   YX=    -2.3112   ZX=     2.9575
   XY=    -2.9054   YY=    19.9218   ZY=    -0.0177
   XZ=     2.3769   YZ=     0.4581   ZZ=    21.2744
   Eigenvalues:    18.7019    20.9863    29.6745
     20  H    Isotropic =    23.8581   Anisotropy =     4.0083
   XX=    24.2396   YX=    -0.9513   ZX=     0.8697
   XY=    -1.4993   YY=    21.1968   ZY=     1.1387
   XZ=     0.8069   YZ=     1.0231   ZZ=    26.1380
   Eigenvalues:    20.4653    24.5787    26.5304
     21  H    Isotropic =    26.7606   Anisotropy =     5.0963
   XX=    25.3578   YX=     2.4311   ZX=    -0.1466
   XY=    -0.4685   YY=    29.4343   ZY=    -0.6902
   XZ=    -0.3930   YZ=    -2.3202   ZZ=    25.4897
   Eigenvalues:    24.9626    25.1610    30.1581
     22  H    Isotropic =    28.0250   Anisotropy =     6.5593
   XX=    27.2525   YX=    -1.3691   ZX=    -1.6723
   XY=    -1.4620   YY=    24.7059   ZY=    -1.4832
   XZ=    -0.7263   YZ=     0.5985   ZZ=    32.1165
   Eigenvalues:    23.9748    27.7022    32.3978
     23  H    Isotropic =    27.9829   Anisotropy =     9.0230
   XX=    27.5815   YX=     0.8233   ZX=    -5.3077
   XY=     1.7323   YY=    28.5771   ZY=    -3.7633
   XZ=    -4.0655   YZ=    -1.9572   ZZ=    27.7901
   Eigenvalues:    22.7582    27.1922    33.9982
     24  H    Isotropic =    27.0796   Anisotropy =     7.6893
   XX=    28.8592   YX=     2.7033   ZX=     2.1526
   XY=     3.7630   YY=    28.8533   ZY=     0.8572
   XZ=     1.1108   YZ=    -1.3234   ZZ=    23.5261
   Eigenvalues:    22.8043    26.2286    32.2058
     25  H    Isotropic =    28.5275   Anisotropy =    16.4537
   XX=    21.8332   YX=     4.0962   ZX=    -0.9148
   XY=     6.6564   YY=    36.6364   ZY=    -3.9953
   XZ=    -1.0150   YZ=    -3.1867   ZZ=    27.1130
   Eigenvalues:    20.0808    26.0051    39.4966
     26  H    Isotropic =    30.3094   Anisotropy =     9.9988
   XX=    34.4726   YX=    -1.4237   ZX=     4.8975
   XY=    -1.3059   YY=    27.3154   ZY=     0.6572
   XZ=     3.7912   YZ=     0.8440   ZZ=    29.1404
   Eigenvalues:    25.6328    28.3202    36.9753
     27  H    Isotropic =    30.2833   Anisotropy =    10.6837
   XX=    28.0921   YX=    -3.0277   ZX=     0.3626
   XY=    -2.3080   YY=    36.6163   ZY=    -0.4615
   XZ=     0.6617   YZ=    -0.3094   ZZ=    26.1414
   Eigenvalues:    26.0056    27.4385    37.4057
     28  H    Isotropic =    29.8675   Anisotropy =     6.5767
   XX=    30.9153   YX=    -2.1870   ZX=    -3.2284
   XY=    -1.2781   YY=    26.6643   ZY=    -0.6553
   XZ=    -2.2026   YZ=    -1.4492   ZZ=    32.0229
   Eigenvalues:    25.4242    29.9263    34.2520
     29  H    Isotropic =    31.5601   Anisotropy =     6.5789
   XX=    33.4635   YX=     1.8843   ZX=     4.0744
   XY=     1.8908   YY=    31.3082   ZY=    -1.0565
   XZ=     2.8379   YZ=    -0.2368   ZZ=    29.9085
   Eigenvalues:    27.1978    31.5364    35.9460
     30  H    Isotropic =    31.0915   Anisotropy =    12.3423
   XX=    27.8693   YX=    -1.1425   ZX=     0.1516
   XY=     0.1237   YY=    39.0864   ZY=    -1.7274
   XZ=    -0.2132   YZ=    -1.5856   ZZ=    26.3189
   Eigenvalues:    26.1023    27.8525    39.3197
     31  H    Isotropic =    31.2667   Anisotropy =     5.2287
   XX=    31.1117   YX=    -0.8607   ZX=    -3.5836
   XY=     0.7895   YY=    31.1131   ZY=    -0.0233
   XZ=    -3.1566   YZ=    -0.9577   ZZ=    31.5754
   Eigenvalues:    27.9245    31.1232    34.7525
 End of Minotr Frequency-dependent properties file   721 does not exist.
 End of Minotr Frequency-dependent properties file   722 does not exist.

 **********************************************************************

            Population analysis using the SCF density.

 **********************************************************************

 Orbital symmetries:
       Occupied  (A) (A) (A) (A) (A) (A) (A) (A) (A) (A) (A) (A)
                 (A) (A) (A) (A) (A) (A) (A) (A) (A) (A) (A) (A)
                 (A) (A) (A) (A) (A) (A) (A) (A) (A) (A) (A) (A)
                 (A) (A) (A) (A) (A) (A) (A) (A) (A) (A) (A) (A)
                 (A) (A) (A) (A) (A) (A) (A) (A)
       Virtual   (A) (A) (A) (A) (A) (A) (A) (A) (A) (A) (A) (A)
                 (A) (A) (A) (A) (A) (A) (A) (A) (A) (A) (A) (A)
                 (A) (A) (A) (A) (A) (A) (A) (A) (A) (A) (A) (A)
                 (A) (A) (A) (A) (A) (A) (A) (A) (A) (A) (A) (A)
                 (A) (A) (A) (A) (A) (A) (A) (A) (A) (A) (A) (A)
                 (A) (A) (A) (A) (A) (A) (A) (A) (A) (A) (A) (A)
                 (A) (A) (A) (A) (A) (A) (A) (A) (A) (A) (A) (A)
                 (A) (A) (A) (A) (A) (A) (A) (A) (A) (A) (A) (A)
                 (A) (A) (A) (A) (A) (A) (A) (A) (A) (A) (A) (A)
                 (A) (A) (A) (A) (A) (A) (A) (A) (A) (A) (A) (A)
                 (A) (A) (A) (A) (A) (A) (A) (A) (A) (A) (A) (A)
                 (A) (A) (A) (A) (A) (A) (A) (A) (A) (A) (A) (A)
                 (A) (A) (A) (A) (A) (A) (A) (A) (A) (A) (A) (A)
                 (A) (A) (A) (A) (A) (A) (A) (A) (A) (A) (A) (A)
                 (A) (A) (A) (A) (A) (A) (A) (A) (A) (A) (A) (A)
                 (A) (A) (A) (A) (A) (A) (A) (A) (A) (A) (A) (A)
                 (A) (A) (A) (A) (A) (A) (A) (A) (A) (A) (A) (A)
                 (A) (A) (A) (A) (A) (A) (A) (A) (A) (A) (A) (A)
                 (A) (A) (A) (A) (A) (A) (A) (A) (A) (A) (A) (A)
                 (A) (A) (A) (A) (A) (A) (A) (A) (A) (A) (A) (A)
                 (A) (A) (A) (A) (A) (A) (A) (A) (A) (A) (A) (A)
                 (A) (A) (A) (A) (A) (A) (A) (A) (A) (A) (A) (A)
                 (A) (A) (A) (A) (A) (A) (A) (A) (A) (A) (A) (A)
                 (A) (A) (A) (A) (A) (A) (A) (A) (A) (A) (A) (A)
                 (A) (A) (A) (A) (A) (A) (A) (A) (A) (A) (A) (A)
                 (A) (A) (A) (A) (A) (A) (A) (A) (A)
 The electronic state is 1-A.
 Alpha  occ. eigenvalues --  -19.33692 -19.27844 -19.27526 -10.44402 -10.36211
 Alpha  occ. eigenvalues --  -10.35386 -10.32013 -10.31809 -10.30730 -10.30615
 Alpha  occ. eigenvalues --  -10.30589 -10.30498 -10.30397 -10.29256 -10.28758
 Alpha  occ. eigenvalues --   -1.21650  -1.13062  -1.12358  -0.96117  -0.91360
 Alpha  occ. eigenvalues --   -0.86803  -0.85450  -0.84576  -0.77860  -0.76476
 Alpha  occ. eigenvalues --   -0.71780  -0.69632  -0.68249  -0.65596  -0.61505
 Alpha  occ. eigenvalues --   -0.59632  -0.59475  -0.57223  -0.55852  -0.54633
 Alpha  occ. eigenvalues --   -0.54071  -0.53078  -0.52372  -0.50789  -0.50418
 Alpha  occ. eigenvalues --   -0.49851  -0.48085  -0.46672  -0.46445  -0.45497
 Alpha  occ. eigenvalues --   -0.45305  -0.43701  -0.43292  -0.42420  -0.41939
 Alpha  occ. eigenvalues --   -0.40495  -0.39353  -0.37127  -0.36135  -0.33210
 Alpha  occ. eigenvalues --   -0.32412
 Alpha virt. eigenvalues --    0.04870   0.04961   0.06587   0.07284   0.07650
 Alpha virt. eigenvalues --    0.08191   0.08726   0.09463   0.09701   0.10191
 Alpha virt. eigenvalues --    0.10413   0.11234   0.11758   0.12353   0.12746
 Alpha virt. eigenvalues --    0.13445   0.13860   0.14566   0.14840   0.15217
 Alpha virt. eigenvalues --    0.15702   0.16548   0.17014   0.17766   0.18238
 Alpha virt. eigenvalues --    0.18821   0.19217   0.19338   0.19839   0.20494
 Alpha virt. eigenvalues --    0.20740   0.21238   0.22195   0.22327   0.22933
 Alpha virt. eigenvalues --    0.23035   0.23425   0.24190   0.24513   0.25103
 Alpha virt. eigenvalues --    0.25225   0.25531   0.26152   0.26304   0.26681
 Alpha virt. eigenvalues --    0.27339   0.27539   0.28227   0.28718   0.29185
 Alpha virt. eigenvalues --    0.29685   0.30276   0.30727   0.31107   0.31643
 Alpha virt. eigenvalues --    0.31677   0.32254   0.33061   0.33337   0.33649
 Alpha virt. eigenvalues --    0.33801   0.34268   0.34802   0.35443   0.36084
 Alpha virt. eigenvalues --    0.36196   0.37731   0.38071   0.38784   0.39161
 Alpha virt. eigenvalues --    0.39598   0.39789   0.40958   0.41266   0.41781
 Alpha virt. eigenvalues --    0.42602   0.43206   0.43489   0.43782   0.44819
 Alpha virt. eigenvalues --    0.45241   0.46446   0.47131   0.47300   0.48413
 Alpha virt. eigenvalues --    0.49658   0.50709   0.50780   0.52619   0.54826
 Alpha virt. eigenvalues --    0.57737   0.59407   0.61208   0.66716   0.69707
 Alpha virt. eigenvalues --    0.72357   0.73444   0.74312   0.75621   0.76099
 Alpha virt. eigenvalues --    0.77762   0.79191   0.80437   0.80675   0.81458
 Alpha virt. eigenvalues --    0.82084   0.82466   0.82744   0.83887   0.84846
 Alpha virt. eigenvalues --    0.85524   0.86260   0.88080   0.89358   0.90450
 Alpha virt. eigenvalues --    0.91884   0.92343   0.94898   0.95476   0.96919
 Alpha virt. eigenvalues --    0.98310   0.99148   0.99801   1.00671   1.02031
 Alpha virt. eigenvalues --    1.03212   1.04281   1.06054   1.07243   1.07531
 Alpha virt. eigenvalues --    1.09313   1.10662   1.12233   1.12590   1.12687
 Alpha virt. eigenvalues --    1.14364   1.15739   1.18411   1.19110   1.19968
 Alpha virt. eigenvalues --    1.21227   1.21516   1.23012   1.23774   1.25288
 Alpha virt. eigenvalues --    1.26315   1.26587   1.29224   1.29623   1.30815
 Alpha virt. eigenvalues --    1.31426   1.34384   1.35133   1.37042   1.37839
 Alpha virt. eigenvalues --    1.39530   1.40043   1.42068   1.42893   1.44638
 Alpha virt. eigenvalues --    1.46488   1.47134   1.47944   1.49610   1.50242
 Alpha virt. eigenvalues --    1.50691   1.52247   1.53285   1.56424   1.57016
 Alpha virt. eigenvalues --    1.58249   1.60178   1.62512   1.63791   1.67197
 Alpha virt. eigenvalues --    1.68789   1.71535   1.73304   1.74190   1.76671
 Alpha virt. eigenvalues --    1.78476   1.82260   1.83757   1.88038   1.88337
 Alpha virt. eigenvalues --    1.90533   1.92416   1.92937   1.93824   1.94241
 Alpha virt. eigenvalues --    1.95891   1.97824   1.98369   2.00685   2.00956
 Alpha virt. eigenvalues --    2.01381   2.03438   2.05163   2.06794   2.07742
 Alpha virt. eigenvalues --    2.09449   2.09684   2.10576   2.11071   2.12632
 Alpha virt. eigenvalues --    2.13145   2.14624   2.15299   2.16453   2.17981
 Alpha virt. eigenvalues --    2.19843   2.20558   2.21375   2.22364   2.23320
 Alpha virt. eigenvalues --    2.25777   2.27934   2.28503   2.29622   2.30841
 Alpha virt. eigenvalues --    2.32571   2.36269   2.37141   2.39393   2.40105
 Alpha virt. eigenvalues --    2.42044   2.44622   2.45698   2.48307   2.48722
 Alpha virt. eigenvalues --    2.50288   2.50458   2.52006   2.52392   2.54284
 Alpha virt. eigenvalues --    2.56756   2.56967   2.58182   2.59606   2.61783
 Alpha virt. eigenvalues --    2.62853   2.63714   2.64634   2.65888   2.68297
 Alpha virt. eigenvalues --    2.68772   2.71100   2.71856   2.73309   2.75606
 Alpha virt. eigenvalues --    2.77108   2.77192   2.79646   2.80933   2.83476
 Alpha virt. eigenvalues --    2.84582   2.86145   2.86621   2.87239   2.89767
 Alpha virt. eigenvalues --    2.91004   2.92771   2.94874   2.96254   2.97530
 Alpha virt. eigenvalues --    2.99899   3.00806   3.02607   3.08221   3.09878
 Alpha virt. eigenvalues --    3.11543   3.13391   3.16565   3.20722   3.24586
 Alpha virt. eigenvalues --    3.27782   3.30065   3.36602   3.37659   3.39005
 Alpha virt. eigenvalues --    3.39269   3.43476   3.45644   3.50735   3.52186
 Alpha virt. eigenvalues --    3.55229   3.56742   3.59541   3.59971   3.62530
 Alpha virt. eigenvalues --    3.65378   3.66846   3.73298   3.99038   4.42439
 Alpha virt. eigenvalues --    4.44434   4.46870   4.54248   4.54545   4.55480
 Alpha virt. eigenvalues --    4.60419   4.60571   4.63249   4.65595   4.75310
 Alpha virt. eigenvalues --    4.81282   4.88263   4.93855   4.98709
          Condensed to atoms (all electrons):
              1          2          3          4          5          6
     1  C   13.362937  -0.091855  -0.820992  -2.644516  -4.325828   0.488888
     2  C   -0.091855   6.628766   0.335351   0.675471  -1.458757   0.322839
     3  C   -0.820992   0.335351   8.171808  -0.449569  -1.678004   0.008242
     4  C   -2.644516   0.675471  -0.449569  13.551676  -1.607426  -0.853445
     5  C   -4.325828  -1.458757  -1.678004  -1.607426  14.097060   0.421864
     6  C    0.488888   0.322839   0.008242  -0.853445   0.421864   5.601116
     7  C    0.578054  -0.473039   0.796239  -3.384879  -0.335638  -0.166625
     8  C    0.198450  -0.022450  -0.284651   0.153473  -0.082963   0.006558
     9  C   -0.303610  -0.078677  -0.045135   0.154459   0.323203   0.072588
    10  O   -0.002940   0.012863   0.047973   0.083347  -0.074096  -0.013702
    11  C   -0.008441  -0.020068  -0.018151   0.087858   0.068494   0.000961
    12  O    0.173817   0.017182  -0.023794  -0.039538  -0.245640   0.009155
    13  C   -0.310601  -0.010878  -0.183949   0.108827   0.398594   0.020066
    14  O    0.041577  -0.001974  -0.015118  -0.042009  -0.002396   0.005877
    15  C    0.025618   0.009760   0.047531  -0.087244  -0.078223  -0.003972
    16  H    0.017765  -0.002953   0.021572   0.180280   0.073008  -0.012699
    17  H   -0.012938   0.271132   0.001822   0.001572   0.040513   0.026479
    18  H    0.103220  -0.014490   0.188427  -0.002935   0.010353   0.042496
    19  H    0.047051  -0.030363  -0.010049   0.049759   0.258995   0.000817
    20  H    0.006248   0.031834   0.022798   0.006017  -0.012690   0.271966
    21  H   -0.015506   0.025648   0.011056   0.189810  -0.008563   0.001048
    22  H    0.000959  -0.002449   0.004122  -0.035714   0.008700  -0.000953
    23  H    0.001417   0.000001   0.001658   0.001133  -0.005869  -0.000341
    24  H   -0.004822   0.000544  -0.001297   0.010285   0.000504  -0.000268
    25  H   -0.055680   0.013436  -0.005355   0.023613   0.085476   0.002014
    26  H   -0.005484  -0.000109  -0.000524  -0.002405  -0.000347  -0.000008
    27  H   -0.000439   0.000371  -0.000574   0.005705   0.001036   0.000062
    28  H   -0.005088  -0.000043  -0.000323   0.001177   0.007430   0.000047
    29  H    0.006767   0.003362  -0.008311   0.000925   0.003932   0.002778
    30  H    0.000075   0.000237  -0.001621   0.001893   0.000123  -0.000278
    31  H   -0.018877   0.002336   0.030015  -0.001292  -0.014122  -0.003328
              7          8          9         10         11         12
     1  C    0.578054   0.198450  -0.303610  -0.002940  -0.008441   0.173817
     2  C   -0.473039  -0.022450  -0.078677   0.012863  -0.020068   0.017182
     3  C    0.796239  -0.284651  -0.045135   0.047973  -0.018151  -0.023794
     4  C   -3.384879   0.153473   0.154459   0.083347   0.087858  -0.039538
     5  C   -0.335638  -0.082963   0.323203  -0.074096   0.068494  -0.245640
     6  C   -0.166625   0.006558   0.072588  -0.013702   0.000961   0.009155
     7  C    9.339743  -0.036024  -0.499048   0.036368  -0.162812   0.323120
     8  C   -0.036024   8.086392  -0.750497  -0.425930  -0.101117  -0.059668
     9  C   -0.499048  -0.750497   6.271944   0.293124  -0.104807  -0.030495
    10  O    0.036368  -0.425930   0.293124   8.549614   0.048809   0.025950
    11  C   -0.162812  -0.101117  -0.104807   0.048809   5.292903   0.011305
    12  O    0.323120  -0.059668  -0.030495   0.025950   0.011305   8.168865
    13  C   -0.214544  -0.663674  -0.004859  -0.057095   0.000108  -0.059703
    14  O   -0.051017  -0.085258   0.714189  -0.153412  -0.000278   0.000468
    15  C    0.115548   0.006253  -0.051782  -0.033371   0.236026  -0.002801
    16  H    0.029469  -0.012844   0.014008  -0.001191  -0.002582   0.000525
    17  H   -0.001846  -0.000193   0.000138  -0.000020  -0.000068   0.000203
    18  H   -0.005296   0.002700   0.002189  -0.000069  -0.000266   0.000007
    19  H   -0.011345   0.011917   0.001722  -0.000559  -0.000304   0.001139
    20  H    0.000428   0.000196  -0.000553   0.000008   0.000145  -0.000002
    21  H    0.177691  -0.061578   0.013688   0.001256   0.002065  -0.042597
    22  H    0.039689   0.287157  -0.041862   0.019375   0.005912   0.010698
    23  H    0.007755  -0.002844   0.006739  -0.059204   0.422714  -0.000171
    24  H   -0.007576   0.012106  -0.003512  -0.040997   0.399881  -0.000152
    25  H   -0.057755  -0.075359   0.034070   0.007267   0.010558   0.280047
    26  H    0.013877  -0.117111   0.034360  -0.003269  -0.002397   0.000267
    27  H    0.031224  -0.130276  -0.014683  -0.000754  -0.000678  -0.002648
    28  H   -0.019638  -0.094625  -0.015328   0.013136   0.005040   0.005325
    29  H   -0.010669   0.005757   0.004646  -0.003278  -0.045461  -0.000170
    30  H   -0.001265   0.002258   0.008590   0.006795  -0.052062  -0.000001
    31  H    0.013952  -0.010142  -0.004131  -0.005737  -0.033745  -0.000070
             13         14         15         16         17         18
     1  C   -0.310601   0.041577   0.025618   0.017765  -0.012938   0.103220
     2  C   -0.010878  -0.001974   0.009760  -0.002953   0.271132  -0.014490
     3  C   -0.183949  -0.015118   0.047531   0.021572   0.001822   0.188427
     4  C    0.108827  -0.042009  -0.087244   0.180280   0.001572  -0.002935
     5  C    0.398594  -0.002396  -0.078223   0.073008   0.040513   0.010353
     6  C    0.020066   0.005877  -0.003972  -0.012699   0.026479   0.042496
     7  C   -0.214544  -0.051017   0.115548   0.029469  -0.001846  -0.005296
     8  C   -0.663674  -0.085258   0.006253  -0.012844  -0.000193   0.002700
     9  C   -0.004859   0.714189  -0.051782   0.014008   0.000138   0.002189
    10  O   -0.057095  -0.153412  -0.033371  -0.001191  -0.000020  -0.000069
    11  C    0.000108  -0.000278   0.236026  -0.002582  -0.000068  -0.000266
    12  O   -0.059703   0.000468  -0.002801   0.000525   0.000203   0.000007
    13  C    6.277479  -0.043470  -0.014309   0.009092  -0.000023   0.000205
    14  O   -0.043470   8.097850  -0.027586  -0.000566   0.000001  -0.000130
    15  C   -0.014309  -0.027586   5.207159   0.000568   0.000183   0.000313
    16  H    0.009092  -0.000566   0.000568   0.520648   0.000012  -0.004403
    17  H   -0.000023   0.000001   0.000183   0.000012   0.497695  -0.000123
    18  H    0.000205  -0.000130   0.000313  -0.004403  -0.000123   0.498935
    19  H   -0.000100  -0.000029   0.000741  -0.000114  -0.004225   0.000011
    20  H    0.000001   0.000002  -0.000031  -0.000131  -0.003781  -0.003856
    21  H   -0.019411  -0.000260  -0.001394   0.000265   0.000001   0.000001
    22  H   -0.011836  -0.004030  -0.000950  -0.000033   0.000000  -0.000003
    23  H   -0.003077   0.000811  -0.039135   0.000000   0.000000   0.000000
    24  H    0.000672   0.000204  -0.032611   0.000000   0.000000   0.000000
    25  H    0.006970  -0.000060  -0.007215  -0.000002  -0.000001   0.000000
    26  H    0.443815  -0.000050   0.000325   0.000002   0.000000   0.000000
    27  H    0.470259  -0.000107  -0.000070   0.000002   0.000000   0.000000
    28  H    0.459775   0.000606  -0.000731   0.000000   0.000000   0.000000
    29  H    0.000954  -0.000722   0.402195  -0.000003  -0.000004   0.000000
    30  H    0.000253  -0.000258   0.399602   0.000000   0.000000   0.000000
    31  H   -0.002425   0.003098   0.408323  -0.000002   0.000000  -0.000014
             19         20         21         22         23         24
     1  C    0.047051   0.006248  -0.015506   0.000959   0.001417  -0.004822
     2  C   -0.030363   0.031834   0.025648  -0.002449   0.000001   0.000544
     3  C   -0.010049   0.022798   0.011056   0.004122   0.001658  -0.001297
     4  C    0.049759   0.006017   0.189810  -0.035714   0.001133   0.010285
     5  C    0.258995  -0.012690  -0.008563   0.008700  -0.005869   0.000504
     6  C    0.000817   0.271966   0.001048  -0.000953  -0.000341  -0.000268
     7  C   -0.011345   0.000428   0.177691   0.039689   0.007755  -0.007576
     8  C    0.011917   0.000196  -0.061578   0.287157  -0.002844   0.012106
     9  C    0.001722  -0.000553   0.013688  -0.041862   0.006739  -0.003512
    10  O   -0.000559   0.000008   0.001256   0.019375  -0.059204  -0.040997
    11  C   -0.000304   0.000145   0.002065   0.005912   0.422714   0.399881
    12  O    0.001139  -0.000002  -0.042597   0.010698  -0.000171  -0.000152
    13  C   -0.000100   0.000001  -0.019411  -0.011836  -0.003077   0.000672
    14  O   -0.000029   0.000002  -0.000260  -0.004030   0.000811   0.000204
    15  C    0.000741  -0.000031  -0.001394  -0.000950  -0.039135  -0.032611
    16  H   -0.000114  -0.000131   0.000265  -0.000033   0.000000   0.000000
    17  H   -0.004225  -0.003781   0.000001   0.000000   0.000000   0.000000
    18  H    0.000011  -0.003856   0.000001  -0.000003   0.000000   0.000000
    19  H    0.496940  -0.000121   0.000022  -0.000005   0.000000   0.000000
    20  H   -0.000121   0.500319   0.000000   0.000000   0.000000   0.000000
    21  H    0.000022   0.000000   0.536059  -0.002420   0.000000   0.000000
    22  H   -0.000005   0.000000  -0.002420   0.532858   0.000003  -0.000007
    23  H    0.000000   0.000000   0.000000   0.000003   0.524355  -0.029994
    24  H    0.000000   0.000000   0.000000  -0.000007  -0.029994   0.515319
    25  H   -0.000964   0.000000   0.005793  -0.000141  -0.000012   0.000001
    26  H    0.000000   0.000000  -0.000030  -0.004442   0.000000   0.000002
    27  H    0.000000   0.000000   0.002983  -0.003389   0.000000   0.000000
    28  H   -0.000001   0.000000   0.000101   0.004007   0.000004   0.000007
    29  H   -0.000011   0.000000   0.000000   0.000000  -0.004984   0.003744
    30  H    0.000000   0.000000   0.000000   0.000000  -0.001209  -0.001081
    31  H    0.000000   0.000000   0.000000   0.000011   0.003908  -0.004692
             25         26         27         28         29         30
     1  C   -0.055680  -0.005484  -0.000439  -0.005088   0.006767   0.000075
     2  C    0.013436  -0.000109   0.000371  -0.000043   0.003362   0.000237
     3  C   -0.005355  -0.000524  -0.000574  -0.000323  -0.008311  -0.001621
     4  C    0.023613  -0.002405   0.005705   0.001177   0.000925   0.001893
     5  C    0.085476  -0.000347   0.001036   0.007430   0.003932   0.000123
     6  C    0.002014  -0.000008   0.000062   0.000047   0.002778  -0.000278
     7  C   -0.057755   0.013877   0.031224  -0.019638  -0.010669  -0.001265
     8  C   -0.075359  -0.117111  -0.130276  -0.094625   0.005757   0.002258
     9  C    0.034070   0.034360  -0.014683  -0.015328   0.004646   0.008590
    10  O    0.007267  -0.003269  -0.000754   0.013136  -0.003278   0.006795
    11  C    0.010558  -0.002397  -0.000678   0.005040  -0.045461  -0.052062
    12  O    0.280047   0.000267  -0.002648   0.005325  -0.000170  -0.000001
    13  C    0.006970   0.443815   0.470259   0.459775   0.000954   0.000253
    14  O   -0.000060  -0.000050  -0.000107   0.000606  -0.000722  -0.000258
    15  C   -0.007215   0.000325  -0.000070  -0.000731   0.402195   0.399602
    16  H   -0.000002   0.000002   0.000002   0.000000  -0.000003   0.000000
    17  H   -0.000001   0.000000   0.000000   0.000000  -0.000004   0.000000
    18  H    0.000000   0.000000   0.000000   0.000000   0.000000   0.000000
    19  H   -0.000964   0.000000   0.000000  -0.000001  -0.000011   0.000000
    20  H    0.000000   0.000000   0.000000   0.000000   0.000000   0.000000
    21  H    0.005793  -0.000030   0.002983   0.000101   0.000000   0.000000
    22  H   -0.000141  -0.004442  -0.003389   0.004007   0.000000   0.000000
    23  H   -0.000012   0.000000   0.000000   0.000004  -0.004984  -0.001209
    24  H    0.000001   0.000002   0.000000   0.000007   0.003744  -0.001081
    25  H    0.332986  -0.000022   0.000251  -0.000296   0.000040  -0.000001
    26  H   -0.000022   0.513304  -0.022921  -0.027454   0.000000   0.000000
    27  H    0.000251  -0.022921   0.507178  -0.021625   0.000000   0.000000
    28  H   -0.000296  -0.027454  -0.021625   0.501295   0.000000   0.000000
    29  H    0.000040   0.000000   0.000000   0.000000   0.514632  -0.023188
    30  H   -0.000001   0.000000   0.000000   0.000000  -0.023188   0.505177
    31  H    0.000009   0.000000   0.000000   0.000000  -0.029048  -0.022172
             31
     1  C   -0.018877
     2  C    0.002336
     3  C    0.030015
     4  C   -0.001292
     5  C   -0.014122
     6  C   -0.003328
     7  C    0.013952
     8  C   -0.010142
     9  C   -0.004131
    10  O   -0.005737
    11  C   -0.033745
    12  O   -0.000070
    13  C   -0.002425
    14  O    0.003098
    15  C    0.408323
    16  H   -0.000002
    17  H    0.000000
    18  H   -0.000014
    19  H    0.000000
    20  H    0.000000
    21  H    0.000000
    22  H    0.000011
    23  H    0.003908
    24  H   -0.004692
    25  H    0.000009
    26  H    0.000000
    27  H    0.000000
    28  H    0.000000
    29  H   -0.029048
    30  H   -0.022172
    31  H    0.507756
 Mulliken atomic charges:
              1
     1  C   -0.425224
     2  C   -0.143028
     3  C   -0.141199
     4  C   -0.136308
     5  C    0.131279
     6  C   -0.250243
     7  C   -0.064143
     8  C    0.243985
     9  C   -0.000681
    10  O   -0.270260
    11  C   -0.039541
    12  O   -0.520623
    13  C   -0.597115
    14  O   -0.435953
    15  C   -0.478719
    16  H    0.170309
    17  H    0.183471
    18  H    0.182730
    19  H    0.189078
    20  H    0.181201
    21  H    0.184272
    22  H    0.194744
    23  H    0.176346
    24  H    0.183738
    25  H    0.400332
    26  H    0.180622
    27  H    0.179093
    28  H    0.187201
    29  H    0.176116
    30  H    0.178132
    31  H    0.180388
 Sum of Mulliken atomic charges =   0.00000
 Mulliken charges with hydrogens summed into heavy atoms:
              1
     1  C   -0.254915
     2  C    0.040443
     3  C    0.041531
     4  C   -0.136308
     5  C    0.320357
     6  C   -0.069042
     7  C    0.120128
     8  C    0.438729
     9  C   -0.000681
    10  O   -0.270260
    11  C    0.320543
    12  O   -0.120291
    13  C   -0.050199
    14  O   -0.435953
    15  C    0.055918
 Sum of Mulliken charges with hydrogens summed into heavy atoms =   0.00000
 Electronic spatial extent (au):  <R**2>=           3132.9065
 Charge=              0.0000 electrons
 Dipole moment (field-independent basis, Debye):
    X=             -0.3124    Y=              1.1241    Z=             -0.8288  Tot=              1.4311
 Quadrupole moment (field-independent basis, Debye-Ang):
   XX=            -85.1660   YY=            -86.4084   ZZ=            -92.1029
   XY=             -2.5676   XZ=             -3.5207   YZ=             -9.8633
 Traceless Quadrupole moment (field-independent basis, Debye-Ang):
   XX=              2.7265   YY=              1.4840   ZZ=             -4.2105
   XY=             -2.5676   XZ=             -3.5207   YZ=             -9.8633
 Octapole moment (field-independent basis, Debye-Ang**2):
  XXX=              5.6655  YYY=             17.3199  ZZZ=             -9.5517  XYY=             22.4174
  XXY=             16.6059  XXZ=            -15.2385  XZZ=            -12.8618  YZZ=              6.1049
  YYZ=              1.2158  XYZ=            -20.1760
 Hexadecapole moment (field-independent basis, Debye-Ang**3):
 XXXX=          -2212.6293 YYYY=          -1152.8969 ZZZZ=           -642.5064 XXXY=            -67.6814
 XXXZ=              4.6236 YYYX=             33.5091 YYYZ=            -38.3743 ZZZX=            -25.8409
 ZZZY=            -19.7496 XXYY=           -589.9139 XXZZ=           -483.7987 YYZZ=           -335.7455
 XXYZ=             -5.2877 YYXZ=             -7.2389 ZZXY=             -6.1019
 N-N= 1.041858718824D+03 E-N=-3.695420255566D+03  KE= 6.858982703325D+02
 1\1\GINC-COMPUTE-9-6\SP\RwB97XD\6-31+G(d,p)\C12H16O3\ELUCIANO.IQUIR\17
 -May-2022\0\\# wb97xd/6-31+g** scrf=(pcm,solvent=chloroform,smd,dovacu
 um) nmr\\comment\\0,1\C,0,-1.236481694,0.953124763,-1.296842515\C,0,-0
 .853276091,-1.210699636,-3.008328745\C,0,-1.037967768,1.163740545,-2.6
 64610729\C,0,-1.221271978,-0.342748545,-0.75467838\C,0,-1.049586389,-1
 .42105955,-1.641455227\C,0,-0.841369738,0.083044247,-3.518913692\C,0,-
 1.450568844,-0.599528768,0.729983963\C,0,-0.963388972,0.48843019,1.710
 196864\C,0,0.478062623,0.885157976,1.465784929\O,0,1.285169238,-0.2044
 8518,1.331404811\C,0,2.666122323,0.072495311,1.052229621\O,0,-0.904909
 2,-1.87062026,1.105711861\C,0,-1.126221384,0.085667279,3.175149948\O,0
 ,0.85473523,2.049958502,1.424791602\C,0,2.868313786,0.244114863,-0.441
 813472\H,0,-1.402301314,1.827142093,-0.671261596\H,0,-0.716546387,-2.0
 59796759,-3.672957159\H,0,-1.042143449,2.175655757,-3.062460174\H,0,-1
 .073337772,-2.445180959,-1.271800814\H,0,-0.690157979,0.248625774,-4.5
 82147174\H,0,-2.536187076,-0.699350543,0.857605006\H,0,-1.565019563,1.
 391657512,1.543999221\H,0,3.242041674,-0.789169934,1.405149322\H,0,3.0
 19453192,0.94694611,1.610308259\H,0,0.061546963,-1.798791024,0.9855396
 1\H,0,-0.844801932,0.913999141,3.835001897\H,0,-2.165767956,-0.1804803
 92,3.392005023\H,0,-0.490312302,-0.766109462,3.439356513\H,0,2.5065149
 92,-0.636769103,-0.982401677\H,0,3.926237148,0.39253389,-0.675621553\H
 ,0,2.303420617,1.102496161,-0.818925541\\Version=EM64L-G09RevC.01\Stat
 e=1-A\HF=-692.4458336\RMSD=3.562e-09\Dipole=0.4570844,-0.2116421,-0.25
 15727\Quadrupole=4.0284132,-7.1331917,3.1047785,-5.6939982,-0.9952171,
 -0.2155761\PG=C01 [X(C12H16O3)]\\@


 OLD HORSE! OLD HORSE! WHAT BROUGHT YOU HERE?
 FROM SACARAP' TO PORTLAND PIER
 I'VE CARTED STONE THIS MANY A YEAR;
 TILL, KILLED BY BLOWS AND SORE ABUSE,
 THEY SALTED ME DOWN FOR SAILORS' USE.
 THE SAILORS THEY DO ME DESPISE;
 THEY TURN ME OVER AND DAMN MY EYES;
 CUT OFF MY MEAT, AND SCRAPE MY BONES,
 AND PITCH ME OVER TO DAVY JONES.

    SAILORS' COMPLAINT ABOUT THE BEEF
    SERVED ON SHIPBOARD, CIRCA 1835.
 Job cpu time:  0 days  0 hours 27 minutes  6.7 seconds.
 File lengths (MBytes):  RWF=    122 Int=      0 D2E=      0 Chk=      9 Scr=      1
 Normal termination of Gaussian 09 at Tue May 17 16:18:15 2022.
