 Entering Gaussian System, Link 0=g09
 Input=/home/eluciano.iquir/wb9/73b_028.gjc
 Output=/home/eluciano.iquir/wb9/73b_028.log
 Initial command:
 /share/apps/Gaussian09/EM64T.SSE4.2-enabled/g09/l1.exe /tmp/Gau-30899.inp -scrdir=/tmp/
 Entering Link 1 = /share/apps/Gaussian09/EM64T.SSE4.2-enabled/g09/l1.exe PID=     30900.
  
 Copyright (c) 1988,1990,1992,1993,1995,1998,2003,2009,2011,
            Gaussian, Inc.  All Rights Reserved.
  
 This is part of the Gaussian(R) 09 program.  It is based on
 the Gaussian(R) 03 system (copyright 2003, Gaussian, Inc.),
 the Gaussian(R) 98 system (copyright 1998, Gaussian, Inc.),
 the Gaussian(R) 94 system (copyright 1995, Gaussian, Inc.),
 the Gaussian 92(TM) system (copyright 1992, Gaussian, Inc.),
 the Gaussian 90(TM) system (copyright 1990, Gaussian, Inc.),
 the Gaussian 88(TM) system (copyright 1988, Gaussian, Inc.),
 the Gaussian 86(TM) system (copyright 1986, Carnegie Mellon
 University), and the Gaussian 82(TM) system (copyright 1983,
 Carnegie Mellon University). Gaussian is a federally registered
 trademark of Gaussian, Inc.
  
 This software contains proprietary and confidential information,
 including trade secrets, belonging to Gaussian, Inc.
  
 This software is provided under written license and may be
 used, copied, transmitted, or stored only in accord with that
 written license.
  
 The following legend is applicable only to US Government
 contracts under FAR:
  
                    RESTRICTED RIGHTS LEGEND
  
 Use, reproduction and disclosure by the US Government is
 subject to restrictions as set forth in subparagraphs (a)
 and (c) of the Commercial Computer Software - Restricted
 Rights clause in FAR 52.227-19.
  
 Gaussian, Inc.
 340 Quinnipiac St., Bldg. 40, Wallingford CT 06492
  
  
 ---------------------------------------------------------------
 Warning -- This program may not be used in any manner that
 competes with the business of Gaussian, Inc. or will provide
 assistance to any competitor of Gaussian, Inc.  The licensee
 of this program is prohibited from giving any competitor of
 Gaussian, Inc. access to this program.  By using this program,
 the user acknowledges that Gaussian, Inc. is engaged in the
 business of creating and licensing software in the field of
 computational chemistry and represents and warrants to the
 licensee that it is not a competitor of Gaussian, Inc. and that
 it will not use this program in any manner prohibited above.
 ---------------------------------------------------------------
  

 Cite this work as:
 Gaussian 09, Revision C.01,
 M. J. Frisch, G. W. Trucks, H. B. Schlegel, G. E. Scuseria, 
 M. A. Robb, J. R. Cheeseman, G. Scalmani, V. Barone, B. Mennucci, 
 G. A. Petersson, H. Nakatsuji, M. Caricato, X. Li, H. P. Hratchian, 
 A. F. Izmaylov, J. Bloino, G. Zheng, J. L. Sonnenberg, M. Hada, 
 M. Ehara, K. Toyota, R. Fukuda, J. Hasegawa, M. Ishida, T. Nakajima, 
 Y. Honda, O. Kitao, H. Nakai, T. Vreven, J. A. Montgomery, Jr., 
 J. E. Peralta, F. Ogliaro, M. Bearpark, J. J. Heyd, E. Brothers, 
 K. N. Kudin, V. N. Staroverov, T. Keith, R. Kobayashi, J. Normand, 
 K. Raghavachari, A. Rendell, J. C. Burant, S. S. Iyengar, J. Tomasi, 
 M. Cossi, N. Rega, J. M. Millam, M. Klene, J. E. Knox, J. B. Cross, 
 V. Bakken, C. Adamo, J. Jaramillo, R. Gomperts, R. E. Stratmann, 
 O. Yazyev, A. J. Austin, R. Cammi, C. Pomelli, J. W. Ochterski, 
 R. L. Martin, K. Morokuma, V. G. Zakrzewski, G. A. Voth, 
 P. Salvador, J. J. Dannenberg, S. Dapprich, A. D. Daniels, 
 O. Farkas, J. B. Foresman, J. V. Ortiz, J. Cioslowski, 
 and D. J. Fox, Gaussian, Inc., Wallingford CT, 2010.
 
 ******************************************
 Gaussian 09:  EM64L-G09RevC.01 23-Sep-2011
                17-May-2022 
 ******************************************
 %nprocshared=4
 Will use up to    4 processors via shared memory.
 ----------------------------------------------------------------
 # wb97xd/6-31+g** scrf=(pcm,solvent=chloroform,smd,dovacuum) nmr
 ----------------------------------------------------------------
 1/38=1/1;
 2/12=2,17=6,18=5,40=1/2;
 3/5=1,6=6,7=111,11=2,16=1,25=1,30=1,70=32101,72=7,74=-58/1,2,8,3;
 4//1;
 5/5=2,38=5,53=7/2;
 8/6=1,10=90,11=11/1;
 10/13=100,45=16/2;
 6/7=2,8=2,9=2,10=2,28=1/1;
 99/9=1/99;
 -------
 comment
 -------
 Charge =  0 Multiplicity = 1
 Symbolic Z-Matrix:
 6                    -2.10442  -0.32175  -1.24201 
 6                     0.19962  -0.96333  -2.67573 
 6                    -2.02364  -0.03109  -2.60523 
 6                    -1.03506  -0.94326  -0.57944 
 6                     0.12087  -1.25458  -1.31313 
 6                    -0.87289  -0.35311  -3.32147 
 6                    -1.13118  -1.23712   0.90601 
 6                    -0.65627  -0.08985   1.81033 
 6                     0.7482    0.36491   1.46345 
 8                     0.71079   1.63501   0.96281 
 6                     1.97817   2.21215   0.61746 
 8                    -0.49931  -2.4735    1.23462 
 6                    -0.70421  -0.45239   3.29397 
 8                     1.76859  -0.28972   1.6262 
 6                     2.37372   1.81793  -0.79281 
 1                    -3.01079  -0.05777  -0.70099 
 1                     1.10214  -1.20732  -3.23041 
 1                    -2.85881   0.44921  -3.10878 
 1                     0.97743  -1.71547  -0.82143 
 1                    -0.81005  -0.12456  -4.38218 
 1                    -2.19186  -1.41127   1.13171 
 1                    -1.33026   0.76476   1.65806 
 1                     2.75175   1.93747   1.34368 
 1                     1.85768   3.29901   0.67358 
 1                    -0.62232  -3.07447   0.47959 
 1                    -0.41541   0.40671   3.90976 
 1                    -1.7146   -0.75456   3.58804 
 1                    -0.01734  -1.27037   3.5369 
 1                     2.53746   0.73864  -0.86668 
 1                     3.29302   2.32813  -1.09398 
 1                     1.579     2.07156  -1.5019 
 
                          Input orientation:                          
 ---------------------------------------------------------------------
 Center     Atomic      Atomic             Coordinates (Angstroms)
 Number     Number       Type             X           Y           Z
 ---------------------------------------------------------------------
      1          6           0       -2.104417   -0.321747   -1.242007
      2          6           0        0.199615   -0.963331   -2.675731
      3          6           0       -2.023636   -0.031095   -2.605231
      4          6           0       -1.035064   -0.943257   -0.579439
      5          6           0        0.120867   -1.254583   -1.313126
      6          6           0       -0.872895   -0.353112   -3.321475
      7          6           0       -1.131179   -1.237122    0.906007
      8          6           0       -0.656267   -0.089854    1.810325
      9          6           0        0.748196    0.364906    1.463447
     10          8           0        0.710791    1.635011    0.962812
     11          6           0        1.978173    2.212151    0.617455
     12          8           0       -0.499308   -2.473504    1.234617
     13          6           0       -0.704213   -0.452395    3.293972
     14          8           0        1.768594   -0.289717    1.626199
     15          6           0        2.373721    1.817934   -0.792806
     16          1           0       -3.010794   -0.057765   -0.700986
     17          1           0        1.102135   -1.207318   -3.230413
     18          1           0       -2.858812    0.449211   -3.108777
     19          1           0        0.977426   -1.715470   -0.821425
     20          1           0       -0.810046   -0.124556   -4.382178
     21          1           0       -2.191862   -1.411265    1.131710
     22          1           0       -1.330264    0.764758    1.658060
     23          1           0        2.751751    1.937471    1.343685
     24          1           0        1.857677    3.299008    0.673577
     25          1           0       -0.622321   -3.074469    0.479587
     26          1           0       -0.415407    0.406711    3.909762
     27          1           0       -1.714603   -0.754564    3.588042
     28          1           0       -0.017338   -1.270367    3.536900
     29          1           0        2.537464    0.738643   -0.866684
     30          1           0        3.293018    2.328130   -1.093977
     31          1           0        1.578996    2.071557   -1.501901
 ---------------------------------------------------------------------
                    Distance matrix (angstroms):
                    1          2          3          4          5
     1  C    0.000000
     2  C    2.788505   0.000000
     3  C    1.396204   2.411821   0.000000
     4  C    1.403135   2.432957   2.431697   0.000000
     5  C    2.413945   1.395608   2.786637   1.404064   0.000000
     6  C    2.416986   1.392706   1.393164   2.809508   2.415301
     7  C    2.529637   3.830773   3.818346   1.517281   2.548033
     8  C    3.386391   4.649753   4.622801   2.565688   3.422934
     9  C    3.991037   4.381547   4.939029   3.010763   3.275003
    10  O    4.076214   4.500186   4.794155   3.474768   3.725272
    11  C    5.152260   4.908364   5.606454   4.524241   4.381207
    12  O    3.652410   4.249699   4.799309   2.432999   2.891605
    13  C    4.748973   6.059317   6.059618   3.918382   4.748643
    14  O    4.819527   4.628397   5.687960   3.626630   3.505082
    15  C    4.983346   4.000948   5.102993   4.391984   3.845315
    16  H    1.088076   3.876390   2.145074   2.168497   3.407989
    17  H    3.875561   1.087081   3.397764   3.415409   2.154324
    18  H    2.155996   3.396584   1.087093   3.415052   3.873727
    19  H    3.408388   2.146894   3.876268   2.169098   1.089899
    20  H    3.402199   2.152886   2.153851   3.896374   3.400388
    21  H    2.613279   4.518453   3.987216   2.117839   3.369048
    22  H    3.192209   4.910048   4.392015   2.830346   3.874463
    23  H    5.947457   5.575281   6.501808   5.131956   4.916239
    24  H    5.698905   5.668736   6.074928   5.285339   5.262954
    25  H    3.569029   3.884394   4.554328   2.415358   2.660476
    26  H    5.470295   6.754553   6.724820   4.728563   5.506908
    27  H    4.865044   6.553066   6.243039   4.226733   5.257415
    28  H    5.300352   6.223996   6.579270   4.252883   4.852021
    29  H    4.776229   3.410998   4.941526   3.959073   3.164207
    30  H    6.014655   4.785896   6.009712   5.449681   4.790240
    31  H    4.400339   3.534277   4.314793   4.095528   3.636617
                    6          7          8          9         10
     6  C    0.000000
     7  C    4.326637   0.000000
     8  C    5.143112   1.536085   0.000000
     9  C    5.102839   2.531657   1.516459   0.000000
    10  O    4.981546   3.412510   2.358449   1.365723   0.000000
    11  C    5.497666   4.652829   3.696274   2.375049   1.434789
    12  O    5.039206   1.426845   2.457206   3.108891   4.291632
    13  C    6.618342   2.549603   1.528052   2.475539   3.434211
    14  O    5.609007   3.134475   2.440040   1.223205   2.294255
    15  C    4.652754   4.950117   4.426825   3.137563   2.425076
    16  H    3.394821   2.739755   3.442603   4.358146   4.414058
    17  H    2.153765   4.700910   5.454333   4.962811   5.080858
    18  H    2.152401   4.684754   5.416582   5.824332   5.543105
    19  H    3.395579   2.767500   3.498241   3.098573   3.805301
    20  H    1.086867   5.413486   6.194510   6.069516   5.829060
    21  H    4.763425   1.098324   2.136515   3.450910   4.211142
    22  H    5.123923   2.147729   1.099008   2.125501   2.325213
    23  H    6.336288   5.034556   3.992792   2.549811   2.098110
    24  H    6.062544   5.437256   4.369954   3.234779   2.041541
    25  H    4.681521   1.953616   3.268018   3.830875   4.918322
    26  H    7.285424   3.498151   2.170766   2.709276   3.385492
    27  H    6.972163   2.786855   2.173060   3.439839   4.299352
    28  H    6.972133   2.857157   2.186985   2.749431   3.949344
    29  H    4.341483   4.528247   4.248847   2.961531   2.736286
    30  H    5.431909   6.023660   5.466120   4.107406   3.373232
    31  H    3.898927   4.908200   4.543010   3.520820   2.649370
                   11         12         13         14         15
    11  C    0.000000
    12  O    5.336119   0.000000
    13  C    4.632358   2.892717   0.000000
    14  O    2.705704   3.172639   2.987089   0.000000
    15  C    1.516807   5.548079   5.597305   3.264960   0.000000
    16  H    5.637429   3.986215   4.629875   5.320916   5.702603
    17  H    5.221715   4.909617   6.811784   4.987268   4.087911
    18  H    6.355248   5.742351   6.815452   6.661749   5.883581
    19  H    4.300940   2.642474   4.621663   2.941017   3.799396
    20  H    6.183098   6.096105   7.683877   6.540432   5.176218
    21  H    5.548224   2.000920   2.794264   4.145793   5.914054
    22  H    3.758133   3.369886   2.132981   3.273508   4.564585
    23  H    1.096030   5.480692   4.632361   2.450874   2.172968
    24  H    1.094955   6.260354   5.244308   3.714078   2.147128
    25  H    5.893210   0.972811   3.847433   3.845261   5.876296
    26  H    4.452878   3.931803   1.095750   3.235665   5.646674
    27  H    5.591276   3.157579   1.094838   4.024620   6.521040
    28  H    4.963180   2.642034   1.095395   2.793207   5.831049
    29  H    2.164879   4.894419   5.407226   2.804131   1.094139
    30  H    2.161313   6.546738   6.554637   4.071407   1.093669
    31  H    2.161199   5.697847   5.880797   3.923847   1.094864
                   16         17         18         19         20
    16  H    0.000000
    17  H    4.963433   0.000000
    18  H    2.465275   4.295112   0.000000
    19  H    4.320694   2.465156   4.963320   0.000000
    20  H    4.289398   2.481002   2.479557   4.290108   0.000000
    21  H    2.421030   5.469929   4.678453   3.735192   5.828207
    22  H    3.010951   5.805414   5.015851   4.198192   6.127478
    23  H    6.431841   5.790795   7.315583   4.602164   7.051515
    24  H    6.071191   6.009905   6.683772   5.306116   6.663197
    25  H    4.024805   4.497121   5.504049   2.469555   5.689814
    26  H    5.311381   7.475970   7.431818   5.369150   8.318308
    27  H    4.534468   7.391233   6.899686   5.254880   8.046088
    28  H    5.328307   6.859572   7.429397   4.492513   8.040713
    29  H    5.607575   3.381443   5.850688   2.908340   4.930481
    30  H    6.751666   4.675866   6.740531   4.667650   5.801988
    31  H    5.122661   3.737135   4.990811   3.894421   4.338944
                   21         22         23         24         25
    21  H    0.000000
    22  H    2.398848   0.000000
    23  H    5.974804   4.258749   0.000000
    24  H    6.228589   4.189821   1.761305   0.000000
    25  H    2.378017   4.077946   6.103325   6.841727   0.000000
    26  H    3.765422   2.456689   4.354178   4.899509   4.891577
    27  H    2.587006   2.486138   5.677368   6.138952   4.029582
    28  H    3.245512   3.065215   4.771611   5.709071   3.601105
    29  H    5.566166   4.618911   2.523655   3.064308   5.131911
    30  H    7.001476   5.602909   2.527406   2.475289   6.855221
    31  H    5.769343   4.489641   3.080697   2.513365   5.937480
                   26         27         28         29         30
    26  H    0.000000
    27  H    1.771996   0.000000
    28  H    1.763540   1.774648   0.000000
    29  H    5.625305   6.336744   5.473088   0.000000
    30  H    6.517797   7.516686   6.734439   1.774540   0.000000
    31  H    6.002953   6.688966   6.253500   1.760348   1.780479
                   31
    31  H    0.000000
 Stoichiometry    C12H16O3
 Framework group  C1[X(C12H16O3)]
 Deg. of freedom    87
 Full point group                 C1      NOp   1
 Largest Abelian subgroup         C1      NOp   1
 Largest concise Abelian subgroup C1      NOp   1
                         Standard orientation:                         
 ---------------------------------------------------------------------
 Center     Atomic      Atomic             Coordinates (Angstroms)
 Number     Number       Type             X           Y           Z
 ---------------------------------------------------------------------
      1          6           0        1.957101   -0.991464   -1.111949
      2          6           0        2.566359    0.658814    1.051647
      3          6           0        3.119278   -0.217818   -1.126122
      4          6           0        1.087325   -0.954056   -0.011550
      5          6           0        1.404135   -0.113650    1.067684
      6          6           0        3.424031    0.605452   -0.044337
      7          6           0       -0.180505   -1.787545   -0.018348
      8          6           0       -1.395522   -1.086680   -0.644510
      9          6           0       -1.667069    0.261664   -0.005856
     10          8           0       -1.437764    1.255992   -0.913563
     11          6           0       -1.684992    2.593454   -0.456736
     12          8           0       -0.471479   -2.304222    1.279444
     13          6           0       -2.665854   -1.932492   -0.568351
     14          8           0       -2.056058    0.440825    1.139927
     15          6           0       -0.461961    3.147325    0.249045
     16          1           0        1.736238   -1.624171   -1.969160
     17          1           0        2.797285    1.307295    1.893009
     18          1           0        3.786820   -0.255780   -1.983279
     19          1           0        0.736082   -0.044497    1.926057
     20          1           0        4.327847    1.208968   -0.057141
     21          1           0        0.025502   -2.681944   -0.621612
     22          1           0       -1.178038   -0.913869   -1.707833
     23          1           0       -2.573256    2.637454    0.183836
     24          1           0       -1.900135    3.197232   -1.344480
     25          1           0        0.377231   -2.479263    1.721500
     26          1           0       -3.495675   -1.427369   -1.075221
     27          1           0       -2.515963   -2.903699   -1.051011
     28          1           0       -2.977810   -2.108548    0.466819
     29          1           0       -0.247485    2.583657    1.161962
     30          1           0       -0.612395    4.196595    0.518328
     31          1           0        0.422207    3.069161   -0.391944
 ---------------------------------------------------------------------
 Rotational constants (GHZ):      0.7353243      0.5344194      0.3831008
 Standard basis: 6-31+G(d,p) (6D, 7F)
 There are   365 symmetry adapted basis functions of A   symmetry.
 Integral buffers will be    131072 words long.
 Raffenetti 2 integral format.
 Two-electron integral symmetry is turned on.
   365 basis functions,   592 primitive gaussians,   365 cartesian basis functions
    56 alpha electrons       56 beta electrons
       nuclear repulsion energy      1035.4948451572 Hartrees.
 NAtoms=   31 NActive=   31 NUniq=   31 SFac= 1.00D+00 NAtFMM=   60 NAOKFM=F Big=F
 Nuclear repulsion after empirical dispersion term =     1035.4722941014 Hartrees.
 ------------------------------------------------------------------------------
 Polarizable Continuum Model (PCM)
 =================================
 Model                : C-PCM.
 Atomic radii         : SMD-Coulomb.
 Polarization charges : Total charges.
 Charge compensation  : None.
 Solution method      : Matrix inversion.
 Cavity type          : VdW (van der Waals Surface) (Alpha=1.000).
 Cavity algorithm     : GePol (No added spheres)
                        Default sphere list used, NSphG=   31.
                        Lebedev-Laikov grids with approx.  5.0 points / Ang**2.
                        Smoothing algorithm: Karplus/York (Gamma=1.0000).
                        Polarization charges: spherical gaussians, with
                                              point-specific exponents (IZeta= 3).
                        Self-potential: point-specific (ISelfS= 7).
                        Self-field    : sphere-specific E.n sum rule (ISelfD= 2).
 Solvent              : Chloroform, Eps=   4.711300 Eps(inf)=   2.090627
 ------------------------------------------------------------------------------
 ------------------------------------------------------------------------------
 Atomic radii for non-electrostatic terms: SMD-CDS.
 ------------------------------------------------------------------------------
 Nuclear repulsion after PCM non-electrostatic terms =     1035.4658000855 Hartrees.
 One-electron integrals computed using PRISM.
 NBasis=   365 RedAO= T  NBF=   365
 NBsUse=   365 1.00D-06 NBFU=   365
 Harris functional with IExCor= 4639 diagonalized for initial guess.
 ExpMin= 4.38D-02 ExpMax= 5.48D+03 ExpMxC= 8.25D+02 IAcc=2 IRadAn=         4 AccDes= 0.00D+00
 HarFok:  IExCor= 4639 AccDes= 0.00D+00 IRadAn=         4 IDoV= 1
 ScaDFX=  1.000000  1.000000  1.000000  1.000000
 FoFCou: FMM=F IPFlag=           0 FMFlag=      100000 FMFlg1=           0
         NFxFlg=           0 DoJE=T BraDBF=F KetDBF=T FulRan=T
         Omega=  0.000000  0.000000  1.000000  0.000000  0.000000 ICntrl=     500 IOpCl=  0
         NMat0=    1 NMatS0=    1 NMatT0=    0 NMatD0=    1 NMtDS0=    0 NMtDT0=    0
         I1Cent=           4 NGrid=           0.
 Petite list used in FoFCou.
 Initial guess orbital symmetries:
       Occupied  (A) (A) (A) (A) (A) (A) (A) (A) (A) (A) (A) (A)
                 (A) (A) (A) (A) (A) (A) (A) (A) (A) (A) (A) (A)
                 (A) (A) (A) (A) (A) (A) (A) (A) (A) (A) (A) (A)
                 (A) (A) (A) (A) (A) (A) (A) (A) (A) (A) (A) (A)
                 (A) (A) (A) (A) (A) (A) (A) (A)
       Virtual   (A) (A) (A) (A) (A) (A) (A) (A) (A) (A) (A) (A)
                 (A) (A) (A) (A) (A) (A) (A) (A) (A) (A) (A) (A)
                 (A) (A) (A) (A) (A) (A) (A) (A) (A) (A) (A) (A)
                 (A) (A) (A) (A) (A) (A) (A) (A) (A) (A) (A) (A)
                 (A) (A) (A) (A) (A) (A) (A) (A) (A) (A) (A) (A)
                 (A) (A) (A) (A) (A) (A) (A) (A) (A) (A) (A) (A)
                 (A) (A) (A) (A) (A) (A) (A) (A) (A) (A) (A) (A)
                 (A) (A) (A) (A) (A) (A) (A) (A) (A) (A) (A) (A)
                 (A) (A) (A) (A) (A) (A) (A) (A) (A) (A) (A) (A)
                 (A) (A) (A) (A) (A) (A) (A) (A) (A) (A) (A) (A)
                 (A) (A) (A) (A) (A) (A) (A) (A) (A) (A) (A) (A)
                 (A) (A) (A) (A) (A) (A) (A) (A) (A) (A) (A) (A)
                 (A) (A) (A) (A) (A) (A) (A) (A) (A) (A) (A) (A)
                 (A) (A) (A) (A) (A) (A) (A) (A) (A) (A) (A) (A)
                 (A) (A) (A) (A) (A) (A) (A) (A) (A) (A) (A) (A)
                 (A) (A) (A) (A) (A) (A) (A) (A) (A) (A) (A) (A)
                 (A) (A) (A) (A) (A) (A) (A) (A) (A) (A) (A) (A)
                 (A) (A) (A) (A) (A) (A) (A) (A) (A) (A) (A) (A)
                 (A) (A) (A) (A) (A) (A) (A) (A) (A) (A) (A) (A)
                 (A) (A) (A) (A) (A) (A) (A) (A) (A) (A) (A) (A)
                 (A) (A) (A) (A) (A) (A) (A) (A) (A) (A) (A) (A)
                 (A) (A) (A) (A) (A) (A) (A) (A) (A) (A) (A) (A)
                 (A) (A) (A) (A) (A) (A) (A) (A) (A) (A) (A) (A)
                 (A) (A) (A) (A) (A) (A) (A) (A) (A) (A) (A) (A)
                 (A) (A) (A) (A) (A) (A) (A) (A) (A) (A) (A) (A)
                 (A) (A) (A) (A) (A) (A) (A) (A) (A)
 The electronic state of the initial guess is 1-A.
 Requested convergence on RMS density matrix=1.00D-08 within 128 cycles.
 Requested convergence on MAX density matrix=1.00D-06.
 Requested convergence on             energy=1.00D-06.
 No special actions if energy rises.
 FoFJK:  IHMeth= 1 ICntrl=     0 DoSepK=T KAlg= 1 I1Cent= 0 FoldK=F
 FoFJK:  IHMeth= 1 ICntrl=     0 DoSepK=T KAlg= 1 I1Cent= 0 FoldK=F
 FoFJK:  IHMeth= 1 ICntrl=     0 DoSepK=T KAlg= 1 I1Cent= 0 FoldK=F
 FoFJK:  IHMeth= 1 ICntrl=     0 DoSepK=T KAlg= 1 I1Cent= 0 FoldK=F
 FoFJK:  IHMeth= 1 ICntrl=     0 DoSepK=T KAlg= 1 I1Cent= 0 FoldK=F
 FoFJK:  IHMeth= 1 ICntrl=     0 DoSepK=T KAlg= 1 I1Cent= 0 FoldK=F
 FoFJK:  IHMeth= 1 ICntrl=     0 DoSepK=T KAlg= 1 I1Cent= 0 FoldK=F
 FoFJK:  IHMeth= 1 ICntrl=     0 DoSepK=T KAlg= 1 I1Cent= 0 FoldK=F
 FoFJK:  IHMeth= 1 ICntrl=     0 DoSepK=T KAlg= 1 I1Cent= 0 FoldK=F
 FoFJK:  IHMeth= 1 ICntrl=     0 DoSepK=T KAlg= 1 I1Cent= 0 FoldK=F
 FoFJK:  IHMeth= 1 ICntrl=     0 DoSepK=T KAlg= 1 I1Cent= 0 FoldK=F
 FoFJK:  IHMeth= 1 ICntrl=     0 DoSepK=T KAlg= 1 I1Cent= 0 FoldK=F
 FoFJK:  IHMeth= 1 ICntrl=     0 DoSepK=T KAlg= 1 I1Cent= 0 FoldK=F
 FoFJK:  IHMeth= 1 ICntrl=     0 DoSepK=T KAlg= 1 I1Cent= 0 FoldK=F
 FoFJK:  IHMeth= 1 ICntrl=     0 DoSepK=T KAlg= 1 I1Cent= 0 FoldK=F
 FoFJK:  IHMeth= 1 ICntrl=     0 DoSepK=T KAlg= 1 I1Cent= 0 FoldK=F
 Error on total polarization charges =  0.03862
 SCF Done:  E(RwB97XD) =  -692.443234784     A.U. after   16 cycles
             Convg  =    0.4060D-08             -V/T =  2.0095
 SMD-CDS (non-electrostatic) energy       (kcal/mol) =      -4.08
 (included in total energy above)
 Range of M.O.s used for correlation:     1   365
 NBasis=   365 NAE=    56 NBE=    56 NFC=     0 NFV=     0
 NROrb=    365 NOA=    56 NOB=    56 NVA=   309 NVB=   309

 **** Warning!!: The largest alpha MO coefficient is  0.14466931D+03

 NEqPCM:  Using equilibrium solvation (IEInf=0, Eps=   4.7113, EpsInf=   2.0906)
          Differentiating once with respect to magnetic field using GIAOs.
          Electric field/nuclear overlap derivatives assumed to be zero.
 FoFCou: FMM=F IPFlag=           0 FMFlag=    10101102 FMFlg1=           0
         NFxFlg=    40000000 DoJE=F BraDBF=F KetDBF=T FulRan=T
         Omega=  0.000000  0.000000  1.000000  0.000000  0.000000 ICntrl=    6100 IOpCl=  0
         NMat0=    1 NMatS0=    1 NMatT0=    0 NMatD0=    1 NMtDS0=    0 NMtDT0=    0
         I1Cent=           7 NGrid=        2236.
 Symmetry not used in FoFCou.
 FoFJK:  IHMeth= 1 ICntrl=  6127 DoSepK=T KAlg= 1 I1Cent= 0 FoldK=F
 FoFJK:  IHMeth= 1 ICntrl=     0 DoSepK=T KAlg= 1 I1Cent= 0 FoldK=F
          There are     3 degrees of freedom in the 1st order CPHF.  IDoFFX=0.
      3 vectors produced by pass  0 Test12= 5.77D-13 3.33D-08 XBig12= 1.16D+02 2.16D+00.
 AX will form     3 AO Fock derivatives at one time.
 FoFJK:  IHMeth= 1 ICntrl=     0 DoSepK=T KAlg= 1 I1Cent= 0 FoldK=F
      3 vectors produced by pass  1 Test12= 5.77D-13 3.33D-08 XBig12= 8.78D-01 2.19D-01.
 FoFJK:  IHMeth= 1 ICntrl=     0 DoSepK=T KAlg= 1 I1Cent= 0 FoldK=F
      3 vectors produced by pass  2 Test12= 5.77D-13 3.33D-08 XBig12= 1.62D-02 3.94D-02.
 FoFJK:  IHMeth= 1 ICntrl=     0 DoSepK=T KAlg= 1 I1Cent= 0 FoldK=F
      3 vectors produced by pass  3 Test12= 5.77D-13 3.33D-08 XBig12= 2.76D-04 3.98D-03.
 FoFJK:  IHMeth= 1 ICntrl=     0 DoSepK=T KAlg= 1 I1Cent= 0 FoldK=F
      3 vectors produced by pass  4 Test12= 5.77D-13 3.33D-08 XBig12= 5.49D-06 6.80D-04.
 FoFJK:  IHMeth= 1 ICntrl=     0 DoSepK=T KAlg= 1 I1Cent= 0 FoldK=F
      3 vectors produced by pass  5 Test12= 5.77D-13 3.33D-08 XBig12= 7.68D-08 6.52D-05.
 FoFJK:  IHMeth= 1 ICntrl=     0 DoSepK=T KAlg= 1 I1Cent= 0 FoldK=F
      3 vectors produced by pass  6 Test12= 5.77D-13 3.33D-08 XBig12= 8.47D-10 7.41D-06.
 FoFJK:  IHMeth= 1 ICntrl=     0 DoSepK=T KAlg= 1 I1Cent= 0 FoldK=F
      3 vectors produced by pass  7 Test12= 5.77D-13 3.33D-08 XBig12= 1.06D-11 8.31D-07.
 FoFJK:  IHMeth= 1 ICntrl=     0 DoSepK=T KAlg= 1 I1Cent= 0 FoldK=F
      3 vectors produced by pass  8 Test12= 5.77D-13 3.33D-08 XBig12= 1.08D-13 7.57D-08.
 FoFJK:  IHMeth= 1 ICntrl=     0 DoSepK=T KAlg= 1 I1Cent= 0 FoldK=F
 Inverted reduced A of dimension    27 with in-core refinement.
 Calculating GIAO nuclear magnetic shielding tensors.
 SCF GIAO Magnetic shielding tensor (ppm):
      1  C    Isotropic =    70.9117   Anisotropy =   163.9993
   XX=    80.9892   YX=   -57.6619   ZX=    16.1347
   XY=   -48.1362   YY=   103.8187   ZY=   -79.1062
   XZ=     4.9928   YZ=   -80.4257   ZZ=    27.9273
   Eigenvalues:   -26.4547    58.9454   180.2446
      2  C    Isotropic =    69.0220   Anisotropy =   178.9084
   XX=    85.6722   YX=   -60.2091   ZX=    17.6078
   XY=   -62.3479   YY=    94.7774   ZY=   -87.2126
   XZ=    14.9022   YZ=   -83.7120   ZZ=    26.6165
   Eigenvalues:   -35.5928    54.3646   188.2943
      3  C    Isotropic =    70.4768   Anisotropy =   175.8354
   XX=    57.1957   YX=   -48.7146   ZX=    69.2513
   XY=   -48.1542   YY=   130.1717   ZY=   -43.3117
   XZ=    72.2305   YZ=   -44.9731   ZZ=    24.0629
   Eigenvalues:   -32.1777    55.9076   187.7003
      4  C    Isotropic =    52.2988   Anisotropy =   183.6481
   XX=    19.0835   YX=   -77.0481   ZX=    42.1124
   XY=   -78.6026   YY=    84.8389   ZY=   -60.9495
   XZ=    34.5078   YZ=   -52.0840   ZZ=    52.9741
   Eigenvalues:   -32.5322    14.6978   174.7309
      5  C    Isotropic =    72.9016   Anisotropy =   183.0415
   XX=    56.5310   YX=   -55.3463   ZX=    69.2134
   XY=   -42.6294   YY=   136.7865   ZY=   -50.0963
   XZ=    64.8400   YZ=   -52.0305   ZZ=    25.3874
   Eigenvalues:   -28.5502    52.3257   194.9293
      6  C    Isotropic =    71.3651   Anisotropy =   177.0821
   XX=    33.8900   YX=   -88.7642   ZX=    29.0489
   XY=   -95.2924   YY=   100.8580   ZY=   -41.6790
   XZ=    32.3992   YZ=   -41.0807   ZZ=    79.3473
   Eigenvalues:   -30.5777    55.2532   189.4199
      7  C    Isotropic =   121.0651   Anisotropy =    35.7097
   XX=   115.2441   YX=     5.3100   ZX=   -15.9468
   XY=     3.5709   YY=   110.0936   ZY=   -10.5527
   XZ=    -6.1447   YZ=    -6.0146   ZZ=   137.8576
   Eigenvalues:   107.3163   111.0074   144.8716
      8  C    Isotropic =   148.1345   Anisotropy =    16.1921
   XX=   147.7952   YX=    -2.0467   ZX=    -2.9564
   XY=    -8.6120   YY=   153.1352   ZY=     3.4166
   XZ=     0.5773   YZ=     9.5462   ZZ=   143.4730
   Eigenvalues:   139.9341   145.5401   158.9292
      9  C    Isotropic =    20.9036   Anisotropy =   101.9555
   XX=    87.3875   YX=    -6.3357   ZX=     3.6677
   XY=     3.9723   YY=   -55.9951   ZY=    20.7693
   XZ=    13.8169   YZ=    52.5793   ZZ=    31.3185
   Eigenvalues:   -69.4628    43.2998    88.8740
     10  O    Isotropic =   120.9035   Anisotropy =   146.5370
   XX=   189.8888   YX=    77.6222   ZX=    52.0879
   XY=    29.2051   YY=   119.1652   ZY=   -35.8215
   XZ=    62.3939   YZ=  -174.2718   ZZ=    53.6565
   Eigenvalues:   -48.9740   193.0897   218.5948
     11  C    Isotropic =   138.1165   Anisotropy =    65.0903
   XX=   126.7913   YX=    -7.4774   ZX=    11.8290
   XY=   -12.2540   YY=   175.1082   ZY=    21.1295
   XZ=     9.7374   YZ=    17.9412   ZZ=   112.4501
   Eigenvalues:   100.2738   132.5657   181.5100
     12  O    Isotropic =   291.1857   Anisotropy =    80.6109
   XX=   317.5121   YX=     5.4318   ZX=    40.3428
   XY=    13.0741   YY=   265.7141   ZY=   -33.1890
   XZ=    34.2934   YZ=   -25.9897   ZZ=   290.3309
   Eigenvalues:   235.0057   293.6251   344.9263
     13  C    Isotropic =   180.9604   Anisotropy =    26.1312
   XX=   189.0766   YX=    11.7927   ZX=     1.7672
   XY=    10.3366   YY=   183.3164   ZY=     5.7031
   XZ=    -0.6557   YZ=     7.5538   ZZ=   170.4882
   Eigenvalues:   166.8091   177.6909   198.3812
     14  O    Isotropic =   -42.5954   Anisotropy =   571.6654
   XX=   269.8039   YX=    26.0175   ZX=   203.2172
   XY=     0.1796   YY=  -182.9931   ZY=    48.1237
   XZ=   181.1934   YZ=    57.7209   ZZ=  -214.5970
   Eigenvalues:  -299.6799  -166.6212   338.5148
     15  C    Isotropic =   181.1262   Anisotropy =    21.9513
   XX=   188.4910   YX=     3.1409   ZX=     9.0806
   XY=    -1.0233   YY=   186.4478   ZY=     8.9672
   XZ=    10.9516   YZ=    10.3699   ZZ=   168.4398
   Eigenvalues:   161.3168   186.3014   195.7604
     16  H    Isotropic =    23.8831   Anisotropy =     7.5558
   XX=    27.0047   YX=     1.4644   ZX=    -3.5071
   XY=     1.5133   YY=    21.8516   ZY=     0.7403
   XZ=    -2.9540   YZ=     0.2744   ZZ=    22.7931
   Eigenvalues:    20.1770    22.5522    28.9203
     17  H    Isotropic =    23.7823   Anisotropy =     4.9872
   XX=    26.2172   YX=     1.9535   ZX=    -0.8710
   XY=     1.9446   YY=    21.8030   ZY=     0.3967
   XZ=    -0.9906   YZ=     0.2708   ZZ=    23.3268
   Eigenvalues:    20.8900    23.3499    27.1072
     18  H    Isotropic =    23.7524   Anisotropy =     4.4260
   XX=    24.8005   YX=     2.3319   ZX=    -0.3855
   XY=     2.3974   YY=    23.1319   ZY=     1.9523
   XZ=    -0.4009   YZ=     1.9122   ZZ=    23.3247
   Eigenvalues:    20.3320    24.2221    26.7030
     19  H    Isotropic =    23.5510   Anisotropy =     8.3658
   XX=    24.7127   YX=     3.3634   ZX=     3.3142
   XY=     3.3031   YY=    23.5293   ZY=     1.4058
   XZ=     2.5517   YZ=     1.8344   ZZ=    22.4110
   Eigenvalues:    20.1849    21.3399    29.1282
     20  H    Isotropic =    23.8256   Anisotropy =     3.9065
   XX=    24.3279   YX=     1.0291   ZX=    -1.3098
   XY=     0.7519   YY=    21.9939   ZY=     2.0227
   XZ=    -1.1231   YZ=     2.0527   ZZ=    25.1549
   Eigenvalues:    20.5171    24.5297    26.4299
     21  H    Isotropic =    26.5651   Anisotropy =     7.6218
   XX=    24.6998   YX=    -1.6490   ZX=    -3.4966
   XY=    -0.1050   YY=    26.8033   ZY=     1.7223
   XZ=    -3.9394   YZ=     2.6032   ZZ=    28.1924
   Eigenvalues:    22.2930    25.7560    31.6463
     22  H    Isotropic =    28.6762   Anisotropy =     4.3542
   XX=    27.8286   YX=     2.4966   ZX=    -0.9946
   XY=    -0.4110   YY=    27.1829   ZY=    -0.9384
   XZ=    -0.0032   YZ=    -1.6371   ZZ=    31.0171
   Eigenvalues:    26.2819    28.1677    31.5790
     23  H    Isotropic =    27.1508   Anisotropy =     7.1927
   XX=    29.7775   YX=    -1.6636   ZX=    -1.6602
   XY=    -3.1800   YY=    28.5197   ZY=     2.4010
   XZ=    -0.6235   YZ=    -0.0903   ZZ=    23.1552
   Eigenvalues:    22.8485    26.6580    31.9459
     24  H    Isotropic =    28.2030   Anisotropy =     9.2867
   XX=    26.1015   YX=    -2.5499   ZX=     4.5124
   XY=    -2.2717   YY=    30.7067   ZY=    -3.1808
   XZ=     3.5859   YZ=    -1.8911   ZZ=    27.8008
   Eigenvalues:    22.8023    27.4126    34.3942
     25  H    Isotropic =    29.9203   Anisotropy =    15.5400
   XX=    33.6883   YX=    -2.8440   ZX=     6.5328
   XY=    -0.0665   YY=    24.9979   ZY=    -4.8508
   XZ=     6.5237   YZ=    -5.0728   ZZ=    31.0748
   Eigenvalues:    21.7841    27.6966    40.2803
     26  H    Isotropic =    30.4686   Anisotropy =    10.0061
   XX=    35.2431   YX=    -0.1990   ZX=     4.4107
   XY=    -0.5429   YY=    28.3694   ZY=    -0.8564
   XZ=     3.8810   YZ=    -0.6530   ZZ=    27.7933
   Eigenvalues:    25.8291    28.4374    37.1393
     27  H    Isotropic =    30.4497   Anisotropy =    10.5525
   XX=    28.4293   YX=     2.7853   ZX=     0.8239
   XY=     1.3749   YY=    34.6199   ZY=     4.3678
   XZ=     1.0295   YZ=     4.5226   ZZ=    28.2999
   Eigenvalues:    25.9973    27.8671    37.4847
     28  H    Isotropic =    29.7376   Anisotropy =     7.0683
   XX=    30.3564   YX=     2.9733   ZX=    -2.9848
   XY=     2.1014   YY=    26.9798   ZY=    -1.7840
   XZ=    -1.6762   YZ=    -0.7491   ZZ=    31.8766
   Eigenvalues:    25.6203    29.1426    34.4498
     29  H    Isotropic =    30.5569   Anisotropy =     5.1922
   XX=    29.4889   YX=    -0.3618   ZX=     2.7777
   XY=    -1.0826   YY=    31.2404   ZY=    -0.3364
   XZ=     3.0290   YZ=    -2.3365   ZZ=    30.9413
   Eigenvalues:    27.2048    30.4475    34.0183
     30  H    Isotropic =    30.9652   Anisotropy =    11.6817
   XX=    27.8504   YX=     0.4291   ZX=     0.3466
   XY=    -0.3524   YY=    37.8294   ZY=     3.4776
   XZ=     0.6917   YZ=     3.0399   ZZ=    27.2157
   Eigenvalues:    26.1538    27.9887    38.7530
     31  H    Isotropic =    31.5064   Anisotropy =     6.7039
   XX=    35.1824   YX=    -0.6128   ZX=    -3.6170
   XY=    -0.2683   YY=    31.1215   ZY=     0.0700
   XZ=    -1.3156   YZ=    -1.5009   ZZ=    28.2154
   Eigenvalues:    27.2584    31.2852    35.9757
 End of Minotr Frequency-dependent properties file   721 does not exist.
 End of Minotr Frequency-dependent properties file   722 does not exist.

 **********************************************************************

            Population analysis using the SCF density.

 **********************************************************************

 Orbital symmetries:
       Occupied  (A) (A) (A) (A) (A) (A) (A) (A) (A) (A) (A) (A)
                 (A) (A) (A) (A) (A) (A) (A) (A) (A) (A) (A) (A)
                 (A) (A) (A) (A) (A) (A) (A) (A) (A) (A) (A) (A)
                 (A) (A) (A) (A) (A) (A) (A) (A) (A) (A) (A) (A)
                 (A) (A) (A) (A) (A) (A) (A) (A)
       Virtual   (A) (A) (A) (A) (A) (A) (A) (A) (A) (A) (A) (A)
                 (A) (A) (A) (A) (A) (A) (A) (A) (A) (A) (A) (A)
                 (A) (A) (A) (A) (A) (A) (A) (A) (A) (A) (A) (A)
                 (A) (A) (A) (A) (A) (A) (A) (A) (A) (A) (A) (A)
                 (A) (A) (A) (A) (A) (A) (A) (A) (A) (A) (A) (A)
                 (A) (A) (A) (A) (A) (A) (A) (A) (A) (A) (A) (A)
                 (A) (A) (A) (A) (A) (A) (A) (A) (A) (A) (A) (A)
                 (A) (A) (A) (A) (A) (A) (A) (A) (A) (A) (A) (A)
                 (A) (A) (A) (A) (A) (A) (A) (A) (A) (A) (A) (A)
                 (A) (A) (A) (A) (A) (A) (A) (A) (A) (A) (A) (A)
                 (A) (A) (A) (A) (A) (A) (A) (A) (A) (A) (A) (A)
                 (A) (A) (A) (A) (A) (A) (A) (A) (A) (A) (A) (A)
                 (A) (A) (A) (A) (A) (A) (A) (A) (A) (A) (A) (A)
                 (A) (A) (A) (A) (A) (A) (A) (A) (A) (A) (A) (A)
                 (A) (A) (A) (A) (A) (A) (A) (A) (A) (A) (A) (A)
                 (A) (A) (A) (A) (A) (A) (A) (A) (A) (A) (A) (A)
                 (A) (A) (A) (A) (A) (A) (A) (A) (A) (A) (A) (A)
                 (A) (A) (A) (A) (A) (A) (A) (A) (A) (A) (A) (A)
                 (A) (A) (A) (A) (A) (A) (A) (A) (A) (A) (A) (A)
                 (A) (A) (A) (A) (A) (A) (A) (A) (A) (A) (A) (A)
                 (A) (A) (A) (A) (A) (A) (A) (A) (A) (A) (A) (A)
                 (A) (A) (A) (A) (A) (A) (A) (A) (A) (A) (A) (A)
                 (A) (A) (A) (A) (A) (A) (A) (A) (A) (A) (A) (A)
                 (A) (A) (A) (A) (A) (A) (A) (A) (A) (A) (A) (A)
                 (A) (A) (A) (A) (A) (A) (A) (A) (A) (A) (A) (A)
                 (A) (A) (A) (A) (A) (A) (A) (A) (A)
 The electronic state is 1-A.
 Alpha  occ. eigenvalues --  -19.32559 -19.27968 -19.27238 -10.43687 -10.36159
 Alpha  occ. eigenvalues --  -10.34806 -10.31931 -10.31757 -10.30933 -10.30826
 Alpha  occ. eigenvalues --  -10.30811 -10.30753 -10.30647 -10.28864 -10.28452
 Alpha  occ. eigenvalues --   -1.20610  -1.12995  -1.12078  -0.96377  -0.91310
 Alpha  occ. eigenvalues --   -0.86585  -0.85339  -0.84890  -0.77730  -0.76291
 Alpha  occ. eigenvalues --   -0.70584  -0.70193  -0.68301  -0.64038  -0.62279
 Alpha  occ. eigenvalues --   -0.60847  -0.57918  -0.57214  -0.56026  -0.54930
 Alpha  occ. eigenvalues --   -0.53483  -0.52660  -0.52355  -0.50763  -0.50350
 Alpha  occ. eigenvalues --   -0.48901  -0.47626  -0.46570  -0.45940  -0.45411
 Alpha  occ. eigenvalues --   -0.45046  -0.44195  -0.43169  -0.42377  -0.41653
 Alpha  occ. eigenvalues --   -0.40352  -0.38680  -0.37619  -0.35284  -0.33426
 Alpha  occ. eigenvalues --   -0.32471
 Alpha virt. eigenvalues --    0.04839   0.04960   0.06480   0.07116   0.07397
 Alpha virt. eigenvalues --    0.08413   0.08736   0.09349   0.09716   0.10274
 Alpha virt. eigenvalues --    0.10511   0.10933   0.12001   0.12593   0.13003
 Alpha virt. eigenvalues --    0.13244   0.13623   0.14420   0.14749   0.15575
 Alpha virt. eigenvalues --    0.16279   0.16312   0.16849   0.17651   0.18461
 Alpha virt. eigenvalues --    0.18835   0.19196   0.19717   0.19824   0.20213
 Alpha virt. eigenvalues --    0.20803   0.21728   0.22049   0.22512   0.23014
 Alpha virt. eigenvalues --    0.23502   0.23641   0.24021   0.24154   0.24539
 Alpha virt. eigenvalues --    0.25102   0.25942   0.26179   0.26743   0.26842
 Alpha virt. eigenvalues --    0.27215   0.27555   0.28204   0.28504   0.29263
 Alpha virt. eigenvalues --    0.29612   0.30181   0.30380   0.30623   0.31152
 Alpha virt. eigenvalues --    0.31639   0.32078   0.32832   0.32910   0.33960
 Alpha virt. eigenvalues --    0.34525   0.34873   0.35323   0.36094   0.36175
 Alpha virt. eigenvalues --    0.36560   0.37364   0.38488   0.38971   0.39194
 Alpha virt. eigenvalues --    0.40333   0.40393   0.40907   0.41560   0.42322
 Alpha virt. eigenvalues --    0.42663   0.43082   0.43903   0.44282   0.45410
 Alpha virt. eigenvalues --    0.45533   0.46345   0.46658   0.47635   0.48608
 Alpha virt. eigenvalues --    0.49604   0.50856   0.51198   0.52249   0.53301
 Alpha virt. eigenvalues --    0.55558   0.57233   0.62066   0.66113   0.70382
 Alpha virt. eigenvalues --    0.73619   0.74406   0.75870   0.76210   0.77293
 Alpha virt. eigenvalues --    0.78473   0.78868   0.79741   0.79866   0.81058
 Alpha virt. eigenvalues --    0.81822   0.83199   0.83597   0.84244   0.85191
 Alpha virt. eigenvalues --    0.85819   0.86574   0.87455   0.88302   0.88676
 Alpha virt. eigenvalues --    0.91062   0.91923   0.93617   0.95336   0.96683
 Alpha virt. eigenvalues --    0.97068   0.98916   1.00100   1.01379   1.02072
 Alpha virt. eigenvalues --    1.03607   1.04253   1.05388   1.06382   1.07451
 Alpha virt. eigenvalues --    1.09872   1.10008   1.10850   1.11106   1.11835
 Alpha virt. eigenvalues --    1.14697   1.15283   1.16083   1.18123   1.19239
 Alpha virt. eigenvalues --    1.20537   1.22638   1.23324   1.23959   1.24793
 Alpha virt. eigenvalues --    1.26560   1.27764   1.28899   1.30254   1.32322
 Alpha virt. eigenvalues --    1.33205   1.33469   1.34494   1.36541   1.37795
 Alpha virt. eigenvalues --    1.39539   1.41212   1.42788   1.44503   1.46056
 Alpha virt. eigenvalues --    1.46730   1.47614   1.48832   1.49554   1.50896
 Alpha virt. eigenvalues --    1.51573   1.52205   1.54453   1.56684   1.57751
 Alpha virt. eigenvalues --    1.59009   1.60280   1.62828   1.64105   1.66054
 Alpha virt. eigenvalues --    1.67814   1.70557   1.73008   1.74634   1.77653
 Alpha virt. eigenvalues --    1.79881   1.80864   1.83900   1.86080   1.87435
 Alpha virt. eigenvalues --    1.88731   1.90992   1.93734   1.94067   1.95281
 Alpha virt. eigenvalues --    1.96604   1.98235   2.00260   2.01400   2.02107
 Alpha virt. eigenvalues --    2.02973   2.03572   2.05075   2.06339   2.07208
 Alpha virt. eigenvalues --    2.07374   2.09166   2.10014   2.10773   2.12155
 Alpha virt. eigenvalues --    2.13504   2.15037   2.15703   2.17144   2.18956
 Alpha virt. eigenvalues --    2.19880   2.21263   2.22174   2.22641   2.23728
 Alpha virt. eigenvalues --    2.25128   2.27038   2.28420   2.29620   2.30808
 Alpha virt. eigenvalues --    2.32202   2.34667   2.36375   2.38718   2.39257
 Alpha virt. eigenvalues --    2.42003   2.42549   2.44318   2.47854   2.48222
 Alpha virt. eigenvalues --    2.49280   2.50277   2.50728   2.51526   2.54478
 Alpha virt. eigenvalues --    2.55378   2.56582   2.57079   2.58094   2.60125
 Alpha virt. eigenvalues --    2.62266   2.63442   2.65201   2.68236   2.68679
 Alpha virt. eigenvalues --    2.70039   2.71363   2.72633   2.73303   2.74215
 Alpha virt. eigenvalues --    2.78149   2.79017   2.79594   2.80737   2.83587
 Alpha virt. eigenvalues --    2.84112   2.86045   2.86665   2.88648   2.90133
 Alpha virt. eigenvalues --    2.91594   2.92646   2.94047   2.96531   2.97413
 Alpha virt. eigenvalues --    2.98212   3.00154   3.02773   3.06610   3.09456
 Alpha virt. eigenvalues --    3.12823   3.14153   3.17040   3.17641   3.26012
 Alpha virt. eigenvalues --    3.27544   3.33161   3.37044   3.37394   3.38501
 Alpha virt. eigenvalues --    3.39282   3.43389   3.45183   3.50293   3.52673
 Alpha virt. eigenvalues --    3.53948   3.57956   3.59371   3.60395   3.62687
 Alpha virt. eigenvalues --    3.65454   3.66686   3.68355   3.99466   4.40645
 Alpha virt. eigenvalues --    4.44389   4.45482   4.51694   4.53249   4.54403
 Alpha virt. eigenvalues --    4.58558   4.62001   4.65805   4.66603   4.76727
 Alpha virt. eigenvalues --    4.79059   4.82012   4.96638   4.99818
          Condensed to atoms (all electrons):
              1          2          3          4          5          6
     1  C   16.338584  -1.302381  -0.636434  -5.464570  -6.744865   0.454422
     2  C   -1.302381   8.361599   0.224239  -0.407433  -0.420393   0.826909
     3  C   -0.636434   0.224239   6.272734   0.110293  -0.103699   0.459970
     4  C   -5.464570  -0.407433   0.110293  15.621709   0.282740  -0.877628
     5  C   -6.744865  -0.420393  -0.103699   0.282740  15.317722  -0.393173
     6  C    0.454422   0.826909   0.459970  -0.877628  -0.393173   5.520876
     7  C    3.823775  -1.632830  -0.513238  -4.018072  -2.488409  -0.093720
     8  C   -1.333100   0.540250   0.077117   0.651586   1.298075  -0.030584
     9  C    0.667285  -0.429681  -0.013558   0.186113  -0.834046   0.016672
    10  O   -0.128292   0.044513   0.001397   0.044890   0.147089   0.005705
    11  C   -0.036127  -0.006652   0.004054   0.010223   0.059590   0.004314
    12  O   -0.122828   0.153898   0.004530   0.013329   0.194898   0.009762
    13  C    0.045517  -0.024660  -0.020272  -0.326232  -0.141229  -0.006662
    14  O    0.001940  -0.010710  -0.001010   0.056717  -0.028940   0.002120
    15  C    0.011937   0.010530  -0.000781  -0.045994   0.022579  -0.002086
    16  H    0.143073   0.009632   0.065186   0.096521   0.020415  -0.013644
    17  H    0.006886   0.247847  -0.006158   0.031901   0.025992   0.019085
    18  H    0.009664   0.003444   0.282078   0.024986  -0.007556   0.018947
    19  H    0.019916  -0.013242   0.000551   0.138756   0.202070  -0.007217
    20  H    0.003759   0.008525   0.017956  -0.001934   0.013822   0.281556
    21  H    0.068135   0.022958   0.046907   0.110880  -0.004489   0.003970
    22  H   -0.003312  -0.004064  -0.003074   0.020064   0.002879   0.000894
    23  H    0.002440  -0.000618   0.000200   0.007921  -0.006131  -0.000250
    24  H   -0.004784   0.002868   0.000351  -0.000605   0.002977  -0.000091
    25  H    0.044422   0.005495  -0.000519  -0.005043  -0.065679   0.000146
    26  H    0.000360  -0.000330  -0.000002  -0.007473  -0.003526   0.000002
    27  H    0.007602   0.000528   0.000720  -0.004067  -0.002470  -0.000026
    28  H    0.001555  -0.000241   0.000027   0.005127  -0.003163  -0.000029
    29  H   -0.011904   0.030020   0.003054  -0.016044  -0.002390   0.000891
    30  H    0.000746  -0.002016  -0.000162   0.001593  -0.000932   0.000320
    31  H    0.011363   0.000999  -0.000228   0.002855  -0.008998  -0.002707
              7          8          9         10         11         12
     1  C    3.823775  -1.333100   0.667285  -0.128292  -0.036127  -0.122828
     2  C   -1.632830   0.540250  -0.429681   0.044513  -0.006652   0.153898
     3  C   -0.513238   0.077117  -0.013558   0.001397   0.004054   0.004530
     4  C   -4.018072   0.651586   0.186113   0.044890   0.010223   0.013329
     5  C   -2.488409   1.298075  -0.834046   0.147089   0.059590   0.194898
     6  C   -0.093720  -0.030584   0.016672   0.005705   0.004314   0.009762
     7  C   11.606859  -2.075751   0.799600  -0.157205  -0.061728  -0.033826
     8  C   -2.075751   9.093599  -2.071275  -0.137298   0.081067  -0.076754
     9  C    0.799600  -2.071275   7.433430   0.228714  -0.257220  -0.100156
    10  O   -0.157205  -0.137298   0.228714   8.370365   0.098386   0.007048
    11  C   -0.061728   0.081067  -0.257220   0.098386   5.132127   0.004071
    12  O   -0.033826  -0.076754  -0.100156   0.007048   0.004071   8.314348
    13  C    0.623002  -0.481300  -0.044893  -0.029441  -0.028560  -0.009761
    14  O   -0.031827  -0.108330   0.690904  -0.164234  -0.012084   0.010298
    15  C    0.002374  -0.005595  -0.030717  -0.039895   0.304474  -0.000282
    16  H   -0.028865   0.018794  -0.001492  -0.000236   0.000175   0.000428
    17  H   -0.001694  -0.001444   0.001955  -0.000083   0.000243   0.000054
    18  H   -0.004638  -0.000274   0.000350  -0.000021  -0.000059   0.000019
    19  H   -0.026735  -0.012488   0.014391  -0.000360  -0.004063   0.005057
    20  H    0.003160  -0.000230  -0.000250   0.000005   0.000072  -0.000006
    21  H    0.041526   0.069445  -0.014431   0.000580   0.000653  -0.057196
    22  H   -0.016051   0.327091  -0.020008  -0.000217   0.000775   0.007562
    23  H   -0.003005   0.009476  -0.008227  -0.036641   0.409149  -0.000024
    24  H   -0.002528   0.002312   0.011779  -0.058821   0.415652   0.000003
    25  H    0.005001   0.054982  -0.017442   0.000029   0.000008   0.232029
    26  H    0.037095  -0.165173   0.048804   0.000275  -0.000727  -0.000243
    27  H   -0.003673  -0.057275  -0.007741   0.000064   0.000133  -0.000712
    28  H   -0.002649  -0.076034  -0.011700   0.000591   0.000154   0.003930
    29  H   -0.007895   0.007286  -0.005363  -0.006051  -0.045549   0.000052
    30  H    0.000233   0.000902   0.009094   0.006638  -0.044449   0.000001
    31  H   -0.001509  -0.000102   0.006143  -0.004327  -0.037580  -0.000018
             13         14         15         16         17         18
     1  C    0.045517   0.001940   0.011937   0.143073   0.006886   0.009664
     2  C   -0.024660  -0.010710   0.010530   0.009632   0.247847   0.003444
     3  C   -0.020272  -0.001010  -0.000781   0.065186  -0.006158   0.282078
     4  C   -0.326232   0.056717  -0.045994   0.096521   0.031901   0.024986
     5  C   -0.141229  -0.028940   0.022579   0.020415   0.025992  -0.007556
     6  C   -0.006662   0.002120  -0.002086  -0.013644   0.019085   0.018947
     7  C    0.623002  -0.031827   0.002374  -0.028865  -0.001694  -0.004638
     8  C   -0.481300  -0.108330  -0.005595   0.018794  -0.001444  -0.000274
     9  C   -0.044893   0.690904  -0.030717  -0.001492   0.001955   0.000350
    10  O   -0.029441  -0.164234  -0.039895  -0.000236  -0.000083  -0.000021
    11  C   -0.028560  -0.012084   0.304474   0.000175   0.000243  -0.000059
    12  O   -0.009761   0.010298  -0.000282   0.000428   0.000054   0.000019
    13  C    5.891607  -0.027474  -0.000869   0.006629   0.000036   0.000010
    14  O   -0.027474   8.064443  -0.024904  -0.000006  -0.000053   0.000001
    15  C   -0.000869  -0.024904   5.176276  -0.000077   0.001150   0.000041
    16  H    0.006629  -0.000006  -0.000077   0.508720   0.000011  -0.003930
    17  H    0.000036  -0.000053   0.001150   0.000011   0.500577  -0.000123
    18  H    0.000010   0.000001   0.000041  -0.003930  -0.000123   0.495228
    19  H   -0.000297  -0.000561   0.001320  -0.000112  -0.003913   0.000011
    20  H   -0.000011   0.000001   0.000173  -0.000121  -0.003739  -0.003832
    21  H   -0.052189   0.000273  -0.000190   0.001911   0.000002  -0.000001
    22  H   -0.020628   0.005446  -0.000188  -0.000098   0.000000   0.000001
    23  H   -0.001162   0.001558  -0.042004   0.000000   0.000000   0.000000
    24  H    0.000276   0.000238  -0.038255   0.000000   0.000000   0.000000
    25  H   -0.001794  -0.000745   0.000227   0.000037   0.000003   0.000000
    26  H    0.452215  -0.002124   0.000310   0.000001   0.000000   0.000000
    27  H    0.424446   0.000828   0.000011   0.000001   0.000000   0.000000
    28  H    0.439292   0.002420  -0.000040   0.000000   0.000000   0.000000
    29  H   -0.000039   0.001364   0.414175   0.000000  -0.000050   0.000000
    30  H    0.000213  -0.000318   0.391219   0.000000   0.000004   0.000000
    31  H   -0.000520  -0.000753   0.398381   0.000000  -0.000032   0.000000
             19         20         21         22         23         24
     1  C    0.019916   0.003759   0.068135  -0.003312   0.002440  -0.004784
     2  C   -0.013242   0.008525   0.022958  -0.004064  -0.000618   0.002868
     3  C    0.000551   0.017956   0.046907  -0.003074   0.000200   0.000351
     4  C    0.138756  -0.001934   0.110880   0.020064   0.007921  -0.000605
     5  C    0.202070   0.013822  -0.004489   0.002879  -0.006131   0.002977
     6  C   -0.007217   0.281556   0.003970   0.000894  -0.000250  -0.000091
     7  C   -0.026735   0.003160   0.041526  -0.016051  -0.003005  -0.002528
     8  C   -0.012488  -0.000230   0.069445   0.327091   0.009476   0.002312
     9  C    0.014391  -0.000250  -0.014431  -0.020008  -0.008227   0.011779
    10  O   -0.000360   0.000005   0.000580  -0.000217  -0.036641  -0.058821
    11  C   -0.004063   0.000072   0.000653   0.000775   0.409149   0.415652
    12  O    0.005057  -0.000006  -0.057196   0.007562  -0.000024   0.000003
    13  C   -0.000297  -0.000011  -0.052189  -0.020628  -0.001162   0.000276
    14  O   -0.000561   0.000001   0.000273   0.005446   0.001558   0.000238
    15  C    0.001320   0.000173  -0.000190  -0.000188  -0.042004  -0.038255
    16  H   -0.000112  -0.000121   0.001911  -0.000098   0.000000   0.000000
    17  H   -0.003913  -0.003739   0.000002   0.000000   0.000000   0.000000
    18  H    0.000011  -0.003832  -0.000001   0.000001   0.000000   0.000000
    19  H    0.501407  -0.000126  -0.000018  -0.000002  -0.000005   0.000000
    20  H   -0.000126   0.498397   0.000000   0.000000   0.000000   0.000000
    21  H   -0.000018   0.000000   0.616924  -0.003735   0.000000   0.000000
    22  H   -0.000002   0.000000  -0.003735   0.508945  -0.000003  -0.000042
    23  H   -0.000005   0.000000   0.000000  -0.000003   0.522866  -0.031837
    24  H    0.000000   0.000000   0.000000  -0.000042  -0.031837   0.530562
    25  H   -0.000891   0.000000  -0.002770  -0.000159   0.000000   0.000000
    26  H    0.000001   0.000000   0.000006  -0.003713  -0.000007   0.000000
    27  H    0.000000   0.000000   0.003706  -0.003088   0.000000   0.000000
    28  H   -0.000003   0.000000  -0.000042   0.003849  -0.000003   0.000000
    29  H    0.000199  -0.000001   0.000000  -0.000007  -0.005246   0.003987
    30  H    0.000004   0.000000   0.000000   0.000000  -0.000836  -0.001469
    31  H   -0.000029  -0.000005   0.000000  -0.000002   0.003785  -0.004880
             25         26         27         28         29         30
     1  C    0.044422   0.000360   0.007602   0.001555  -0.011904   0.000746
     2  C    0.005495  -0.000330   0.000528  -0.000241   0.030020  -0.002016
     3  C   -0.000519  -0.000002   0.000720   0.000027   0.003054  -0.000162
     4  C   -0.005043  -0.007473  -0.004067   0.005127  -0.016044   0.001593
     5  C   -0.065679  -0.003526  -0.002470  -0.003163  -0.002390  -0.000932
     6  C    0.000146   0.000002  -0.000026  -0.000029   0.000891   0.000320
     7  C    0.005001   0.037095  -0.003673  -0.002649  -0.007895   0.000233
     8  C    0.054982  -0.165173  -0.057275  -0.076034   0.007286   0.000902
     9  C   -0.017442   0.048804  -0.007741  -0.011700  -0.005363   0.009094
    10  O    0.000029   0.000275   0.000064   0.000591  -0.006051   0.006638
    11  C    0.000008  -0.000727   0.000133   0.000154  -0.045549  -0.044449
    12  O    0.232029  -0.000243  -0.000712   0.003930   0.000052   0.000001
    13  C   -0.001794   0.452215   0.424446   0.439292  -0.000039   0.000213
    14  O   -0.000745  -0.002124   0.000828   0.002420   0.001364  -0.000318
    15  C    0.000227   0.000310   0.000011  -0.000040   0.414175   0.391219
    16  H    0.000037   0.000001   0.000001   0.000000   0.000000   0.000000
    17  H    0.000003   0.000000   0.000000   0.000000  -0.000050   0.000004
    18  H    0.000000   0.000000   0.000000   0.000000   0.000000   0.000000
    19  H   -0.000891   0.000001   0.000000  -0.000003   0.000199   0.000004
    20  H    0.000000   0.000000   0.000000   0.000000  -0.000001   0.000000
    21  H   -0.002770   0.000006   0.003706  -0.000042   0.000000   0.000000
    22  H   -0.000159  -0.003713  -0.003088   0.003849  -0.000007   0.000000
    23  H    0.000000  -0.000007   0.000000  -0.000003  -0.005246  -0.000836
    24  H    0.000000   0.000000   0.000000   0.000000   0.003987  -0.001469
    25  H    0.360116  -0.000002  -0.000035  -0.000066   0.000001   0.000000
    26  H   -0.000002   0.518269  -0.023903  -0.025867   0.000000   0.000000
    27  H   -0.000035  -0.023903   0.515372  -0.023640   0.000000   0.000000
    28  H   -0.000066  -0.025867  -0.023640   0.494156   0.000000   0.000000
    29  H    0.000001   0.000000   0.000000   0.000000   0.511752  -0.023195
    30  H    0.000000   0.000000   0.000000   0.000000  -0.023195   0.510139
    31  H    0.000000   0.000000   0.000000   0.000000  -0.029352  -0.023297
             31
     1  C    0.011363
     2  C    0.000999
     3  C   -0.000228
     4  C    0.002855
     5  C   -0.008998
     6  C   -0.002707
     7  C   -0.001509
     8  C   -0.000102
     9  C    0.006143
    10  O   -0.004327
    11  C   -0.037580
    12  O   -0.000018
    13  C   -0.000520
    14  O   -0.000753
    15  C    0.398381
    16  H    0.000000
    17  H   -0.000032
    18  H    0.000000
    19  H   -0.000029
    20  H   -0.000005
    21  H    0.000000
    22  H   -0.000002
    23  H    0.003785
    24  H   -0.004880
    25  H    0.000000
    26  H    0.000000
    27  H    0.000000
    28  H    0.000000
    29  H   -0.029352
    30  H   -0.023297
    31  H    0.515479
 Mulliken atomic charges:
              1
     1  C    0.125218
     2  C   -0.239002
     3  C   -0.272227
     4  C   -0.243109
     5  C   -0.330760
     6  C   -0.198744
     7  C    0.263223
     8  C    0.401025
     9  C   -0.247033
    10  O   -0.193165
    11  C    0.009479
    12  O   -0.559512
    13  C   -0.665252
    14  O   -0.424477
    15  C   -0.503299
    16  H    0.177046
    17  H    0.181540
    18  H    0.185654
    19  H    0.186379
    20  H    0.182829
    21  H    0.147186
    22  H    0.200884
    23  H    0.178605
    24  H    0.172307
    25  H    0.392649
    26  H    0.175751
    27  H    0.173222
    28  H    0.192378
    29  H    0.180304
    30  H    0.175566
    31  H    0.175334
 Sum of Mulliken atomic charges =   0.00000
 Mulliken charges with hydrogens summed into heavy atoms:
              1
     1  C    0.302265
     2  C   -0.057462
     3  C   -0.086574
     4  C   -0.243109
     5  C   -0.144381
     6  C   -0.015915
     7  C    0.410409
     8  C    0.601909
     9  C   -0.247033
    10  O   -0.193165
    11  C    0.360391
    12  O   -0.166862
    13  C   -0.123901
    14  O   -0.424477
    15  C    0.027905
 Sum of Mulliken charges with hydrogens summed into heavy atoms =   0.00000
 Electronic spatial extent (au):  <R**2>=           3178.0553
 Charge=              0.0000 electrons
 Dipole moment (field-independent basis, Debye):
    X=              2.5473    Y=              0.9321    Z=             -2.8689  Tot=              3.9481
 Quadrupole moment (field-independent basis, Debye-Ang):
   XX=            -87.4750   YY=            -81.5119   ZZ=            -89.4799
   XY=             -1.9381   XZ=              6.7518   YZ=              4.2329
 Traceless Quadrupole moment (field-independent basis, Debye-Ang):
   XX=             -1.3194   YY=              4.6437   ZZ=             -3.3242
   XY=             -1.9381   XZ=              6.7518   YZ=              4.2329
 Octapole moment (field-independent basis, Debye-Ang**2):
  XXX=             -0.5638  YYY=             26.3855  ZZZ=              1.0978  XYY=            -11.1338
  XXY=             17.9935  XXZ=            -22.3060  XZZ=             14.3279  YZZ=             -5.7799
  YYZ=             -5.7502  XYZ=              0.3526
 Hexadecapole moment (field-independent basis, Debye-Ang**3):
 XXXX=          -2129.6010 YYYY=          -1453.8833 ZZZZ=           -494.9424 XXXY=             57.8601
 XXXZ=            -15.4162 YYYX=            -73.8393 YYYZ=             -7.1550 ZZZX=              5.8070
 ZZZY=             -7.5784 XXYY=           -603.7495 XXZZ=           -446.9672 YYZZ=           -325.5304
 XXYZ=              9.6090 YYXZ=             31.0531 ZZXY=            -10.6905
 N-N= 1.035465800086D+03 E-N=-3.683087583150D+03  KE= 6.859034902695D+02
 1\1\GINC-COMPUTE-9-6\SP\RwB97XD\6-31+G(d,p)\C12H16O3\ELUCIANO.IQUIR\17
 -May-2022\0\\# wb97xd/6-31+g** scrf=(pcm,solvent=chloroform,smd,dovacu
 um) nmr\\comment\\0,1\C,0,-2.104417219,-0.321747152,-1.242006798\C,0,0
 .199615225,-0.963331199,-2.675731412\C,0,-2.02363564,-0.031094955,-2.6
 05230904\C,0,-1.035063886,-0.943257318,-0.579438552\C,0,0.120866755,-1
 .254582916,-1.313125954\C,0,-0.872894621,-0.3531118,-3.32147483\C,0,-1
 .131179116,-1.23712163,0.906006634\C,0,-0.656266706,-0.089854186,1.810
 325162\C,0,0.748196467,0.364906269,1.463447178\O,0,0.710790922,1.63501
 0507,0.962811655\C,0,1.978172601,2.212151458,0.617455432\O,0,-0.499307
 905,-2.473503959,1.234616703\C,0,-0.704212601,-0.45239457,3.293971956\
 O,0,1.768593886,-0.289717256,1.62619896\C,0,2.373720908,1.817934429,-0
 .792806275\H,0,-3.010794395,-0.057765481,-0.700985684\H,0,1.102135157,
 -1.207318324,-3.230413456\H,0,-2.8588117,0.449211136,-3.108776873\H,0,
 0.977426196,-1.715470289,-0.82142541\H,0,-0.810045999,-0.12455645,-4.3
 82178112\H,0,-2.191861595,-1.411265288,1.131709644\H,0,-1.330264265,0.
 764757648,1.658060469\H,0,2.751751281,1.937471335,1.343684728\H,0,1.85
 7677023,3.299007809,0.673577105\H,0,-0.622321357,-3.074468568,0.479586
 695\H,0,-0.415406633,0.40671052,3.909761733\H,0,-1.714602618,-0.754563
 555,3.588041909\H,0,-0.01733811,-1.270366862,3.536900251\H,0,2.5374642
 81,0.738643181,-0.866683584\H,0,3.293018048,2.328130124,-1.09397734\H,
 0,1.578995618,2.071557342,-1.501901031\\Version=EM64L-G09RevC.01\State
 =1-A\HF=-692.4432348\RMSD=4.060e-09\Dipole=-0.871395,0.8791031,-0.9384
 23\Quadrupole=1.2742441,-1.1718174,-0.1024267,3.6542409,-4.274428,3.68
 04624\PG=C01 [X(C12H16O3)]\\@


 IT WAS AN ACT OF DESPARATION. FOR SIX YEARS I HAD STRUGGLED WITH THE
 BLACKBODY THEORY. I KNEW THE PROBLEM WAS FUNDAMENTAL, AND I KNEW
 THE ANSWER. I HAD TO FIND A THEORETICAL EXPLANATION AT ANY COST,
 EXCEPT FOR THE INVIOLABLITY OF THE TWO LAWS OF THERMODYNAMICS.
   -- MAX PLANCK, 1931
 Job cpu time:  0 days  0 hours 27 minutes 17.5 seconds.
 File lengths (MBytes):  RWF=    122 Int=      0 D2E=      0 Chk=      9 Scr=      1
 Normal termination of Gaussian 09 at Tue May 17 15:51:49 2022.
