 Entering Gaussian System, Link 0=g09
 Input=/home/eluciano.iquir/wb9/73b_041.gjc
 Output=/home/eluciano.iquir/wb9/73b_041.log
 Initial command:
 /share/apps/Gaussian09/EM64T.SSE4.2-enabled/g09/l1.exe /tmp/Gau-3528.inp -scrdir=/tmp/
 Entering Link 1 = /share/apps/Gaussian09/EM64T.SSE4.2-enabled/g09/l1.exe PID=      3529.
  
 Copyright (c) 1988,1990,1992,1993,1995,1998,2003,2009,2011,
            Gaussian, Inc.  All Rights Reserved.
  
 This is part of the Gaussian(R) 09 program.  It is based on
 the Gaussian(R) 03 system (copyright 2003, Gaussian, Inc.),
 the Gaussian(R) 98 system (copyright 1998, Gaussian, Inc.),
 the Gaussian(R) 94 system (copyright 1995, Gaussian, Inc.),
 the Gaussian 92(TM) system (copyright 1992, Gaussian, Inc.),
 the Gaussian 90(TM) system (copyright 1990, Gaussian, Inc.),
 the Gaussian 88(TM) system (copyright 1988, Gaussian, Inc.),
 the Gaussian 86(TM) system (copyright 1986, Carnegie Mellon
 University), and the Gaussian 82(TM) system (copyright 1983,
 Carnegie Mellon University). Gaussian is a federally registered
 trademark of Gaussian, Inc.
  
 This software contains proprietary and confidential information,
 including trade secrets, belonging to Gaussian, Inc.
  
 This software is provided under written license and may be
 used, copied, transmitted, or stored only in accord with that
 written license.
  
 The following legend is applicable only to US Government
 contracts under FAR:
  
                    RESTRICTED RIGHTS LEGEND
  
 Use, reproduction and disclosure by the US Government is
 subject to restrictions as set forth in subparagraphs (a)
 and (c) of the Commercial Computer Software - Restricted
 Rights clause in FAR 52.227-19.
  
 Gaussian, Inc.
 340 Quinnipiac St., Bldg. 40, Wallingford CT 06492
  
  
 ---------------------------------------------------------------
 Warning -- This program may not be used in any manner that
 competes with the business of Gaussian, Inc. or will provide
 assistance to any competitor of Gaussian, Inc.  The licensee
 of this program is prohibited from giving any competitor of
 Gaussian, Inc. access to this program.  By using this program,
 the user acknowledges that Gaussian, Inc. is engaged in the
 business of creating and licensing software in the field of
 computational chemistry and represents and warrants to the
 licensee that it is not a competitor of Gaussian, Inc. and that
 it will not use this program in any manner prohibited above.
 ---------------------------------------------------------------
  

 Cite this work as:
 Gaussian 09, Revision C.01,
 M. J. Frisch, G. W. Trucks, H. B. Schlegel, G. E. Scuseria, 
 M. A. Robb, J. R. Cheeseman, G. Scalmani, V. Barone, B. Mennucci, 
 G. A. Petersson, H. Nakatsuji, M. Caricato, X. Li, H. P. Hratchian, 
 A. F. Izmaylov, J. Bloino, G. Zheng, J. L. Sonnenberg, M. Hada, 
 M. Ehara, K. Toyota, R. Fukuda, J. Hasegawa, M. Ishida, T. Nakajima, 
 Y. Honda, O. Kitao, H. Nakai, T. Vreven, J. A. Montgomery, Jr., 
 J. E. Peralta, F. Ogliaro, M. Bearpark, J. J. Heyd, E. Brothers, 
 K. N. Kudin, V. N. Staroverov, T. Keith, R. Kobayashi, J. Normand, 
 K. Raghavachari, A. Rendell, J. C. Burant, S. S. Iyengar, J. Tomasi, 
 M. Cossi, N. Rega, J. M. Millam, M. Klene, J. E. Knox, J. B. Cross, 
 V. Bakken, C. Adamo, J. Jaramillo, R. Gomperts, R. E. Stratmann, 
 O. Yazyev, A. J. Austin, R. Cammi, C. Pomelli, J. W. Ochterski, 
 R. L. Martin, K. Morokuma, V. G. Zakrzewski, G. A. Voth, 
 P. Salvador, J. J. Dannenberg, S. Dapprich, A. D. Daniels, 
 O. Farkas, J. B. Foresman, J. V. Ortiz, J. Cioslowski, 
 and D. J. Fox, Gaussian, Inc., Wallingford CT, 2010.
 
 ******************************************
 Gaussian 09:  EM64L-G09RevC.01 23-Sep-2011
                17-May-2022 
 ******************************************
 %nprocshared=4
 Will use up to    4 processors via shared memory.
 ----------------------------------------------------------------
 # wb97xd/6-31+g** scrf=(pcm,solvent=chloroform,smd,dovacuum) nmr
 ----------------------------------------------------------------
 1/38=1/1;
 2/12=2,17=6,18=5,40=1/2;
 3/5=1,6=6,7=111,11=2,16=1,25=1,30=1,70=32101,72=7,74=-58/1,2,8,3;
 4//1;
 5/5=2,38=5,53=7/2;
 8/6=1,10=90,11=11/1;
 10/13=100,45=16/2;
 6/7=2,8=2,9=2,10=2,28=1/1;
 99/9=1/99;
 -------
 comment
 -------
 Charge =  0 Multiplicity = 1
 Symbolic Z-Matrix:
 6                    -2.16851  -0.58216  -0.83355 
 6                    -0.22694  -1.00782  -2.78676 
 6                    -2.44204  -0.28282  -2.16987 
 6                    -0.9184   -1.09881  -0.4549 
 6                     0.04816  -1.30575  -1.45077 
 6                    -1.47122  -0.49563  -3.14574 
 6                    -0.63509  -1.39765   1.00645 
 6                    -0.38141  -0.13355   1.84486 
 6                     0.85799   0.60265   1.37487 
 8                     0.50692   1.65633   0.58402 
 6                     1.58955   2.45294   0.08252 
 8                     0.42043  -2.351     1.11734 
 6                    -0.24616  -0.43751   3.3385 
 8                     2.00409   0.315     1.69409 
 6                     2.12273   1.86485  -1.20978 
 1                    -2.94144  -0.40909  -0.08816 
 1                     0.53314  -1.17616  -3.54502 
 1                    -3.41362   0.11584  -2.44964 
 1                     1.02768  -1.70252  -1.18839 
 1                    -1.68398  -0.26408  -4.18584 
 1                    -1.52567  -1.90516   1.40092 
 1                    -1.23691   0.54801   1.74214 
 1                     2.38325   2.56304   0.83029 
 1                     1.18812   3.45373  -0.10766 
 1                     0.48774  -2.62985   2.04467 
 1                    -0.134     0.49125   3.90929 
 1                    -1.13487  -0.9569    3.71145 
 1                     0.63003  -1.0567    3.55727 
 1                     2.52328   0.85918  -1.04853 
 1                     2.9157    2.49408  -1.62369 
 1                     1.32146   1.77628  -1.9504 
 
                          Input orientation:                          
 ---------------------------------------------------------------------
 Center     Atomic      Atomic             Coordinates (Angstroms)
 Number     Number       Type             X           Y           Z
 ---------------------------------------------------------------------
      1          6           0       -2.168506   -0.582159   -0.833553
      2          6           0       -0.226942   -1.007818   -2.786759
      3          6           0       -2.442043   -0.282820   -2.169869
      4          6           0       -0.918403   -1.098812   -0.454900
      5          6           0        0.048160   -1.305752   -1.450767
      6          6           0       -1.471220   -0.495625   -3.145742
      7          6           0       -0.635094   -1.397652    1.006454
      8          6           0       -0.381411   -0.133553    1.844858
      9          6           0        0.857991    0.602654    1.374871
     10          8           0        0.506921    1.656332    0.584018
     11          6           0        1.589552    2.452939    0.082521
     12          8           0        0.420434   -2.351004    1.117342
     13          6           0       -0.246163   -0.437509    3.338503
     14          8           0        2.004089    0.315000    1.694088
     15          6           0        2.122731    1.864845   -1.209782
     16          1           0       -2.941436   -0.409091   -0.088162
     17          1           0        0.533140   -1.176165   -3.545022
     18          1           0       -3.413618    0.115836   -2.449639
     19          1           0        1.027679   -1.702523   -1.188386
     20          1           0       -1.683976   -0.264084   -4.185837
     21          1           0       -1.525669   -1.905165    1.400923
     22          1           0       -1.236908    0.548009    1.742138
     23          1           0        2.383245    2.563040    0.830288
     24          1           0        1.188115    3.453732   -0.107664
     25          1           0        0.487736   -2.629850    2.044674
     26          1           0       -0.134005    0.491251    3.909295
     27          1           0       -1.134866   -0.956898    3.711455
     28          1           0        0.630030   -1.056701    3.557270
     29          1           0        2.523283    0.859184   -1.048531
     30          1           0        2.915696    2.494081   -1.623687
     31          1           0        1.321457    1.776276   -1.950396
 ---------------------------------------------------------------------
                    Distance matrix (angstroms):
                    1          2          3          4          5
     1  C    0.000000
     2  C    2.786731   0.000000
     3  C    1.396485   2.410985   0.000000
     4  C    1.404659   2.433920   2.434840   0.000000
     5  C    2.412084   1.396181   2.786505   1.403146   0.000000
     6  C    2.416592   1.392638   1.392879   2.812486   2.416146
     7  C    2.530218   3.834974   3.820595   1.518263   2.552100
     8  C    3.250975   4.715939   4.515144   2.551269   3.524163
     9  C    3.929453   4.592370   4.923360   3.065717   3.504578
    10  O    3.765403   4.358714   4.476673   3.271348   3.622810
    11  C    4.916708   4.848635   5.367626   4.381050   4.342191
    12  O    3.692886   4.179145   4.824616   2.415038   2.797556
    13  C    4.595908   6.151784   5.931945   3.908852   4.876225
    14  O    4.960284   5.177388   5.920781   3.893324   4.042600
    15  C    4.954200   4.032370   5.135309   4.312958   3.796657
    16  H    1.087650   3.874194   2.144491   2.168612   3.405639
    17  H    3.873473   1.086750   3.397178   3.414940   2.153579
    18  H    2.156209   3.395755   1.086810   3.417668   3.873315
    19  H    3.405395   2.147437   3.875285   2.165572   1.088911
    20  H    3.402022   2.152559   2.153867   3.899073   3.400879
    21  H    2.675156   4.475333   4.027692   2.112594   3.311853
    22  H    2.962994   4.894030   4.176892   2.764134   3.909280
    23  H    5.777463   5.713767   6.354783   5.095267   5.061955
    24  H    5.299268   5.393085   5.602907   5.028285   5.075048
    25  H    4.419598   5.146309   5.643981   3.251026   3.763585
    26  H    5.271243   6.862433   6.548471   4.710603   5.656206
    27  H    4.676103   6.561532   6.062431   4.174387   5.307521
    28  H    5.228414   6.401835   6.544971   4.300805   5.047874
    29  H    4.912898   3.751116   5.216899   4.003917   3.312850
    30  H    5.994720   4.846876   6.059279   5.382867   4.763548
    31  H    4.357683   3.293664   4.295577   3.939494   3.371915
                    6          7          8          9         10
     6  C    0.000000
     7  C    4.330530   0.000000
     8  C    5.121023   1.537928   0.000000
     9  C    5.202632   2.523144   1.516248   0.000000
    10  O    4.738679   3.287775   2.362740   1.363428   0.000000
    11  C    5.337045   4.541999   3.698712   2.372532   1.434633
    12  O    5.019429   1.426645   2.467655   2.996977   4.043594
    13  C    6.599210   2.551782   1.530247   2.481320   3.540973
    14  O    6.013223   3.220451   2.431983   1.224004   2.296288
    15  C    4.715533   4.812607   4.426641   3.142153   2.423229
    16  H    3.393791   2.737636   3.219661   4.195205   4.075410
    17  H    2.154070   4.704228   5.565451   5.241666   5.007264
    18  H    2.152058   4.685661   5.263001   5.754173   5.191034
    19  H    3.395930   2.770393   3.694289   3.451510   3.833342
    20  H    1.086588   5.417104   6.171143   6.175298   5.589235
    21  H    4.760455   1.098317   2.155230   3.460011   4.181270
    22  H    5.003543   2.165411   1.098614   2.127551   2.368663
    23  H    6.326227   4.982819   3.993030   2.542850   2.098418
    24  H    5.647956   5.301063   4.375428   3.230408   2.042815
    25  H    5.944144   1.963914   2.650818   3.321868   4.528271
    26  H    7.248146   3.499361   2.171057   2.723926   3.581294
    27  H    6.880920   2.785869   2.174804   3.444315   4.393779
    28  H    7.047016   2.867655   2.192617   2.751053   4.026901
    29  H    4.710612   4.392222   4.218350   2.951590   2.714107
    30  H    5.522683   5.888236   5.459503   4.099145   3.373126
    31  H    3.793341   4.758663   4.577244   3.556626   2.664791
                   11         12         13         14         15
    11  C    0.000000
    12  O    5.051293   0.000000
    13  C    4.725036   3.006554   0.000000
    14  O    2.709202   3.154073   2.886868   0.000000
    15  C    1.516635   5.107515   5.621334   3.293716   0.000000
    16  H    5.361922   4.065272   4.359740   5.306501   5.663445
    17  H    5.238842   4.809427   6.966766   5.642299   4.150649
    18  H    6.074998   5.788662   6.621295   6.823613   5.936956
    19  H    4.381641   2.470962   4.869872   3.651361   3.731718
    20  H    6.026366   6.075153   7.662445   6.964962   5.280176
    21  H    5.516871   2.016559   2.746883   4.180224   5.859999
    22  H    3.791038   3.397267   2.121603   3.249718   4.662088
    23  H    1.096005   5.299326   4.712560   2.437949   2.171919
    24  H    1.094946   5.982051   5.392122   3.709954   2.147727
    25  H    5.558668   0.970685   2.649331   3.330822   5.785065
    26  H    4.632825   4.022539   1.095892   3.083772   5.760605
    27  H    5.676144   3.330452   1.094828   3.942148   6.541617
    28  H    5.031117   2.769909   1.094976   2.690919   5.786914
    29  H    2.165915   4.406619   5.347646   2.843882   1.094440
    30  H    2.161363   6.100362   6.573804   4.072721   1.093639
    31  H    2.159282   5.220852   5.943966   3.985421   1.094712
                   16         17         18         19         20
    16  H    0.000000
    17  H    4.960943   0.000000
    18  H    2.464767   4.294883   0.000000
    19  H    4.317098   2.464824   4.962087   0.000000
    20  H    4.288726   2.481559   2.479996   4.290326   0.000000
    21  H    2.541654   5.406709   4.740846   3.642138   5.824954
    22  H    2.677957   5.836086   4.742977   4.333730   6.000021
    23  H    6.166794   6.045484   7.095798   4.909953   7.049570
    24  H    5.654642   5.803479   6.148361   5.270737   6.221138
    25  H    4.608685   5.775808   6.554251   3.406486   7.009454
    26  H    4.967087   7.667607   7.164694   5.669965   8.276721
    27  H    4.242744   7.448945   6.656016   5.407494   7.946618
    28  H    5.144312   7.103957   7.335454   4.805877   8.120257
    29  H    5.691572   3.786262   6.145117   2.969636   5.367071
    30  H    6.715075   4.778996   6.811641   4.622292   5.943826
    31  H    5.139650   3.446909   5.042543   3.573375   4.265313
                   21         22         23         24         25
    21  H    0.000000
    22  H    2.493566   0.000000
    23  H    5.964067   4.242326   0.000000
    24  H    6.193403   4.212568   1.761085   0.000000
    25  H    2.234588   3.628320   5.659840   6.490998   0.000000
    26  H    3.737843   2.432322   4.484321   5.163356   3.688447
    27  H    2.527943   2.480598   5.750495   6.279774   2.865268
    28  H    3.164927   3.058636   4.859292   5.838425   2.187005
    29  H    5.480463   4.692942   2.540216   3.065874   5.087704
    30  H    6.944592   5.688593   2.512021   2.490740   6.753260
    31  H    5.735022   4.657110   3.078733   2.495456   6.005799
                   26         27         28         29         30
    26  H    0.000000
    27  H    1.771440   0.000000
    28  H    1.761768   1.774427   0.000000
    29  H    5.637073   6.271975   5.335581   0.000000
    30  H    6.627660   7.535253   6.683908   1.776986   0.000000
    31  H    6.172976   6.749838   6.232031   1.760342   1.778646
                   31
    31  H    0.000000
 Stoichiometry    C12H16O3
 Framework group  C1[X(C12H16O3)]
 Deg. of freedom    87
 Full point group                 C1      NOp   1
 Largest Abelian subgroup         C1      NOp   1
 Largest concise Abelian subgroup C1      NOp   1
                         Standard orientation:                         
 ---------------------------------------------------------------------
 Center     Atomic      Atomic             Coordinates (Angstroms)
 Number     Number       Type             X           Y           Z
 ---------------------------------------------------------------------
      1          6           0        1.806850   -1.139736   -1.064227
      2          6           0        2.733925    0.465253    1.016737
      3          6           0        3.032684   -0.480981   -1.180587
      4          6           0        1.026381   -1.004480    0.095790
      5          6           0        1.507391   -0.191509    1.133348
      6          6           0        3.495562    0.321230   -0.140244
      7          6           0       -0.312944   -1.712956    0.192713
      8          6           0       -1.415239   -1.041095   -0.643211
      9          6           0       -1.706901    0.362268   -0.148730
     10          8           0       -1.076447    1.278677   -0.937181
     11          6           0       -1.283268    2.654859   -0.588581
     12          8           0       -0.684138   -1.877078    1.560410
     13          6           0       -2.715845   -1.847274   -0.655587
     14          8           0       -2.436093    0.632001    0.796632
     15          6           0       -0.273149    3.092350    0.454703
     16          1           0        1.465104   -1.761845   -1.888346
     17          1           0        3.091645    1.089524    1.831200
     18          1           0        3.627191   -0.594595   -2.083255
     19          1           0        0.924132   -0.064569    2.044075
     20          1           0        4.449896    0.833003   -0.229744
     21          1           0       -0.157259   -2.731060   -0.188767
     22          1           0       -1.084563   -0.967722   -1.688306
     23          1           0       -2.310789    2.830294   -0.249981
     24          1           0       -1.143445    3.240366   -1.503206
     25          1           0       -1.465791   -2.451195    1.600870
     26          1           0       -3.453302   -1.373613   -1.313450
     27          1           0       -2.539802   -2.863359   -1.023322
     28          1           0       -3.169672   -1.916146    0.338531
     29          1           0       -0.386350    2.515681    1.377978
     30          1           0       -0.393359    4.153756    0.689253
     31          1           0        0.747104    2.925102    0.094834
 ---------------------------------------------------------------------
 Rotational constants (GHZ):      0.7592816      0.5211423      0.3886694
 Standard basis: 6-31+G(d,p) (6D, 7F)
 There are   365 symmetry adapted basis functions of A   symmetry.
 Integral buffers will be    131072 words long.
 Raffenetti 2 integral format.
 Two-electron integral symmetry is turned on.
   365 basis functions,   592 primitive gaussians,   365 cartesian basis functions
    56 alpha electrons       56 beta electrons
       nuclear repulsion energy      1036.6667125480 Hartrees.
 NAtoms=   31 NActive=   31 NUniq=   31 SFac= 1.00D+00 NAtFMM=   60 NAOKFM=F Big=F
 Nuclear repulsion after empirical dispersion term =     1036.6440381257 Hartrees.
 ------------------------------------------------------------------------------
 Polarizable Continuum Model (PCM)
 =================================
 Model                : C-PCM.
 Atomic radii         : SMD-Coulomb.
 Polarization charges : Total charges.
 Charge compensation  : None.
 Solution method      : Matrix inversion.
 Cavity type          : VdW (van der Waals Surface) (Alpha=1.000).
 Cavity algorithm     : GePol (No added spheres)
                        Default sphere list used, NSphG=   31.
                        Lebedev-Laikov grids with approx.  5.0 points / Ang**2.
                        Smoothing algorithm: Karplus/York (Gamma=1.0000).
                        Polarization charges: spherical gaussians, with
                                              point-specific exponents (IZeta= 3).
                        Self-potential: point-specific (ISelfS= 7).
                        Self-field    : sphere-specific E.n sum rule (ISelfD= 2).
 Solvent              : Chloroform, Eps=   4.711300 Eps(inf)=   2.090627
 ------------------------------------------------------------------------------
 ------------------------------------------------------------------------------
 Atomic radii for non-electrostatic terms: SMD-CDS.
 ------------------------------------------------------------------------------
 Nuclear repulsion after PCM non-electrostatic terms =     1036.6375895271 Hartrees.
 One-electron integrals computed using PRISM.
 NBasis=   365 RedAO= T  NBF=   365
 NBsUse=   365 1.00D-06 NBFU=   365
 Harris functional with IExCor= 4639 diagonalized for initial guess.
 ExpMin= 4.38D-02 ExpMax= 5.48D+03 ExpMxC= 8.25D+02 IAcc=2 IRadAn=         4 AccDes= 0.00D+00
 HarFok:  IExCor= 4639 AccDes= 0.00D+00 IRadAn=         4 IDoV= 1
 ScaDFX=  1.000000  1.000000  1.000000  1.000000
 FoFCou: FMM=F IPFlag=           0 FMFlag=      100000 FMFlg1=           0
         NFxFlg=           0 DoJE=T BraDBF=F KetDBF=T FulRan=T
         Omega=  0.000000  0.000000  1.000000  0.000000  0.000000 ICntrl=     500 IOpCl=  0
         NMat0=    1 NMatS0=    1 NMatT0=    0 NMatD0=    1 NMtDS0=    0 NMtDT0=    0
         I1Cent=           4 NGrid=           0.
 Petite list used in FoFCou.
 Initial guess orbital symmetries:
       Occupied  (A) (A) (A) (A) (A) (A) (A) (A) (A) (A) (A) (A)
                 (A) (A) (A) (A) (A) (A) (A) (A) (A) (A) (A) (A)
                 (A) (A) (A) (A) (A) (A) (A) (A) (A) (A) (A) (A)
                 (A) (A) (A) (A) (A) (A) (A) (A) (A) (A) (A) (A)
                 (A) (A) (A) (A) (A) (A) (A) (A)
       Virtual   (A) (A) (A) (A) (A) (A) (A) (A) (A) (A) (A) (A)
                 (A) (A) (A) (A) (A) (A) (A) (A) (A) (A) (A) (A)
                 (A) (A) (A) (A) (A) (A) (A) (A) (A) (A) (A) (A)
                 (A) (A) (A) (A) (A) (A) (A) (A) (A) (A) (A) (A)
                 (A) (A) (A) (A) (A) (A) (A) (A) (A) (A) (A) (A)
                 (A) (A) (A) (A) (A) (A) (A) (A) (A) (A) (A) (A)
                 (A) (A) (A) (A) (A) (A) (A) (A) (A) (A) (A) (A)
                 (A) (A) (A) (A) (A) (A) (A) (A) (A) (A) (A) (A)
                 (A) (A) (A) (A) (A) (A) (A) (A) (A) (A) (A) (A)
                 (A) (A) (A) (A) (A) (A) (A) (A) (A) (A) (A) (A)
                 (A) (A) (A) (A) (A) (A) (A) (A) (A) (A) (A) (A)
                 (A) (A) (A) (A) (A) (A) (A) (A) (A) (A) (A) (A)
                 (A) (A) (A) (A) (A) (A) (A) (A) (A) (A) (A) (A)
                 (A) (A) (A) (A) (A) (A) (A) (A) (A) (A) (A) (A)
                 (A) (A) (A) (A) (A) (A) (A) (A) (A) (A) (A) (A)
                 (A) (A) (A) (A) (A) (A) (A) (A) (A) (A) (A) (A)
                 (A) (A) (A) (A) (A) (A) (A) (A) (A) (A) (A) (A)
                 (A) (A) (A) (A) (A) (A) (A) (A) (A) (A) (A) (A)
                 (A) (A) (A) (A) (A) (A) (A) (A) (A) (A) (A) (A)
                 (A) (A) (A) (A) (A) (A) (A) (A) (A) (A) (A) (A)
                 (A) (A) (A) (A) (A) (A) (A) (A) (A) (A) (A) (A)
                 (A) (A) (A) (A) (A) (A) (A) (A) (A) (A) (A) (A)
                 (A) (A) (A) (A) (A) (A) (A) (A) (A) (A) (A) (A)
                 (A) (A) (A) (A) (A) (A) (A) (A) (A) (A) (A) (A)
                 (A) (A) (A) (A) (A) (A) (A) (A) (A) (A) (A) (A)
                 (A) (A) (A) (A) (A) (A) (A) (A) (A)
 The electronic state of the initial guess is 1-A.
 Requested convergence on RMS density matrix=1.00D-08 within 128 cycles.
 Requested convergence on MAX density matrix=1.00D-06.
 Requested convergence on             energy=1.00D-06.
 No special actions if energy rises.
 FoFJK:  IHMeth= 1 ICntrl=     0 DoSepK=T KAlg= 1 I1Cent= 0 FoldK=F
 FoFJK:  IHMeth= 1 ICntrl=     0 DoSepK=T KAlg= 1 I1Cent= 0 FoldK=F
 FoFJK:  IHMeth= 1 ICntrl=     0 DoSepK=T KAlg= 1 I1Cent= 0 FoldK=F
 FoFJK:  IHMeth= 1 ICntrl=     0 DoSepK=T KAlg= 1 I1Cent= 0 FoldK=F
 FoFJK:  IHMeth= 1 ICntrl=     0 DoSepK=T KAlg= 1 I1Cent= 0 FoldK=F
 FoFJK:  IHMeth= 1 ICntrl=     0 DoSepK=T KAlg= 1 I1Cent= 0 FoldK=F
 FoFJK:  IHMeth= 1 ICntrl=     0 DoSepK=T KAlg= 1 I1Cent= 0 FoldK=F
 FoFJK:  IHMeth= 1 ICntrl=     0 DoSepK=T KAlg= 1 I1Cent= 0 FoldK=F
 FoFJK:  IHMeth= 1 ICntrl=     0 DoSepK=T KAlg= 1 I1Cent= 0 FoldK=F
 FoFJK:  IHMeth= 1 ICntrl=     0 DoSepK=T KAlg= 1 I1Cent= 0 FoldK=F
 FoFJK:  IHMeth= 1 ICntrl=     0 DoSepK=T KAlg= 1 I1Cent= 0 FoldK=F
 FoFJK:  IHMeth= 1 ICntrl=     0 DoSepK=T KAlg= 1 I1Cent= 0 FoldK=F
 FoFJK:  IHMeth= 1 ICntrl=     0 DoSepK=T KAlg= 1 I1Cent= 0 FoldK=F
 FoFJK:  IHMeth= 1 ICntrl=     0 DoSepK=T KAlg= 1 I1Cent= 0 FoldK=F
 FoFJK:  IHMeth= 1 ICntrl=     0 DoSepK=T KAlg= 1 I1Cent= 0 FoldK=F
 Error on total polarization charges =  0.03865
 SCF Done:  E(RwB97XD) =  -692.444522793     A.U. after   15 cycles
             Convg  =    0.8993D-08             -V/T =  2.0096
 SMD-CDS (non-electrostatic) energy       (kcal/mol) =      -4.05
 (included in total energy above)
 Range of M.O.s used for correlation:     1   365
 NBasis=   365 NAE=    56 NBE=    56 NFC=     0 NFV=     0
 NROrb=    365 NOA=    56 NOB=    56 NVA=   309 NVB=   309

 **** Warning!!: The largest alpha MO coefficient is  0.13863065D+03

 NEqPCM:  Using equilibrium solvation (IEInf=0, Eps=   4.7113, EpsInf=   2.0906)
          Differentiating once with respect to magnetic field using GIAOs.
          Electric field/nuclear overlap derivatives assumed to be zero.
 FoFCou: FMM=F IPFlag=           0 FMFlag=    10101102 FMFlg1=           0
         NFxFlg=    40000000 DoJE=F BraDBF=F KetDBF=T FulRan=T
         Omega=  0.000000  0.000000  1.000000  0.000000  0.000000 ICntrl=    6100 IOpCl=  0
         NMat0=    1 NMatS0=    1 NMatT0=    0 NMatD0=    1 NMtDS0=    0 NMtDT0=    0
         I1Cent=           7 NGrid=        2255.
 Symmetry not used in FoFCou.
 FoFJK:  IHMeth= 1 ICntrl=  6127 DoSepK=T KAlg= 1 I1Cent= 0 FoldK=F
 FoFJK:  IHMeth= 1 ICntrl=     0 DoSepK=T KAlg= 1 I1Cent= 0 FoldK=F
          There are     3 degrees of freedom in the 1st order CPHF.  IDoFFX=0.
      3 vectors produced by pass  0 Test12= 5.77D-13 3.33D-08 XBig12= 1.03D+02 1.89D+00.
 AX will form     3 AO Fock derivatives at one time.
 FoFJK:  IHMeth= 1 ICntrl=     0 DoSepK=T KAlg= 1 I1Cent= 0 FoldK=F
      3 vectors produced by pass  1 Test12= 5.77D-13 3.33D-08 XBig12= 7.17D-01 2.20D-01.
 FoFJK:  IHMeth= 1 ICntrl=     0 DoSepK=T KAlg= 1 I1Cent= 0 FoldK=F
      3 vectors produced by pass  2 Test12= 5.77D-13 3.33D-08 XBig12= 1.48D-02 4.46D-02.
 FoFJK:  IHMeth= 1 ICntrl=     0 DoSepK=T KAlg= 1 I1Cent= 0 FoldK=F
      3 vectors produced by pass  3 Test12= 5.77D-13 3.33D-08 XBig12= 2.29D-04 3.99D-03.
 FoFJK:  IHMeth= 1 ICntrl=     0 DoSepK=T KAlg= 1 I1Cent= 0 FoldK=F
      3 vectors produced by pass  4 Test12= 5.77D-13 3.33D-08 XBig12= 3.20D-06 4.26D-04.
 FoFJK:  IHMeth= 1 ICntrl=     0 DoSepK=T KAlg= 1 I1Cent= 0 FoldK=F
      3 vectors produced by pass  5 Test12= 5.77D-13 3.33D-08 XBig12= 5.32D-08 5.25D-05.
 FoFJK:  IHMeth= 1 ICntrl=     0 DoSepK=T KAlg= 1 I1Cent= 0 FoldK=F
      3 vectors produced by pass  6 Test12= 5.77D-13 3.33D-08 XBig12= 6.99D-10 6.59D-06.
 FoFJK:  IHMeth= 1 ICntrl=     0 DoSepK=T KAlg= 1 I1Cent= 0 FoldK=F
      3 vectors produced by pass  7 Test12= 5.77D-13 3.33D-08 XBig12= 8.34D-12 5.93D-07.
 FoFJK:  IHMeth= 1 ICntrl=     0 DoSepK=T KAlg= 1 I1Cent= 0 FoldK=F
      3 vectors produced by pass  8 Test12= 5.77D-13 3.33D-08 XBig12= 8.54D-14 6.53D-08.
 FoFJK:  IHMeth= 1 ICntrl=     0 DoSepK=T KAlg= 1 I1Cent= 0 FoldK=F
 Inverted reduced A of dimension    27 with in-core refinement.
 Calculating GIAO nuclear magnetic shielding tensors.
 SCF GIAO Magnetic shielding tensor (ppm):
      1  C    Isotropic =    71.9912   Anisotropy =   167.4951
   XX=    73.1165   YX=   -60.9310   ZX=     6.9627
   XY=   -57.0498   YY=   112.2290   ZY=   -76.5430
   XZ=    -3.0040   YZ=   -77.6919   ZZ=    30.6282
   Eigenvalues:   -25.6134    57.9325   183.6546
      2  C    Isotropic =    69.7803   Anisotropy =   178.1784
   XX=    75.3110   YX=   -65.2584   ZX=     3.3297
   XY=   -66.4836   YY=   107.3282   ZY=   -82.7347
   XZ=     2.5639   YZ=   -80.5098   ZZ=    26.7019
   Eigenvalues:   -35.1693    55.9444   188.5659
      3  C    Isotropic =    71.1012   Anisotropy =   176.1601
   XX=    59.2325   YX=   -42.6695   ZX=    64.4600
   XY=   -42.6529   YY=   137.8630   ZY=   -49.6003
   XZ=    65.7229   YZ=   -50.4000   ZZ=    16.2081
   Eigenvalues:   -32.5454    57.3077   188.5413
      4  C    Isotropic =    54.5653   Anisotropy =   179.4415
   XX=     9.5401   YX=   -74.9631   ZX=    36.3664
   XY=   -78.3285   YY=   100.4838   ZY=   -53.3884
   XZ=    33.1185   YZ=   -45.4865   ZZ=    53.6721
   Eigenvalues:   -34.5894    24.0925   174.1930
      5  C    Isotropic =    72.6511   Anisotropy =   184.9968
   XX=    57.1755   YX=   -50.5120   ZX=    62.3363
   XY=   -40.5235   YY=   143.9769   ZY=   -55.1811
   XZ=    58.9121   YZ=   -55.5531   ZZ=    16.8010
   Eigenvalues:   -29.3603    51.3313   195.9823
      6  C    Isotropic =    72.4122   Anisotropy =   174.9501
   XX=    22.2389   YX=   -83.5502   ZX=    29.6504
   XY=   -87.1646   YY=   118.0294   ZY=   -38.2369
   XZ=    32.3592   YZ=   -37.8534   ZZ=    76.9682
   Eigenvalues:   -28.3502    56.5411   189.0455
      7  C    Isotropic =   120.4553   Anisotropy =    30.9341
   XX=   119.6369   YX=     0.6134   ZX=   -13.9755
   XY=    -0.4951   YY=   103.9100   ZY=    -2.1141
   XZ=    -2.4325   YZ=    -2.0641   ZZ=   137.8189
   Eigenvalues:   103.7676   116.5202   141.0780
      8  C    Isotropic =   147.4687   Anisotropy =    10.6542
   XX=   147.2321   YX=    -2.3562   ZX=    -0.2326
   XY=    -4.8159   YY=   150.9947   ZY=     2.5895
   XZ=     2.2214   YZ=     7.0346   ZZ=   144.1793
   Eigenvalues:   140.6277   147.2069   154.5715
      9  C    Isotropic =    21.0419   Anisotropy =   100.6618
   XX=    71.5942   YX=   -38.3326   ZX=    19.8551
   XY=   -18.2838   YY=   -50.5070   ZY=    17.5942
   XZ=    33.7825   YZ=    43.0942   ZZ=    42.0385
   Eigenvalues:   -68.3833    43.3592    88.1497
     10  O    Isotropic =   121.8682   Anisotropy =   154.2084
   XX=   161.8379   YX=   136.6741   ZX=    81.4186
   XY=    32.5985   YY=    96.4355   ZY=   -35.3912
   XZ=    75.2031   YZ=  -142.0349   ZZ=   107.3312
   Eigenvalues:   -49.8135   190.7443   224.6738
     11  C    Isotropic =   138.2289   Anisotropy =    65.3334
   XX=   116.5282   YX=    -5.3350   ZX=    16.0194
   XY=   -11.0984   YY=   178.2723   ZY=    14.6991
   XZ=    13.5657   YZ=    13.1138   ZZ=   119.8864
   Eigenvalues:   100.2546   132.6477   181.7845
     12  O    Isotropic =   308.0514   Anisotropy =    55.8260
   XX=   325.8702   YX=    31.3807   ZX=   -17.6264
   XY=    24.1231   YY=   305.4057   ZY=     4.3131
   XZ=     8.2988   YZ=     3.2864   ZZ=   292.8784
   Eigenvalues:   282.7442   296.1414   345.2688
     13  C    Isotropic =   180.4531   Anisotropy =    27.9065
   XX=   189.7585   YX=     9.6360   ZX=     4.0003
   XY=    10.1446   YY=   185.0103   ZY=     7.0280
   XZ=     1.8625   YZ=     7.8341   ZZ=   166.5904
   Eigenvalues:   163.9532   178.3486   199.0574
     14  O    Isotropic =   -47.5524   Anisotropy =   578.9634
   XX=    78.2839   YX=   -24.6879   ZX=   331.0330
   XY=   -53.8964   YY=  -175.9830   ZY=    18.8462
   XZ=   299.8304   YZ=    33.5443   ZZ=   -44.9582
   Eigenvalues:  -319.0407  -162.0396   338.4232
     15  C    Isotropic =   180.8437   Anisotropy =    21.1230
   XX=   179.8455   YX=     0.6551   ZX=    13.5598
   XY=    -3.0690   YY=   186.9830   ZY=     7.0764
   XZ=    15.4553   YZ=     8.1022   ZZ=   175.7025
   Eigenvalues:   161.4190   186.1863   194.9257
     16  H    Isotropic =    23.8146   Anisotropy =     8.1274
   XX=    27.1303   YX=     1.0088   ZX=    -3.8328
   XY=     1.0048   YY=    21.3507   ZY=     1.0262
   XZ=    -3.3625   YZ=     0.5793   ZZ=    22.9628
   Eigenvalues:    19.8898    22.3211    29.2329
     17  H    Isotropic =    23.7816   Anisotropy =     4.8444
   XX=    26.2594   YX=     1.6090   ZX=    -1.2419
   XY=     1.5041   YY=    21.4171   ZY=     0.4587
   XZ=    -1.0264   YZ=     0.3028   ZZ=    23.6684
   Eigenvalues:    20.7873    23.5463    27.0112
     18  H    Isotropic =    23.6955   Anisotropy =     4.4558
   XX=    25.2193   YX=     2.3047   ZX=    -0.2995
   XY=     2.2442   YY=    22.6470   ZY=     1.7682
   XZ=    -0.4124   YZ=     1.7910   ZZ=    23.2202
   Eigenvalues:    20.2939    24.1266    26.6660
     19  H    Isotropic =    23.5770   Anisotropy =     8.9767
   XX=    25.5151   YX=     3.9711   ZX=     2.7819
   XY=     4.0361   YY=    22.9184   ZY=     1.1503
   XZ=     2.3699   YZ=     1.5195   ZZ=    22.2974
   Eigenvalues:    19.8780    21.2915    29.5614
     20  H    Isotropic =    23.8764   Anisotropy =     3.7643
   XX=    24.3771   YX=     1.0312   ZX=    -1.0557
   XY=     0.8253   YY=    21.9958   ZY=     2.1469
   XZ=    -0.8081   YZ=     2.0383   ZZ=    25.2564
   Eigenvalues:    20.5646    24.6787    26.3860
     21  H    Isotropic =    26.5549   Anisotropy =     7.0840
   XX=    25.0326   YX=    -2.1991   ZX=    -2.8075
   XY=     0.1809   YY=    27.9000   ZY=     2.2884
   XZ=    -4.0075   YZ=     2.4873   ZZ=    26.7321
   Eigenvalues:    22.2745    26.1126    31.2775
     22  H    Isotropic =    28.5996   Anisotropy =     4.8828
   XX=    28.5475   YX=     3.4591   ZX=    -1.2020
   XY=     0.4109   YY=    26.0947   ZY=    -0.2807
   XZ=    -1.1551   YZ=    -0.6102   ZZ=    31.1564
   Eigenvalues:    25.0247    28.9191    31.8548
     23  H    Isotropic =    27.1795   Anisotropy =     7.3842
   XX=    29.4230   YX=    -1.7071   ZX=     0.4516
   XY=    -3.8241   YY=    29.2233   ZY=     1.3738
   XZ=     1.1445   YZ=    -0.6633   ZZ=    22.8923
   Eigenvalues:    22.7104    26.7258    32.1024
     24  H    Isotropic =    28.2843   Anisotropy =     9.1148
   XX=    24.0542   YX=    -1.3104   ZX=     2.7496
   XY=    -0.6213   YY=    31.0630   ZY=    -3.9634
   XZ=     1.8989   YZ=    -2.8545   ZZ=    29.7357
   Eigenvalues:    23.2154    27.2766    34.3608
     25  H    Isotropic =    29.1612   Anisotropy =    18.2742
   XX=    33.1991   YX=     9.6798   ZX=    -0.1769
   XY=    10.1999   YY=    27.2931   ZY=    -4.5586
   XZ=    -1.9333   YZ=    -3.3167   ZZ=    26.9914
   Eigenvalues:    19.0258    27.1138    41.3440
     26  H    Isotropic =    30.3843   Anisotropy =    10.2751
   XX=    34.0383   YX=     0.0123   ZX=     5.2623
   XY=    -0.2209   YY=    27.8135   ZY=    -1.1788
   XZ=     4.7379   YZ=    -0.5384   ZZ=    29.3012
   Eigenvalues:    25.8994    28.0192    37.2344
     27  H    Isotropic =    30.6162   Anisotropy =    10.4747
   XX=    28.4711   YX=     2.3750   ZX=     0.5237
   XY=     1.2699   YY=    35.3549   ZY=     4.0247
   XZ=     0.8997   YZ=     4.1542   ZZ=    28.0225
   Eigenvalues:    26.1920    28.0572    37.5993
     28  H    Isotropic =    29.9857   Anisotropy =     7.0129
   XX=    31.3794   YX=     2.4014   ZX=    -3.5104
   XY=     1.9013   YY=    27.0903   ZY=    -0.8511
   XZ=    -2.1104   YZ=     0.1897   ZZ=    31.4875
   Eigenvalues:    26.0565    29.2396    34.6610
     29  H    Isotropic =    30.6007   Anisotropy =     3.9452
   XX=    28.3845   YX=     0.6156   ZX=     1.1102
   XY=    -0.0350   YY=    30.8204   ZY=    -0.3030
   XZ=     1.1411   YZ=    -1.7194   ZZ=    32.5972
   Eigenvalues:    27.9978    30.5734    33.2308
     30  H    Isotropic =    30.9285   Anisotropy =    11.8554
   XX=    27.5670   YX=     0.3722   ZX=     0.5193
   XY=    -0.3348   YY=    37.7281   ZY=     3.6977
   XZ=     0.8710   YZ=     3.3637   ZZ=    27.4906
   Eigenvalues:    26.0958    27.8577    38.8321
     31  H    Isotropic =    31.3976   Anisotropy =     7.9390
   XX=    36.2775   YX=    -1.6092   ZX=    -1.8601
   XY=    -1.1694   YY=    31.4939   ZY=     1.3088
   XZ=     0.6356   YZ=    -1.0142   ZZ=    26.4215
   Eigenvalues:    26.3828    31.1198    36.6903
 End of Minotr Frequency-dependent properties file   721 does not exist.
 End of Minotr Frequency-dependent properties file   722 does not exist.

 **********************************************************************

            Population analysis using the SCF density.

 **********************************************************************

 Orbital symmetries:
       Occupied  (A) (A) (A) (A) (A) (A) (A) (A) (A) (A) (A) (A)
                 (A) (A) (A) (A) (A) (A) (A) (A) (A) (A) (A) (A)
                 (A) (A) (A) (A) (A) (A) (A) (A) (A) (A) (A) (A)
                 (A) (A) (A) (A) (A) (A) (A) (A) (A) (A) (A) (A)
                 (A) (A) (A) (A) (A) (A) (A) (A)
       Virtual   (A) (A) (A) (A) (A) (A) (A) (A) (A) (A) (A) (A)
                 (A) (A) (A) (A) (A) (A) (A) (A) (A) (A) (A) (A)
                 (A) (A) (A) (A) (A) (A) (A) (A) (A) (A) (A) (A)
                 (A) (A) (A) (A) (A) (A) (A) (A) (A) (A) (A) (A)
                 (A) (A) (A) (A) (A) (A) (A) (A) (A) (A) (A) (A)
                 (A) (A) (A) (A) (A) (A) (A) (A) (A) (A) (A) (A)
                 (A) (A) (A) (A) (A) (A) (A) (A) (A) (A) (A) (A)
                 (A) (A) (A) (A) (A) (A) (A) (A) (A) (A) (A) (A)
                 (A) (A) (A) (A) (A) (A) (A) (A) (A) (A) (A) (A)
                 (A) (A) (A) (A) (A) (A) (A) (A) (A) (A) (A) (A)
                 (A) (A) (A) (A) (A) (A) (A) (A) (A) (A) (A) (A)
                 (A) (A) (A) (A) (A) (A) (A) (A) (A) (A) (A) (A)
                 (A) (A) (A) (A) (A) (A) (A) (A) (A) (A) (A) (A)
                 (A) (A) (A) (A) (A) (A) (A) (A) (A) (A) (A) (A)
                 (A) (A) (A) (A) (A) (A) (A) (A) (A) (A) (A) (A)
                 (A) (A) (A) (A) (A) (A) (A) (A) (A) (A) (A) (A)
                 (A) (A) (A) (A) (A) (A) (A) (A) (A) (A) (A) (A)
                 (A) (A) (A) (A) (A) (A) (A) (A) (A) (A) (A) (A)
                 (A) (A) (A) (A) (A) (A) (A) (A) (A) (A) (A) (A)
                 (A) (A) (A) (A) (A) (A) (A) (A) (A) (A) (A) (A)
                 (A) (A) (A) (A) (A) (A) (A) (A) (A) (A) (A) (A)
                 (A) (A) (A) (A) (A) (A) (A) (A) (A) (A) (A) (A)
                 (A) (A) (A) (A) (A) (A) (A) (A) (A) (A) (A) (A)
                 (A) (A) (A) (A) (A) (A) (A) (A) (A) (A) (A) (A)
                 (A) (A) (A) (A) (A) (A) (A) (A) (A) (A) (A) (A)
                 (A) (A) (A) (A) (A) (A) (A) (A) (A)
 The electronic state is 1-A.
 Alpha  occ. eigenvalues --  -19.32578 -19.28298 -19.27318 -10.43755 -10.36440
 Alpha  occ. eigenvalues --  -10.34800 -10.31894 -10.31651 -10.30684 -10.30577
 Alpha  occ. eigenvalues --  -10.30445 -10.30339 -10.30323 -10.29260 -10.28406
 Alpha  occ. eigenvalues --   -1.20670  -1.13256  -1.12144  -0.96136  -0.91259
 Alpha  occ. eigenvalues --   -0.86561  -0.85383  -0.84554  -0.77994  -0.76267
 Alpha  occ. eigenvalues --   -0.70763  -0.70097  -0.67569  -0.64365  -0.61962
 Alpha  occ. eigenvalues --   -0.60428  -0.58556  -0.57239  -0.56387  -0.54739
 Alpha  occ. eigenvalues --   -0.53769  -0.52883  -0.52007  -0.51263  -0.50155
 Alpha  occ. eigenvalues --   -0.48811  -0.47477  -0.46723  -0.45954  -0.44977
 Alpha  occ. eigenvalues --   -0.44673  -0.44299  -0.43443  -0.41990  -0.41617
 Alpha  occ. eigenvalues --   -0.40598  -0.38906  -0.37541  -0.35634  -0.33072
 Alpha  occ. eigenvalues --   -0.32212
 Alpha virt. eigenvalues --    0.05141   0.05454   0.06477   0.07013   0.07340
 Alpha virt. eigenvalues --    0.08284   0.08735   0.09478   0.09899   0.10291
 Alpha virt. eigenvalues --    0.10554   0.10932   0.11874   0.12350   0.12832
 Alpha virt. eigenvalues --    0.13031   0.13610   0.14673   0.14956   0.15506
 Alpha virt. eigenvalues --    0.16263   0.16441   0.17143   0.17412   0.18443
 Alpha virt. eigenvalues --    0.18813   0.18998   0.19827   0.20018   0.20080
 Alpha virt. eigenvalues --    0.20882   0.21494   0.22095   0.22662   0.22858
 Alpha virt. eigenvalues --    0.22999   0.23337   0.24181   0.24733   0.25175
 Alpha virt. eigenvalues --    0.25339   0.25862   0.26190   0.26476   0.26565
 Alpha virt. eigenvalues --    0.26931   0.27995   0.28904   0.28960   0.29133
 Alpha virt. eigenvalues --    0.29775   0.30360   0.30808   0.31008   0.31042
 Alpha virt. eigenvalues --    0.31655   0.32256   0.32626   0.33177   0.33866
 Alpha virt. eigenvalues --    0.34459   0.35117   0.35524   0.35912   0.36280
 Alpha virt. eigenvalues --    0.36608   0.36941   0.38330   0.38341   0.39009
 Alpha virt. eigenvalues --    0.39775   0.40194   0.40353   0.41195   0.41541
 Alpha virt. eigenvalues --    0.42578   0.43268   0.43730   0.43947   0.44803
 Alpha virt. eigenvalues --    0.45434   0.46331   0.47604   0.47979   0.49405
 Alpha virt. eigenvalues --    0.49735   0.51828   0.52209   0.53960   0.55424
 Alpha virt. eigenvalues --    0.56433   0.57189   0.61345   0.66633   0.70330
 Alpha virt. eigenvalues --    0.73200   0.74184   0.75752   0.76284   0.77747
 Alpha virt. eigenvalues --    0.78157   0.78741   0.79301   0.79853   0.81238
 Alpha virt. eigenvalues --    0.82759   0.83000   0.83425   0.84200   0.85312
 Alpha virt. eigenvalues --    0.86001   0.86631   0.87463   0.88016   0.89590
 Alpha virt. eigenvalues --    0.91829   0.92040   0.92410   0.94605   0.96780
 Alpha virt. eigenvalues --    0.98223   0.99375   1.00402   1.01498   1.01942
 Alpha virt. eigenvalues --    1.03684   1.04140   1.04660   1.07472   1.08412
 Alpha virt. eigenvalues --    1.08813   1.10140   1.10283   1.11343   1.12188
 Alpha virt. eigenvalues --    1.14593   1.15263   1.17358   1.18632   1.19840
 Alpha virt. eigenvalues --    1.20294   1.22346   1.23441   1.24014   1.25258
 Alpha virt. eigenvalues --    1.26354   1.27793   1.28967   1.30679   1.32375
 Alpha virt. eigenvalues --    1.33416   1.34229   1.34856   1.35465   1.39463
 Alpha virt. eigenvalues --    1.40589   1.41564   1.42463   1.44001   1.46025
 Alpha virt. eigenvalues --    1.46235   1.48115   1.48533   1.49725   1.49859
 Alpha virt. eigenvalues --    1.50644   1.51934   1.54304   1.55556   1.57129
 Alpha virt. eigenvalues --    1.59940   1.60964   1.63701   1.65718   1.65882
 Alpha virt. eigenvalues --    1.67541   1.70015   1.71650   1.74616   1.76397
 Alpha virt. eigenvalues --    1.77909   1.83144   1.85464   1.86036   1.87177
 Alpha virt. eigenvalues --    1.89114   1.89870   1.92952   1.94872   1.95595
 Alpha virt. eigenvalues --    1.97353   1.99110   1.99703   2.00988   2.02623
 Alpha virt. eigenvalues --    2.03033   2.04365   2.05670   2.06323   2.07049
 Alpha virt. eigenvalues --    2.07990   2.09303   2.10517   2.11230   2.11602
 Alpha virt. eigenvalues --    2.13320   2.15124   2.15375   2.16905   2.17690
 Alpha virt. eigenvalues --    2.19287   2.20648   2.22211   2.23204   2.23580
 Alpha virt. eigenvalues --    2.25482   2.26118   2.27304   2.27961   2.30903
 Alpha virt. eigenvalues --    2.33924   2.34721   2.36234   2.39130   2.40221
 Alpha virt. eigenvalues --    2.41438   2.43922   2.45044   2.46869   2.48299
 Alpha virt. eigenvalues --    2.49496   2.50258   2.50904   2.51243   2.53021
 Alpha virt. eigenvalues --    2.56554   2.56993   2.57418   2.58717   2.61375
 Alpha virt. eigenvalues --    2.63782   2.63950   2.66019   2.67787   2.69324
 Alpha virt. eigenvalues --    2.70336   2.71440   2.72520   2.73616   2.76141
 Alpha virt. eigenvalues --    2.78018   2.79134   2.79795   2.81412   2.81745
 Alpha virt. eigenvalues --    2.85452   2.85786   2.87189   2.88942   2.90539
 Alpha virt. eigenvalues --    2.91026   2.93199   2.94171   2.95024   2.95630
 Alpha virt. eigenvalues --    2.97332   2.99454   3.03818   3.07136   3.09711
 Alpha virt. eigenvalues --    3.13832   3.15605   3.17640   3.20421   3.27743
 Alpha virt. eigenvalues --    3.28544   3.31642   3.37247   3.37749   3.38294
 Alpha virt. eigenvalues --    3.39288   3.43541   3.45207   3.49996   3.52961
 Alpha virt. eigenvalues --    3.54234   3.58566   3.59318   3.60569   3.63055
 Alpha virt. eigenvalues --    3.64874   3.66070   3.67267   3.99694   4.41702
 Alpha virt. eigenvalues --    4.43779   4.45781   4.51041   4.53240   4.56104
 Alpha virt. eigenvalues --    4.60449   4.61278   4.63667   4.68221   4.79216
 Alpha virt. eigenvalues --    4.81443   4.84281   4.96862   4.98996
          Condensed to atoms (all electrons):
              1          2          3          4          5          6
     1  C   16.489356   0.290651  -0.453302  -4.540822  -7.745892   0.439012
     2  C    0.290651   6.425623  -0.122022  -0.317594  -1.065220   0.431093
     3  C   -0.453302  -0.122022   6.203458   0.161006  -0.007024   0.366044
     4  C   -4.540822  -0.317594   0.161006  15.296801  -1.631594  -0.822154
     5  C   -7.745892  -1.065220  -0.007024  -1.631594  17.409631   0.140929
     6  C    0.439012   0.431093   0.366044  -0.822154   0.140929   5.415807
     7  C    2.154379   0.158547  -0.305882  -2.985550  -1.462809  -0.033297
     8  C   -0.244008   0.037234   0.065500   0.356318  -0.025623  -0.059660
     9  C   -0.383537  -0.091557   0.030976   0.690857   0.298590   0.030398
    10  O    0.036957  -0.016992  -0.002262   0.037133  -0.013143   0.006438
    11  C    0.050279  -0.010455  -0.003911  -0.018337  -0.032359   0.002304
    12  O   -0.060572   0.058852  -0.027860   0.230509  -0.113726  -0.000767
    13  C   -0.258052   0.045980  -0.048854  -0.356159   0.104046  -0.006764
    14  O    0.019690   0.000744  -0.001986   0.028121  -0.047574   0.000583
    15  C   -0.004461   0.003455   0.002126  -0.054741   0.050090   0.000605
    16  H    0.071086   0.004471   0.041626   0.151071   0.049319  -0.018145
    17  H   -0.001345   0.240633  -0.005727   0.030563   0.043833   0.015947
    18  H    0.010636   0.004449   0.277578   0.036277  -0.005186   0.006474
    19  H    0.017643  -0.006798  -0.001929   0.095697   0.192489  -0.006207
    20  H    0.002805   0.017426   0.012155  -0.001445   0.008249   0.286245
    21  H    0.214797  -0.005176   0.043893   0.020566  -0.184033   0.001606
    22  H   -0.011630  -0.002789  -0.012877  -0.009263   0.044988   0.002839
    23  H    0.002117  -0.000853   0.000363   0.007387  -0.005541  -0.000142
    24  H   -0.002900   0.001389   0.000522   0.000716   0.001582  -0.000541
    25  H   -0.006791  -0.007520   0.002899  -0.010135   0.027938   0.000137
    26  H   -0.008474   0.000177  -0.000061   0.010492   0.000937  -0.000066
    27  H    0.017924  -0.000203   0.002022  -0.018601  -0.007985   0.000054
    28  H    0.001275  -0.000010  -0.000209  -0.018054   0.004098   0.000059
    29  H   -0.003529   0.013270   0.002004  -0.003925  -0.002365  -0.002644
    30  H    0.000648  -0.000516   0.000110   0.004529  -0.003636  -0.000843
    31  H    0.005459  -0.005260  -0.000841   0.001567   0.002558   0.002835
              7          8          9         10         11         12
     1  C    2.154379  -0.244008  -0.383537   0.036957   0.050279  -0.060572
     2  C    0.158547   0.037234  -0.091557  -0.016992  -0.010455   0.058852
     3  C   -0.305882   0.065500   0.030976  -0.002262  -0.003911  -0.027860
     4  C   -2.985550   0.356318   0.690857   0.037133  -0.018337   0.230509
     5  C   -1.462809  -0.025623   0.298590  -0.013143  -0.032359  -0.113726
     6  C   -0.033297  -0.059660   0.030398   0.006438   0.002304  -0.000767
     7  C    8.425611  -0.146721  -0.823294  -0.053201   0.011641   0.093627
     8  C   -0.146721   7.435073  -0.713459  -0.195262   0.032479  -0.100742
     9  C   -0.823294  -0.713459   6.520145   0.241195  -0.183932   0.027628
    10  O   -0.053201  -0.195262   0.241195   8.374689   0.091805  -0.002160
    11  C    0.011641   0.032479  -0.183932   0.091805   5.138641   0.004470
    12  O    0.093627  -0.100742   0.027628  -0.002160   0.004470   8.314884
    13  C    0.596077  -0.713494  -0.178013  -0.020897  -0.042738  -0.047110
    14  O   -0.017331  -0.079045   0.584558  -0.148662  -0.003026   0.003419
    15  C   -0.002159  -0.005375  -0.038245  -0.042120   0.306233   0.000068
    16  H   -0.007559   0.013689  -0.000218  -0.000702  -0.000021   0.000586
    17  H   -0.000540  -0.000876   0.001663  -0.000094  -0.000323   0.000082
    18  H   -0.004635   0.000576   0.000587  -0.000064   0.000035   0.000020
    19  H    0.022372  -0.015412   0.020319  -0.001109  -0.003674   0.000868
    20  H    0.001560  -0.000301  -0.000332   0.000012   0.000066  -0.000003
    21  H    0.260951   0.009167   0.020248  -0.000176   0.000563  -0.063938
    22  H   -0.036596   0.351263  -0.012880   0.004206   0.001298   0.011413
    23  H   -0.002521   0.014446  -0.011366  -0.036139   0.398391  -0.000044
    24  H   -0.001539   0.002168   0.005399  -0.058158   0.424860  -0.000005
    25  H    0.009921   0.008962   0.005179  -0.000216  -0.000244   0.230954
    26  H    0.012248  -0.151702   0.046132  -0.000428  -0.000365   0.000408
    27  H    0.021524  -0.073230  -0.008711  -0.000035  -0.000042  -0.002268
    28  H   -0.008213  -0.039881  -0.005966   0.000491  -0.000165   0.005967
    29  H   -0.004687   0.007087  -0.011701  -0.005400  -0.036220  -0.000157
    30  H   -0.000308   0.001736   0.007257   0.007354  -0.048262   0.000000
    31  H   -0.004588  -0.000264   0.009861  -0.004532  -0.046013  -0.000010
             13         14         15         16         17         18
     1  C   -0.258052   0.019690  -0.004461   0.071086  -0.001345   0.010636
     2  C    0.045980   0.000744   0.003455   0.004471   0.240633   0.004449
     3  C   -0.048854  -0.001986   0.002126   0.041626  -0.005727   0.277578
     4  C   -0.356159   0.028121  -0.054741   0.151071   0.030563   0.036277
     5  C    0.104046  -0.047574   0.050090   0.049319   0.043833  -0.005186
     6  C   -0.006764   0.000583   0.000605  -0.018145   0.015947   0.006474
     7  C    0.596077  -0.017331  -0.002159  -0.007559  -0.000540  -0.004635
     8  C   -0.713494  -0.079045  -0.005375   0.013689  -0.000876   0.000576
     9  C   -0.178013   0.584558  -0.038245  -0.000218   0.001663   0.000587
    10  O   -0.020897  -0.148662  -0.042120  -0.000702  -0.000094  -0.000064
    11  C   -0.042738  -0.003026   0.306233  -0.000021  -0.000323   0.000035
    12  O   -0.047110   0.003419   0.000068   0.000586   0.000082   0.000020
    13  C    6.383717   0.002377  -0.002155   0.011393   0.000053   0.000104
    14  O    0.002377   8.129336  -0.028835   0.000009  -0.000016   0.000000
    15  C   -0.002155  -0.028835   5.168332  -0.000106   0.001645  -0.000054
    16  H    0.011393   0.000009  -0.000106   0.512306   0.000012  -0.003875
    17  H    0.000053  -0.000016   0.001645   0.000012   0.502810  -0.000125
    18  H    0.000104   0.000000  -0.000054  -0.003875  -0.000125   0.496992
    19  H    0.001718  -0.001121   0.001091  -0.000107  -0.003866   0.000011
    20  H   -0.000028   0.000001   0.000059  -0.000122  -0.003771  -0.003817
    21  H   -0.061669  -0.000403  -0.000167   0.000826   0.000002  -0.000003
    22  H   -0.042860   0.004078   0.000239  -0.000206   0.000000   0.000001
    23  H   -0.001353   0.002387  -0.035858   0.000000   0.000000   0.000000
    24  H    0.000104   0.000501  -0.042364   0.000000   0.000000   0.000000
    25  H   -0.011840  -0.003571  -0.000015  -0.000005   0.000000   0.000000
    26  H    0.455397  -0.001456   0.000082   0.000003   0.000000   0.000000
    27  H    0.425628   0.001239   0.000005  -0.000001   0.000000   0.000000
    28  H    0.417316  -0.001643   0.000198  -0.000001   0.000000   0.000000
    29  H    0.000362   0.001948   0.409299   0.000000  -0.000034   0.000000
    30  H    0.000080  -0.000202   0.394352   0.000000   0.000002   0.000000
    31  H   -0.000772  -0.000682   0.404218   0.000000  -0.000025  -0.000001
             19         20         21         22         23         24
     1  C    0.017643   0.002805   0.214797  -0.011630   0.002117  -0.002900
     2  C   -0.006798   0.017426  -0.005176  -0.002789  -0.000853   0.001389
     3  C   -0.001929   0.012155   0.043893  -0.012877   0.000363   0.000522
     4  C    0.095697  -0.001445   0.020566  -0.009263   0.007387   0.000716
     5  C    0.192489   0.008249  -0.184033   0.044988  -0.005541   0.001582
     6  C   -0.006207   0.286245   0.001606   0.002839  -0.000142  -0.000541
     7  C    0.022372   0.001560   0.260951  -0.036596  -0.002521  -0.001539
     8  C   -0.015412  -0.000301   0.009167   0.351263   0.014446   0.002168
     9  C    0.020319  -0.000332   0.020248  -0.012880  -0.011366   0.005399
    10  O   -0.001109   0.000012  -0.000176   0.004206  -0.036139  -0.058158
    11  C   -0.003674   0.000066   0.000563   0.001298   0.398391   0.424860
    12  O    0.000868  -0.000003  -0.063938   0.011413  -0.000044  -0.000005
    13  C    0.001718  -0.000028  -0.061669  -0.042860  -0.001353   0.000104
    14  O   -0.001121   0.000001  -0.000403   0.004078   0.002387   0.000501
    15  C    0.001091   0.000059  -0.000167   0.000239  -0.035858  -0.042364
    16  H   -0.000107  -0.000122   0.000826  -0.000206   0.000000   0.000000
    17  H   -0.003866  -0.003771   0.000002   0.000000   0.000000   0.000000
    18  H    0.000011  -0.003817  -0.000003   0.000001   0.000000   0.000000
    19  H    0.505889  -0.000123  -0.000034  -0.000008  -0.000001   0.000000
    20  H   -0.000123   0.500525   0.000000   0.000000   0.000000   0.000000
    21  H   -0.000034   0.000000   0.587408  -0.002254   0.000000   0.000000
    22  H   -0.000008   0.000000  -0.002254   0.513473   0.000002  -0.000032
    23  H   -0.000001   0.000000   0.000000   0.000002   0.524884  -0.031918
    24  H    0.000000   0.000000   0.000000  -0.000032  -0.031918   0.529251
    25  H    0.000066   0.000000  -0.005614  -0.000061   0.000000   0.000000
    26  H    0.000000   0.000000   0.000079  -0.004038  -0.000007   0.000000
    27  H    0.000000   0.000000   0.003692  -0.003070   0.000000   0.000000
    28  H   -0.000003   0.000000  -0.000070   0.004117  -0.000002   0.000000
    29  H    0.000095   0.000000   0.000000  -0.000006  -0.004895   0.003939
    30  H    0.000008   0.000000   0.000000   0.000000  -0.001102  -0.001155
    31  H   -0.000106  -0.000005   0.000000   0.000001   0.003875  -0.005213
             25         26         27         28         29         30
     1  C   -0.006791  -0.008474   0.017924   0.001275  -0.003529   0.000648
     2  C   -0.007520   0.000177  -0.000203  -0.000010   0.013270  -0.000516
     3  C    0.002899  -0.000061   0.002022  -0.000209   0.002004   0.000110
     4  C   -0.010135   0.010492  -0.018601  -0.018054  -0.003925   0.004529
     5  C    0.027938   0.000937  -0.007985   0.004098  -0.002365  -0.003636
     6  C    0.000137  -0.000066   0.000054   0.000059  -0.002644  -0.000843
     7  C    0.009921   0.012248   0.021524  -0.008213  -0.004687  -0.000308
     8  C    0.008962  -0.151702  -0.073230  -0.039881   0.007087   0.001736
     9  C    0.005179   0.046132  -0.008711  -0.005966  -0.011701   0.007257
    10  O   -0.000216  -0.000428  -0.000035   0.000491  -0.005400   0.007354
    11  C   -0.000244  -0.000365  -0.000042  -0.000165  -0.036220  -0.048262
    12  O    0.230954   0.000408  -0.002268   0.005967  -0.000157   0.000000
    13  C   -0.011840   0.455397   0.425628   0.417316   0.000362   0.000080
    14  O   -0.003571  -0.001456   0.001239  -0.001643   0.001948  -0.000202
    15  C   -0.000015   0.000082   0.000005   0.000198   0.409299   0.394352
    16  H   -0.000005   0.000003  -0.000001  -0.000001   0.000000   0.000000
    17  H    0.000000   0.000000   0.000000   0.000000  -0.000034   0.000002
    18  H    0.000000   0.000000   0.000000   0.000000   0.000000   0.000000
    19  H    0.000066   0.000000   0.000000  -0.000003   0.000095   0.000008
    20  H    0.000000   0.000000   0.000000   0.000000   0.000000   0.000000
    21  H   -0.005614   0.000079   0.003692  -0.000070   0.000000   0.000000
    22  H   -0.000061  -0.004038  -0.003070   0.004117  -0.000006   0.000000
    23  H    0.000000  -0.000007   0.000000  -0.000002  -0.004895  -0.001102
    24  H    0.000000   0.000000   0.000000   0.000000   0.003939  -0.001155
    25  H    0.356301  -0.000130  -0.000062   0.000951   0.000001   0.000000
    26  H   -0.000130   0.503965  -0.022283  -0.023842   0.000000   0.000000
    27  H   -0.000062  -0.022283   0.515008  -0.027229   0.000000   0.000000
    28  H    0.000951  -0.023842  -0.027229   0.510199   0.000000   0.000000
    29  H    0.000001   0.000000   0.000000   0.000000   0.510938  -0.022611
    30  H    0.000000   0.000000   0.000000   0.000000  -0.022611   0.510943
    31  H    0.000000   0.000000   0.000000   0.000000  -0.029454  -0.023377
             31
     1  C    0.005459
     2  C   -0.005260
     3  C   -0.000841
     4  C    0.001567
     5  C    0.002558
     6  C    0.002835
     7  C   -0.004588
     8  C   -0.000264
     9  C    0.009861
    10  O   -0.004532
    11  C   -0.046013
    12  O   -0.000010
    13  C   -0.000772
    14  O   -0.000682
    15  C    0.404218
    16  H    0.000000
    17  H   -0.000025
    18  H   -0.000001
    19  H   -0.000106
    20  H   -0.000005
    21  H    0.000000
    22  H    0.000001
    23  H    0.003875
    24  H   -0.005213
    25  H    0.000000
    26  H    0.000000
    27  H    0.000000
    28  H    0.000000
    29  H   -0.029454
    30  H   -0.023377
    31  H    0.515705
 Mulliken atomic charges:
              1
     1  C   -0.099396
     2  C   -0.081030
     3  C   -0.217535
     4  C   -0.371234
     5  C   -0.025566
     6  C   -0.198178
     7  C    0.132974
     8  C    0.229359
     9  C   -0.077784
    10  O   -0.198528
    11  C   -0.032979
    12  O   -0.564392
    13  C   -0.651593
    14  O   -0.443438
    15  C   -0.485440
    16  H    0.174672
    17  H    0.179497
    18  H    0.184019
    19  H    0.182234
    20  H    0.180844
    21  H    0.159740
    22  H    0.200654
    23  H    0.177891
    24  H    0.173392
    25  H    0.402895
    26  H    0.182933
    27  H    0.176624
    28  H    0.180618
    29  H    0.178686
    30  H    0.174995
    31  H    0.175065
 Sum of Mulliken atomic charges =   0.00000
 Mulliken charges with hydrogens summed into heavy atoms:
              1
     1  C    0.075276
     2  C    0.098467
     3  C   -0.033516
     4  C   -0.371234
     5  C    0.156668
     6  C   -0.017334
     7  C    0.292714
     8  C    0.430013
     9  C   -0.077784
    10  O   -0.198528
    11  C    0.318304
    12  O   -0.161497
    13  C   -0.111417
    14  O   -0.443438
    15  C    0.043306
 Sum of Mulliken charges with hydrogens summed into heavy atoms =   0.00000
 Electronic spatial extent (au):  <R**2>=           3161.5054
 Charge=              0.0000 electrons
 Dipole moment (field-independent basis, Debye):
    X=              0.1949    Y=             -0.5350    Z=             -3.3316  Tot=              3.3799
 Quadrupole moment (field-independent basis, Debye-Ang):
   XX=            -88.8286   YY=            -76.7755   ZZ=            -90.6606
   XY=              8.2406   XZ=              2.8871   YZ=              3.5173
 Traceless Quadrupole moment (field-independent basis, Debye-Ang):
   XX=             -3.4070   YY=              8.6461   ZZ=             -5.2391
   XY=              8.2406   XZ=              2.8871   YZ=              3.5173
 Octapole moment (field-independent basis, Debye-Ang**2):
  XXX=              7.7843  YYY=             11.6662  ZZZ=             -5.3274  XYY=            -34.5046
  XXY=              2.3393  XXZ=            -18.7954  XZZ=              1.6727  YZZ=              0.0676
  YYZ=             -4.8497  XYZ=             16.1637
 Hexadecapole moment (field-independent basis, Debye-Ang**3):
 XXXX=          -2192.1866 YYYY=          -1313.6086 ZZZZ=           -536.1667 XXXY=             92.4153
 XXXZ=             -9.6009 YYYX=             10.1595 YYYZ=            -30.3424 ZZZX=            -13.2924
 ZZZY=              6.8273 XXYY=           -595.8470 XXZZ=           -440.4588 YYZZ=           -323.9483
 XXYZ=             -6.6096 YYXZ=            -11.1386 ZZXY=             13.9320
 N-N= 1.036637589527D+03 E-N=-3.685521089904D+03  KE= 6.858892274182D+02
 1\1\GINC-COMPUTE-9-6\SP\RwB97XD\6-31+G(d,p)\C12H16O3\ELUCIANO.IQUIR\17
 -May-2022\0\\# wb97xd/6-31+g** scrf=(pcm,solvent=chloroform,smd,dovacu
 um) nmr\\comment\\0,1\C,0,-2.168505729,-0.58215933,-0.833552634\C,0,-0
 .226941619,-1.007817662,-2.786759149\C,0,-2.442043142,-0.282820158,-2.
 169869328\C,0,-0.918402817,-1.098812224,-0.454899648\C,0,0.048160135,-
 1.305752045,-1.450766943\C,0,-1.471220389,-0.495625435,-3.145742193\C,
 0,-0.635093755,-1.397651553,1.006453881\C,0,-0.381410817,-0.133552989,
 1.844858147\C,0,0.857991255,0.602653965,1.374870584\O,0,0.506921395,1.
 656332166,0.584018146\C,0,1.589552473,2.452939468,0.082520544\O,0,0.42
 043392,-2.351003753,1.117341896\C,0,-0.246163468,-0.437509119,3.338502
 551\O,0,2.004089285,0.315000091,1.694088497\C,0,2.122731278,1.86484524
 4,-1.20978245\H,0,-2.941436277,-0.409090909,-0.08816202\H,0,0.53313953
 8,-1.176164504,-3.545021898\H,0,-3.413617958,0.1158358,-2.449639231\H,
 0,1.027678575,-1.702523458,-1.188385657\H,0,-1.683976261,-0.264084057,
 -4.185837129\H,0,-1.525669457,-1.905164977,1.400922668\H,0,-1.23690814
 6,0.548008704,1.742137648\H,0,2.383245178,2.563040076,0.830287824\H,0,
 1.188115365,3.453731811,-0.107663888\H,0,0.4877357,-2.629849517,2.0446
 74042\H,0,-0.134004575,0.491251374,3.909294863\H,0,-1.134865598,-0.956
 897648,3.711454976\H,0,0.630030119,-1.056701118,3.557269798\H,0,2.5232
 83301,0.859184266,-1.048531307\H,0,2.915695512,2.49408133,-1.623686574
 \H,0,1.32145698,1.776276161,-1.950396017\\Version=EM64L-G09RevC.01\Sta
 te=1-A\HF=-692.4445228\RMSD=8.993e-09\Dipole=-1.0855718,0.7070365,0.29
 98846\Quadrupole=-2.9158964,-2.2414703,5.1573668,2.2078794,-5.8674219,
 -4.5904842\PG=C01 [X(C12H16O3)]\\@


 BE LIKE A POSTAGE STAMP.  STICK TO ONE THING UNTIL
 YOU GET THERE -- JOSH BILLINGS
 Job cpu time:  0 days  0 hours 26 minutes 10.8 seconds.
 File lengths (MBytes):  RWF=    123 Int=      0 D2E=      0 Chk=      9 Scr=      1
 Normal termination of Gaussian 09 at Tue May 17 17:15:54 2022.
