 Entering Gaussian System, Link 0=g09
 Input=/home/fbruno.iquir/2_val_run/2a_001_MPW_A_SMD.gjc
 Output=/home/fbruno.iquir/2_val_run/2a_001_MPW_A_SMD.log
 Initial command:
 /share/apps/Gaussian09/EM64T.SSE4.2-enabled/g09/l1.exe /tmp/Gau-5813.inp -scrdir=/tmp/
 Entering Link 1 = /share/apps/Gaussian09/EM64T.SSE4.2-enabled/g09/l1.exe PID=      5814.
  
 Copyright (c) 1988,1990,1992,1993,1995,1998,2003,2009,2011,
            Gaussian, Inc.  All Rights Reserved.
  
 This is part of the Gaussian(R) 09 program.  It is based on
 the Gaussian(R) 03 system (copyright 2003, Gaussian, Inc.),
 the Gaussian(R) 98 system (copyright 1998, Gaussian, Inc.),
 the Gaussian(R) 94 system (copyright 1995, Gaussian, Inc.),
 the Gaussian 92(TM) system (copyright 1992, Gaussian, Inc.),
 the Gaussian 90(TM) system (copyright 1990, Gaussian, Inc.),
 the Gaussian 88(TM) system (copyright 1988, Gaussian, Inc.),
 the Gaussian 86(TM) system (copyright 1986, Carnegie Mellon
 University), and the Gaussian 82(TM) system (copyright 1983,
 Carnegie Mellon University). Gaussian is a federally registered
 trademark of Gaussian, Inc.
  
 This software contains proprietary and confidential information,
 including trade secrets, belonging to Gaussian, Inc.
  
 This software is provided under written license and may be
 used, copied, transmitted, or stored only in accord with that
 written license.
  
 The following legend is applicable only to US Government
 contracts under FAR:
  
                    RESTRICTED RIGHTS LEGEND
  
 Use, reproduction and disclosure by the US Government is
 subject to restrictions as set forth in subparagraphs (a)
 and (c) of the Commercial Computer Software - Restricted
 Rights clause in FAR 52.227-19.
  
 Gaussian, Inc.
 340 Quinnipiac St., Bldg. 40, Wallingford CT 06492
  
  
 ---------------------------------------------------------------
 Warning -- This program may not be used in any manner that
 competes with the business of Gaussian, Inc. or will provide
 assistance to any competitor of Gaussian, Inc.  The licensee
 of this program is prohibited from giving any competitor of
 Gaussian, Inc. access to this program.  By using this program,
 the user acknowledges that Gaussian, Inc. is engaged in the
 business of creating and licensing software in the field of
 computational chemistry and represents and warrants to the
 licensee that it is not a competitor of Gaussian, Inc. and that
 it will not use this program in any manner prohibited above.
 ---------------------------------------------------------------
  

 Cite this work as:
 Gaussian 09, Revision C.01,
 M. J. Frisch, G. W. Trucks, H. B. Schlegel, G. E. Scuseria, 
 M. A. Robb, J. R. Cheeseman, G. Scalmani, V. Barone, B. Mennucci, 
 G. A. Petersson, H. Nakatsuji, M. Caricato, X. Li, H. P. Hratchian, 
 A. F. Izmaylov, J. Bloino, G. Zheng, J. L. Sonnenberg, M. Hada, 
 M. Ehara, K. Toyota, R. Fukuda, J. Hasegawa, M. Ishida, T. Nakajima, 
 Y. Honda, O. Kitao, H. Nakai, T. Vreven, J. A. Montgomery, Jr., 
 J. E. Peralta, F. Ogliaro, M. Bearpark, J. J. Heyd, E. Brothers, 
 K. N. Kudin, V. N. Staroverov, T. Keith, R. Kobayashi, J. Normand, 
 K. Raghavachari, A. Rendell, J. C. Burant, S. S. Iyengar, J. Tomasi, 
 M. Cossi, N. Rega, J. M. Millam, M. Klene, J. E. Knox, J. B. Cross, 
 V. Bakken, C. Adamo, J. Jaramillo, R. Gomperts, R. E. Stratmann, 
 O. Yazyev, A. J. Austin, R. Cammi, C. Pomelli, J. W. Ochterski, 
 R. L. Martin, K. Morokuma, V. G. Zakrzewski, G. A. Voth, 
 P. Salvador, J. J. Dannenberg, S. Dapprich, A. D. Daniels, 
 O. Farkas, J. B. Foresman, J. V. Ortiz, J. Cioslowski, 
 and D. J. Fox, Gaussian, Inc., Wallingford CT, 2010.
 
 ******************************************
 Gaussian 09:  EM64L-G09RevC.01 23-Sep-2011
                21-Dec-2021 
 ******************************************
 %nprocshared=4
 Will use up to    4 processors via shared memory.
 -----------------------------------------------------------------
 # mPW1PW91/6-31g** scrf=(pcm,solvent=chloroform,smd,dovacuum) nmr
 -----------------------------------------------------------------
 1/38=1/1;
 2/12=2,17=6,18=5,40=1/2;
 3/5=1,6=6,7=101,11=2,16=1,25=1,30=1,70=32101,72=7,74=-7/1,2,8,3;
 4//1;
 5/5=2,38=5,53=7/2;
 8/6=1,10=90,11=11/1;
 10/13=100,45=16/2;
 6/7=2,8=2,9=2,10=2,28=1/1;
 99/9=1/99;
 -------
 comment
 -------
 Charge =  0 Multiplicity = 1
 Symbolic Z-Matrix:
 6                    -1.61919   0.64314   1.80267 
 1                    -1.82425   1.60053   1.30763 
 6                    -0.45702  -0.07938   1.08479 
 1                     0.45226   0.49392   1.2944 
 6                    -0.71819  -0.05597  -0.42047 
 8                    -1.86865  -0.11092  -0.86143 
 8                    -2.81902  -0.12769   1.75017 
 1                    -3.01235  -0.2596    0.79721 
 6                    -0.27721  -1.52976   1.53323 
 1                     0.54775  -2.01031   0.99701 
 1                    -1.17402  -2.12731   1.33662 
 1                    -0.0525   -1.59033   2.60209 
 6                     0.42549   0.0208   -1.38382 
 6                     2.48193   0.18597  -3.28582 
 6                     0.12994   0.22166  -2.74059 
 6                     1.76398  -0.1027   -0.99141 
 6                     2.78691  -0.01903  -1.94148 
 6                     1.15365   0.30515  -3.68657 
 1                    -0.90351   0.31509  -3.07064 
 1                     2.04714  -0.276     0.0417 
 1                     3.82505  -0.11792  -1.63223 
 1                     0.91168   0.46142  -4.73506 
 1                     3.2796    0.24915  -4.02217 
 6                    -1.31661   0.92293   3.27001 
 1                    -2.14022   1.48581   3.72337 
 1                    -0.39716   1.50473   3.38445 
 1                    -1.22547  -0.00337   3.84635 
 
                          Input orientation:                          
 ---------------------------------------------------------------------
 Center     Atomic      Atomic             Coordinates (Angstroms)
 Number     Number       Type             X           Y           Z
 ---------------------------------------------------------------------
      1          6           0       -1.619195    0.643136    1.802670
      2          1           0       -1.824253    1.600532    1.307633
      3          6           0       -0.457021   -0.079379    1.084787
      4          1           0        0.452262    0.493915    1.294404
      5          6           0       -0.718194   -0.055965   -0.420473
      6          8           0       -1.868648   -0.110918   -0.861428
      7          8           0       -2.819021   -0.127689    1.750165
      8          1           0       -3.012347   -0.259603    0.797215
      9          6           0       -0.277207   -1.529761    1.533226
     10          1           0        0.547746   -2.010307    0.997011
     11          1           0       -1.174022   -2.127310    1.336615
     12          1           0       -0.052501   -1.590335    2.602091
     13          6           0        0.425487    0.020803   -1.383823
     14          6           0        2.481931    0.185974   -3.285820
     15          6           0        0.129940    0.221657   -2.740587
     16          6           0        1.763975   -0.102701   -0.991409
     17          6           0        2.786909   -0.019029   -1.941484
     18          6           0        1.153651    0.305148   -3.686568
     19          1           0       -0.903515    0.315086   -3.070643
     20          1           0        2.047144   -0.276002    0.041701
     21          1           0        3.825055   -0.117921   -1.632227
     22          1           0        0.911681    0.461416   -4.735057
     23          1           0        3.279598    0.249152   -4.022172
     24          6           0       -1.316608    0.922926    3.270010
     25          1           0       -2.140217    1.485813    3.723373
     26          1           0       -0.397160    1.504733    3.384448
     27          1           0       -1.225473   -0.003369    3.846345
 ---------------------------------------------------------------------
                    Distance matrix (angstroms):
                    1          2          3          4          5
     1  C    0.000000
     2  H    1.097141   0.000000
     3  C    1.545325   2.177404   0.000000
     4  H    2.138115   2.531264   1.095172   0.000000
     5  C    2.498581   2.636987   1.527929   2.147822   0.000000
     6  O    2.779971   2.763306   2.404462   3.224912   1.233290
     7  O    1.427064   2.042584   2.454405   3.360864   3.021637
     8  H    1.940812   2.265435   2.577764   3.580294   2.605258
     9  C    2.568075   3.498997   1.528737   2.164353   2.486661
    10  H    3.519300   4.331400   2.178473   2.523626   2.726044
    11  H    2.844425   3.784237   2.184383   3.085029   2.754198
    12  H    2.842885   3.872513   2.179182   2.511758   3.454465
    13  C    3.836894   3.847183   2.623527   2.719826   1.497312
    14  C    6.551409   6.453217   5.273524   5.019247   4.302272
    15  C    4.886543   4.701942   3.881833   4.056990   2.485827
    16  C    4.450729   4.589333   3.040388   2.702125   2.547413
    17  C    5.819871   5.868778   4.436783   4.023016   3.821071
    18  C    6.159110   5.957179   5.050540   5.033652   3.781743
    19  H    4.936496   4.655044   4.197923   4.574248   2.682429
    20  H    4.169876   4.484605   2.719840   2.169259   2.812315
    21  H    6.482096   6.596252   5.071472   4.507243   4.702477
    22  H    7.012861   6.730306   6.003031   6.047025   4.641100
    23  H    7.621166   7.502156   6.336504   6.026584   5.389589
    24  C    1.524116   2.137236   2.553176   2.686256   3.864711
    25  H    2.161174   2.439015   3.499302   3.688455   4.644426
    26  H    2.176635   2.521692   2.793105   2.472155   4.125077
    27  H    2.179357   3.062041   2.867491   3.094268   4.297190
                    6          7          8          9         10
     6  O    0.000000
     7  O    2.779192   0.000000
     8  H    2.020210   0.981270   0.000000
     9  C    3.206270   2.910959   3.104191   0.000000
    10  H    3.591717   3.930217   3.972296   1.094988   0.000000
    11  H    3.062636   2.622123   2.675578   1.095444   1.758836
    12  H    4.181271   3.243261   3.713369   1.093908   1.764357
    13  C    2.356545   4.513398   4.080963   3.377455   3.131888
    14  C    4.989325   7.318444   6.859796   5.812039   5.187231
    15  C    2.763368   5.383797   4.756219   4.636670   4.373312
    16  C    3.634957   5.340478   5.102651   3.546365   3.011974
    17  C    4.780081   6.713161   6.417921   4.872856   4.196879
    18  C    4.157982   6.747410   6.146445   5.714936   5.259692
    19  H    2.448182   5.206285   4.442721   4.999133   4.905040
    20  H    4.021979   5.159497   5.115615   3.033013   2.483672
    21  H    5.745644   7.455495   7.257570   5.370469   4.608120
    22  H    4.802374   7.504884   6.820843   6.683533   6.252877
    23  H    6.051809   8.405655   7.941907   6.832118   6.144947
    24  C    4.294457   2.381379   3.223139   3.180007   4.152854
    25  H    4.862479   2.637748   3.517029   4.166682   5.184694
    26  H    4.775255   3.346803   4.079934   3.556622   4.352953
    27  H    4.752722   2.636062   3.543412   2.929096   3.910347
                   11         12         13         14         15
    11  H    0.000000
    12  H    1.774142   0.000000
    13  C    3.817539   4.325708   0.000000
    14  C    6.331207   6.651775   2.806036   0.000000
    15  C    4.882780   5.644538   1.403032   2.414625   0.000000
    16  C    4.260348   4.292538   1.400283   2.421387   2.415554
    17  C    5.556956   5.583487   2.426702   1.393656   2.784955
    18  C    6.047089   6.677940   2.431812   1.392526   1.396365
    19  H    5.046028   6.044400   2.167536   3.394733   1.088896
    20  H    3.934470   3.562524   2.179445   3.387456   3.415327
    21  H    6.151621   5.927300   3.411452   2.151907   3.872679
    22  H    6.922201   7.679392   3.414864   2.154493   2.155577
    23  H    7.361991   7.639860   3.893453   1.087418   3.400523
    24  C    3.614178   2.891463   5.050434   7.612550   6.221862
    25  H    4.436756   3.883107   5.900216   8.496036   6.966670
    26  H    4.241328   3.210968   5.061146   7.383818   6.280141
    27  H    3.288239   2.332915   5.484607   8.040428   6.728704
                   16         17         18         19         20
    16  C    0.000000
    17  C    1.398584   0.000000
    18  C    2.793334   2.412040   0.000000
    19  H    3.407824   3.873739   2.147415   0.000000
    20  H    1.085142   2.132208   3.877635   4.329256   0.000000
    21  H    2.158455   1.087734   3.396424   4.961442   2.447037
    22  H    3.880661   3.398728   1.087336   2.467108   4.964924
    23  H    3.406822   2.154977   2.153001   4.290476   4.278994
    24  C    5.357387   6.699687   7.407956   6.383103   4.813963
    25  H    6.324181   7.657136   8.194557   7.004191   5.847452
    26  H    5.138333   6.389499   7.337798   6.583301   4.507726
    27  H    5.687753   7.042615   7.905707   6.931797   5.025900
                   21         22         23         24         25
    21  H    0.000000
    22  H    4.295454   0.000000
    23  H    2.478730   2.481993   0.000000
    24  C    7.179971   8.322221   8.646098   0.000000
    25  H    8.175505   9.050332   9.534002   1.095770   0.000000
    26  H    6.754785   8.290231   8.363794   1.094066   1.775803
    27  H    7.452229   8.855728   9.070446   1.094756   1.752011
                   26         27
    26  H    0.000000
    27  H    1.781523   0.000000
 Stoichiometry    C11H14O2
 Framework group  C1[X(C11H14O2)]
 Deg. of freedom    75
 Full point group                 C1      NOp   1
 Largest Abelian subgroup         C1      NOp   1
 Largest concise Abelian subgroup C1      NOp   1
                         Standard orientation:                         
 ---------------------------------------------------------------------
 Center     Atomic      Atomic             Coordinates (Angstroms)
 Number     Number       Type             X           Y           Z
 ---------------------------------------------------------------------
      1          6           0        2.575500    0.104195   -0.622802
      2          1           0        2.287031    0.642929   -1.533993
      3          6           0        1.322210   -0.507140    0.043203
      4          1           0        0.977208   -1.315954   -0.609635
      5          6           0        0.234113    0.562835    0.119130
      6          8           0        0.527240    1.748978    0.286900
      7          8           0        3.214866    1.042943    0.241185
      8          1           0        2.541732    1.729406    0.437528
      9          6           0        1.586011   -1.045175    1.449604
     10          1           0        0.674541   -1.460967    1.891575
     11          1           0        1.934558   -0.256223    2.124933
     12          1           0        2.336219   -1.841194    1.436372
     13          6           0       -1.209118    0.181126    0.003699
     14          6           0       -3.943678   -0.406316   -0.221983
     15          6           0       -2.155325    1.211658   -0.102112
     16          6           0       -1.649558   -1.148084    0.001429
     17          6           0       -3.013064   -1.437901   -0.112128
     18          6           0       -3.515909    0.918865   -0.215764
     19          1           0       -1.837507    2.253128   -0.097023
     20          1           0       -0.962220   -1.982247    0.097723
     21          1           0       -3.350655   -2.471920   -0.111057
     22          1           0       -4.239388    1.726450   -0.297519
     23          1           0       -5.003221   -0.635059   -0.308710
     24          6           0        3.609306   -0.949610   -1.001842
     25          1           0        4.452053   -0.480155   -1.521556
     26          1           0        3.180311   -1.711930   -1.658965
     27          1           0        4.029550   -1.438356   -0.116962
 ---------------------------------------------------------------------
 Rotational constants (GHZ):      1.8958785      0.4213153      0.3778281
 Standard basis: 6-31G(d,p) (6D, 7F)
 There are   265 symmetry adapted basis functions of A   symmetry.
 Integral buffers will be    131072 words long.
 Raffenetti 2 integral format.
 Two-electron integral symmetry is turned on.
   265 basis functions,   462 primitive gaussians,   265 cartesian basis functions
    48 alpha electrons       48 beta electrons
       nuclear repulsion energy       777.1832277783 Hartrees.
 NAtoms=   27 NActive=   27 NUniq=   27 SFac= 1.00D+00 NAtFMM=   60 NAOKFM=F Big=F
 ------------------------------------------------------------------------------
 Polarizable Continuum Model (PCM)
 =================================
 Model                : C-PCM.
 Atomic radii         : SMD-Coulomb.
 Polarization charges : Total charges.
 Charge compensation  : None.
 Solution method      : Matrix inversion.
 Cavity type          : VdW (van der Waals Surface) (Alpha=1.000).
 Cavity algorithm     : GePol (No added spheres)
                        Default sphere list used, NSphG=   27.
                        Lebedev-Laikov grids with approx.  5.0 points / Ang**2.
                        Smoothing algorithm: Karplus/York (Gamma=1.0000).
                        Polarization charges: spherical gaussians, with
                                              point-specific exponents (IZeta= 3).
                        Self-potential: point-specific (ISelfS= 7).
                        Self-field    : sphere-specific E.n sum rule (ISelfD= 2).
 Solvent              : Chloroform, Eps=   4.711300 Eps(inf)=   2.090627
 ------------------------------------------------------------------------------
 ------------------------------------------------------------------------------
 Atomic radii for non-electrostatic terms: SMD-CDS.
 ------------------------------------------------------------------------------
 Nuclear repulsion after PCM non-electrostatic terms =      777.1766293007 Hartrees.
 One-electron integrals computed using PRISM.
 NBasis=   265 RedAO= T  NBF=   265
 NBsUse=   265 1.00D-06 NBFU=   265
 Harris functional with IExCor=  908 diagonalized for initial guess.
 ExpMin= 1.61D-01 ExpMax= 5.48D+03 ExpMxC= 8.25D+02 IAcc=1 IRadAn=         1 AccDes= 0.00D+00
 HarFok:  IExCor=  908 AccDes= 0.00D+00 IRadAn=         1 IDoV= 1
 ScaDFX=  1.000000  1.000000  1.000000  1.000000
 FoFCou: FMM=F IPFlag=           0 FMFlag=      100000 FMFlg1=           0
         NFxFlg=           0 DoJE=T BraDBF=F KetDBF=T FulRan=T
         Omega=  0.000000  0.000000  1.000000  0.000000  0.000000 ICntrl=     500 IOpCl=  0
         NMat0=    1 NMatS0=    1 NMatT0=    0 NMatD0=    1 NMtDS0=    0 NMtDT0=    0
         I1Cent=           4 NGrid=           0.
 Petite list used in FoFCou.
 Initial guess orbital symmetries:
       Occupied  (A) (A) (A) (A) (A) (A) (A) (A) (A) (A) (A) (A)
                 (A) (A) (A) (A) (A) (A) (A) (A) (A) (A) (A) (A)
                 (A) (A) (A) (A) (A) (A) (A) (A) (A) (A) (A) (A)
                 (A) (A) (A) (A) (A) (A) (A) (A) (A) (A) (A) (A)
       Virtual   (A) (A) (A) (A) (A) (A) (A) (A) (A) (A) (A) (A)
                 (A) (A) (A) (A) (A) (A) (A) (A) (A) (A) (A) (A)
                 (A) (A) (A) (A) (A) (A) (A) (A) (A) (A) (A) (A)
                 (A) (A) (A) (A) (A) (A) (A) (A) (A) (A) (A) (A)
                 (A) (A) (A) (A) (A) (A) (A) (A) (A) (A) (A) (A)
                 (A) (A) (A) (A) (A) (A) (A) (A) (A) (A) (A) (A)
                 (A) (A) (A) (A) (A) (A) (A) (A) (A) (A) (A) (A)
                 (A) (A) (A) (A) (A) (A) (A) (A) (A) (A) (A) (A)
                 (A) (A) (A) (A) (A) (A) (A) (A) (A) (A) (A) (A)
                 (A) (A) (A) (A) (A) (A) (A) (A) (A) (A) (A) (A)
                 (A) (A) (A) (A) (A) (A) (A) (A) (A) (A) (A) (A)
                 (A) (A) (A) (A) (A) (A) (A) (A) (A) (A) (A) (A)
                 (A) (A) (A) (A) (A) (A) (A) (A) (A) (A) (A) (A)
                 (A) (A) (A) (A) (A) (A) (A) (A) (A) (A) (A) (A)
                 (A) (A) (A) (A) (A) (A) (A) (A) (A) (A) (A) (A)
                 (A) (A) (A) (A) (A) (A) (A) (A) (A) (A) (A) (A)
                 (A) (A) (A) (A) (A) (A) (A) (A) (A) (A) (A) (A)
                 (A) (A) (A) (A) (A) (A) (A) (A) (A) (A) (A) (A)
                 (A)
 The electronic state of the initial guess is 1-A.
 Requested convergence on RMS density matrix=1.00D-08 within 128 cycles.
 Requested convergence on MAX density matrix=1.00D-06.
 Requested convergence on             energy=1.00D-06.
 No special actions if energy rises.
 Error on total polarization charges =  0.02899
 SCF Done:  E(RmPW1PW91) =  -577.951811117     A.U. after   12 cycles
             Convg  =    0.6232D-08             -V/T =  2.0094
 SMD-CDS (non-electrostatic) energy       (kcal/mol) =      -4.14
 (included in total energy above)
 Range of M.O.s used for correlation:     1   265
 NBasis=   265 NAE=    48 NBE=    48 NFC=     0 NFV=     0
 NROrb=    265 NOA=    48 NOB=    48 NVA=   217 NVB=   217
 NEqPCM:  Using equilibrium solvation (IEInf=0, Eps=   4.7113, EpsInf=   2.0906)
          Differentiating once with respect to magnetic field using GIAOs.
          Electric field/nuclear overlap derivatives assumed to be zero.
 FoFCou: FMM=F IPFlag=           0 FMFlag=    10101102 FMFlg1=           0
         NFxFlg=    40000000 DoJE=F BraDBF=F KetDBF=T FulRan=T
         Omega=  0.000000  0.000000  1.000000  0.000000  0.000000 ICntrl=    6100 IOpCl=  0
         NMat0=    1 NMatS0=    1 NMatT0=    0 NMatD0=    1 NMtDS0=    0 NMtDT0=    0
         I1Cent=           7 NGrid=        2015.
 Symmetry not used in FoFCou.
          There are     3 degrees of freedom in the 1st order CPHF.  IDoFFX=0.
      3 vectors produced by pass  0 Test12= 3.47D-13 3.33D-08 XBig12= 3.14D+01 1.40D+00.
 AX will form     3 AO Fock derivatives at one time.
      3 vectors produced by pass  1 Test12= 3.47D-13 3.33D-08 XBig12= 1.22D-01 1.63D-01.
      3 vectors produced by pass  2 Test12= 3.47D-13 3.33D-08 XBig12= 7.44D-04 8.76D-03.
      3 vectors produced by pass  3 Test12= 3.47D-13 3.33D-08 XBig12= 2.78D-06 3.74D-04.
      3 vectors produced by pass  4 Test12= 3.47D-13 3.33D-08 XBig12= 1.06D-08 1.67D-05.
      3 vectors produced by pass  5 Test12= 3.47D-13 3.33D-08 XBig12= 1.72D-11 1.48D-06.
      3 vectors produced by pass  6 Test12= 3.47D-13 3.33D-08 XBig12= 5.82D-14 7.65D-08.
 Inverted reduced A of dimension    21 with in-core refinement.
 Calculating GIAO nuclear magnetic shielding tensors.
 SCF GIAO Magnetic shielding tensor (ppm):
      1  C    Isotropic =   127.9898   Anisotropy =    44.2704
   XX=   127.5787   YX=    11.8548   ZX=     2.6540
   XY=    16.2076   YY=   132.5337   ZY=    21.7857
   XZ=     6.7403   YZ=    23.0120   ZZ=   123.8571
   Eigenvalues:   103.9430   122.5230   157.5034
      2  H    Isotropic =    27.3012   Anisotropy =     4.2310
   XX=    26.2333   YX=    -0.6125   ZX=     2.0668
   XY=    -0.1593   YY=    26.1181   ZY=    -0.2085
   XZ=    -0.3462   YZ=    -2.0737   ZZ=    29.5522
   Eigenvalues:    25.7247    26.0570    30.1218
      3  C    Isotropic =   149.6528   Anisotropy =    25.3204
   XX=   161.5643   YX=    -2.3816   ZX=    -5.2089
   XY=    -9.7719   YY=   134.4720   ZY=    -0.2991
   XZ=    -9.5326   YZ=    -1.4897   ZZ=   152.9220
   Eigenvalues:   132.8544   149.5709   166.5330
      4  H    Isotropic =    28.3744   Anisotropy =     8.1684
   XX=    32.4150   YX=     1.8394   ZX=     0.8970
   XY=     3.6063   YY=    26.6377   ZY=     1.8899
   XZ=     0.2854   YZ=     3.3809   ZZ=    26.0707
   Eigenvalues:    23.4625    27.8408    33.8201
      5  C    Isotropic =   -11.8780   Anisotropy =   176.9334
   XX=   -86.9474   YX=   -14.9360   ZX=   -10.7662
   XY=   -14.8965   YY=   -48.5792   ZY=   -24.3200
   XZ=   -13.3552   YZ=   -35.2940   ZZ=    99.8925
   Eigenvalues:   -94.4943   -47.2174   106.0776
      6  O    Isotropic =  -193.1708   Anisotropy =   866.2323
   XX=  -323.2071   YX=  -117.0860   ZX=   -50.0487
   XY=   -96.8522   YY=  -610.4363   ZY=  -136.4912
   XZ=   -54.2221   YZ=  -200.3992   ZZ=   354.1309
   Eigenvalues:  -676.0654  -287.7645   384.3173
      7  O    Isotropic =   297.7778   Anisotropy =    80.4852
   XX=   295.9484   YX=   -27.5557   ZX=   -11.5692
   XY=   -29.1134   YY=   325.6855   ZY=    25.4040
   XZ=   -10.4804   YZ=    22.4865   ZZ=   271.6994
   Eigenvalues:   262.6062   279.2925   351.4346
      8  H    Isotropic =    27.7417   Anisotropy =    21.5998
   XX=    30.6701   YX=    -6.8312   ZX=    -1.2370
   XY=    -8.6975   YY=    34.6293   ZY=     5.7713
   XZ=    -1.5718   YZ=     7.0611   ZZ=    17.9258
   Eigenvalues:    15.6335    25.4501    42.1416
      9  C    Isotropic =   183.3940   Anisotropy =    18.9320
   XX=   180.7696   YX=    -0.1849   ZX=     6.2599
   XY=    -2.1419   YY=   181.2090   ZY=    -6.3925
   XZ=     7.6204   YZ=    -9.0985   ZZ=   188.2032
   Eigenvalues:   174.3569   179.8097   196.0153
     10  H    Isotropic =    30.4906   Anisotropy =     8.2613
   XX=    33.0991   YX=     2.6254   ZX=    -2.2041
   XY=     3.0871   YY=    27.9842   ZY=    -2.5232
   XZ=    -0.7365   YZ=    -4.6378   ZZ=    30.3885
   Eigenvalues:    25.1027    30.3710    35.9981
     11  H    Isotropic =    30.1644   Anisotropy =     8.0865
   XX=    27.3234   YX=     2.6823   ZX=     1.0868
   XY=     2.3999   YY=    29.8433   ZY=     2.2491
   XZ=     2.9718   YZ=     2.3354   ZZ=    33.3264
   Eigenvalues:    25.7029    29.2348    35.5554
     12  H    Isotropic =    30.1739   Anisotropy =     9.6202
   XX=    30.5571   YX=    -4.3504   ZX=    -0.4665
   XY=    -4.3493   YY=    32.0304   ZY=    -2.8589
   XZ=     1.1660   YZ=    -3.6372   ZZ=    27.9342
   Eigenvalues:    25.2211    28.7132    36.5873
     13  C    Isotropic =    64.9971   Anisotropy =   158.0335
   XX=    -6.7333   YX=   -17.9640   ZX=   -15.4563
   XY=   -11.9169   YY=    33.9268   ZY=     1.5677
   XZ=   -19.1650   YZ=    17.1103   ZZ=   167.7977
   Eigenvalues:   -12.6712    37.3096   170.3528
     14  C    Isotropic =    65.3182   Anisotropy =   183.5025
   XX=   -30.7937   YX=   -16.4959   ZX=   -18.7769
   XY=   -18.3860   YY=    40.5925   ZY=     1.8857
   XZ=   -16.1017   YZ=     3.1532   ZZ=   186.1560
   Eigenvalues:   -36.0436    44.3451   187.6532
     15  C    Isotropic =    69.3622   Anisotropy =   185.4479
   XX=    43.0818   YX=   -19.2901   ZX=   -12.8071
   XY=    -6.1870   YY=   -26.1969   ZY=     5.0169
   XZ=   -18.7888   YZ=     2.8512   ZZ=   191.2016
   Eigenvalues:   -28.4706    43.5630   192.9941
     16  C    Isotropic =    69.2942   Anisotropy =   176.8214
   XX=    18.4169   YX=    38.7981   ZX=   -16.0413
   XY=    22.6856   YY=     4.1873   ZY=     9.2135
   XZ=   -18.6626   YZ=     6.0475   ZZ=   185.2783
   Eigenvalues:   -21.6198    42.3272   187.1751
     17  C    Isotropic =    69.9879   Anisotropy =   173.5578
   XX=    46.5066   YX=   -24.6519   ZX=   -11.7423
   XY=   -24.6857   YY=   -21.1643   ZY=     3.7302
   XZ=   -10.5458   YZ=     4.3778   ZZ=   184.6213
   Eigenvalues:   -29.2031    53.4736   185.6931
     18  C    Isotropic =    69.4474   Anisotropy =   174.5385
   XX=    18.5239   YX=    40.2600   ZX=   -15.6490
   XY=    39.5241   YY=     5.5533   ZY=     7.7423
   XZ=   -15.8000   YZ=     6.3385   ZZ=   184.2649
   Eigenvalues:   -29.5119    52.0476   185.8064
     19  H    Isotropic =    23.0510   Anisotropy =     7.5089
   XX=    27.6433   YX=    -1.1881   ZX=     0.8385
   XY=    -1.1719   YY=    23.1828   ZY=    -0.0398
   XZ=     1.3291   YZ=    -0.2221   ZZ=    18.3267
   Eigenvalues:    18.2023    22.8937    28.0569
     20  H    Isotropic =    23.2675   Anisotropy =     9.4639
   XX=    28.0764   YX=     3.5374   ZX=     0.8059
   XY=     2.5926   YY=    22.8076   ZY=     0.3469
   XZ=     1.0722   YZ=     0.3381   ZZ=    18.9184
   Eigenvalues:    18.8228    21.4029    29.5767
     21  H    Isotropic =    23.7453   Anisotropy =     5.3077
   XX=    27.1474   YX=    -0.4841   ZX=     0.6386
   XY=    -0.5374   YY=    23.9462   ZY=    -0.0976
   XZ=     0.6095   YZ=    -0.1639   ZZ=    20.1422
   Eigenvalues:    20.0851    23.8670    27.2837
     22  H    Isotropic =    23.6897   Anisotropy =     4.8350
   XX=    26.0379   YX=     1.2068   ZX=     0.4995
   XY=     1.3380   YY=    24.9875   ZY=     0.0320
   XZ=     0.4549   YZ=    -0.0041   ZZ=    20.0439
   Eigenvalues:    20.0045    24.1516    26.9131
     23  H    Isotropic =    23.6474   Anisotropy =     4.5659
   XX=    24.0627   YX=    -0.6388   ZX=     0.3359
   XY=    -0.8271   YY=    26.4702   ZY=    -0.2000
   XZ=     0.5172   YZ=    -0.2068   ZZ=    20.4092
   Eigenvalues:    20.3577    23.8931    26.6913
     24  C    Isotropic =   176.2134   Anisotropy =    32.3501
   XX=   181.2546   YX=   -10.2559   ZX=    -6.6958
   XY=    -7.9703   YY=   183.6598   ZY=    15.5759
   XZ=    -2.2405   YZ=    14.0638   ZZ=   163.7258
   Eigenvalues:   155.8280   175.0321   197.7801
     25  H    Isotropic =    30.3759   Anisotropy =    10.2459
   XX=    33.8999   YX=     1.7316   ZX=    -5.1269
   XY=     0.3231   YY=    28.1223   ZY=    -0.5612
   XZ=    -4.8706   YZ=    -0.7006   ZZ=    29.1055
   Eigenvalues:    25.9588    27.9624    37.2065
     26  H    Isotropic =    30.9111   Anisotropy =     9.6710
   XX=    29.0503   YX=    -0.0334   ZX=    -0.4819
   XY=     0.9384   YY=    32.5473   ZY=     5.6456
   XZ=    -0.7233   YZ=     5.2967   ZZ=    31.1358
   Eigenvalues:    26.1316    29.2433    37.3585
     27  H    Isotropic =    30.3490   Anisotropy =     6.5857
   XX=    31.4362   YX=    -3.2084   ZX=     1.1514
   XY=    -3.2505   YY=    29.6386   ZY=    -2.8964
   XZ=    -0.0506   YZ=    -2.0564   ZZ=    29.9721
   Eigenvalues:    26.3311    29.9764    34.7394
 End of Minotr Frequency-dependent properties file   721 does not exist.
 End of Minotr Frequency-dependent properties file   722 does not exist.

 **********************************************************************

            Population analysis using the SCF density.

 **********************************************************************

 Orbital symmetries:
       Occupied  (A) (A) (A) (A) (A) (A) (A) (A) (A) (A) (A) (A)
                 (A) (A) (A) (A) (A) (A) (A) (A) (A) (A) (A) (A)
                 (A) (A) (A) (A) (A) (A) (A) (A) (A) (A) (A) (A)
                 (A) (A) (A) (A) (A) (A) (A) (A) (A) (A) (A) (A)
       Virtual   (A) (A) (A) (A) (A) (A) (A) (A) (A) (A) (A) (A)
                 (A) (A) (A) (A) (A) (A) (A) (A) (A) (A) (A) (A)
                 (A) (A) (A) (A) (A) (A) (A) (A) (A) (A) (A) (A)
                 (A) (A) (A) (A) (A) (A) (A) (A) (A) (A) (A) (A)
                 (A) (A) (A) (A) (A) (A) (A) (A) (A) (A) (A) (A)
                 (A) (A) (A) (A) (A) (A) (A) (A) (A) (A) (A) (A)
                 (A) (A) (A) (A) (A) (A) (A) (A) (A) (A) (A) (A)
                 (A) (A) (A) (A) (A) (A) (A) (A) (A) (A) (A) (A)
                 (A) (A) (A) (A) (A) (A) (A) (A) (A) (A) (A) (A)
                 (A) (A) (A) (A) (A) (A) (A) (A) (A) (A) (A) (A)
                 (A) (A) (A) (A) (A) (A) (A) (A) (A) (A) (A) (A)
                 (A) (A) (A) (A) (A) (A) (A) (A) (A) (A) (A) (A)
                 (A) (A) (A) (A) (A) (A) (A) (A) (A) (A) (A) (A)
                 (A) (A) (A) (A) (A) (A) (A) (A) (A) (A) (A) (A)
                 (A) (A) (A) (A) (A) (A) (A) (A) (A) (A) (A) (A)
                 (A) (A) (A) (A) (A) (A) (A) (A) (A) (A) (A) (A)
                 (A) (A) (A) (A) (A) (A) (A) (A) (A) (A) (A) (A)
                 (A) (A) (A) (A) (A) (A) (A) (A) (A) (A) (A) (A)
                 (A)
 The electronic state is 1-A.
 Alpha  occ. eigenvalues --  -19.23877 -19.21422 -10.34306 -10.28833 -10.26669
 Alpha  occ. eigenvalues --  -10.26435 -10.26101 -10.26031 -10.25809 -10.25692
 Alpha  occ. eigenvalues --  -10.25342 -10.23534 -10.22547  -1.07367  -1.02384
 Alpha  occ. eigenvalues --   -0.88884  -0.82266  -0.78476  -0.77402  -0.74519
 Alpha  occ. eigenvalues --   -0.68034  -0.64829  -0.62822  -0.59334  -0.56247
 Alpha  occ. eigenvalues --   -0.53059  -0.50621  -0.49043  -0.48271  -0.46898
 Alpha  occ. eigenvalues --   -0.45212  -0.44016  -0.43502  -0.43240  -0.40225
 Alpha  occ. eigenvalues --   -0.39416  -0.38825  -0.38031  -0.37717  -0.36735
 Alpha  occ. eigenvalues --   -0.36190  -0.35488  -0.35166  -0.32680  -0.27281
 Alpha  occ. eigenvalues --   -0.26961  -0.26798  -0.26118
 Alpha virt. eigenvalues --   -0.05621  -0.00536   0.04390   0.10213   0.11964
 Alpha virt. eigenvalues --    0.14146   0.15040   0.15360   0.16339   0.17215
 Alpha virt. eigenvalues --    0.17466   0.18309   0.18950   0.19875   0.20990
 Alpha virt. eigenvalues --    0.21423   0.21598   0.22548   0.23772   0.25238
 Alpha virt. eigenvalues --    0.26402   0.27195   0.28701   0.30851   0.31278
 Alpha virt. eigenvalues --    0.32977   0.33563   0.38583   0.39853   0.49725
 Alpha virt. eigenvalues --    0.52234   0.52956   0.54348   0.54800   0.55653
 Alpha virt. eigenvalues --    0.56199   0.57999   0.58829   0.59736   0.60560
 Alpha virt. eigenvalues --    0.60828   0.61349   0.62212   0.62609   0.62921
 Alpha virt. eigenvalues --    0.64270   0.64518   0.68014   0.68457   0.69796
 Alpha virt. eigenvalues --    0.70123   0.73721   0.76893   0.78258   0.79568
 Alpha virt. eigenvalues --    0.80908   0.81944   0.82631   0.84053   0.84734
 Alpha virt. eigenvalues --    0.84922   0.85804   0.87165   0.89194   0.90330
 Alpha virt. eigenvalues --    0.91537   0.92103   0.92575   0.93121   0.94590
 Alpha virt. eigenvalues --    0.94750   0.96081   0.98004   0.98452   1.01704
 Alpha virt. eigenvalues --    1.03063   1.03118   1.04702   1.05576   1.08275
 Alpha virt. eigenvalues --    1.11609   1.12578   1.15005   1.15087   1.19812
 Alpha virt. eigenvalues --    1.24064   1.25162   1.26260   1.28585   1.29265
 Alpha virt. eigenvalues --    1.33556   1.35163   1.37824   1.39725   1.40586
 Alpha virt. eigenvalues --    1.41998   1.42446   1.44725   1.46542   1.48247
 Alpha virt. eigenvalues --    1.51715   1.55219   1.56519   1.59187   1.63521
 Alpha virt. eigenvalues --    1.65765   1.66265   1.71856   1.73962   1.77361
 Alpha virt. eigenvalues --    1.79270   1.81374   1.82985   1.83673   1.86005
 Alpha virt. eigenvalues --    1.87314   1.88344   1.89723   1.90229   1.93679
 Alpha virt. eigenvalues --    1.94863   1.95662   1.97292   1.97573   1.98984
 Alpha virt. eigenvalues --    1.99786   2.01814   2.03013   2.04920   2.05476
 Alpha virt. eigenvalues --    2.07209   2.07859   2.09086   2.09658   2.11614
 Alpha virt. eigenvalues --    2.14170   2.15135   2.15706   2.16036   2.21432
 Alpha virt. eigenvalues --    2.24008   2.29238   2.30162   2.31086   2.31798
 Alpha virt. eigenvalues --    2.33270   2.35676   2.37305   2.39065   2.39930
 Alpha virt. eigenvalues --    2.41141   2.42213   2.44525   2.46177   2.46534
 Alpha virt. eigenvalues --    2.48248   2.49411   2.49933   2.51204   2.53847
 Alpha virt. eigenvalues --    2.56468   2.58859   2.59780   2.60373   2.63291
 Alpha virt. eigenvalues --    2.65837   2.67110   2.69461   2.70970   2.71862
 Alpha virt. eigenvalues --    2.73486   2.75690   2.76386   2.78687   2.79703
 Alpha virt. eigenvalues --    2.81177   2.82543   2.85310   2.87016   2.90524
 Alpha virt. eigenvalues --    2.91022   2.93411   2.96448   3.00581   3.03577
 Alpha virt. eigenvalues --    3.06017   3.07509   3.12288   3.21171   3.23327
 Alpha virt. eigenvalues --    3.24534   3.25999   3.27387   3.37517   3.39823
 Alpha virt. eigenvalues --    3.43041   3.45513   3.48752   3.49553   3.51700
 Alpha virt. eigenvalues --    3.52608   3.55072   3.56214   3.91176   3.97317
 Alpha virt. eigenvalues --    4.10950   4.15914   4.18303   4.22500   4.36760
 Alpha virt. eigenvalues --    4.45683   4.46883   4.52989   4.57676   4.70369
 Alpha virt. eigenvalues --    4.78269   4.87585
          Condensed to atoms (all electrons):
              1          2          3          4          5          6
     1  C    4.776790   0.406062   0.302964  -0.034737  -0.024819   0.004233
     2  H    0.406062   0.628827  -0.068249   0.001786  -0.005008   0.001431
     3  C    0.302964  -0.068249   5.358395   0.372014   0.315507  -0.090589
     4  H   -0.034737   0.001786   0.372014   0.570245  -0.038889   0.002893
     5  C   -0.024819  -0.005008   0.315507  -0.038889   4.614943   0.507714
     6  O    0.004233   0.001431  -0.090589   0.002893   0.507714   8.141358
     7  O    0.229282  -0.041412  -0.052515   0.003279  -0.003820  -0.013909
     8  H   -0.028048  -0.004179  -0.006768   0.000034  -0.001428   0.036850
     9  C   -0.037646   0.005803   0.319821  -0.032241  -0.038665  -0.001572
    10  H    0.004750  -0.000076  -0.034204  -0.003851  -0.004902  -0.000055
    11  H   -0.007476   0.000351  -0.034822   0.005229  -0.006230   0.002189
    12  H   -0.004791  -0.000056  -0.030421  -0.004063   0.003882  -0.000039
    13  C    0.004845   0.000568  -0.096147   0.000965   0.324441  -0.083441
    14  C    0.000000   0.000000  -0.000020   0.000002   0.000182  -0.000011
    15  C   -0.000172  -0.000015   0.009526  -0.000152  -0.039075   0.000219
    16  C    0.000039  -0.000030  -0.006117   0.000110  -0.037548   0.003581
    17  C   -0.000005   0.000000  -0.000111   0.000125   0.004681  -0.000072
    18  C    0.000001   0.000000  -0.000094  -0.000022   0.005661   0.000915
    19  H   -0.000012  -0.000004   0.000615  -0.000018  -0.008696   0.013820
    20  H    0.000046  -0.000006   0.003660   0.001287  -0.007989   0.000040
    21  H    0.000000   0.000000   0.000013  -0.000001  -0.000127   0.000000
    22  H    0.000000   0.000000   0.000001   0.000000  -0.000133   0.000003
    23  H    0.000000   0.000000   0.000000   0.000000   0.000006   0.000000
    24  C    0.359101  -0.051373  -0.045007  -0.003257   0.004366   0.000327
    25  H   -0.027225  -0.006168   0.005597  -0.000093  -0.000100   0.000002
    26  H   -0.029268   0.000001  -0.002671   0.002346   0.000041   0.000007
    27  H   -0.026191   0.005599  -0.010182   0.000299  -0.000004  -0.000007
              7          8          9         10         11         12
     1  C    0.229282  -0.028048  -0.037646   0.004750  -0.007476  -0.004791
     2  H   -0.041412  -0.004179   0.005803  -0.000076   0.000351  -0.000056
     3  C   -0.052515  -0.006768   0.319821  -0.034204  -0.034822  -0.030421
     4  H    0.003279   0.000034  -0.032241  -0.003851   0.005229  -0.004063
     5  C   -0.003820  -0.001428  -0.038665  -0.004902  -0.006230   0.003882
     6  O   -0.013909   0.036850  -0.001572  -0.000055   0.002189  -0.000039
     7  O    8.238847   0.282333  -0.002423   0.000283   0.011443  -0.000261
     8  H    0.282333   0.374295  -0.000036  -0.000048   0.000502  -0.000027
     9  C   -0.002423  -0.000036   5.038940   0.382880   0.385359   0.389063
    10  H    0.000283  -0.000048   0.382880   0.561127  -0.028497  -0.027401
    11  H    0.011443   0.000502   0.385359  -0.028497   0.543128  -0.025823
    12  H   -0.000261  -0.000027   0.389063  -0.027401  -0.025823   0.541745
    13  C    0.000045   0.000677  -0.001434   0.002500   0.000507  -0.000132
    14  C    0.000000   0.000000   0.000000   0.000000   0.000000   0.000000
    15  C    0.000006  -0.000019  -0.000265  -0.000082  -0.000003   0.000006
    16  C   -0.000005  -0.000014  -0.001795   0.001314  -0.000079  -0.000004
    17  C    0.000000   0.000000   0.000042  -0.000026   0.000001  -0.000001
    18  C    0.000000   0.000000   0.000004  -0.000004   0.000000   0.000000
    19  H    0.000002  -0.000018  -0.000016  -0.000002  -0.000002   0.000000
    20  H    0.000001  -0.000002  -0.000765   0.000968  -0.000054   0.000171
    21  H    0.000000   0.000000  -0.000002  -0.000002   0.000000   0.000000
    22  H    0.000000   0.000000   0.000000   0.000000   0.000000   0.000000
    23  H    0.000000   0.000000   0.000000   0.000000   0.000000   0.000000
    24  C   -0.055881   0.006244  -0.009269  -0.000069  -0.000312   0.002383
    25  H    0.001739  -0.000006  -0.000001   0.000001  -0.000023  -0.000119
    26  H    0.002997  -0.000241   0.000245  -0.000012   0.000015   0.000075
    27  H    0.001042  -0.000118   0.002783  -0.000038   0.000456   0.001918
             13         14         15         16         17         18
     1  C    0.004845   0.000000  -0.000172   0.000039  -0.000005   0.000001
     2  H    0.000568   0.000000  -0.000015  -0.000030   0.000000   0.000000
     3  C   -0.096147  -0.000020   0.009526  -0.006117  -0.000111  -0.000094
     4  H    0.000965   0.000002  -0.000152   0.000110   0.000125  -0.000022
     5  C    0.324441   0.000182  -0.039075  -0.037548   0.004681   0.005661
     6  O   -0.083441  -0.000011   0.000219   0.003581  -0.000072   0.000915
     7  O    0.000045   0.000000   0.000006  -0.000005   0.000000   0.000000
     8  H    0.000677   0.000000  -0.000019  -0.000014   0.000000   0.000000
     9  C   -0.001434   0.000000  -0.000265  -0.001795   0.000042   0.000004
    10  H    0.002500   0.000000  -0.000082   0.001314  -0.000026  -0.000004
    11  H    0.000507   0.000000  -0.000003  -0.000079   0.000001   0.000000
    12  H   -0.000132   0.000000   0.000006  -0.000004  -0.000001   0.000000
    13  C    5.009254  -0.031062   0.492462   0.521491  -0.029012  -0.034171
    14  C   -0.031062   4.860331  -0.046031  -0.048656   0.543470   0.534472
    15  C    0.492462  -0.046031   4.961504  -0.069137  -0.038523   0.508685
    16  C    0.521491  -0.048656  -0.069137   4.949723   0.521815  -0.037590
    17  C   -0.029012   0.543470  -0.038523   0.521815   4.887831  -0.040875
    18  C   -0.034171   0.534472   0.508685  -0.037590  -0.040875   4.903792
    19  H   -0.043855   0.004147   0.380462   0.004565   0.000135  -0.035676
    20  H   -0.035614   0.004036   0.004381   0.379312  -0.035880   0.000213
    21  H    0.002904  -0.036693   0.000672  -0.032586   0.380946   0.003854
    22  H    0.003021  -0.037164  -0.033682   0.000618   0.003900   0.382149
    23  H    0.000475   0.381931   0.003941   0.004171  -0.036444  -0.036629
    24  C   -0.000184   0.000000   0.000002   0.000004   0.000000   0.000000
    25  H    0.000003   0.000000   0.000000   0.000000   0.000000   0.000000
    26  H    0.000010   0.000000   0.000000  -0.000007   0.000000   0.000000
    27  H    0.000001   0.000000   0.000000   0.000000   0.000000   0.000000
             19         20         21         22         23         24
     1  C   -0.000012   0.000046   0.000000   0.000000   0.000000   0.359101
     2  H   -0.000004  -0.000006   0.000000   0.000000   0.000000  -0.051373
     3  C    0.000615   0.003660   0.000013   0.000001   0.000000  -0.045007
     4  H   -0.000018   0.001287  -0.000001   0.000000   0.000000  -0.003257
     5  C   -0.008696  -0.007989  -0.000127  -0.000133   0.000006   0.004366
     6  O    0.013820   0.000040   0.000000   0.000003   0.000000   0.000327
     7  O    0.000002   0.000001   0.000000   0.000000   0.000000  -0.055881
     8  H   -0.000018  -0.000002   0.000000   0.000000   0.000000   0.006244
     9  C   -0.000016  -0.000765  -0.000002   0.000000   0.000000  -0.009269
    10  H   -0.000002   0.000968  -0.000002   0.000000   0.000000  -0.000069
    11  H   -0.000002  -0.000054   0.000000   0.000000   0.000000  -0.000312
    12  H    0.000000   0.000171   0.000000   0.000000   0.000000   0.002383
    13  C   -0.043855  -0.035614   0.002904   0.003021   0.000475  -0.000184
    14  C    0.004147   0.004036  -0.036693  -0.037164   0.381931   0.000000
    15  C    0.380462   0.004381   0.000672  -0.033682   0.003941   0.000002
    16  C    0.004565   0.379312  -0.032586   0.000618   0.004171   0.000004
    17  C    0.000135  -0.035880   0.380946   0.003900  -0.036444   0.000000
    18  C   -0.035676   0.000213   0.003854   0.382149  -0.036629   0.000000
    19  H    0.522691  -0.000109   0.000013  -0.004180  -0.000137   0.000000
    20  H   -0.000109   0.522697  -0.004351   0.000013  -0.000143   0.000005
    21  H    0.000013  -0.004351   0.528605  -0.000145  -0.004445   0.000000
    22  H   -0.004180   0.000013  -0.000145   0.528352  -0.004409   0.000000
    23  H   -0.000137  -0.000143  -0.004445  -0.004409   0.529155   0.000000
    24  C    0.000000   0.000005   0.000000   0.000000   0.000000   5.071833
    25  H    0.000000   0.000000   0.000000   0.000000   0.000000   0.381117
    26  H    0.000000  -0.000005   0.000000   0.000000   0.000000   0.377295
    27  H    0.000000   0.000000   0.000000   0.000000   0.000000   0.378538
             25         26         27
     1  C   -0.027225  -0.029268  -0.026191
     2  H   -0.006168   0.000001   0.005599
     3  C    0.005597  -0.002671  -0.010182
     4  H   -0.000093   0.002346   0.000299
     5  C   -0.000100   0.000041  -0.000004
     6  O    0.000002   0.000007  -0.000007
     7  O    0.001739   0.002997   0.001042
     8  H   -0.000006  -0.000241  -0.000118
     9  C   -0.000001   0.000245   0.002783
    10  H    0.000001  -0.000012  -0.000038
    11  H   -0.000023   0.000015   0.000456
    12  H   -0.000119   0.000075   0.001918
    13  C    0.000003   0.000010   0.000001
    14  C    0.000000   0.000000   0.000000
    15  C    0.000000   0.000000   0.000000
    16  C    0.000000  -0.000007   0.000000
    17  C    0.000000   0.000000   0.000000
    18  C    0.000000   0.000000   0.000000
    19  H    0.000000   0.000000   0.000000
    20  H    0.000000  -0.000005   0.000000
    21  H    0.000000   0.000000   0.000000
    22  H    0.000000   0.000000   0.000000
    23  H    0.000000   0.000000   0.000000
    24  C    0.381117   0.377295   0.378538
    25  H    0.556165  -0.025590  -0.030586
    26  H   -0.025590   0.560040  -0.025982
    27  H   -0.030586  -0.025982   0.558546
 Mulliken atomic charges:
              1
     1  C    0.132276
     2  H    0.126149
     3  C   -0.210197
     4  H    0.156712
     5  C    0.436008
     6  O   -0.525887
     7  O   -0.601075
     8  H    0.340014
     9  C   -0.398812
    10  H    0.145445
    11  H    0.154142
    12  H    0.153894
    13  C   -0.009118
    14  C   -0.128935
    15  C   -0.134707
    16  C   -0.153173
    17  C   -0.161997
    18  C   -0.154682
    19  H    0.166273
    20  H    0.168088
    21  H    0.161345
    22  H    0.161654
    23  H    0.162529
    24  C   -0.415863
    25  H    0.145289
    26  H    0.140705
    27  H    0.143926
 Sum of Mulliken atomic charges =   0.00000
 Mulliken charges with hydrogens summed into heavy atoms:
              1
     1  C    0.258425
     3  C   -0.053485
     5  C    0.436008
     6  O   -0.525887
     7  O   -0.261061
     9  C    0.054668
    13  C   -0.009118
    14  C    0.033593
    15  C    0.031566
    16  C    0.014914
    17  C   -0.000652
    18  C    0.006972
    24  C    0.014056
 Sum of Mulliken charges with hydrogens summed into heavy atoms =   0.00000
 Electronic spatial extent (au):  <R**2>=           2991.4875
 Charge=              0.0000 electrons
 Dipole moment (field-independent basis, Debye):
    X=             -3.8752    Y=             -3.3803    Z=             -0.9411  Tot=              5.2277
 Quadrupole moment (field-independent basis, Debye-Ang):
   XX=            -75.5911   YY=            -73.2703   ZZ=            -78.0836
   XY=             -4.5949   XZ=             -1.3396   YZ=             -0.9114
 Traceless Quadrupole moment (field-independent basis, Debye-Ang):
   XX=              0.0572   YY=              2.3780   ZZ=             -2.4352
   XY=             -4.5949   XZ=             -1.3396   YZ=             -0.9114
 Octapole moment (field-independent basis, Debye-Ang**2):
  XXX=            -83.2124  YYY=              0.5255  ZZZ=              3.3039  XYY=             -9.1253
  XXY=            -13.6732  XXZ=            -12.9375  XZZ=             17.7050  YZZ=              3.8593
  YYZ=             -0.1619  XYZ=              0.2160
 Hexadecapole moment (field-independent basis, Debye-Ang**3):
 XXXX=          -2936.1948 YYYY=           -576.0070 ZZZZ=           -274.0626 XXXY=            -41.8942
 XXXZ=             -0.6970 YYYX=             23.6688 YYYZ=              2.1522 ZZZX=             -1.9335
 ZZZY=              4.2165 XXYY=           -562.4096 XXZZ=           -580.3913 YYZZ=           -148.5458
 XXYZ=             -4.6122 YYXZ=              8.4556 ZZXY=              5.1171
 N-N= 7.771766293007D+02 E-N=-2.898703840174D+03  KE= 5.725796642008D+02
 1\1\GINC-COMPUTE-8-1\SP\RmPW1PW91\6-31G(d,p)\C11H14O2\FBRUNO.IQUIR\21-
 Dec-2021\0\\# mPW1PW91/6-31g** scrf=(pcm,solvent=chloroform,smd,dovacu
 um) nmr\\comment\\0,1\C,0,-1.619194517,0.643135502,1.80266961\H,0,-1.8
 2425303,1.600532314,1.307633036\C,0,-0.457021113,-0.079379159,1.084786
 732\H,0,0.452262266,0.49391535,1.294403622\C,0,-0.718193763,-0.0559651
 58,-0.420473018\O,0,-1.868647788,-0.110917752,-0.861427836\O,0,-2.8190
 20782,-0.127689306,1.750165142\H,0,-3.012346653,-0.259603342,0.7972147
 07\C,0,-0.277206806,-1.529760622,1.533225888\H,0,0.547745752,-2.010306
 859,0.997010699\H,0,-1.174021929,-2.12731025,1.336615306\H,0,-0.052500
 791,-1.590334865,2.602090877\C,0,0.425487361,0.020802622,-1.38382315\C
 ,0,2.481930931,0.185973835,-3.285820461\C,0,0.129940494,0.221656566,-2
 .740587041\C,0,1.763975201,-0.102701106,-0.991409062\C,0,2.786908794,-
 0.019029201,-1.941484388\C,0,1.153651084,0.305147732,-3.686567935\H,0,
 -0.903514572,0.315085918,-3.070643279\H,0,2.047144023,-0.276001726,0.0
 41700511\H,0,3.825054625,-0.117921089,-1.632227412\H,0,0.911681088,0.4
 61416419,-4.735056989\H,0,3.279597628,0.249152315,-4.022172243\C,0,-1.
 316607852,0.922925535,3.270010349\H,0,-2.140216955,1.485812987,3.72337
 3354\H,0,-0.39715963,1.504732584,3.384447585\H,0,-1.225473068,-0.00336
 9245,3.846345396\\Version=EM64L-G09RevC.01\State=1-A\HF=-577.9518111\R
 MSD=6.232e-09\Dipole=1.9856471,0.2410894,-0.4788614\Quadrupole=-2.1744
 803,-1.6498066,3.8242869,-1.2013387,1.9603845,-0.0144551\PG=C01 [X(C11
 H14O2)]\\@


 HONESTY IN A LAWYER IS LIKE A HEN'S HIND LEGS.
  -- MAGNUS OLESON, LAKE WOBEGON PATRIARCH, C.1875
 Job cpu time:  0 days  0 hours 20 minutes 10.8 seconds.
 File lengths (MBytes):  RWF=     80 Int=      0 D2E=      0 Chk=      5 Scr=      1
 Normal termination of Gaussian 09 at Tue Dec 21 08:25:44 2021.
