 Entering Gaussian System, Link 0=g09
 Input=/home/fbruno.iquir/2_val_run/2a_005_MPW_A_SMD.gjc
 Output=/home/fbruno.iquir/2_val_run/2a_005_MPW_A_SMD.log
 Initial command:
 /share/apps/Gaussian09/EM64T.SSE4.2-enabled/g09/l1.exe /tmp/Gau-32499.inp -scrdir=/tmp/
 Entering Link 1 = /share/apps/Gaussian09/EM64T.SSE4.2-enabled/g09/l1.exe PID=     32502.
  
 Copyright (c) 1988,1990,1992,1993,1995,1998,2003,2009,2011,
            Gaussian, Inc.  All Rights Reserved.
  
 This is part of the Gaussian(R) 09 program.  It is based on
 the Gaussian(R) 03 system (copyright 2003, Gaussian, Inc.),
 the Gaussian(R) 98 system (copyright 1998, Gaussian, Inc.),
 the Gaussian(R) 94 system (copyright 1995, Gaussian, Inc.),
 the Gaussian 92(TM) system (copyright 1992, Gaussian, Inc.),
 the Gaussian 90(TM) system (copyright 1990, Gaussian, Inc.),
 the Gaussian 88(TM) system (copyright 1988, Gaussian, Inc.),
 the Gaussian 86(TM) system (copyright 1986, Carnegie Mellon
 University), and the Gaussian 82(TM) system (copyright 1983,
 Carnegie Mellon University). Gaussian is a federally registered
 trademark of Gaussian, Inc.
  
 This software contains proprietary and confidential information,
 including trade secrets, belonging to Gaussian, Inc.
  
 This software is provided under written license and may be
 used, copied, transmitted, or stored only in accord with that
 written license.
  
 The following legend is applicable only to US Government
 contracts under FAR:
  
                    RESTRICTED RIGHTS LEGEND
  
 Use, reproduction and disclosure by the US Government is
 subject to restrictions as set forth in subparagraphs (a)
 and (c) of the Commercial Computer Software - Restricted
 Rights clause in FAR 52.227-19.
  
 Gaussian, Inc.
 340 Quinnipiac St., Bldg. 40, Wallingford CT 06492
  
  
 ---------------------------------------------------------------
 Warning -- This program may not be used in any manner that
 competes with the business of Gaussian, Inc. or will provide
 assistance to any competitor of Gaussian, Inc.  The licensee
 of this program is prohibited from giving any competitor of
 Gaussian, Inc. access to this program.  By using this program,
 the user acknowledges that Gaussian, Inc. is engaged in the
 business of creating and licensing software in the field of
 computational chemistry and represents and warrants to the
 licensee that it is not a competitor of Gaussian, Inc. and that
 it will not use this program in any manner prohibited above.
 ---------------------------------------------------------------
  

 Cite this work as:
 Gaussian 09, Revision C.01,
 M. J. Frisch, G. W. Trucks, H. B. Schlegel, G. E. Scuseria, 
 M. A. Robb, J. R. Cheeseman, G. Scalmani, V. Barone, B. Mennucci, 
 G. A. Petersson, H. Nakatsuji, M. Caricato, X. Li, H. P. Hratchian, 
 A. F. Izmaylov, J. Bloino, G. Zheng, J. L. Sonnenberg, M. Hada, 
 M. Ehara, K. Toyota, R. Fukuda, J. Hasegawa, M. Ishida, T. Nakajima, 
 Y. Honda, O. Kitao, H. Nakai, T. Vreven, J. A. Montgomery, Jr., 
 J. E. Peralta, F. Ogliaro, M. Bearpark, J. J. Heyd, E. Brothers, 
 K. N. Kudin, V. N. Staroverov, T. Keith, R. Kobayashi, J. Normand, 
 K. Raghavachari, A. Rendell, J. C. Burant, S. S. Iyengar, J. Tomasi, 
 M. Cossi, N. Rega, J. M. Millam, M. Klene, J. E. Knox, J. B. Cross, 
 V. Bakken, C. Adamo, J. Jaramillo, R. Gomperts, R. E. Stratmann, 
 O. Yazyev, A. J. Austin, R. Cammi, C. Pomelli, J. W. Ochterski, 
 R. L. Martin, K. Morokuma, V. G. Zakrzewski, G. A. Voth, 
 P. Salvador, J. J. Dannenberg, S. Dapprich, A. D. Daniels, 
 O. Farkas, J. B. Foresman, J. V. Ortiz, J. Cioslowski, 
 and D. J. Fox, Gaussian, Inc., Wallingford CT, 2010.
 
 ******************************************
 Gaussian 09:  EM64L-G09RevC.01 23-Sep-2011
                21-Dec-2021 
 ******************************************
 %nprocshared=4
 Will use up to    4 processors via shared memory.
 -----------------------------------------------------------------
 # mPW1PW91/6-31g** scrf=(pcm,solvent=chloroform,smd,dovacuum) nmr
 -----------------------------------------------------------------
 1/38=1/1;
 2/12=2,17=6,18=5,40=1/2;
 3/5=1,6=6,7=101,11=2,16=1,25=1,30=1,70=32101,72=7,74=-7/1,2,8,3;
 4//1;
 5/5=2,38=5,53=7/2;
 8/6=1,10=90,11=11/1;
 10/13=100,45=16/2;
 6/7=2,8=2,9=2,10=2,28=1/1;
 99/9=1/99;
 -------
 comment
 -------
 Charge =  0 Multiplicity = 1
 Symbolic Z-Matrix:
 6                     0.51583   1.87377   1.8779 
 1                     0.86802   1.7142    2.90444 
 6                     0.39652   0.48879   1.19917 
 1                     1.37479   0.00846   1.32647 
 6                     0.15995   0.60464  -0.31111 
 8                    -0.01427   1.69216  -0.86334 
 8                     1.52945   2.64882   1.23563 
 1                     1.19931   2.8356    0.33103 
 6                    -0.68566  -0.36227   1.8639 
 1                    -0.62483  -1.40863   1.55017 
 1                    -1.68942  -0.00948   1.60352 
 1                    -0.58377  -0.34525   2.95409 
 6                     0.16301  -0.62288  -1.16189 
 6                     0.11835  -2.86485  -2.83914 
 6                    -0.54255  -0.58936  -2.37267 
 6                     0.86163  -1.78221  -0.80591 
 6                     0.83426  -2.90104  -1.64318 
 6                    -0.56763  -1.70885  -3.20615 
 1                    -1.07628   0.31087  -2.67223 
 1                     1.44574  -1.83783   0.10743 
 1                     1.37855  -3.80089  -1.36579 
 1                    -1.11859  -1.67567  -4.14292 
 1                     0.10176  -3.73586  -3.49001 
 6                    -0.76773   2.69578   1.96166 
 1                    -0.56108   3.66404   2.43153 
 1                    -1.53529   2.18993   2.55391 
 1                    -1.18006   2.918     0.97347 
 
                          Input orientation:                          
 ---------------------------------------------------------------------
 Center     Atomic      Atomic             Coordinates (Angstroms)
 Number     Number       Type             X           Y           Z
 ---------------------------------------------------------------------
      1          6           0        0.515829    1.873765    1.877901
      2          1           0        0.868022    1.714201    2.904444
      3          6           0        0.396515    0.488789    1.199169
      4          1           0        1.374788    0.008462    1.326467
      5          6           0        0.159949    0.604645   -0.311106
      6          8           0       -0.014271    1.692165   -0.863341
      7          8           0        1.529454    2.648817    1.235632
      8          1           0        1.199312    2.835595    0.331033
      9          6           0       -0.685663   -0.362274    1.863905
     10          1           0       -0.624833   -1.408628    1.550168
     11          1           0       -1.689425   -0.009479    1.603519
     12          1           0       -0.583775   -0.345246    2.954094
     13          6           0        0.163013   -0.622877   -1.161891
     14          6           0        0.118355   -2.864845   -2.839136
     15          6           0       -0.542547   -0.589359   -2.372675
     16          6           0        0.861627   -1.782205   -0.805913
     17          6           0        0.834257   -2.901040   -1.643180
     18          6           0       -0.567634   -1.708845   -3.206152
     19          1           0       -1.076278    0.310873   -2.672227
     20          1           0        1.445741   -1.837831    0.107425
     21          1           0        1.378548   -3.800893   -1.365786
     22          1           0       -1.118592   -1.675671   -4.142917
     23          1           0        0.101761   -3.735861   -3.490007
     24          6           0       -0.767729    2.695781    1.961657
     25          1           0       -0.561077    3.664040    2.431534
     26          1           0       -1.535294    2.189926    2.553915
     27          1           0       -1.180055    2.917997    0.973469
 ---------------------------------------------------------------------
                    Distance matrix (angstroms):
                    1          2          3          4          5
     1  C    0.000000
     2  H    1.096946   0.000000
     3  C    1.546956   2.152189   0.000000
     4  H    2.126322   2.378312   1.097240   0.000000
     5  C    2.555204   3.474513   1.533073   2.124361   0.000000
     6  O    2.797926   3.869771   2.422974   3.091860   1.232078
     7  O    1.428513   2.023841   2.439385   2.646440   2.906300
     8  H    1.945525   2.826609   2.627859   3.002393   2.543572
     9  C    2.538435   2.794353   1.528820   2.161421   2.525997
    10  H    3.490361   3.716818   2.183241   2.461030   2.851927
    11  H    2.912909   3.347239   2.182410   3.076764   2.731870
    12  H    2.700246   2.520218   2.176315   2.571040   3.480940
    13  C    3.949435   4.742789   2.620101   2.838822   1.493538
    14  C    6.697974   7.383656   5.256628   5.214093   4.293021
    15  C    5.025389   5.928244   3.847377   4.209182   2.483790
    16  C    4.548467   5.098200   3.064979   2.831407   2.536581
    17  C    5.941227   6.479388   4.445391   4.192395   3.810373
    18  C    6.313207   7.149666   5.016575   5.221760   3.776626
    19  H    5.067652   6.070328   4.145899   4.699864   2.681315
    20  H    4.216072   4.557851   2.775957   2.213571   2.791795
    21  H    6.592991   6.993694   5.093599   4.664700   4.691066
    22  H    7.177749   8.068653   5.959724   6.242388   4.638673
    23  H    7.775204   8.436784   6.318458   6.232092   5.380408
    24  C    1.526514   2.127916   2.609151   3.495072   3.224730
    25  H    2.161324   2.463299   3.538069   4.281588   4.171553
    26  H    2.182673   2.474897   2.908796   3.838488   3.687182
    27  H    2.187337   3.061439   2.904750   3.888088   2.966032
                    6          7          8          9         10
     6  O    0.000000
     7  O    2.775600   0.000000
     8  H    2.051036   0.980907   0.000000
     9  C    3.479850   3.790533   4.016117   0.000000
    10  H    3.976522   4.604643   4.777784   1.094068   0.000000
    11  H    3.433239   4.190830   4.249525   1.095355   1.758926
    12  H    4.364423   4.047624   4.491948   1.095072   1.761668
    13  C    2.340936   4.280100   3.906887   3.153348   2.931445
    14  C    4.968671   6.999672   6.611616   5.387754   4.683897
    15  C    2.786129   5.272461   4.698343   4.245074   4.008325
    16  C    3.583538   4.924211   4.767679   3.396798   2.810737
    17  C    4.735576   6.290610   6.077810   4.588587   3.814933
    18  C    4.166754   6.566311   6.023762   5.247157   4.766129
    19  H    2.511552   5.246635   4.535648   4.602412   4.581387
    20  H    3.941433   4.627080   4.685258   3.131353   2.559882
    21  H    5.689119   6.956213   6.852320   5.149366   4.270745
    22  H    4.828816   7.392031   6.763167   6.163955   5.720693
    23  H    6.031276   8.070568   7.680430   6.376950   5.598868
    24  C    3.091207   2.409640   2.558854   3.060717   4.127458
    25  H    3.878594   2.613653   2.863109   4.068038   5.149061
    26  H    3.773449   3.367660   3.582759   2.776998   3.845262
    27  H    2.497117   2.735439   2.465949   3.434746   4.400061
                   11         12         13         14         15
    11  H    0.000000
    12  H    1.777429   0.000000
    13  C    3.384564   4.192386   0.000000
    14  C    5.581968   6.356326   2.800280   0.000000
    15  C    4.178721   5.332519   1.401762   2.414998   0.000000
    16  C    3.931385   4.276879   1.399580   2.420446   2.418539
    17  C    5.027042   5.447736   2.423269   1.394323   2.787763
    18  C    5.222948   6.309381   2.427380   1.393420   1.395909
    19  H    4.331348   5.685819   2.165374   3.397086   1.088586
    20  H    3.925612   3.801351   2.175470   3.391008   3.415094
    21  H    5.709995   5.869716   3.408648   2.152912   3.875355
    22  H    6.010288   7.240416   3.411364   2.154998   2.155379
    23  H    6.560356   7.313868   3.887743   1.087463   3.400593
    24  C    2.880315   3.204156   4.651486   7.399549   5.443279
    25  H    3.931097   4.043261   5.640450   8.418310   6.416555
    26  H    2.400915   2.737267   4.960174   7.574316   5.742931
    27  H    3.037522   3.863571   4.347573   7.047205   4.889238
                   16         17         18         19         20
    16  C    0.000000
    17  C    1.397697   0.000000
    18  C    2.794515   2.414438   0.000000
    19  H    3.408751   3.876270   2.150129   0.000000
    20  H    1.085573   2.137509   3.879447   4.324809   0.000000
    21  H    2.157722   1.087628   3.398711   4.963827   2.455296
    22  H    3.881780   3.400564   1.087283   2.472059   4.966639
    23  H    3.405661   2.155051   2.153475   4.293320   4.283727
    24  C    5.510590   6.847307   6.793160   5.220716   5.375059
    25  H    6.493593   7.851786   7.787904   6.128421   6.300745
    26  H    5.728133   7.010586   7.022475   5.572620   5.576263
    27  H    5.424627   6.690703   6.265139   4.483188   5.501158
                   21         22         23         24         25
    21  H    0.000000
    22  H    4.297061   0.000000
    23  H    2.479260   2.481921   0.000000
    24  C    7.608229   7.516550   8.476005   0.000000
    25  H    8.596919   8.488036   9.500660   1.095909   0.000000
    26  H    7.729453   7.743645   8.621131   1.093533   1.771183
    27  H    7.560559   6.876262   8.114155   1.093576   1.750905
                   26         27
    26  H    0.000000
    27  H    1.775975   0.000000
 Stoichiometry    C11H14O2
 Framework group  C1[X(C11H14O2)]
 Deg. of freedom    75
 Full point group                 C1      NOp   1
 Largest Abelian subgroup         C1      NOp   1
 Largest concise Abelian subgroup C1      NOp   1
                         Standard orientation:                         
 ---------------------------------------------------------------------
 Center     Atomic      Atomic             Coordinates (Angstroms)
 Number     Number       Type             X           Y           Z
 ---------------------------------------------------------------------
      1          6           0       -2.798046    0.352915   -0.283559
      2          1           0       -3.391031    1.254743   -0.479432
      3          6           0       -1.322949    0.786045   -0.111633
      4          1           0       -1.075239    1.365813   -1.009655
      5          6           0       -0.368200   -0.413223   -0.088766
      6          8           0       -0.778416   -1.574929   -0.102169
      7          8           0       -2.936818   -0.463512   -1.447535
      8          1           0       -2.447580   -1.292808   -1.260204
      9          6           0       -1.143243    1.658669    1.130754
     10          1           0       -0.167531    2.153565    1.137944
     11          1           0       -1.206507    1.065829    2.049635
     12          1           0       -1.904657    2.444642    1.171729
     13          6           0        1.108456   -0.189637   -0.076400
     14          6           0        3.890775    0.122034   -0.020469
     15          6           0        1.924763   -1.196794    0.456717
     16          6           0        1.697687    0.967603   -0.598344
     17          6           0        3.086429    1.122112   -0.565454
     18          6           0        3.311345   -1.038749    0.487922
     19          1           0        1.482947   -2.110508    0.850346
     20          1           0        1.103226    1.756553   -1.048504
     21          1           0        3.543004    2.021463   -0.972444
     22          1           0        3.937715   -1.823726    0.904642
     23          1           0        4.971196    0.243779    0.000612
     24          6           0       -3.434592   -0.358257    0.907780
     25          1           0       -4.464513   -0.643853    0.665473
     26          1           0       -3.461106    0.280851    1.794714
     27          1           0       -2.912607   -1.285119    1.161488
 ---------------------------------------------------------------------
 Rotational constants (GHZ):      1.8601309      0.4372244      0.4062946
 Standard basis: 6-31G(d,p) (6D, 7F)
 There are   265 symmetry adapted basis functions of A   symmetry.
 Integral buffers will be    131072 words long.
 Raffenetti 2 integral format.
 Two-electron integral symmetry is turned on.
   265 basis functions,   462 primitive gaussians,   265 cartesian basis functions
    48 alpha electrons       48 beta electrons
       nuclear repulsion energy       783.1240010557 Hartrees.
 NAtoms=   27 NActive=   27 NUniq=   27 SFac= 1.00D+00 NAtFMM=   60 NAOKFM=F Big=F
 ------------------------------------------------------------------------------
 Polarizable Continuum Model (PCM)
 =================================
 Model                : C-PCM.
 Atomic radii         : SMD-Coulomb.
 Polarization charges : Total charges.
 Charge compensation  : None.
 Solution method      : Matrix inversion.
 Cavity type          : VdW (van der Waals Surface) (Alpha=1.000).
 Cavity algorithm     : GePol (No added spheres)
                        Default sphere list used, NSphG=   27.
                        Lebedev-Laikov grids with approx.  5.0 points / Ang**2.
                        Smoothing algorithm: Karplus/York (Gamma=1.0000).
                        Polarization charges: spherical gaussians, with
                                              point-specific exponents (IZeta= 3).
                        Self-potential: point-specific (ISelfS= 7).
                        Self-field    : sphere-specific E.n sum rule (ISelfD= 2).
 Solvent              : Chloroform, Eps=   4.711300 Eps(inf)=   2.090627
 ------------------------------------------------------------------------------
 ------------------------------------------------------------------------------
 Atomic radii for non-electrostatic terms: SMD-CDS.
 ------------------------------------------------------------------------------
 Nuclear repulsion after PCM non-electrostatic terms =      783.1175058594 Hartrees.
 One-electron integrals computed using PRISM.
 NBasis=   265 RedAO= T  NBF=   265
 NBsUse=   265 1.00D-06 NBFU=   265
 Harris functional with IExCor=  908 diagonalized for initial guess.
 ExpMin= 1.61D-01 ExpMax= 5.48D+03 ExpMxC= 8.25D+02 IAcc=1 IRadAn=         1 AccDes= 0.00D+00
 HarFok:  IExCor=  908 AccDes= 0.00D+00 IRadAn=         1 IDoV= 1
 ScaDFX=  1.000000  1.000000  1.000000  1.000000
 FoFCou: FMM=F IPFlag=           0 FMFlag=      100000 FMFlg1=           0
         NFxFlg=           0 DoJE=T BraDBF=F KetDBF=T FulRan=T
         Omega=  0.000000  0.000000  1.000000  0.000000  0.000000 ICntrl=     500 IOpCl=  0
         NMat0=    1 NMatS0=    1 NMatT0=    0 NMatD0=    1 NMtDS0=    0 NMtDT0=    0
         I1Cent=           4 NGrid=           0.
 Petite list used in FoFCou.
 Initial guess orbital symmetries:
       Occupied  (A) (A) (A) (A) (A) (A) (A) (A) (A) (A) (A) (A)
                 (A) (A) (A) (A) (A) (A) (A) (A) (A) (A) (A) (A)
                 (A) (A) (A) (A) (A) (A) (A) (A) (A) (A) (A) (A)
                 (A) (A) (A) (A) (A) (A) (A) (A) (A) (A) (A) (A)
       Virtual   (A) (A) (A) (A) (A) (A) (A) (A) (A) (A) (A) (A)
                 (A) (A) (A) (A) (A) (A) (A) (A) (A) (A) (A) (A)
                 (A) (A) (A) (A) (A) (A) (A) (A) (A) (A) (A) (A)
                 (A) (A) (A) (A) (A) (A) (A) (A) (A) (A) (A) (A)
                 (A) (A) (A) (A) (A) (A) (A) (A) (A) (A) (A) (A)
                 (A) (A) (A) (A) (A) (A) (A) (A) (A) (A) (A) (A)
                 (A) (A) (A) (A) (A) (A) (A) (A) (A) (A) (A) (A)
                 (A) (A) (A) (A) (A) (A) (A) (A) (A) (A) (A) (A)
                 (A) (A) (A) (A) (A) (A) (A) (A) (A) (A) (A) (A)
                 (A) (A) (A) (A) (A) (A) (A) (A) (A) (A) (A) (A)
                 (A) (A) (A) (A) (A) (A) (A) (A) (A) (A) (A) (A)
                 (A) (A) (A) (A) (A) (A) (A) (A) (A) (A) (A) (A)
                 (A) (A) (A) (A) (A) (A) (A) (A) (A) (A) (A) (A)
                 (A) (A) (A) (A) (A) (A) (A) (A) (A) (A) (A) (A)
                 (A) (A) (A) (A) (A) (A) (A) (A) (A) (A) (A) (A)
                 (A) (A) (A) (A) (A) (A) (A) (A) (A) (A) (A) (A)
                 (A) (A) (A) (A) (A) (A) (A) (A) (A) (A) (A) (A)
                 (A) (A) (A) (A) (A) (A) (A) (A) (A) (A) (A) (A)
                 (A)
 The electronic state of the initial guess is 1-A.
 Requested convergence on RMS density matrix=1.00D-08 within 128 cycles.
 Requested convergence on MAX density matrix=1.00D-06.
 Requested convergence on             energy=1.00D-06.
 No special actions if energy rises.
 Error on total polarization charges =  0.02860
 SCF Done:  E(RmPW1PW91) =  -577.947656492     A.U. after   12 cycles
             Convg  =    0.6741D-08             -V/T =  2.0094
 SMD-CDS (non-electrostatic) energy       (kcal/mol) =      -4.08
 (included in total energy above)
 Range of M.O.s used for correlation:     1   265
 NBasis=   265 NAE=    48 NBE=    48 NFC=     0 NFV=     0
 NROrb=    265 NOA=    48 NOB=    48 NVA=   217 NVB=   217
 NEqPCM:  Using equilibrium solvation (IEInf=0, Eps=   4.7113, EpsInf=   2.0906)
          Differentiating once with respect to magnetic field using GIAOs.
          Electric field/nuclear overlap derivatives assumed to be zero.
 FoFCou: FMM=F IPFlag=           0 FMFlag=    10101102 FMFlg1=           0
         NFxFlg=    40000000 DoJE=F BraDBF=F KetDBF=T FulRan=T
         Omega=  0.000000  0.000000  1.000000  0.000000  0.000000 ICntrl=    6100 IOpCl=  0
         NMat0=    1 NMatS0=    1 NMatT0=    0 NMatD0=    1 NMtDS0=    0 NMtDT0=    0
         I1Cent=           7 NGrid=        2005.
 Symmetry not used in FoFCou.
          There are     3 degrees of freedom in the 1st order CPHF.  IDoFFX=0.
      3 vectors produced by pass  0 Test12= 3.47D-13 3.33D-08 XBig12= 2.70D+01 1.30D+00.
 AX will form     3 AO Fock derivatives at one time.
      3 vectors produced by pass  1 Test12= 3.47D-13 3.33D-08 XBig12= 1.11D-01 2.14D-01.
      3 vectors produced by pass  2 Test12= 3.47D-13 3.33D-08 XBig12= 7.60D-04 8.73D-03.
      3 vectors produced by pass  3 Test12= 3.47D-13 3.33D-08 XBig12= 2.93D-06 3.60D-04.
      3 vectors produced by pass  4 Test12= 3.47D-13 3.33D-08 XBig12= 1.28D-08 1.63D-05.
      3 vectors produced by pass  5 Test12= 3.47D-13 3.33D-08 XBig12= 2.05D-11 1.22D-06.
      2 vectors produced by pass  6 Test12= 3.47D-13 3.33D-08 XBig12= 6.69D-14 9.86D-08.
 Inverted reduced A of dimension    20 with in-core refinement.
 Calculating GIAO nuclear magnetic shielding tensors.
 SCF GIAO Magnetic shielding tensor (ppm):
      1  C    Isotropic =   125.1955   Anisotropy =    52.6614
   XX=   114.8931   YX=    13.1255   ZX=     6.5966
   XY=     9.2562   YY=   124.9931   ZY=    26.9813
   XZ=     3.6380   YZ=    26.4287   ZZ=   135.7004
   Eigenvalues:   100.6822   114.6013   160.3031
      2  H    Isotropic =    27.7757   Anisotropy =     5.3681
   XX=    27.5608   YX=    -1.5734   ZX=     1.3366
   XY=    -2.5089   YY=    29.9189   ZY=    -1.5131
   XZ=     0.8629   YZ=     0.0509   ZZ=    25.8473
   Eigenvalues:    25.2907    26.6819    31.3544
      3  C    Isotropic =   148.7039   Anisotropy =    19.6782
   XX=   160.0470   YX=     0.1743   ZX=     1.4247
   XY=   -13.6929   YY=   133.5877   ZY=     3.1323
   XZ=     3.9334   YZ=     9.9755   ZZ=   152.4769
   Eigenvalues:   129.7977   154.4913   161.8227
      4  H    Isotropic =    27.9576   Anisotropy =     6.0985
   XX=    29.4342   YX=     1.6090   ZX=    -1.0124
   XY=     3.0598   YY=    25.9137   ZY=    -2.4298
   XZ=    -0.3706   YZ=    -3.6090   ZZ=    28.5248
   Eigenvalues:    23.4779    28.3716    32.0232
      5  C    Isotropic =   -11.3316   Anisotropy =   172.4323
   XX=   -81.5902   YX=     0.3152   ZX=    -2.4252
   XY=    -4.1378   YY=   -55.1671   ZY=     0.3304
   XZ=    -7.2961   YZ=   -22.0087   ZZ=   102.7626
   Eigenvalues:   -81.9030   -55.7150   103.6233
      6  O    Isotropic =  -231.6127   Anisotropy =   895.4310
   XX=  -354.3050   YX=  -157.7041   ZX=   -24.3483
   XY=  -137.5041   YY=  -700.6532   ZY=   -13.6649
   XZ=   -55.9516   YZ=  -113.9376   ZZ=   360.1202
   Eigenvalues:  -759.8811  -300.2982   365.3413
      7  O    Isotropic =   278.5713   Anisotropy =    21.3372
   XX=   271.0755   YX=   -11.0841   ZX=    -4.6950
   XY=    -1.0267   YY=   273.6554   ZY=     4.8296
   XZ=    -7.8022   YZ=    -7.2710   ZZ=   290.9829
   Eigenvalues:   264.9286   277.9891   292.7961
      8  H    Isotropic =    28.4035   Anisotropy =    16.0793
   XX=    26.4208   YX=    -6.6859   ZX=     3.3003
   XY=    -6.8499   YY=    35.4310   ZY=     0.6639
   XZ=     5.7976   YZ=     1.9782   ZZ=    23.3586
   Eigenvalues:    18.4129    27.6745    39.1230
      9  C    Isotropic =   179.7443   Anisotropy =    18.1102
   XX=   181.5685   YX=     0.0873   ZX=    -0.2097
   XY=     3.6744   YY=   179.2776   ZY=    10.6220
   XZ=    -3.1702   YZ=    15.3274   ZZ=   178.3868
   Eigenvalues:   165.4551   181.9602   191.8178
     10  H    Isotropic =    30.3105   Anisotropy =     8.5538
   XX=    34.3849   YX=     3.3477   ZX=    -0.5083
   XY=     3.0694   YY=    29.6779   ZY=     1.2882
   XZ=    -1.7987   YZ=     3.8939   ZZ=    26.8688
   Eigenvalues:    24.5656    30.3529    36.0131
     11  H    Isotropic =    30.7210   Anisotropy =     7.1007
   XX=    28.4575   YX=     1.2559   ZX=     0.2827
   XY=     0.8259   YY=    28.5677   ZY=    -1.2511
   XZ=    -1.5208   YZ=    -1.2221   ZZ=    35.1378
   Eigenvalues:    27.4466    29.2615    35.4548
     12  H    Isotropic =    30.6393   Anisotropy =     9.6987
   XX=    30.6286   YX=    -3.2789   ZX=    -0.4191
   XY=    -3.2616   YY=    34.1202   ZY=     2.2922
   XZ=    -1.9365   YZ=     3.7199   ZZ=    27.1693
   Eigenvalues:    26.0492    28.7637    37.1052
     13  C    Isotropic =    62.7692   Anisotropy =   157.7226
   XX=   -11.8274   YX=   -15.5573   ZX=    -7.6005
   XY=   -12.8251   YY=    63.0946   ZY=    44.9829
   XZ=   -15.2210   YZ=    65.0532   ZZ=   137.0403
   Eigenvalues:   -14.4408    34.8307   167.9176
     14  C    Isotropic =    66.1057   Anisotropy =   181.9664
   XX=   -33.2158   YX=   -12.7553   ZX=   -10.6657
   XY=   -12.9785   YY=    70.7208   ZY=    54.6430
   XZ=    -7.3282   YZ=    54.6187   ZZ=   160.8122
   Eigenvalues:   -34.8171    45.7176   187.4166
     15  C    Isotropic =    69.3149   Anisotropy =   180.0319
   XX=    41.2213   YX=   -28.8940   ZX=     2.5715
   XY=   -21.8653   YY=    17.3907   ZY=    80.7775
   XZ=    -9.2277   YZ=    81.6902   ZZ=   149.3327
   Eigenvalues:   -28.0377    46.6462   189.3362
     16  C    Isotropic =    70.3986   Anisotropy =   174.3005
   XX=    26.9478   YX=    26.8256   ZX=   -26.7168
   XY=    13.9352   YY=    37.4387   ZY=    77.6405
   XZ=   -21.0663   YZ=    74.1647   ZZ=   146.8093
   Eigenvalues:   -19.7475    44.3444   186.5989
     17  C    Isotropic =    70.3297   Anisotropy =   174.0663
   XX=    39.2869   YX=   -32.0123   ZX=     3.5735
   XY=   -32.0941   YY=    21.7182   ZY=    77.8529
   XZ=     6.0728   YZ=    75.4138   ZZ=   149.9841
   Eigenvalues:   -28.4283    53.0436   186.3740
     18  C    Isotropic =    69.5042   Anisotropy =   175.4072
   XX=    27.2108   YX=    29.2517   ZX=   -25.7988
   XY=    29.0992   YY=    33.9383   ZY=    74.7567
   XZ=   -26.7660   YZ=    77.8766   ZZ=   147.3634
   Eigenvalues:   -29.8081    51.8783   186.4423
     19  H    Isotropic =    23.3088   Anisotropy =     7.2120
   XX=    27.2518   YX=    -1.2885   ZX=     1.2083
   XY=    -1.3812   YY=    22.9986   ZY=    -1.2068
   XZ=     2.1393   YZ=    -1.6049   ZZ=    19.6761
   Eigenvalues:    18.9963    22.8132    28.1168
     20  H    Isotropic =    23.4053   Anisotropy =     8.5637
   XX=    27.9046   YX=     2.5705   ZX=    -1.8792
   XY=     1.5977   YY=    21.9415   ZY=    -1.1998
   XZ=    -1.7644   YZ=    -1.7975   ZZ=    20.3697
   Eigenvalues:    19.4268    21.6746    29.1144
     21  H    Isotropic =    23.7701   Anisotropy =     5.0483
   XX=    26.9449   YX=    -0.4945   ZX=     0.5268
   XY=    -0.6895   YY=    23.2652   ZY=    -1.4814
   XZ=     0.4154   YZ=    -1.8895   ZZ=    21.1002
   Eigenvalues:    20.1770    23.9976    27.1356
     22  H    Isotropic =    23.7097   Anisotropy =     4.8280
   XX=    26.4035   YX=     1.0927   ZX=    -0.0664
   XY=     1.0642   YY=    24.0523   ZY=    -1.6209
   XZ=    -0.4262   YZ=    -1.3944   ZZ=    20.6734
   Eigenvalues:    20.0946    24.1062    26.9284
     23  H    Isotropic =    23.6746   Anisotropy =     4.4371
   XX=    24.0487   YX=    -0.1613   ZX=     0.3046
   XY=    -0.2680   YY=    25.4179   ZY=    -2.3573
   XZ=     0.5212   YZ=    -2.4715   ZZ=    21.5570
   Eigenvalues:    20.3749    24.0161    26.6326
     24  C    Isotropic =   177.7242   Anisotropy =    26.4795
   XX=   170.9642   YX=     7.2173   ZX=    -8.2241
   XY=     7.5382   YY=   172.5716   ZY=   -10.1287
   XZ=    -7.2190   YZ=    -1.6801   ZZ=   189.6367
   Eigenvalues:   164.1783   173.6171   195.3771
     25  H    Isotropic =    30.4567   Anisotropy =     9.6733
   XX=    36.1155   YX=     2.5991   ZX=     0.1260
   XY=     2.6303   YY=    27.6700   ZY=    -0.0644
   XZ=    -1.2380   YZ=    -0.8181   ZZ=    27.5847
   Eigenvalues:    26.8229    27.6416    36.9056
     26  H    Isotropic =    30.5187   Anisotropy =     8.0920
   XX=    29.3921   YX=     1.4710   ZX=    -2.7057
   XY=     1.2853   YY=    28.2828   ZY=     2.3313
   XZ=    -3.0120   YZ=     3.6591   ZZ=    33.8811
   Eigenvalues:    25.3711    30.2716    35.9134
     27  H    Isotropic =    29.9672   Anisotropy =     7.1217
   XX=    29.6384   YX=    -1.0385   ZX=    -0.4660
   XY=    -2.0773   YY=    32.8811   ZY=    -2.7453
   XZ=    -1.8816   YZ=    -4.1635   ZZ=    27.3821
   Eigenvalues:    25.0492    30.1374    34.7150
 End of Minotr Frequency-dependent properties file   721 does not exist.
 End of Minotr Frequency-dependent properties file   722 does not exist.

 **********************************************************************

            Population analysis using the SCF density.

 **********************************************************************

 Orbital symmetries:
       Occupied  (A) (A) (A) (A) (A) (A) (A) (A) (A) (A) (A) (A)
                 (A) (A) (A) (A) (A) (A) (A) (A) (A) (A) (A) (A)
                 (A) (A) (A) (A) (A) (A) (A) (A) (A) (A) (A) (A)
                 (A) (A) (A) (A) (A) (A) (A) (A) (A) (A) (A) (A)
       Virtual   (A) (A) (A) (A) (A) (A) (A) (A) (A) (A) (A) (A)
                 (A) (A) (A) (A) (A) (A) (A) (A) (A) (A) (A) (A)
                 (A) (A) (A) (A) (A) (A) (A) (A) (A) (A) (A) (A)
                 (A) (A) (A) (A) (A) (A) (A) (A) (A) (A) (A) (A)
                 (A) (A) (A) (A) (A) (A) (A) (A) (A) (A) (A) (A)
                 (A) (A) (A) (A) (A) (A) (A) (A) (A) (A) (A) (A)
                 (A) (A) (A) (A) (A) (A) (A) (A) (A) (A) (A) (A)
                 (A) (A) (A) (A) (A) (A) (A) (A) (A) (A) (A) (A)
                 (A) (A) (A) (A) (A) (A) (A) (A) (A) (A) (A) (A)
                 (A) (A) (A) (A) (A) (A) (A) (A) (A) (A) (A) (A)
                 (A) (A) (A) (A) (A) (A) (A) (A) (A) (A) (A) (A)
                 (A) (A) (A) (A) (A) (A) (A) (A) (A) (A) (A) (A)
                 (A) (A) (A) (A) (A) (A) (A) (A) (A) (A) (A) (A)
                 (A) (A) (A) (A) (A) (A) (A) (A) (A) (A) (A) (A)
                 (A) (A) (A) (A) (A) (A) (A) (A) (A) (A) (A) (A)
                 (A) (A) (A) (A) (A) (A) (A) (A) (A) (A) (A) (A)
                 (A) (A) (A) (A) (A) (A) (A) (A) (A) (A) (A) (A)
                 (A) (A) (A) (A) (A) (A) (A) (A) (A) (A) (A) (A)
                 (A)
 The electronic state is 1-A.
 Alpha  occ. eigenvalues --  -19.23773 -19.21517 -10.34420 -10.28804 -10.26587
 Alpha  occ. eigenvalues --  -10.26320 -10.26023 -10.25983 -10.25752 -10.25657
 Alpha  occ. eigenvalues --  -10.25577 -10.23758 -10.22063  -1.07366  -1.02432
 Alpha  occ. eigenvalues --   -0.88858  -0.82408  -0.78461  -0.77383  -0.73771
 Alpha  occ. eigenvalues --   -0.67861  -0.65120  -0.63004  -0.60701  -0.56426
 Alpha  occ. eigenvalues --   -0.52497  -0.49744  -0.48835  -0.47292  -0.46181
 Alpha  occ. eigenvalues --   -0.45441  -0.44330  -0.43687  -0.42920  -0.41904
 Alpha  occ. eigenvalues --   -0.40069  -0.39072  -0.37908  -0.37281  -0.36681
 Alpha  occ. eigenvalues --   -0.36175  -0.35678  -0.34926  -0.32254  -0.27265
 Alpha  occ. eigenvalues --   -0.27047  -0.26583  -0.25904
 Alpha virt. eigenvalues --   -0.05198  -0.00479   0.03657   0.10376   0.11981
 Alpha virt. eigenvalues --    0.13660   0.14642   0.15678   0.16662   0.16991
 Alpha virt. eigenvalues --    0.17731   0.18358   0.18773   0.19453   0.20073
 Alpha virt. eigenvalues --    0.20647   0.21207   0.23387   0.24010   0.25032
 Alpha virt. eigenvalues --    0.26601   0.28287   0.28730   0.30684   0.31275
 Alpha virt. eigenvalues --    0.33378   0.34671   0.38985   0.39775   0.49748
 Alpha virt. eigenvalues --    0.51045   0.52720   0.53744   0.54884   0.55061
 Alpha virt. eigenvalues --    0.56504   0.57378   0.58811   0.59812   0.60694
 Alpha virt. eigenvalues --    0.61026   0.61117   0.61700   0.62191   0.62896
 Alpha virt. eigenvalues --    0.65740   0.66262   0.67539   0.68430   0.69205
 Alpha virt. eigenvalues --    0.72123   0.72355   0.76418   0.77588   0.78949
 Alpha virt. eigenvalues --    0.80790   0.82141   0.83144   0.83791   0.84283
 Alpha virt. eigenvalues --    0.85014   0.85259   0.85759   0.87692   0.90439
 Alpha virt. eigenvalues --    0.91048   0.91566   0.91809   0.92750   0.94482
 Alpha virt. eigenvalues --    0.95982   0.96767   0.97900   0.99847   1.01851
 Alpha virt. eigenvalues --    1.02114   1.04094   1.04728   1.06564   1.08867
 Alpha virt. eigenvalues --    1.12401   1.12949   1.13744   1.15857   1.16400
 Alpha virt. eigenvalues --    1.19997   1.24487   1.25646   1.26282   1.28619
 Alpha virt. eigenvalues --    1.32509   1.35163   1.39508   1.40369   1.40565
 Alpha virt. eigenvalues --    1.41970   1.42301   1.44933   1.45188   1.48509
 Alpha virt. eigenvalues --    1.49175   1.54607   1.57110   1.58603   1.64672
 Alpha virt. eigenvalues --    1.64747   1.67497   1.72778   1.73632   1.76079
 Alpha virt. eigenvalues --    1.77554   1.79736   1.80427   1.82936   1.85330
 Alpha virt. eigenvalues --    1.87977   1.88283   1.89605   1.91382   1.93139
 Alpha virt. eigenvalues --    1.93511   1.94893   1.97685   1.97791   1.98678
 Alpha virt. eigenvalues --    2.00415   2.02575   2.02907   2.03727   2.06936
 Alpha virt. eigenvalues --    2.07554   2.07599   2.09477   2.10310   2.12639
 Alpha virt. eigenvalues --    2.13187   2.14630   2.15889   2.18065   2.23529
 Alpha virt. eigenvalues --    2.24274   2.27639   2.29629   2.30544   2.31479
 Alpha virt. eigenvalues --    2.33375   2.36475   2.37591   2.39060   2.39918
 Alpha virt. eigenvalues --    2.41149   2.42353   2.43046   2.44601   2.46308
 Alpha virt. eigenvalues --    2.47801   2.49707   2.50588   2.51496   2.53482
 Alpha virt. eigenvalues --    2.55282   2.57978   2.59004   2.60345   2.62912
 Alpha virt. eigenvalues --    2.64197   2.65955   2.68998   2.69390   2.71666
 Alpha virt. eigenvalues --    2.73544   2.74323   2.75071   2.77123   2.80638
 Alpha virt. eigenvalues --    2.82697   2.83263   2.85283   2.87930   2.89591
 Alpha virt. eigenvalues --    2.91930   2.93844   2.97635   3.00112   3.05132
 Alpha virt. eigenvalues --    3.06675   3.08781   3.11522   3.21089   3.23372
 Alpha virt. eigenvalues --    3.25167   3.25961   3.27307   3.37672   3.38740
 Alpha virt. eigenvalues --    3.42711   3.45181   3.47817   3.49832   3.51766
 Alpha virt. eigenvalues --    3.52665   3.53087   3.59453   3.91305   3.97913
 Alpha virt. eigenvalues --    4.09559   4.15842   4.18564   4.20612   4.34415
 Alpha virt. eigenvalues --    4.45367   4.47073   4.53122   4.55511   4.69884
 Alpha virt. eigenvalues --    4.77246   4.86906
          Condensed to atoms (all electrons):
              1          2          3          4          5          6
     1  C    4.765149   0.405861   0.311231  -0.036684  -0.027142   0.009111
     2  H    0.405861   0.587909  -0.046267  -0.006276   0.004821   0.000040
     3  C    0.311231  -0.046267   5.360136   0.379585   0.301420  -0.082863
     4  H   -0.036684  -0.006276   0.379585   0.545190  -0.033395   0.001489
     5  C   -0.027142   0.004821   0.301420  -0.033395   4.619422   0.504395
     6  O    0.009111   0.000040  -0.082863   0.001489   0.504395   8.137599
     7  O    0.240926  -0.037474  -0.050689   0.003489   0.003074  -0.013845
     8  H   -0.031646   0.006091  -0.011656  -0.000717   0.004201   0.026344
     9  C   -0.041273  -0.002728   0.304980  -0.030351  -0.041131   0.000052
    10  H    0.003912  -0.000198  -0.025568  -0.005636  -0.004722   0.000005
    11  H   -0.005844  -0.000037  -0.033918   0.004684  -0.004432   0.000691
    12  H   -0.002629   0.004138  -0.035042  -0.003437   0.003734  -0.000073
    13  C    0.005519  -0.000110  -0.104145  -0.003037   0.331843  -0.086039
    14  C    0.000000   0.000000  -0.000016  -0.000002   0.000215  -0.000008
    15  C   -0.000133   0.000001   0.007832  -0.000062  -0.035929   0.002642
    16  C    0.000111   0.000000  -0.001969   0.000841  -0.043677   0.002423
    17  C   -0.000002   0.000000  -0.000047   0.000235   0.004715  -0.000077
    18  C    0.000001   0.000000  -0.000087   0.000001   0.005435   0.000744
    19  H   -0.000009   0.000000   0.000597  -0.000012  -0.007102   0.010961
    20  H   -0.000032   0.000008   0.003703   0.001497  -0.007516   0.000048
    21  H    0.000000   0.000000   0.000012  -0.000003  -0.000133   0.000000
    22  H    0.000000   0.000000   0.000002   0.000000  -0.000135   0.000002
    23  H    0.000000   0.000000   0.000000   0.000000   0.000006   0.000000
    24  C    0.354509  -0.053664  -0.059075   0.005691  -0.008013  -0.007183
    25  H   -0.029509  -0.005442   0.005618  -0.000110  -0.000081   0.000244
    26  H   -0.025008  -0.001203  -0.000807  -0.000145   0.000144   0.000178
    27  H   -0.029725   0.004813  -0.007577   0.000030   0.003058   0.008371
              7          8          9         10         11         12
     1  C    0.240926  -0.031646  -0.041273   0.003912  -0.005844  -0.002629
     2  H   -0.037474   0.006091  -0.002728  -0.000198  -0.000037   0.004138
     3  C   -0.050689  -0.011656   0.304980  -0.025568  -0.033918  -0.035042
     4  H    0.003489  -0.000717  -0.030351  -0.005636   0.004684  -0.003437
     5  C    0.003074   0.004201  -0.041131  -0.004722  -0.004432   0.003734
     6  O   -0.013845   0.026344   0.000052   0.000005   0.000691  -0.000073
     7  O    8.219416   0.289826   0.003204  -0.000063  -0.000021   0.000065
     8  H    0.289826   0.378610   0.000034   0.000000   0.000014  -0.000001
     9  C    0.003204   0.000034   5.068288   0.378008   0.389808   0.389787
    10  H   -0.000063   0.000000   0.378008   0.554361  -0.028963  -0.026325
    11  H   -0.000021   0.000014   0.389808  -0.028963   0.547323  -0.027598
    12  H    0.000065  -0.000001   0.389787  -0.026325  -0.027598   0.543180
    13  C   -0.000004   0.000675   0.000771   0.003557  -0.000137  -0.000050
    14  C    0.000000   0.000000   0.000002   0.000009  -0.000001   0.000000
    15  C    0.000007  -0.000016  -0.000306  -0.000125   0.000005   0.000015
    16  C   -0.000007  -0.000024  -0.004411   0.003569   0.000066   0.000087
    17  C    0.000000   0.000000  -0.000174  -0.000032   0.000014  -0.000001
    18  C    0.000000   0.000000  -0.000003  -0.000028   0.000000   0.000000
    19  H    0.000002  -0.000008  -0.000034  -0.000001  -0.000015   0.000001
    20  H   -0.000007   0.000000  -0.000912   0.000536  -0.000019   0.000076
    21  H    0.000000   0.000000  -0.000003  -0.000002   0.000000   0.000000
    22  H    0.000000   0.000000   0.000000   0.000000   0.000000   0.000000
    23  H    0.000000   0.000000   0.000000   0.000000   0.000000   0.000000
    24  C   -0.053742  -0.005826   0.001393   0.000090   0.002196  -0.001582
    25  H    0.001595  -0.000153  -0.000072   0.000000  -0.000021  -0.000065
    26  H    0.003779  -0.000011  -0.000135   0.000081   0.000636   0.000521
    27  H   -0.002297   0.003812  -0.000413  -0.000031   0.000492   0.000094
             13         14         15         16         17         18
     1  C    0.005519   0.000000  -0.000133   0.000111  -0.000002   0.000001
     2  H   -0.000110   0.000000   0.000001   0.000000   0.000000   0.000000
     3  C   -0.104145  -0.000016   0.007832  -0.001969  -0.000047  -0.000087
     4  H   -0.003037  -0.000002  -0.000062   0.000841   0.000235   0.000001
     5  C    0.331843   0.000215  -0.035929  -0.043677   0.004715   0.005435
     6  O   -0.086039  -0.000008   0.002642   0.002423  -0.000077   0.000744
     7  O   -0.000004   0.000000   0.000007  -0.000007   0.000000   0.000000
     8  H    0.000675   0.000000  -0.000016  -0.000024   0.000000   0.000000
     9  C    0.000771   0.000002  -0.000306  -0.004411  -0.000174  -0.000003
    10  H    0.003557   0.000009  -0.000125   0.003569  -0.000032  -0.000028
    11  H   -0.000137  -0.000001   0.000005   0.000066   0.000014   0.000000
    12  H   -0.000050   0.000000   0.000015   0.000087  -0.000001   0.000000
    13  C    4.994733  -0.031083   0.505130   0.528497  -0.030473  -0.035931
    14  C   -0.031083   4.861300  -0.047242  -0.049131   0.543888   0.536972
    15  C    0.505130  -0.047242   4.930097  -0.058022  -0.039442   0.514810
    16  C    0.528497  -0.049131  -0.058022   4.928815   0.522816  -0.038224
    17  C   -0.030473   0.543888  -0.039442   0.522816   4.886984  -0.040461
    18  C   -0.035931   0.536972   0.514810  -0.038224  -0.040461   4.898770
    19  H   -0.044752   0.004114   0.381460   0.004483   0.000155  -0.035109
    20  H   -0.037811   0.004020   0.004293   0.380408  -0.034977   0.000223
    21  H    0.003074  -0.036687   0.000692  -0.033030   0.380678   0.003815
    22  H    0.003183  -0.037107  -0.033555   0.000620   0.003875   0.381574
    23  H    0.000478   0.382064   0.003957   0.004205  -0.036576  -0.036727
    24  C   -0.000172   0.000000   0.000005  -0.000004   0.000000   0.000000
    25  H    0.000003   0.000000   0.000000   0.000000   0.000000   0.000000
    26  H    0.000002   0.000000   0.000000   0.000000   0.000000   0.000000
    27  H   -0.000003   0.000000   0.000003  -0.000004   0.000000   0.000000
             19         20         21         22         23         24
     1  C   -0.000009  -0.000032   0.000000   0.000000   0.000000   0.354509
     2  H    0.000000   0.000008   0.000000   0.000000   0.000000  -0.053664
     3  C    0.000597   0.003703   0.000012   0.000002   0.000000  -0.059075
     4  H   -0.000012   0.001497  -0.000003   0.000000   0.000000   0.005691
     5  C   -0.007102  -0.007516  -0.000133  -0.000135   0.000006  -0.008013
     6  O    0.010961   0.000048   0.000000   0.000002   0.000000  -0.007183
     7  O    0.000002  -0.000007   0.000000   0.000000   0.000000  -0.053742
     8  H   -0.000008   0.000000   0.000000   0.000000   0.000000  -0.005826
     9  C   -0.000034  -0.000912  -0.000003   0.000000   0.000000   0.001393
    10  H   -0.000001   0.000536  -0.000002   0.000000   0.000000   0.000090
    11  H   -0.000015  -0.000019   0.000000   0.000000   0.000000   0.002196
    12  H    0.000001   0.000076   0.000000   0.000000   0.000000  -0.001582
    13  C   -0.044752  -0.037811   0.003074   0.003183   0.000478  -0.000172
    14  C    0.004114   0.004020  -0.036687  -0.037107   0.382064   0.000000
    15  C    0.381460   0.004293   0.000692  -0.033555   0.003957   0.000005
    16  C    0.004483   0.380408  -0.033030   0.000620   0.004205  -0.000004
    17  C    0.000155  -0.034977   0.380678   0.003875  -0.036576   0.000000
    18  C   -0.035109   0.000223   0.003815   0.381574  -0.036727   0.000000
    19  H    0.524832  -0.000113   0.000014  -0.004240  -0.000138   0.000000
    20  H   -0.000113   0.523717  -0.004264   0.000013  -0.000143  -0.000002
    21  H    0.000014  -0.004264   0.529514  -0.000144  -0.004481   0.000000
    22  H   -0.004240   0.000013  -0.000144   0.529060  -0.004448   0.000000
    23  H   -0.000138  -0.000143  -0.004481  -0.004448   0.530375   0.000000
    24  C    0.000000  -0.000002   0.000000   0.000000   0.000000   5.126377
    25  H    0.000000   0.000000   0.000000   0.000000   0.000000   0.380168
    26  H    0.000000   0.000000   0.000000   0.000000   0.000000   0.359523
    27  H    0.000001   0.000000   0.000000   0.000000   0.000000   0.383038
             25         26         27
     1  C   -0.029509  -0.025008  -0.029725
     2  H   -0.005442  -0.001203   0.004813
     3  C    0.005618  -0.000807  -0.007577
     4  H   -0.000110  -0.000145   0.000030
     5  C   -0.000081   0.000144   0.003058
     6  O    0.000244   0.000178   0.008371
     7  O    0.001595   0.003779  -0.002297
     8  H   -0.000153  -0.000011   0.003812
     9  C   -0.000072  -0.000135  -0.000413
    10  H    0.000000   0.000081  -0.000031
    11  H   -0.000021   0.000636   0.000492
    12  H   -0.000065   0.000521   0.000094
    13  C    0.000003   0.000002  -0.000003
    14  C    0.000000   0.000000   0.000000
    15  C    0.000000   0.000000   0.000003
    16  C    0.000000   0.000000  -0.000004
    17  C    0.000000   0.000000   0.000000
    18  C    0.000000   0.000000   0.000000
    19  H    0.000000   0.000000   0.000001
    20  H    0.000000   0.000000   0.000000
    21  H    0.000000   0.000000   0.000000
    22  H    0.000000   0.000000   0.000000
    23  H    0.000000   0.000000   0.000000
    24  C    0.380168   0.359523   0.383038
    25  H    0.561015  -0.025170  -0.030126
    26  H   -0.025170   0.579366  -0.025864
    27  H   -0.030126  -0.025864   0.547237
 Mulliken atomic charges:
              1
     1  C    0.133307
     2  H    0.139715
     3  C   -0.215389
     4  H    0.177134
     5  C    0.426924
     6  O   -0.515252
     7  O   -0.607233
     8  H    0.340452
     9  C   -0.414383
    10  H    0.147566
    11  H    0.155077
    12  H    0.155106
    13  C   -0.003717
    14  C   -0.131306
    15  C   -0.136118
    16  C   -0.148435
    17  C   -0.161099
    18  C   -0.155777
    19  H    0.164912
    20  H    0.167254
    21  H    0.160948
    22  H    0.161301
    23  H    0.161429
    24  C   -0.423726
    25  H    0.142105
    26  H    0.134113
    27  H    0.145091
 Sum of Mulliken atomic charges =   0.00000
 Mulliken charges with hydrogens summed into heavy atoms:
              1
     1  C    0.273023
     3  C   -0.038255
     5  C    0.426924
     6  O   -0.515252
     7  O   -0.266781
     9  C    0.043366
    13  C   -0.003717
    14  C    0.030123
    15  C    0.028794
    16  C    0.018820
    17  C   -0.000150
    18  C    0.005524
    24  C   -0.002417
 Sum of Mulliken charges with hydrogens summed into heavy atoms =   0.00000
 Electronic spatial extent (au):  <R**2>=           2859.6523
 Charge=              0.0000 electrons
 Dipole moment (field-independent basis, Debye):
    X=              3.3886    Y=              2.8084    Z=              1.7781  Tot=              4.7467
 Quadrupole moment (field-independent basis, Debye-Ang):
   XX=            -72.3262   YY=            -72.8828   ZZ=            -80.4592
   XY=             -3.0567   XZ=             -5.8226   YZ=             -3.5141
 Traceless Quadrupole moment (field-independent basis, Debye-Ang):
   XX=              2.8965   YY=              2.3399   ZZ=             -5.2365
   XY=             -3.0567   XZ=             -5.8226   YZ=             -3.5141
 Octapole moment (field-independent basis, Debye-Ang**2):
  XXX=             57.4977  YYY=              0.1619  ZZZ=              1.6145  XYY=              0.1270
  XXY=              5.3114  XXZ=             21.1407  XZZ=              0.9562  YZZ=             -1.6581
  YYZ=             -4.3144  XYZ=             -9.7555
 Hexadecapole moment (field-independent basis, Debye-Ang**3):
 XXXX=          -2680.1663 YYYY=           -545.9295 ZZZZ=           -340.4854 XXXY=             -9.0881
 XXXZ=            -39.5769 YYYX=              4.9534 YYYZ=            -11.0629 ZZZX=             -6.0216
 ZZZY=              2.0982 XXYY=           -523.6078 XXZZ=           -593.4908 YYZZ=           -137.5071
 XXYZ=            -32.9005 YYXZ=             11.7759 ZZXY=              0.9265
 N-N= 7.831175058594D+02 E-N=-2.910603869917D+03  KE= 5.725856992093D+02
 1\1\GINC-COMPUTE-8-4\SP\RmPW1PW91\6-31G(d,p)\C11H14O2\FBRUNO.IQUIR\21-
 Dec-2021\0\\# mPW1PW91/6-31g** scrf=(pcm,solvent=chloroform,smd,dovacu
 um) nmr\\comment\\0,1\C,0,0.515829175,1.873765051,1.877900942\H,0,0.86
 8022174,1.714200913,2.904443589\C,0,0.396515285,0.488788536,1.19916851
 3\H,0,1.374787733,0.008462071,1.326466727\C,0,0.159948811,0.604644805,
 -0.311105606\O,0,-0.014271137,1.69216456,-0.863341038\O,0,1.52945384,2
 .648816796,1.235631695\H,0,1.199311813,2.835595226,0.331033027\C,0,-0.
 685662977,-0.362274408,1.863904629\H,0,-0.6248327,-1.408627599,1.55016
 8287\H,0,-1.689424617,-0.009478908,1.603518728\H,0,-0.583774646,-0.345
 246102,2.954093867\C,0,0.163012982,-0.622877304,-1.161891077\C,0,0.118
 354973,-2.864845498,-2.839135944\C,0,-0.54254696,-0.589359492,-2.37267
 4907\C,0,0.861627424,-1.782205374,-0.805913008\C,0,0.834257489,-2.9010
 40271,-1.643180248\C,0,-0.567634232,-1.708845172,-3.2061517\H,0,-1.076
 277523,0.310873037,-2.672227053\H,0,1.445740885,-1.837831219,0.1074252
 73\H,0,1.378548368,-3.8008926,-1.365786333\H,0,-1.118592406,-1.6756713
 38,-4.142916686\H,0,0.101761207,-3.735860527,-3.490007416\C,0,-0.76772
 8813,2.695780619,1.961657302\H,0,-0.561076658,3.664040273,2.431534379\
 H,0,-1.535294297,2.189926477,2.553914567\H,0,-1.180055193,2.917997448,
 0.973469493\\Version=EM64L-G09RevC.01\State=1-A\HF=-577.9476565\RMSD=6
 .741e-09\Dipole=-0.5254826,-1.7917879,-0.0311306\Quadrupole=-2.9930648
 ,-1.3636214,4.3566862,-5.1320905,-0.1133478,0.9436255\PG=C01 [X(C11H14
 O2)]\\@


 PICNIC:  A SNACK IN THE GRASS.
 Job cpu time:  0 days  0 hours 12 minutes 47.0 seconds.
 File lengths (MBytes):  RWF=     80 Int=      0 D2E=      0 Chk=      5 Scr=      1
 Normal termination of Gaussian 09 at Tue Dec 21 07:46:54 2021.
