 Entering Gaussian System, Link 0=g09
 Input=/home/fbruno.iquir/2_val_run/2b_006_MPW_A_SMD.gjc
 Output=/home/fbruno.iquir/2_val_run/2b_006_MPW_A_SMD.log
 Initial command:
 /share/apps/Gaussian09/EM64T.SSE4.2-enabled/g09/l1.exe /tmp/Gau-34016.inp -scrdir=/tmp/
 Entering Link 1 = /share/apps/Gaussian09/EM64T.SSE4.2-enabled/g09/l1.exe PID=     34017.
  
 Copyright (c) 1988,1990,1992,1993,1995,1998,2003,2009,2011,
            Gaussian, Inc.  All Rights Reserved.
  
 This is part of the Gaussian(R) 09 program.  It is based on
 the Gaussian(R) 03 system (copyright 2003, Gaussian, Inc.),
 the Gaussian(R) 98 system (copyright 1998, Gaussian, Inc.),
 the Gaussian(R) 94 system (copyright 1995, Gaussian, Inc.),
 the Gaussian 92(TM) system (copyright 1992, Gaussian, Inc.),
 the Gaussian 90(TM) system (copyright 1990, Gaussian, Inc.),
 the Gaussian 88(TM) system (copyright 1988, Gaussian, Inc.),
 the Gaussian 86(TM) system (copyright 1986, Carnegie Mellon
 University), and the Gaussian 82(TM) system (copyright 1983,
 Carnegie Mellon University). Gaussian is a federally registered
 trademark of Gaussian, Inc.
  
 This software contains proprietary and confidential information,
 including trade secrets, belonging to Gaussian, Inc.
  
 This software is provided under written license and may be
 used, copied, transmitted, or stored only in accord with that
 written license.
  
 The following legend is applicable only to US Government
 contracts under FAR:
  
                    RESTRICTED RIGHTS LEGEND
  
 Use, reproduction and disclosure by the US Government is
 subject to restrictions as set forth in subparagraphs (a)
 and (c) of the Commercial Computer Software - Restricted
 Rights clause in FAR 52.227-19.
  
 Gaussian, Inc.
 340 Quinnipiac St., Bldg. 40, Wallingford CT 06492
  
  
 ---------------------------------------------------------------
 Warning -- This program may not be used in any manner that
 competes with the business of Gaussian, Inc. or will provide
 assistance to any competitor of Gaussian, Inc.  The licensee
 of this program is prohibited from giving any competitor of
 Gaussian, Inc. access to this program.  By using this program,
 the user acknowledges that Gaussian, Inc. is engaged in the
 business of creating and licensing software in the field of
 computational chemistry and represents and warrants to the
 licensee that it is not a competitor of Gaussian, Inc. and that
 it will not use this program in any manner prohibited above.
 ---------------------------------------------------------------
  

 Cite this work as:
 Gaussian 09, Revision C.01,
 M. J. Frisch, G. W. Trucks, H. B. Schlegel, G. E. Scuseria, 
 M. A. Robb, J. R. Cheeseman, G. Scalmani, V. Barone, B. Mennucci, 
 G. A. Petersson, H. Nakatsuji, M. Caricato, X. Li, H. P. Hratchian, 
 A. F. Izmaylov, J. Bloino, G. Zheng, J. L. Sonnenberg, M. Hada, 
 M. Ehara, K. Toyota, R. Fukuda, J. Hasegawa, M. Ishida, T. Nakajima, 
 Y. Honda, O. Kitao, H. Nakai, T. Vreven, J. A. Montgomery, Jr., 
 J. E. Peralta, F. Ogliaro, M. Bearpark, J. J. Heyd, E. Brothers, 
 K. N. Kudin, V. N. Staroverov, T. Keith, R. Kobayashi, J. Normand, 
 K. Raghavachari, A. Rendell, J. C. Burant, S. S. Iyengar, J. Tomasi, 
 M. Cossi, N. Rega, J. M. Millam, M. Klene, J. E. Knox, J. B. Cross, 
 V. Bakken, C. Adamo, J. Jaramillo, R. Gomperts, R. E. Stratmann, 
 O. Yazyev, A. J. Austin, R. Cammi, C. Pomelli, J. W. Ochterski, 
 R. L. Martin, K. Morokuma, V. G. Zakrzewski, G. A. Voth, 
 P. Salvador, J. J. Dannenberg, S. Dapprich, A. D. Daniels, 
 O. Farkas, J. B. Foresman, J. V. Ortiz, J. Cioslowski, 
 and D. J. Fox, Gaussian, Inc., Wallingford CT, 2010.
 
 ******************************************
 Gaussian 09:  EM64L-G09RevC.01 23-Sep-2011
                21-Dec-2021 
 ******************************************
 %nprocshared=4
 Will use up to    4 processors via shared memory.
 -----------------------------------------------------------------
 # mPW1PW91/6-31g** scrf=(pcm,solvent=chloroform,smd,dovacuum) nmr
 -----------------------------------------------------------------
 1/38=1/1;
 2/12=2,17=6,18=5,40=1/2;
 3/5=1,6=6,7=101,11=2,16=1,25=1,30=1,70=32101,72=7,74=-7/1,2,8,3;
 4//1;
 5/5=2,38=5,53=7/2;
 8/6=1,10=90,11=11/1;
 10/13=100,45=16/2;
 6/7=2,8=2,9=2,10=2,28=1/1;
 99/9=1/99;
 -------
 comment
 -------
 Charge =  0 Multiplicity = 1
 Symbolic Z-Matrix:
 6                    -1.20023  -0.06672   1.89356 
 1                    -1.99699  -0.81648   1.81325 
 6                    -0.96695   0.64491   0.55108 
 1                    -0.09426   1.30162   0.62158 
 6                    -0.73347  -0.41202  -0.52359 
 8                    -1.63888  -1.16116  -0.89248 
 8                     0.00137  -0.74336   2.2788 
 1                    -0.07085  -1.65975   1.95282 
 6                    -2.15339   1.50809   0.11582 
 1                    -3.09161   0.94291   0.14239 
 1                    -2.01548   1.87094  -0.90901 
 1                    -2.26377   2.38416   0.76242 
 6                     0.61187  -0.54534  -1.15504 
 6                     3.08647  -0.85336  -2.42904 
 6                     0.68277  -1.08667  -2.4461 
 6                     1.79168  -0.17628  -0.49929 
 6                     3.0251   -0.32814  -1.13886 
 6                     1.91645  -1.23585  -3.08215 
 1                    -0.22508  -1.39317  -2.96271 
 1                     1.78269   0.20834   0.51704 
 1                     3.9406   -0.04346  -0.62534 
 1                     1.96302  -1.65358  -4.08483 
 1                     4.04805  -0.9723   -2.92263 
 6                    -1.54116   0.89167   3.02899 
 1                    -1.57469   0.35462   3.98356 
 1                    -2.51053   1.37458   2.87759 
 1                    -0.7727    1.66576   3.13219 
 
                          Input orientation:                          
 ---------------------------------------------------------------------
 Center     Atomic      Atomic             Coordinates (Angstroms)
 Number     Number       Type             X           Y           Z
 ---------------------------------------------------------------------
      1          6           0       -1.200226   -0.066715    1.893556
      2          1           0       -1.996992   -0.816476    1.813246
      3          6           0       -0.966947    0.644907    0.551080
      4          1           0       -0.094262    1.301618    0.621575
      5          6           0       -0.733474   -0.412024   -0.523590
      6          8           0       -1.638882   -1.161157   -0.892478
      7          8           0        0.001375   -0.743362    2.278805
      8          1           0       -0.070853   -1.659745    1.952820
      9          6           0       -2.153390    1.508094    0.115820
     10          1           0       -3.091613    0.942910    0.142393
     11          1           0       -2.015478    1.870943   -0.909015
     12          1           0       -2.263772    2.384161    0.762416
     13          6           0        0.611868   -0.545337   -1.155035
     14          6           0        3.086472   -0.853358   -2.429044
     15          6           0        0.682773   -1.086665   -2.446102
     16          6           0        1.791675   -0.176275   -0.499285
     17          6           0        3.025097   -0.328136   -1.138861
     18          6           0        1.916447   -1.235852   -3.082151
     19          1           0       -0.225081   -1.393171   -2.962715
     20          1           0        1.782690    0.208344    0.517036
     21          1           0        3.940597   -0.043458   -0.625336
     22          1           0        1.963019   -1.653576   -4.084828
     23          1           0        4.048046   -0.972299   -2.922633
     24          6           0       -1.541161    0.891673    3.028986
     25          1           0       -1.574690    0.354621    3.983557
     26          1           0       -2.510534    1.374580    2.877593
     27          1           0       -0.772702    1.665757    3.132190
 ---------------------------------------------------------------------
                    Distance matrix (angstroms):
                    1          2          3          4          5
     1  C    0.000000
     2  H    1.097008   0.000000
     3  C    1.537228   2.188538   0.000000
     4  H    2.171043   3.086550   1.094450   0.000000
     5  C    2.485899   2.687166   1.525295   2.157908   0.000000
     6  O    3.025262   2.750998   2.407741   3.277723   1.231682
     7  O    1.431821   2.053183   2.418671   2.633913   2.916025
     8  H    1.953648   2.107272   2.842408   3.246911   2.851049
     9  C    2.559080   2.882593   1.530421   2.130359   2.472217
    10  H    2.768259   2.661839   2.184041   3.056535   2.800036
    11  H    3.503364   3.825346   2.175881   2.521490   2.646512
    12  H    2.901276   3.379274   2.179776   2.428685   3.437190
    13  C    3.578641   3.961106   2.611544   2.658234   1.492126
    14  C    6.138360   6.621178   5.249394   4.905840   4.291563
    15  C    4.839279   5.039463   3.834451   3.964634   2.481320
    16  C    3.832646   4.484603   3.063920   2.645233   2.536247
    17  C    5.207423   5.845921   4.442874   3.935179   3.809521
    18  C    5.986501   6.281385   5.005155   4.919278   3.774521
    19  H    5.127744   5.126602   4.129270   4.486216   2.677768
    20  H    3.296703   4.125095   2.784286   2.174655   2.792640
    21  H    5.724808   6.465231   5.093308   4.432167   4.689684
    22  H    6.947326   7.153301   5.946375   5.925860   4.636265
    23  H    7.180538   7.680841   6.311274   5.906845   5.378870
    24  C    1.524448   2.145595   2.555510   2.838520   3.869467
    25  H    2.164682   2.502010   3.497930   3.793599   4.648630
    26  H    2.182330   2.489435   2.885784   3.306555   4.232959
    27  H    2.172199   3.065939   2.782444   2.626036   4.205168
                    6          7          8          9         10
     6  O    0.000000
     7  O    3.594722   0.000000
     8  H    3.286796   0.975316   0.000000
     9  C    2.899359   3.793489   4.212687   0.000000
    10  H    2.758348   4.119993   4.379093   1.095629   0.000000
    11  H    3.055443   4.589606   4.943423   1.095886   1.767702
    12  H    3.962126   4.148702   4.751751   1.094424   1.773966
    13  C    2.348200   3.493304   3.371465   3.671280   4.196900
    14  C    4.978427   5.629721   5.460741   6.285613   6.928752
    15  C    2.794526   4.786116   4.499655   4.619528   5.006543
    16  C    3.590726   3.353289   3.417970   4.333473   5.050825
    17  C    4.744188   4.582112   4.573465   5.635839   6.377406
    18  C    4.176195   5.714009   5.429547   5.858313   6.342346
    19  H    2.517646   5.286498   4.925173   4.648988   4.828662
    20  H    3.945809   2.680048   2.997808   4.164498   4.943559
    21  H    5.696595   4.943821   5.034978   6.331927   7.142430
    22  H    4.838106   6.721039   6.371018   6.677307   7.082404
    23  H    6.041385   6.594158   6.419342   7.337734   8.002321
    24  C    4.427362   2.369710   3.135231   3.039956   3.277033
    25  H    5.106605   2.568214   3.231576   4.077349   4.171532
    26  H    4.626357   3.339747   4.001797   2.787968   2.829366
    27  H    4.993962   2.670452   3.597565   3.321090   3.852108
                   11         12         13         14         15
    11  H    0.000000
    12  H    1.765991   0.000000
    13  C    3.577972   4.530771   0.000000
    14  C    5.980150   7.020830   2.800293   0.000000
    15  C    4.288431   5.569861   1.401755   2.415055   0.000000
    16  C    4.342050   4.959272   1.399343   2.420518   2.418382
    17  C    5.504196   6.240477   2.423038   1.394344   2.787602
    18  C    5.462118   6.734940   2.427450   1.393488   1.395982
    19  H    4.251782   5.683405   2.164951   3.397438   1.088592
    20  H    4.384511   4.600896   2.175932   3.392115   3.415707
    21  H    6.262606   6.805394   3.407770   2.153794   3.875163
    22  H    6.191646   7.593739   3.411377   2.155021   2.155422
    23  H    6.993211   8.042665   3.887675   1.087383   3.400768
    24  C    4.085559   2.808385   4.920016   7.365473   6.231877
    25  H    5.141088   3.869059   5.656508   8.019170   6.965196
    26  H    3.850955   2.356718   5.449547   8.028111   6.678073
    27  H    4.232957   2.890540   5.018592   7.222637   6.388394
                   16         17         18         19         20
    16  C    0.000000
    17  C    1.397658   0.000000
    18  C    2.794542   2.414421   0.000000
    19  H    3.408317   3.876132   2.150617   0.000000
    20  H    1.086702   2.138547   3.880431   4.324888   0.000000
    21  H    2.156709   1.087607   3.399254   4.963661   2.454584
    22  H    3.881739   3.400518   1.087209   2.472799   4.967537
    23  H    3.405506   2.154811   2.153746   4.293990   4.284516
    24  C    4.969608   6.301554   7.336716   6.546224   4.221944
    25  H    5.631175   6.918335   8.040016   7.288821   4.828059
    26  H    5.684845   7.048004   7.869629   6.855139   5.036279
    27  H    4.812144   6.053162   7.366742   6.841402   3.936129
                   21         22         23         24         25
    21  H    0.000000
    22  H    4.297834   0.000000
    23  H    2.480295   2.482372   0.000000
    24  C    6.654187   8.328500   8.374687   0.000000
    25  H    7.198524   9.035877   9.003962   1.095790   0.000000
    26  H    7.476525   8.812362   9.064515   1.093528   1.771801
    27  H    6.265430   8.401637   8.176786   1.095621   1.757011
                   26         27
    26  H    0.000000
    27  H    1.780354   0.000000
 Stoichiometry    C11H14O2
 Framework group  C1[X(C11H14O2)]
 Deg. of freedom    75
 Full point group                 C1      NOp   1
 Largest Abelian subgroup         C1      NOp   1
 Largest concise Abelian subgroup C1      NOp   1
                         Standard orientation:                         
 ---------------------------------------------------------------------
 Center     Atomic      Atomic             Coordinates (Angstroms)
 Number     Number       Type             X           Y           Z
 ---------------------------------------------------------------------
      1          6           0       -2.397055   -0.414350   -0.449427
      2          1           0       -2.673769    0.247503   -1.279370
      3          6           0       -1.453506    0.292807    0.536836
      4          1           0       -1.097629   -0.417274    1.289801
      5          6           0       -0.270001    0.855670   -0.243565
      6          8           0       -0.409838    1.790823   -1.032853
      7          8           0       -1.727777   -1.553437   -1.001388
      8          1           0       -1.316047   -1.264526   -1.837001
      9          6           0       -2.122569    1.450307    1.281642
     10          1           0       -2.613273    2.142749    0.588722
     11          1           0       -1.384263    2.023586    1.853676
     12          1           0       -2.873821    1.084561    1.988475
     13          6           0        1.091373    0.276585   -0.049242
     14          6           0        3.691802   -0.712345    0.269237
     15          6           0        2.198824    1.094819   -0.311855
     16          6           0        1.296105   -1.046877    0.356583
     17          6           0        2.595122   -1.536778    0.517829
     18          6           0        3.494813    0.602327   -0.148666
     19          1           0        2.055438    2.121661   -0.643620
     20          1           0        0.464916   -1.725078    0.530047
     21          1           0        2.751037   -2.566836    0.830174
     22          1           0        4.348711    1.244066   -0.351281
     23          1           0        4.701034   -1.097609    0.393432
     24          6           0       -3.670025   -0.935717    0.207587
     25          1           0       -4.247325   -1.536565   -0.504076
     26          1           0       -4.309251   -0.121802    0.560767
     27          1           0       -3.434132   -1.592208    1.052430
 ---------------------------------------------------------------------
 Rotational constants (GHZ):      1.5639759      0.4774677      0.4168938
 Standard basis: 6-31G(d,p) (6D, 7F)
 There are   265 symmetry adapted basis functions of A   symmetry.
 Integral buffers will be    131072 words long.
 Raffenetti 2 integral format.
 Two-electron integral symmetry is turned on.
   265 basis functions,   462 primitive gaussians,   265 cartesian basis functions
    48 alpha electrons       48 beta electrons
       nuclear repulsion energy       782.1172841899 Hartrees.
 NAtoms=   27 NActive=   27 NUniq=   27 SFac= 1.00D+00 NAtFMM=   60 NAOKFM=F Big=F
 ------------------------------------------------------------------------------
 Polarizable Continuum Model (PCM)
 =================================
 Model                : C-PCM.
 Atomic radii         : SMD-Coulomb.
 Polarization charges : Total charges.
 Charge compensation  : None.
 Solution method      : Matrix inversion.
 Cavity type          : VdW (van der Waals Surface) (Alpha=1.000).
 Cavity algorithm     : GePol (No added spheres)
                        Default sphere list used, NSphG=   27.
                        Lebedev-Laikov grids with approx.  5.0 points / Ang**2.
                        Smoothing algorithm: Karplus/York (Gamma=1.0000).
                        Polarization charges: spherical gaussians, with
                                              point-specific exponents (IZeta= 3).
                        Self-potential: point-specific (ISelfS= 7).
                        Self-field    : sphere-specific E.n sum rule (ISelfD= 2).
 Solvent              : Chloroform, Eps=   4.711300 Eps(inf)=   2.090627
 ------------------------------------------------------------------------------
 ------------------------------------------------------------------------------
 Atomic radii for non-electrostatic terms: SMD-CDS.
 ------------------------------------------------------------------------------
 Nuclear repulsion after PCM non-electrostatic terms =      782.1105505601 Hartrees.
 One-electron integrals computed using PRISM.
 NBasis=   265 RedAO= T  NBF=   265
 NBsUse=   265 1.00D-06 NBFU=   265
 Harris functional with IExCor=  908 diagonalized for initial guess.
 ExpMin= 1.61D-01 ExpMax= 5.48D+03 ExpMxC= 8.25D+02 IAcc=1 IRadAn=         1 AccDes= 0.00D+00
 HarFok:  IExCor=  908 AccDes= 0.00D+00 IRadAn=         1 IDoV= 1
 ScaDFX=  1.000000  1.000000  1.000000  1.000000
 FoFCou: FMM=F IPFlag=           0 FMFlag=      100000 FMFlg1=           0
         NFxFlg=           0 DoJE=T BraDBF=F KetDBF=T FulRan=T
         Omega=  0.000000  0.000000  1.000000  0.000000  0.000000 ICntrl=     500 IOpCl=  0
         NMat0=    1 NMatS0=    1 NMatT0=    0 NMatD0=    1 NMtDS0=    0 NMtDT0=    0
         I1Cent=           4 NGrid=           0.
 Petite list used in FoFCou.
 Initial guess orbital symmetries:
       Occupied  (A) (A) (A) (A) (A) (A) (A) (A) (A) (A) (A) (A)
                 (A) (A) (A) (A) (A) (A) (A) (A) (A) (A) (A) (A)
                 (A) (A) (A) (A) (A) (A) (A) (A) (A) (A) (A) (A)
                 (A) (A) (A) (A) (A) (A) (A) (A) (A) (A) (A) (A)
       Virtual   (A) (A) (A) (A) (A) (A) (A) (A) (A) (A) (A) (A)
                 (A) (A) (A) (A) (A) (A) (A) (A) (A) (A) (A) (A)
                 (A) (A) (A) (A) (A) (A) (A) (A) (A) (A) (A) (A)
                 (A) (A) (A) (A) (A) (A) (A) (A) (A) (A) (A) (A)
                 (A) (A) (A) (A) (A) (A) (A) (A) (A) (A) (A) (A)
                 (A) (A) (A) (A) (A) (A) (A) (A) (A) (A) (A) (A)
                 (A) (A) (A) (A) (A) (A) (A) (A) (A) (A) (A) (A)
                 (A) (A) (A) (A) (A) (A) (A) (A) (A) (A) (A) (A)
                 (A) (A) (A) (A) (A) (A) (A) (A) (A) (A) (A) (A)
                 (A) (A) (A) (A) (A) (A) (A) (A) (A) (A) (A) (A)
                 (A) (A) (A) (A) (A) (A) (A) (A) (A) (A) (A) (A)
                 (A) (A) (A) (A) (A) (A) (A) (A) (A) (A) (A) (A)
                 (A) (A) (A) (A) (A) (A) (A) (A) (A) (A) (A) (A)
                 (A) (A) (A) (A) (A) (A) (A) (A) (A) (A) (A) (A)
                 (A) (A) (A) (A) (A) (A) (A) (A) (A) (A) (A) (A)
                 (A) (A) (A) (A) (A) (A) (A) (A) (A) (A) (A) (A)
                 (A) (A) (A) (A) (A) (A) (A) (A) (A) (A) (A) (A)
                 (A) (A) (A) (A) (A) (A) (A) (A) (A) (A) (A) (A)
                 (A)
 The electronic state of the initial guess is 1-A.
 Requested convergence on RMS density matrix=1.00D-08 within 128 cycles.
 Requested convergence on MAX density matrix=1.00D-06.
 Requested convergence on             energy=1.00D-06.
 No special actions if energy rises.
 Error on total polarization charges =  0.02877
 SCF Done:  E(RmPW1PW91) =  -577.946324096     A.U. after   12 cycles
             Convg  =    0.6756D-08             -V/T =  2.0093
 SMD-CDS (non-electrostatic) energy       (kcal/mol) =      -4.23
 (included in total energy above)
 Range of M.O.s used for correlation:     1   265
 NBasis=   265 NAE=    48 NBE=    48 NFC=     0 NFV=     0
 NROrb=    265 NOA=    48 NOB=    48 NVA=   217 NVB=   217
 NEqPCM:  Using equilibrium solvation (IEInf=0, Eps=   4.7113, EpsInf=   2.0906)
          Differentiating once with respect to magnetic field using GIAOs.
          Electric field/nuclear overlap derivatives assumed to be zero.
 FoFCou: FMM=F IPFlag=           0 FMFlag=    10101102 FMFlg1=           0
         NFxFlg=    40000000 DoJE=F BraDBF=F KetDBF=T FulRan=T
         Omega=  0.000000  0.000000  1.000000  0.000000  0.000000 ICntrl=    6100 IOpCl=  0
         NMat0=    1 NMatS0=    1 NMatT0=    0 NMatD0=    1 NMtDS0=    0 NMtDT0=    0
         I1Cent=           7 NGrid=        2011.
 Symmetry not used in FoFCou.
          There are     3 degrees of freedom in the 1st order CPHF.  IDoFFX=0.
      3 vectors produced by pass  0 Test12= 3.47D-13 3.33D-08 XBig12= 2.83D+01 1.26D+00.
 AX will form     3 AO Fock derivatives at one time.
      3 vectors produced by pass  1 Test12= 3.47D-13 3.33D-08 XBig12= 1.57D-01 2.24D-01.
      3 vectors produced by pass  2 Test12= 3.47D-13 3.33D-08 XBig12= 9.06D-04 9.63D-03.
      3 vectors produced by pass  3 Test12= 3.47D-13 3.33D-08 XBig12= 3.81D-06 3.95D-04.
      3 vectors produced by pass  4 Test12= 3.47D-13 3.33D-08 XBig12= 1.25D-08 2.16D-05.
      3 vectors produced by pass  5 Test12= 3.47D-13 3.33D-08 XBig12= 2.33D-11 2.01D-06.
      3 vectors produced by pass  6 Test12= 3.47D-13 3.33D-08 XBig12= 1.24D-13 1.09D-07.
 Inverted reduced A of dimension    21 with in-core refinement.
 Calculating GIAO nuclear magnetic shielding tensors.
 SCF GIAO Magnetic shielding tensor (ppm):
      1  C    Isotropic =   123.9565   Anisotropy =    46.3206
   XX=   121.7370   YX=    -7.8417   ZX=    -1.2695
   XY=    -9.9976   YY=   142.2771   ZY=    20.5896
   XZ=    -2.5518   YZ=    22.0170   ZZ=   107.8555
   Eigenvalues:    97.4824   119.5503   154.8369
      2  H    Isotropic =    27.4103   Anisotropy =     4.5097
   XX=    26.2533   YX=    -1.6949   ZX=     0.5718
   XY=    -0.6533   YY=    28.7594   ZY=    -2.3730
   XZ=     0.5634   YZ=    -1.3761   ZZ=    27.2180
   Eigenvalues:    25.7249    26.0892    30.4167
      3  C    Isotropic =   144.5286   Anisotropy =    28.9596
   XX=   150.8437   YX=    15.1551   ZX=    -0.9347
   XY=    13.9468   YY=   144.2529   ZY=     6.6623
   XZ=    -3.6553   YZ=    16.5797   ZZ=   138.4893
   Eigenvalues:   124.3537   145.3972   163.8350
      4  H    Isotropic =    27.9216   Anisotropy =     7.8393
   XX=    30.5972   YX=    -2.7022   ZX=     0.1734
   XY=    -4.5984   YY=    27.8763   ZY=     0.0505
   XZ=    -0.0344   YZ=    -1.0729   ZZ=    25.2914
   Eigenvalues:    24.9273    25.6897    33.1478
      5  C    Isotropic =   -12.7427   Anisotropy =   180.2079
   XX=   -80.9614   YX=    36.1342   ZX=    11.0926
   XY=    31.5931   YY=    18.9910   ZY=    71.3383
   XZ=    18.1854   YZ=    88.2305   ZZ=    23.7423
   Eigenvalues:   -92.7524   -52.8716   107.3959
      6  O    Isotropic =  -237.7232   Anisotropy =   948.3473
   XX=  -304.6221   YX=   116.3796   ZX=    66.2882
   XY=   110.3682   YY=  -242.7342   ZY=   539.2759
   XZ=    53.3026   YZ=   613.6690   ZZ=  -165.8133
   Eigenvalues:  -785.7826  -321.8953   394.5084
      7  O    Isotropic =   286.7047   Anisotropy =    53.0046
   XX=   286.9040   YX=   -15.5586   ZX=   -22.0752
   XY=    -0.0706   YY=   270.5961   ZY=     1.6382
   XZ=   -25.2642   YZ=    14.1457   ZZ=   302.6141
   Eigenvalues:   267.1840   270.8891   322.0411
      8  H    Isotropic =    29.7687   Anisotropy =    16.0504
   XX=    26.1064   YX=     0.9273   ZX=    -8.0915
   XY=     0.1803   YY=    26.0531   ZY=    -0.2483
   XZ=    -5.6866   YZ=    -0.2407   ZZ=    37.1465
   Eigenvalues:    22.7517    26.0855    40.4690
      9  C    Isotropic =   179.6774   Anisotropy =    20.0799
   XX=   176.3086   YX=    -3.6440   ZX=    -7.7243
   XY=    -3.5318   YY=   186.1362   ZY=     8.2670
   XZ=    -8.3880   YZ=     5.9043   ZZ=   176.5876
   Eigenvalues:   167.9955   177.9727   193.0640
     10  H    Isotropic =    30.4838   Anisotropy =     8.5431
   XX=    29.2415   YX=    -3.3741   ZX=     1.4468
   XY=    -3.5591   YY=    33.6620   ZY=    -2.6149
   XZ=     0.1829   YZ=    -1.4353   ZZ=    28.5480
   Eigenvalues:    27.2489    28.0233    36.1792
     11  H    Isotropic =    30.8276   Anisotropy =     9.3675
   XX=    30.2109   YX=     1.7290   ZX=     2.1752
   XY=     1.8880   YY=    31.6943   ZY=     5.3772
   XZ=     0.8740   YZ=     4.8057   ZZ=    30.5776
   Eigenvalues:    26.0126    29.3976    37.0726
     12  H    Isotropic =    30.6985   Anisotropy =     8.8654
   XX=    31.2196   YX=     1.7302   ZX=    -4.6608
   XY=     0.2944   YY=    28.8500   ZY=     1.1453
   XZ=    -5.2786   YZ=     0.7606   ZZ=    32.0260
   Eigenvalues:    25.9665    29.5203    36.6088
     13  C    Isotropic =    60.4044   Anisotropy =   161.7883
   XX=    -5.2834   YX=    18.4107   ZX=    -7.7664
   XY=    11.4208   YY=    27.2535   ZY=    47.3247
   XZ=   -18.1988   YZ=    21.9786   ZZ=   159.2432
   Eigenvalues:   -14.9284    27.8784   168.2633
     14  C    Isotropic =    66.6747   Anisotropy =   181.2310
   XX=   -22.8936   YX=    26.2831   ZX=    -9.2540
   XY=    29.1170   YY=    48.2918   ZY=    44.0795
   XZ=    -4.6097   YZ=    40.5366   ZZ=   174.6260
   Eigenvalues:   -34.5281    47.0569   187.4954
     15  C    Isotropic =    69.5854   Anisotropy =   178.3319
   XX=    47.8127   YX=     5.2798   ZX=    -2.3112
   XY=    -8.3261   YY=    -7.0897   ZY=    60.7991
   XZ=    -9.2731   YZ=    64.7792   ZZ=   168.0332
   Eigenvalues:   -27.2769    47.5598   188.4733
     16  C    Isotropic =    68.8712   Anisotropy =   180.0746
   XX=     7.6229   YX=   -37.9538   ZX=     9.7242
   XY=   -23.0344   YY=    26.3345   ZY=    44.4043
   XZ=    -1.3717   YZ=    57.9136   ZZ=   172.6561
   Eigenvalues:   -21.5122    39.2048   188.9209
     17  C    Isotropic =    70.2918   Anisotropy =   173.8496
   XX=    52.1072   YX=    10.6411   ZX=    -4.4726
   XY=    11.7905   YY=    -8.9608   ZY=    59.6914
   XZ=    -2.0686   YZ=    60.3578   ZZ=   167.7290
   Eigenvalues:   -29.1035    53.7873   186.1915
     18  C    Isotropic =    70.3079   Anisotropy =   173.6179
   XX=     4.3230   YX=   -37.8340   ZX=    11.3759
   XY=   -38.5671   YY=    35.5661   ZY=    47.5230
   XZ=    10.5834   YZ=    47.5366   ZZ=   171.0345
   Eigenvalues:   -28.1186    52.9891   186.0531
     19  H    Isotropic =    23.3432   Anisotropy =     7.1019
   XX=    27.9891   YX=     0.2633   ZX=    -0.2440
   XY=     1.1568   YY=    22.3861   ZY=    -1.5717
   XZ=     0.5585   YZ=    -1.2720   ZZ=    19.6542
   Eigenvalues:    19.0283    22.9234    28.0778
     20  H    Isotropic =    22.9992   Anisotropy =     9.4444
   XX=    27.1289   YX=    -3.5953   ZX=     1.7607
   XY=    -2.9551   YY=    22.6320   ZY=    -1.8048
   XZ=     1.3090   YZ=    -1.3929   ZZ=    19.2366
   Eigenvalues:    18.5939    21.1082    29.2954
     21  H    Isotropic =    23.7413   Anisotropy =     5.4417
   XX=    27.3668   YX=    -0.1541   ZX=     0.0986
   XY=    -0.0304   YY=    23.5016   ZY=    -1.1946
   XZ=    -0.1291   YZ=    -0.7387   ZZ=    20.3553
   Eigenvalues:    20.0819    23.7729    27.3690
     22  H    Isotropic =    23.7618   Anisotropy =     4.7076
   XX=    25.7177   YX=    -1.1968   ZX=     0.3791
   XY=    -1.3634   YY=    24.8881   ZY=    -1.6197
   XZ=     0.1724   YZ=    -1.7106   ZZ=    20.6796
   Eigenvalues:    20.0956    24.2895    26.9002
     23  H    Isotropic =    23.6973   Anisotropy =     4.4996
   XX=    24.5447   YX=     0.9081   ZX=    -0.2690
   XY=     1.2042   YY=    25.6218   ZY=    -1.7146
   XZ=     0.0305   YZ=    -1.7527   ZZ=    20.9256
   Eigenvalues:    20.3433    24.0517    26.6971
     24  C    Isotropic =   174.5840   Anisotropy =    28.9440
   XX=   184.3136   YX=     7.5804   ZX=   -10.2419
   XY=    11.3678   YY=   170.8366   ZY=    -2.3372
   XZ=   -13.0440   YZ=     0.7623   ZZ=   168.6018
   Eigenvalues:   160.5845   169.2875   193.8800
     25  H    Isotropic =    30.3487   Anisotropy =     9.8406
   XX=    32.7321   YX=     4.1364   ZX=     3.1367
   XY=     3.6519   YY=    29.2617   ZY=     2.6376
   XZ=     2.5669   YZ=     1.7896   ZZ=    29.0524
   Eigenvalues:    26.6332    27.5039    36.9092
     26  H    Isotropic =    30.3169   Anisotropy =     8.2374
   XX=    34.0657   YX=    -2.0753   ZX=    -2.0719
   XY=    -1.6183   YY=    30.1741   ZY=     1.9764
   XZ=    -2.3950   YZ=     2.8670   ZZ=    26.7109
   Eigenvalues:    25.2942    29.8479    35.8085
     27  H    Isotropic =    30.5389   Anisotropy =     7.5659
   XX=    29.2467   YX=     2.1511   ZX=    -1.1278
   XY=     0.9881   YY=    30.9405   ZY=    -4.0119
   XZ=    -0.3430   YZ=    -3.9432   ZZ=    31.4296
   Eigenvalues:    26.9892    29.0448    35.5829
 End of Minotr Frequency-dependent properties file   721 does not exist.
 End of Minotr Frequency-dependent properties file   722 does not exist.

 **********************************************************************

            Population analysis using the SCF density.

 **********************************************************************

 Orbital symmetries:
       Occupied  (A) (A) (A) (A) (A) (A) (A) (A) (A) (A) (A) (A)
                 (A) (A) (A) (A) (A) (A) (A) (A) (A) (A) (A) (A)
                 (A) (A) (A) (A) (A) (A) (A) (A) (A) (A) (A) (A)
                 (A) (A) (A) (A) (A) (A) (A) (A) (A) (A) (A) (A)
       Virtual   (A) (A) (A) (A) (A) (A) (A) (A) (A) (A) (A) (A)
                 (A) (A) (A) (A) (A) (A) (A) (A) (A) (A) (A) (A)
                 (A) (A) (A) (A) (A) (A) (A) (A) (A) (A) (A) (A)
                 (A) (A) (A) (A) (A) (A) (A) (A) (A) (A) (A) (A)
                 (A) (A) (A) (A) (A) (A) (A) (A) (A) (A) (A) (A)
                 (A) (A) (A) (A) (A) (A) (A) (A) (A) (A) (A) (A)
                 (A) (A) (A) (A) (A) (A) (A) (A) (A) (A) (A) (A)
                 (A) (A) (A) (A) (A) (A) (A) (A) (A) (A) (A) (A)
                 (A) (A) (A) (A) (A) (A) (A) (A) (A) (A) (A) (A)
                 (A) (A) (A) (A) (A) (A) (A) (A) (A) (A) (A) (A)
                 (A) (A) (A) (A) (A) (A) (A) (A) (A) (A) (A) (A)
                 (A) (A) (A) (A) (A) (A) (A) (A) (A) (A) (A) (A)
                 (A) (A) (A) (A) (A) (A) (A) (A) (A) (A) (A) (A)
                 (A) (A) (A) (A) (A) (A) (A) (A) (A) (A) (A) (A)
                 (A) (A) (A) (A) (A) (A) (A) (A) (A) (A) (A) (A)
                 (A) (A) (A) (A) (A) (A) (A) (A) (A) (A) (A) (A)
                 (A) (A) (A) (A) (A) (A) (A) (A) (A) (A) (A) (A)
                 (A) (A) (A) (A) (A) (A) (A) (A) (A) (A) (A) (A)
                 (A)
 The electronic state is 1-A.
 Alpha  occ. eigenvalues --  -19.23074 -19.22775 -10.33404 -10.29479 -10.26104
 Alpha  occ. eigenvalues --  -10.25826 -10.25728 -10.25701 -10.25433 -10.25400
 Alpha  occ. eigenvalues --  -10.24975 -10.23332 -10.22694  -1.06221  -1.03916
 Alpha  occ. eigenvalues --   -0.88492  -0.82269  -0.78341  -0.77064  -0.74336
 Alpha  occ. eigenvalues --   -0.68014  -0.64392  -0.62445  -0.59587  -0.55397
 Alpha  occ. eigenvalues --   -0.53924  -0.51941  -0.48655  -0.47061  -0.46496
 Alpha  occ. eigenvalues --   -0.45245  -0.43726  -0.43293  -0.42451  -0.40105
 Alpha  occ. eigenvalues --   -0.39691  -0.38835  -0.38056  -0.37363  -0.36606
 Alpha  occ. eigenvalues --   -0.35854  -0.35331  -0.34996  -0.32773  -0.27962
 Alpha  occ. eigenvalues --   -0.26825  -0.26664  -0.25579
 Alpha virt. eigenvalues --   -0.04830  -0.00201   0.04273   0.09803   0.11552
 Alpha virt. eigenvalues --    0.12412   0.14732   0.16254   0.17150   0.17328
 Alpha virt. eigenvalues --    0.17562   0.18447   0.18954   0.19263   0.20448
 Alpha virt. eigenvalues --    0.20793   0.21392   0.22531   0.23340   0.25076
 Alpha virt. eigenvalues --    0.26502   0.27418   0.29594   0.30884   0.31337
 Alpha virt. eigenvalues --    0.32340   0.33528   0.37881   0.41043   0.49334
 Alpha virt. eigenvalues --    0.53191   0.54281   0.54524   0.55727   0.56426
 Alpha virt. eigenvalues --    0.56998   0.57618   0.58439   0.60111   0.60535
 Alpha virt. eigenvalues --    0.60987   0.61549   0.61589   0.62251   0.62637
 Alpha virt. eigenvalues --    0.63552   0.66678   0.67391   0.69141   0.69458
 Alpha virt. eigenvalues --    0.71076   0.74530   0.76799   0.78136   0.78811
 Alpha virt. eigenvalues --    0.81176   0.82182   0.83799   0.84220   0.84583
 Alpha virt. eigenvalues --    0.85103   0.85539   0.86900   0.88844   0.89900
 Alpha virt. eigenvalues --    0.90669   0.90698   0.91397   0.92327   0.94661
 Alpha virt. eigenvalues --    0.95372   0.96838   0.97275   0.98804   0.99793
 Alpha virt. eigenvalues --    1.01594   1.03255   1.04514   1.06451   1.09148
 Alpha virt. eigenvalues --    1.10828   1.12269   1.12425   1.15434   1.16619
 Alpha virt. eigenvalues --    1.19619   1.22443   1.24429   1.25991   1.29606
 Alpha virt. eigenvalues --    1.32481   1.34475   1.38442   1.40738   1.41837
 Alpha virt. eigenvalues --    1.42344   1.44162   1.44939   1.46391   1.49726
 Alpha virt. eigenvalues --    1.50992   1.53797   1.56973   1.59755   1.60937
 Alpha virt. eigenvalues --    1.64620   1.68954   1.73643   1.75849   1.76316
 Alpha virt. eigenvalues --    1.77798   1.79013   1.82399   1.84093   1.86163
 Alpha virt. eigenvalues --    1.87085   1.88854   1.89198   1.91428   1.92750
 Alpha virt. eigenvalues --    1.93775   1.94967   1.97993   1.98278   1.98690
 Alpha virt. eigenvalues --    2.01176   2.02986   2.04058   2.05654   2.06667
 Alpha virt. eigenvalues --    2.07306   2.07828   2.08364   2.10172   2.11335
 Alpha virt. eigenvalues --    2.12755   2.14043   2.16554   2.18202   2.22638
 Alpha virt. eigenvalues --    2.24985   2.27449   2.29184   2.30027   2.31928
 Alpha virt. eigenvalues --    2.35045   2.35204   2.38988   2.39563   2.40099
 Alpha virt. eigenvalues --    2.41427   2.42643   2.43959   2.44519   2.46498
 Alpha virt. eigenvalues --    2.46955   2.49073   2.51721   2.52510   2.54873
 Alpha virt. eigenvalues --    2.58481   2.58666   2.60737   2.61718   2.63520
 Alpha virt. eigenvalues --    2.65599   2.67125   2.68537   2.70145   2.72004
 Alpha virt. eigenvalues --    2.73936   2.74476   2.76471   2.77960   2.80830
 Alpha virt. eigenvalues --    2.81579   2.83070   2.86495   2.88509   2.91826
 Alpha virt. eigenvalues --    2.92424   2.93797   2.96522   2.97444   3.01287
 Alpha virt. eigenvalues --    3.06487   3.07734   3.10826   3.21282   3.22652
 Alpha virt. eigenvalues --    3.24394   3.26194   3.27780   3.34198   3.39692
 Alpha virt. eigenvalues --    3.44512   3.45902   3.47613   3.48688   3.49618
 Alpha virt. eigenvalues --    3.52847   3.53576   3.57360   3.91660   4.01153
 Alpha virt. eigenvalues --    4.13233   4.16392   4.18762   4.24832   4.37323
 Alpha virt. eigenvalues --    4.44606   4.46308   4.51349   4.56895   4.63175
 Alpha virt. eigenvalues --    4.82546   4.87199
          Condensed to atoms (all electrons):
              1          2          3          4          5          6
     1  C    4.793549   0.397127   0.313724  -0.030945  -0.024511  -0.002135
     2  H    0.397127   0.594293  -0.058169   0.004973  -0.006464   0.006809
     3  C    0.313724  -0.058169   5.353221   0.384741   0.285257  -0.087106
     4  H   -0.030945   0.004973   0.384741   0.566180  -0.038649   0.003342
     5  C   -0.024511  -0.006464   0.285257  -0.038649   4.642856   0.518435
     6  O   -0.002135   0.006809  -0.087106   0.003342   0.518435   8.148827
     7  O    0.212072  -0.031814  -0.069112  -0.003395   0.009003  -0.000505
     8  H   -0.020635  -0.010452  -0.000884  -0.000181   0.004193   0.000265
     9  C   -0.032082  -0.000175   0.310139  -0.040638  -0.030614  -0.001349
    10  H   -0.004908   0.004345  -0.035358   0.004957  -0.006344   0.006097
    11  H    0.003935  -0.000108  -0.029753  -0.001882  -0.005255   0.000096
    12  H   -0.005819  -0.000120  -0.030619  -0.004490   0.004759   0.000230
    13  C    0.000048   0.001176  -0.100229   0.001600   0.316631  -0.091870
    14  C    0.000000   0.000000  -0.000027   0.000011   0.000175  -0.000014
    15  C   -0.000110  -0.000017   0.008356  -0.000148  -0.038343   0.001916
    16  C    0.000135  -0.000069  -0.005791   0.000521  -0.037594   0.002621
    17  C    0.000028   0.000001  -0.000027   0.000106   0.004371  -0.000077
    18  C    0.000002   0.000000  -0.000092  -0.000035   0.005819   0.000836
    19  H   -0.000007  -0.000001   0.000616  -0.000024  -0.007512   0.011181
    20  H   -0.001853   0.000172   0.002074   0.002959  -0.007469   0.000028
    21  H    0.000000   0.000000   0.000013  -0.000007  -0.000119   0.000000
    22  H    0.000000   0.000000   0.000002   0.000000  -0.000130   0.000003
    23  H    0.000000   0.000000   0.000000   0.000000   0.000005   0.000000
    24  C    0.368344  -0.044261  -0.063934  -0.005812   0.004874   0.000072
    25  H   -0.027143  -0.004072   0.005675  -0.000026  -0.000129   0.000001
    26  H   -0.026940  -0.001645  -0.001089   0.000242  -0.000100   0.000001
    27  H   -0.031188   0.005235  -0.008065   0.003717  -0.000008  -0.000003
              7          8          9         10         11         12
     1  C    0.212072  -0.020635  -0.032082  -0.004908   0.003935  -0.005819
     2  H   -0.031814  -0.010452  -0.000175   0.004345  -0.000108  -0.000120
     3  C   -0.069112  -0.000884   0.310139  -0.035358  -0.029753  -0.030619
     4  H   -0.003395  -0.000181  -0.040638   0.004957  -0.001882  -0.004490
     5  C    0.009003   0.004193  -0.030614  -0.006344  -0.005255   0.004759
     6  O   -0.000505   0.000265  -0.001349   0.006097   0.000096   0.000230
     7  O    8.229366   0.288713   0.003287   0.000000  -0.000060   0.000004
     8  H    0.288713   0.382802  -0.000144  -0.000002   0.000003  -0.000004
     9  C    0.003287  -0.000144   5.045118   0.386448   0.384144   0.387701
    10  H    0.000000  -0.000002   0.386448   0.549782  -0.027341  -0.028110
    11  H   -0.000060   0.000003   0.384144  -0.027341   0.555933  -0.028146
    12  H    0.000004  -0.000004   0.387701  -0.028110  -0.028146   0.553142
    13  C   -0.003327   0.000119   0.003577   0.000369   0.000870  -0.000133
    14  C    0.000000  -0.000002   0.000001   0.000000   0.000000   0.000000
    15  C   -0.000007   0.000003  -0.000387  -0.000005  -0.000002   0.000004
    16  C   -0.001033   0.000747   0.000201  -0.000014   0.000031  -0.000007
    17  C    0.000168   0.000009   0.000002   0.000000   0.000000   0.000000
    18  C    0.000000   0.000000   0.000002   0.000000   0.000001   0.000000
    19  H    0.000000  -0.000002  -0.000034  -0.000003  -0.000012   0.000000
    20  H    0.013198  -0.000902   0.000128   0.000001  -0.000020   0.000007
    21  H   -0.000003   0.000001   0.000000   0.000000   0.000000   0.000000
    22  H    0.000000   0.000000   0.000000   0.000000   0.000000   0.000000
    23  H    0.000000   0.000000   0.000000   0.000000   0.000000   0.000000
    24  C   -0.062148   0.006269  -0.003368  -0.001127   0.000051   0.002427
    25  H    0.003122   0.000096   0.000051  -0.000026   0.000000  -0.000037
    26  H    0.003227  -0.000278   0.000445   0.000764   0.000076  -0.000020
    27  H    0.000327  -0.000172  -0.000435   0.000127  -0.000045   0.000632
             13         14         15         16         17         18
     1  C    0.000048   0.000000  -0.000110   0.000135   0.000028   0.000002
     2  H    0.001176   0.000000  -0.000017  -0.000069   0.000001   0.000000
     3  C   -0.100229  -0.000027   0.008356  -0.005791  -0.000027  -0.000092
     4  H    0.001600   0.000011  -0.000148   0.000521   0.000106  -0.000035
     5  C    0.316631   0.000175  -0.038343  -0.037594   0.004371   0.005819
     6  O   -0.091870  -0.000014   0.001916   0.002621  -0.000077   0.000836
     7  O   -0.003327   0.000000  -0.000007  -0.001033   0.000168   0.000000
     8  H    0.000119  -0.000002   0.000003   0.000747   0.000009   0.000000
     9  C    0.003577   0.000001  -0.000387   0.000201   0.000002   0.000002
    10  H    0.000369   0.000000  -0.000005  -0.000014   0.000000   0.000000
    11  H    0.000870   0.000000  -0.000002   0.000031   0.000000   0.000001
    12  H   -0.000133   0.000000   0.000004  -0.000007   0.000000   0.000000
    13  C    5.036110  -0.032456   0.501336   0.518065  -0.031724  -0.033385
    14  C   -0.032456   4.865354  -0.045708  -0.048161   0.542744   0.535327
    15  C    0.501336  -0.045708   4.944938  -0.059701  -0.038911   0.509574
    16  C    0.518065  -0.048161  -0.059701   4.958479   0.515065  -0.039074
    17  C   -0.031724   0.542744  -0.038911   0.515065   4.895789  -0.040467
    18  C   -0.033385   0.535327   0.509574  -0.039074  -0.040467   4.905339
    19  H   -0.044395   0.004118   0.380867   0.004774   0.000158  -0.035849
    20  H   -0.039018   0.004128   0.004611   0.370401  -0.033866   0.000107
    21  H    0.003161  -0.037330   0.000625  -0.033262   0.381069   0.003910
    22  H    0.003316  -0.037520  -0.034248   0.000589   0.003926   0.381751
    23  H    0.000420   0.382084   0.004034   0.004214  -0.036962  -0.036976
    24  C   -0.000155   0.000000   0.000002   0.000011   0.000000   0.000000
    25  H    0.000003   0.000000   0.000000   0.000000   0.000000   0.000000
    26  H   -0.000001   0.000000   0.000000   0.000000   0.000000   0.000000
    27  H    0.000009   0.000000   0.000000  -0.000044   0.000000   0.000000
             19         20         21         22         23         24
     1  C   -0.000007  -0.001853   0.000000   0.000000   0.000000   0.368344
     2  H   -0.000001   0.000172   0.000000   0.000000   0.000000  -0.044261
     3  C    0.000616   0.002074   0.000013   0.000002   0.000000  -0.063934
     4  H   -0.000024   0.002959  -0.000007   0.000000   0.000000  -0.005812
     5  C   -0.007512  -0.007469  -0.000119  -0.000130   0.000005   0.004874
     6  O    0.011181   0.000028   0.000000   0.000003   0.000000   0.000072
     7  O    0.000000   0.013198  -0.000003   0.000000   0.000000  -0.062148
     8  H   -0.000002  -0.000902   0.000001   0.000000   0.000000   0.006269
     9  C   -0.000034   0.000128   0.000000   0.000000   0.000000  -0.003368
    10  H   -0.000003   0.000001   0.000000   0.000000   0.000000  -0.001127
    11  H   -0.000012  -0.000020   0.000000   0.000000   0.000000   0.000051
    12  H    0.000000   0.000007   0.000000   0.000000   0.000000   0.002427
    13  C   -0.044395  -0.039018   0.003161   0.003316   0.000420  -0.000155
    14  C    0.004118   0.004128  -0.037330  -0.037520   0.382084   0.000000
    15  C    0.380867   0.004611   0.000625  -0.034248   0.004034   0.000002
    16  C    0.004774   0.370401  -0.033262   0.000589   0.004214   0.000011
    17  C    0.000158  -0.033866   0.381069   0.003926  -0.036962   0.000000
    18  C   -0.035849   0.000107   0.003910   0.381751  -0.036976   0.000000
    19  H    0.528485  -0.000103   0.000014  -0.004276  -0.000138   0.000000
    20  H   -0.000103   0.523576  -0.004447   0.000012  -0.000135   0.000045
    21  H    0.000014  -0.004447   0.532256  -0.000144  -0.004525   0.000000
    22  H   -0.004276   0.000012  -0.000144   0.532387  -0.004486   0.000000
    23  H   -0.000138  -0.000135  -0.004525  -0.004486   0.533186   0.000000
    24  C    0.000000   0.000045   0.000000   0.000000   0.000000   5.075025
    25  H    0.000000  -0.000008   0.000000   0.000000   0.000000   0.378014
    26  H    0.000000  -0.000002   0.000000   0.000000   0.000000   0.374513
    27  H    0.000000   0.000145   0.000000   0.000000   0.000000   0.383049
             25         26         27
     1  C   -0.027143  -0.026940  -0.031188
     2  H   -0.004072  -0.001645   0.005235
     3  C    0.005675  -0.001089  -0.008065
     4  H   -0.000026   0.000242   0.003717
     5  C   -0.000129  -0.000100  -0.000008
     6  O    0.000001   0.000001  -0.000003
     7  O    0.003122   0.003227   0.000327
     8  H    0.000096  -0.000278  -0.000172
     9  C    0.000051   0.000445  -0.000435
    10  H   -0.000026   0.000764   0.000127
    11  H    0.000000   0.000076  -0.000045
    12  H   -0.000037  -0.000020   0.000632
    13  C    0.000003  -0.000001   0.000009
    14  C    0.000000   0.000000   0.000000
    15  C    0.000000   0.000000   0.000000
    16  C    0.000000   0.000000  -0.000044
    17  C    0.000000   0.000000   0.000000
    18  C    0.000000   0.000000   0.000000
    19  H    0.000000   0.000000   0.000000
    20  H   -0.000008  -0.000002   0.000145
    21  H    0.000000   0.000000   0.000000
    22  H    0.000000   0.000000   0.000000
    23  H    0.000000   0.000000   0.000000
    24  C    0.378014   0.374513   0.383049
    25  H    0.554758  -0.024106  -0.030750
    26  H   -0.024106   0.555820  -0.026816
    27  H   -0.030750  -0.026816   0.562128
 Mulliken atomic charges:
              1
     1  C    0.119313
     2  H    0.143237
     3  C   -0.173560
     4  H    0.152880
     5  C    0.406864
     6  O   -0.517702
     7  O   -0.591083
     8  H    0.350438
     9  C   -0.412018
    10  H    0.150349
    11  H    0.147484
    12  H    0.148598
    13  C   -0.010118
    14  C   -0.132722
    15  C   -0.138678
    16  C   -0.151104
    17  C   -0.161402
    18  C   -0.156790
    19  H    0.162142
    20  H    0.166231
    21  H    0.158788
    22  H    0.158818
    23  H    0.159280
    24  C   -0.411889
    25  H    0.144576
    26  H    0.145910
    27  H    0.142157
 Sum of Mulliken atomic charges =   0.00000
 Mulliken charges with hydrogens summed into heavy atoms:
              1
     1  C    0.262550
     3  C   -0.020680
     5  C    0.406864
     6  O   -0.517702
     7  O   -0.240645
     9  C    0.034414
    13  C   -0.010118
    14  C    0.026557
    15  C    0.023464
    16  C    0.015127
    17  C   -0.002614
    18  C    0.002028
    24  C    0.020754
 Sum of Mulliken charges with hydrogens summed into heavy atoms =   0.00000
 Electronic spatial extent (au):  <R**2>=           2799.2724
 Charge=              0.0000 electrons
 Dipole moment (field-independent basis, Debye):
    X=              0.7884    Y=             -1.1294    Z=              1.2707  Tot=              1.8739
 Quadrupole moment (field-independent basis, Debye-Ang):
   XX=            -64.1363   YY=            -80.3806   ZZ=            -76.0864
   XY=             -2.1825   XZ=             -0.6122   YZ=              1.3853
 Traceless Quadrupole moment (field-independent basis, Debye-Ang):
   XX=              9.3981   YY=             -6.8462   ZZ=             -2.5519
   XY=             -2.1825   XZ=             -0.6122   YZ=              1.3853
 Octapole moment (field-independent basis, Debye-Ang**2):
  XXX=             22.6453  YYY=             -5.9201  ZZZ=            -15.7267  XYY=             16.8324
  XXY=              3.7942  XXZ=             -0.6962  XZZ=            -16.4636  YZZ=             -7.5151
  YYZ=              9.3765  XYZ=             -6.3890
 Hexadecapole moment (field-independent basis, Debye-Ang**3):
 XXXX=          -2438.6682 YYYY=           -695.8634 ZZZZ=           -285.7619 XXXY=            -12.8868
 XXXZ=             11.7276 YYYX=             -9.4483 YYYZ=             -6.0749 ZZZX=             15.1179
 ZZZY=             17.1979 XXYY=           -542.2161 XXZZ=           -518.6016 YYZZ=           -168.5990
 XXYZ=            -23.8477 YYXZ=             -1.7570 ZZXY=              7.9119
 N-N= 7.821105505601D+02 E-N=-2.908852187576D+03  KE= 5.726208234221D+02
 1\1\GINC-COMPUTE-8-7\SP\RmPW1PW91\6-31G(d,p)\C11H14O2\FBRUNO.IQUIR\21-
 Dec-2021\0\\# mPW1PW91/6-31g** scrf=(pcm,solvent=chloroform,smd,dovacu
 um) nmr\\comment\\0,1\C,0,-1.200226327,-0.066715169,1.893556483\H,0,-1
 .996992258,-0.816476398,1.813246466\C,0,-0.966947354,0.644906538,0.551
 079504\H,0,-0.094261671,1.301618122,0.621575454\C,0,-0.733474114,-0.41
 2024098,-0.523589822\O,0,-1.638881571,-1.16115674,-0.892477867\O,0,0.0
 01374821,-0.74336165,2.278804937\H,0,-0.070852703,-1.6597453,1.9528203
 48\C,0,-2.153389547,1.508093627,0.115820415\H,0,-3.091613319,0.9429095
 67,0.142393125\H,0,-2.015478371,1.87094327,-0.909014718\H,0,-2.2637724
 41,2.384160972,0.762415966\C,0,0.611867832,-0.545336689,-1.155035035\C
 ,0,3.08647164,-0.853357794,-2.42904403\C,0,0.682772563,-1.086665259,-2
 .44610213\C,0,1.791675493,-0.176275219,-0.499285292\C,0,3.025096771,-0
 .328136155,-1.138861343\C,0,1.916446523,-1.23585185,-3.08215128\H,0,-0
 .225081067,-1.39317073,-2.96271464\H,0,1.78268957,0.208343809,0.517036
 077\H,0,3.94059684,-0.04345845,-0.625336229\H,0,1.963019487,-1.6535763
 76,-4.08482834\H,0,4.048045613,-0.972298627,-2.922633035\C,0,-1.541160
 768,0.891672575,3.028985536\H,0,-1.574689519,0.354620556,3.983556833\H
 ,0,-2.510533695,1.374580411,2.877592999\H,0,-0.772702428,1.665757055,3
 .132189618\\Version=EM64L-G09RevC.01\State=1-A\HF=-577.9463241\RMSD=6.
 756e-09\Dipole=0.6072178,0.4174163,-0.0244359\Quadrupole=1.3378678,-1.
 2054651,-0.1324027,-2.7510039,-5.7542991,0.8691166\PG=C01 [X(C11H14O2)
 ]\\@


 A politician is a person who can make waves and then
 make you think he's the only one who can save the ship.
 -- Ivern Ball
 Job cpu time:  0 days  0 hours 22 minutes 49.6 seconds.
 File lengths (MBytes):  RWF=     80 Int=      0 D2E=      0 Chk=      5 Scr=      1
 Normal termination of Gaussian 09 at Tue Dec 21 10:19:06 2021.
