 Entering Gaussian System, Link 0=g09
 Input=/home/fbruno.iquir/2_val_run/2b_007_MPW_A_SMD.gjc
 Output=/home/fbruno.iquir/2_val_run/2b_007_MPW_A_SMD.log
 Initial command:
 /share/apps/Gaussian09/EM64T.SSE4.2-enabled/g09/l1.exe /tmp/Gau-46106.inp -scrdir=/tmp/
 Entering Link 1 = /share/apps/Gaussian09/EM64T.SSE4.2-enabled/g09/l1.exe PID=     46107.
  
 Copyright (c) 1988,1990,1992,1993,1995,1998,2003,2009,2011,
            Gaussian, Inc.  All Rights Reserved.
  
 This is part of the Gaussian(R) 09 program.  It is based on
 the Gaussian(R) 03 system (copyright 2003, Gaussian, Inc.),
 the Gaussian(R) 98 system (copyright 1998, Gaussian, Inc.),
 the Gaussian(R) 94 system (copyright 1995, Gaussian, Inc.),
 the Gaussian 92(TM) system (copyright 1992, Gaussian, Inc.),
 the Gaussian 90(TM) system (copyright 1990, Gaussian, Inc.),
 the Gaussian 88(TM) system (copyright 1988, Gaussian, Inc.),
 the Gaussian 86(TM) system (copyright 1986, Carnegie Mellon
 University), and the Gaussian 82(TM) system (copyright 1983,
 Carnegie Mellon University). Gaussian is a federally registered
 trademark of Gaussian, Inc.
  
 This software contains proprietary and confidential information,
 including trade secrets, belonging to Gaussian, Inc.
  
 This software is provided under written license and may be
 used, copied, transmitted, or stored only in accord with that
 written license.
  
 The following legend is applicable only to US Government
 contracts under FAR:
  
                    RESTRICTED RIGHTS LEGEND
  
 Use, reproduction and disclosure by the US Government is
 subject to restrictions as set forth in subparagraphs (a)
 and (c) of the Commercial Computer Software - Restricted
 Rights clause in FAR 52.227-19.
  
 Gaussian, Inc.
 340 Quinnipiac St., Bldg. 40, Wallingford CT 06492
  
  
 ---------------------------------------------------------------
 Warning -- This program may not be used in any manner that
 competes with the business of Gaussian, Inc. or will provide
 assistance to any competitor of Gaussian, Inc.  The licensee
 of this program is prohibited from giving any competitor of
 Gaussian, Inc. access to this program.  By using this program,
 the user acknowledges that Gaussian, Inc. is engaged in the
 business of creating and licensing software in the field of
 computational chemistry and represents and warrants to the
 licensee that it is not a competitor of Gaussian, Inc. and that
 it will not use this program in any manner prohibited above.
 ---------------------------------------------------------------
  

 Cite this work as:
 Gaussian 09, Revision C.01,
 M. J. Frisch, G. W. Trucks, H. B. Schlegel, G. E. Scuseria, 
 M. A. Robb, J. R. Cheeseman, G. Scalmani, V. Barone, B. Mennucci, 
 G. A. Petersson, H. Nakatsuji, M. Caricato, X. Li, H. P. Hratchian, 
 A. F. Izmaylov, J. Bloino, G. Zheng, J. L. Sonnenberg, M. Hada, 
 M. Ehara, K. Toyota, R. Fukuda, J. Hasegawa, M. Ishida, T. Nakajima, 
 Y. Honda, O. Kitao, H. Nakai, T. Vreven, J. A. Montgomery, Jr., 
 J. E. Peralta, F. Ogliaro, M. Bearpark, J. J. Heyd, E. Brothers, 
 K. N. Kudin, V. N. Staroverov, T. Keith, R. Kobayashi, J. Normand, 
 K. Raghavachari, A. Rendell, J. C. Burant, S. S. Iyengar, J. Tomasi, 
 M. Cossi, N. Rega, J. M. Millam, M. Klene, J. E. Knox, J. B. Cross, 
 V. Bakken, C. Adamo, J. Jaramillo, R. Gomperts, R. E. Stratmann, 
 O. Yazyev, A. J. Austin, R. Cammi, C. Pomelli, J. W. Ochterski, 
 R. L. Martin, K. Morokuma, V. G. Zakrzewski, G. A. Voth, 
 P. Salvador, J. J. Dannenberg, S. Dapprich, A. D. Daniels, 
 O. Farkas, J. B. Foresman, J. V. Ortiz, J. Cioslowski, 
 and D. J. Fox, Gaussian, Inc., Wallingford CT, 2010.
 
 ******************************************
 Gaussian 09:  EM64L-G09RevC.01 23-Sep-2011
                21-Dec-2021 
 ******************************************
 %nprocshared=4
 Will use up to    4 processors via shared memory.
 -----------------------------------------------------------------
 # mPW1PW91/6-31g** scrf=(pcm,solvent=chloroform,smd,dovacuum) nmr
 -----------------------------------------------------------------
 1/38=1/1;
 2/12=2,17=6,18=5,40=1/2;
 3/5=1,6=6,7=101,11=2,16=1,25=1,30=1,70=32101,72=7,74=-7/1,2,8,3;
 4//1;
 5/5=2,38=5,53=7/2;
 8/6=1,10=90,11=11/1;
 10/13=100,45=16/2;
 6/7=2,8=2,9=2,10=2,28=1/1;
 99/9=1/99;
 -------
 comment
 -------
 Charge =  0 Multiplicity = 1
 Symbolic Z-Matrix:
 6                     0.44703  -0.67312   1.81795 
 1                     1.34517  -0.48734   1.21862 
 6                    -0.7846   -0.10558   1.09085 
 1                    -0.78979   0.98682   1.18644 
 6                    -0.71799  -0.46357  -0.39056 
 8                    -1.25845  -1.48068  -0.82602 
 8                     0.63869   0.04762   3.03882 
 1                    -0.02275  -0.2639    3.68124 
 6                    -2.11989  -0.55617   1.69173 
 1                    -2.27248  -1.63652   1.60025 
 1                    -2.9533   -0.07129   1.17061 
 1                    -2.18593  -0.28769   2.75077 
 6                     0.02974   0.42169  -1.34068 
 6                     1.38541   2.00667  -3.2181 
 6                     0.82407   1.49549  -0.91881 
 6                    -0.07244   0.14905  -2.71316 
 6                     0.60126   0.9388   -3.64718 
 6                     1.49792   2.28396  -1.85693 
 1                     0.95048   1.74123   0.13153 
 1                    -0.68081  -0.68294  -3.06433 
 1                     0.51326   0.71777  -4.70808 
 1                     2.11511   3.11518  -1.52326 
 1                     1.91152   2.6214   -3.94448 
 6                     0.39916  -2.16665   2.1235 
 1                     1.33964  -2.482     2.58928 
 1                     0.24988  -2.75977   1.21697 
 1                    -0.38989  -2.40845   2.84302 
 
                          Input orientation:                          
 ---------------------------------------------------------------------
 Center     Atomic      Atomic             Coordinates (Angstroms)
 Number     Number       Type             X           Y           Z
 ---------------------------------------------------------------------
      1          6           0        0.447029   -0.673115    1.817953
      2          1           0        1.345167   -0.487343    1.218618
      3          6           0       -0.784596   -0.105584    1.090849
      4          1           0       -0.789794    0.986815    1.186444
      5          6           0       -0.717990   -0.463565   -0.390556
      6          8           0       -1.258454   -1.480676   -0.826018
      7          8           0        0.638692    0.047621    3.038818
      8          1           0       -0.022751   -0.263903    3.681238
      9          6           0       -2.119894   -0.556169    1.691726
     10          1           0       -2.272480   -1.636524    1.600253
     11          1           0       -2.953299   -0.071293    1.170605
     12          1           0       -2.185925   -0.287693    2.750771
     13          6           0        0.029742    0.421693   -1.340680
     14          6           0        1.385411    2.006671   -3.218097
     15          6           0        0.824070    1.495488   -0.918807
     16          6           0       -0.072438    0.149054   -2.713162
     17          6           0        0.601257    0.938803   -3.647176
     18          6           0        1.497916    2.283956   -1.856932
     19          1           0        0.950477    1.741228    0.131530
     20          1           0       -0.680805   -0.682943   -3.064329
     21          1           0        0.513263    0.717772   -4.708076
     22          1           0        2.115105    3.115176   -1.523260
     23          1           0        1.911515    2.621401   -3.944477
     24          6           0        0.399155   -2.166650    2.123497
     25          1           0        1.339640   -2.482002    2.589278
     26          1           0        0.249875   -2.759771    1.216966
     27          1           0       -0.389890   -2.408448    2.843022
 ---------------------------------------------------------------------
                    Distance matrix (angstroms):
                    1          2          3          4          5
     1  C    0.000000
     2  H    1.095612   0.000000
     3  C    1.538724   2.167477   0.000000
     4  H    2.164233   2.594656   1.096587   0.000000
     5  C    2.505731   2.616605   1.525499   2.143756   0.000000
     6  O    3.248293   3.456312   2.406200   3.218409   1.231358
     7  O    1.430631   2.024456   2.417395   2.520703   3.723238
     8  H    1.964684   2.825885   2.704734   2.894244   4.135545
     9  C    2.572685   3.497888   1.532025   2.098875   2.511933
    10  H    2.893316   3.814922   2.194781   3.041628   2.784886
    11  H    3.513329   4.318821   2.170440   2.408443   2.754580
    12  H    2.819779   3.854344   2.179960   2.453706   3.471844
    13  C    3.368930   3.017730   2.617919   2.716129   1.498506
    14  C    5.781315   5.089810   5.266647   5.017131   4.303644
    15  C    3.512101   2.961714   3.031494   2.700997   2.548507
    16  C    4.634307   4.227706   3.878467   4.052576   2.487275
    17  C    5.699973   5.124768   5.045812   5.030031   3.783203
    18  C    4.832536   4.142757   4.428225   4.022229   3.822221
    19  H    2.987730   2.510791   2.709518   2.170374   2.813800
    20  H    5.010866   4.741989   4.196382   4.568264   2.683015
    21  H    6.672931   6.104922   5.999157   6.042823   4.642470
    22  H    5.319523   4.592259   5.061139   4.506757   4.702854
    23  H    6.797364   6.053313   6.329295   6.024558   5.390888
    24  C    1.525220   2.129276   2.591451   3.498001   3.235579
    25  H    2.159576   2.420207   3.522077   4.305243   4.145761
    26  H    2.180410   2.522617   2.851446   3.888284   2.965375
    27  H    2.182334   3.056101   2.920459   3.798945   3.787644
                    6          7          8          9         10
     6  O    0.000000
     7  O    4.568568   0.000000
     8  H    4.829375   0.973272   0.000000
     9  C    2.817060   3.128740   2.905442   0.000000
    10  H    2.634260   3.657968   3.357956   1.094905   0.000000
    11  H    2.974115   4.050525   3.863740   1.096008   1.760130
    12  H    3.882889   2.858998   2.354922   1.094539   1.774973
    13  C    2.354429   4.437426   5.068773   3.843518   4.264454
    14  C    4.987349   6.598822   7.398598   6.554515   7.061836
    15  C    3.633602   4.218231   4.997297   4.437465   5.073833
    16  C    2.761153   5.796659   6.407913   4.908406   5.160815
    17  C    4.155880   6.745229   7.452620   6.176040   6.513538
    18  C    4.778369   5.450488   6.282940   5.809288   6.445011
    19  H    4.022057   3.379029   4.191437   4.139978   4.894262
    20  H    2.445422   6.286747   6.790530   4.970624   5.020066
    21  H    4.800263   7.776837   8.463545   7.036612   7.286843
    22  H    5.743597   5.692297   6.563186   6.461434   7.182331
    23  H    6.049837   7.550552   8.379612   7.623385   8.147378
    24  C    3.452227   2.407943   2.494997   3.020875   2.773527
    25  H    4.406472   2.663157   2.822844   4.059902   3.839324
    26  H    2.843401   3.369239   3.518000   3.270637   2.787627
    27  H    3.882914   2.669942   2.331624   2.783763   2.384216
                   11         12         13         14         15
    11  H    0.000000
    12  H    1.769919   0.000000
    13  C    3.930410   4.706631   0.000000
    14  C    6.511762   7.324338   2.806187   0.000000
    15  C    4.592272   5.070069   1.400703   2.421393   0.000000
    16  C    4.840616   5.874703   1.403025   2.414751   2.415848
    17  C    6.071753   7.085648   2.431863   1.392604   2.793482
    18  C    5.875925   6.435448   2.426947   1.393669   1.398510
    19  H    4.427682   4.562232   2.180900   3.388160   1.086083
    20  H    4.844895   6.019717   2.167040   3.395131   3.407854
    21  H    6.870122   7.995685   3.414793   2.154516   3.880722
    22  H    6.564999   6.953109   3.411294   2.152605   2.157667
    23  H    7.555203   8.371272   3.893526   1.087340   3.406597
    24  C    4.066629   3.256777   4.340105   6.849959   4.779898
    25  H    5.123814   4.155801   5.058838   7.340019   5.328499
    26  H    4.182151   3.794318   4.087998   6.608948   4.795670
    27  H    3.851018   2.780622   5.068447   7.705980   5.555697
                   16         17         18         19         20
    16  C    0.000000
    17  C    1.396407   0.000000
    18  C    2.785130   2.412137   0.000000
    19  H    3.416672   3.878719   2.132657   0.000000
    20  H    1.088874   2.147895   3.873902   4.330266   0.000000
    21  H    2.155498   1.087247   3.398749   4.965925   2.467733
    22  H    3.872866   3.396962   1.087744   2.445900   4.961624
    23  H    3.400693   2.153207   2.154711   4.279269   4.291093
    24  C    5.383136   6.556322   6.071160   4.420792   5.502839
    25  H    6.085416   7.151257   6.519830   4.901800   6.267542
    26  H    4.900107   6.120686   6.037022   4.682735   4.848594
    27  H    6.124767   7.369473   6.904493   5.135035   6.161071
                   21         22         23         24         25
    21  H    0.000000
    22  H    4.296103   0.000000
    23  H    2.482337   2.479426   0.000000
    24  C    7.416421   6.643870   7.876102   0.000000
    25  H    8.010795   6.988756   8.310339   1.095860   0.000000
    26  H    6.875231   6.745586   7.639278   1.093561   1.774256
    27  H    8.222410   7.473275   8.755912   1.094886   1.749591
                   26         27
    26  H    0.000000
    27  H    1.782354   0.000000
 Stoichiometry    C11H14O2
 Framework group  C1[X(C11H14O2)]
 Deg. of freedom    75
 Full point group                 C1      NOp   1
 Largest Abelian subgroup         C1      NOp   1
 Largest concise Abelian subgroup C1      NOp   1
                         Standard orientation:                         
 ---------------------------------------------------------------------
 Center     Atomic      Atomic             Coordinates (Angstroms)
 Number     Number       Type             X           Y           Z
 ---------------------------------------------------------------------
      1          6           0       -2.019256    0.749127    0.495645
      2          1           0       -1.217277    1.196470    1.093204
      3          6           0       -1.409286   -0.068390   -0.656429
      4          1           0       -1.039226    0.615807   -1.429367
      5          6           0       -0.236857   -0.894565   -0.136824
      6          8           0       -0.394487   -2.052879    0.250092
      7          8           0       -2.754248    1.847354   -0.052436
      8          1           0       -3.595125    1.504236   -0.402370
      9          6           0       -2.418289   -0.965663   -1.380248
     10          1           0       -2.821336   -1.747106   -0.727779
     11          1           0       -1.937799   -1.472259   -2.225070
     12          1           0       -3.255225   -0.380014   -1.773402
     13          6           0        1.133594   -0.291549   -0.075514
     14          6           0        3.746522    0.720988    0.073016
     15          6           0        1.382156    1.065051   -0.320099
     16          6           0        2.208729   -1.132428    0.249274
     17          6           0        3.509007   -0.628473    0.321792
     18          6           0        2.685560    1.566520   -0.245963
     19          1           0        0.585344    1.762915   -0.560207
     20          1           0        2.039119   -2.189589    0.447489
     21          1           0        4.333811   -1.290594    0.573585
     22          1           0        2.872206    2.621371   -0.434747
     23          1           0        4.758445    1.114697    0.130574
     24          6           0       -2.922126   -0.029079    1.447232
     25          1           0       -3.259763    0.625062    2.259027
     26          1           0       -2.402055   -0.883459    1.889315
     27          1           0       -3.829761   -0.382570    0.947215
 ---------------------------------------------------------------------
 Rotational constants (GHZ):      1.5180851      0.4690547      0.4069751
 Standard basis: 6-31G(d,p) (6D, 7F)
 There are   265 symmetry adapted basis functions of A   symmetry.
 Integral buffers will be    131072 words long.
 Raffenetti 2 integral format.
 Two-electron integral symmetry is turned on.
   265 basis functions,   462 primitive gaussians,   265 cartesian basis functions
    48 alpha electrons       48 beta electrons
       nuclear repulsion energy       778.6643099098 Hartrees.
 NAtoms=   27 NActive=   27 NUniq=   27 SFac= 1.00D+00 NAtFMM=   60 NAOKFM=F Big=F
 ------------------------------------------------------------------------------
 Polarizable Continuum Model (PCM)
 =================================
 Model                : C-PCM.
 Atomic radii         : SMD-Coulomb.
 Polarization charges : Total charges.
 Charge compensation  : None.
 Solution method      : Matrix inversion.
 Cavity type          : VdW (van der Waals Surface) (Alpha=1.000).
 Cavity algorithm     : GePol (No added spheres)
                        Default sphere list used, NSphG=   27.
                        Lebedev-Laikov grids with approx.  5.0 points / Ang**2.
                        Smoothing algorithm: Karplus/York (Gamma=1.0000).
                        Polarization charges: spherical gaussians, with
                                              point-specific exponents (IZeta= 3).
                        Self-potential: point-specific (ISelfS= 7).
                        Self-field    : sphere-specific E.n sum rule (ISelfD= 2).
 Solvent              : Chloroform, Eps=   4.711300 Eps(inf)=   2.090627
 ------------------------------------------------------------------------------
 ------------------------------------------------------------------------------
 Atomic radii for non-electrostatic terms: SMD-CDS.
 ------------------------------------------------------------------------------
 Nuclear repulsion after PCM non-electrostatic terms =      778.6578470958 Hartrees.
 One-electron integrals computed using PRISM.
 NBasis=   265 RedAO= T  NBF=   265
 NBsUse=   265 1.00D-06 NBFU=   265
 Harris functional with IExCor=  908 diagonalized for initial guess.
 ExpMin= 1.61D-01 ExpMax= 5.48D+03 ExpMxC= 8.25D+02 IAcc=1 IRadAn=         1 AccDes= 0.00D+00
 HarFok:  IExCor=  908 AccDes= 0.00D+00 IRadAn=         1 IDoV= 1
 ScaDFX=  1.000000  1.000000  1.000000  1.000000
 FoFCou: FMM=F IPFlag=           0 FMFlag=      100000 FMFlg1=           0
         NFxFlg=           0 DoJE=T BraDBF=F KetDBF=T FulRan=T
         Omega=  0.000000  0.000000  1.000000  0.000000  0.000000 ICntrl=     500 IOpCl=  0
         NMat0=    1 NMatS0=    1 NMatT0=    0 NMatD0=    1 NMtDS0=    0 NMtDT0=    0
         I1Cent=           4 NGrid=           0.
 Petite list used in FoFCou.
 Initial guess orbital symmetries:
       Occupied  (A) (A) (A) (A) (A) (A) (A) (A) (A) (A) (A) (A)
                 (A) (A) (A) (A) (A) (A) (A) (A) (A) (A) (A) (A)
                 (A) (A) (A) (A) (A) (A) (A) (A) (A) (A) (A) (A)
                 (A) (A) (A) (A) (A) (A) (A) (A) (A) (A) (A) (A)
       Virtual   (A) (A) (A) (A) (A) (A) (A) (A) (A) (A) (A) (A)
                 (A) (A) (A) (A) (A) (A) (A) (A) (A) (A) (A) (A)
                 (A) (A) (A) (A) (A) (A) (A) (A) (A) (A) (A) (A)
                 (A) (A) (A) (A) (A) (A) (A) (A) (A) (A) (A) (A)
                 (A) (A) (A) (A) (A) (A) (A) (A) (A) (A) (A) (A)
                 (A) (A) (A) (A) (A) (A) (A) (A) (A) (A) (A) (A)
                 (A) (A) (A) (A) (A) (A) (A) (A) (A) (A) (A) (A)
                 (A) (A) (A) (A) (A) (A) (A) (A) (A) (A) (A) (A)
                 (A) (A) (A) (A) (A) (A) (A) (A) (A) (A) (A) (A)
                 (A) (A) (A) (A) (A) (A) (A) (A) (A) (A) (A) (A)
                 (A) (A) (A) (A) (A) (A) (A) (A) (A) (A) (A) (A)
                 (A) (A) (A) (A) (A) (A) (A) (A) (A) (A) (A) (A)
                 (A) (A) (A) (A) (A) (A) (A) (A) (A) (A) (A) (A)
                 (A) (A) (A) (A) (A) (A) (A) (A) (A) (A) (A) (A)
                 (A) (A) (A) (A) (A) (A) (A) (A) (A) (A) (A) (A)
                 (A) (A) (A) (A) (A) (A) (A) (A) (A) (A) (A) (A)
                 (A) (A) (A) (A) (A) (A) (A) (A) (A) (A) (A) (A)
                 (A) (A) (A) (A) (A) (A) (A) (A) (A) (A) (A) (A)
                 (A)
 The electronic state of the initial guess is 1-A.
 Requested convergence on RMS density matrix=1.00D-08 within 128 cycles.
 Requested convergence on MAX density matrix=1.00D-06.
 Requested convergence on             energy=1.00D-06.
 No special actions if energy rises.
 Error on total polarization charges =  0.02755
 SCF Done:  E(RmPW1PW91) =  -577.945804211     A.U. after   12 cycles
             Convg  =    0.7496D-08             -V/T =  2.0093
 SMD-CDS (non-electrostatic) energy       (kcal/mol) =      -4.06
 (included in total energy above)
 Range of M.O.s used for correlation:     1   265
 NBasis=   265 NAE=    48 NBE=    48 NFC=     0 NFV=     0
 NROrb=    265 NOA=    48 NOB=    48 NVA=   217 NVB=   217
 NEqPCM:  Using equilibrium solvation (IEInf=0, Eps=   4.7113, EpsInf=   2.0906)
          Differentiating once with respect to magnetic field using GIAOs.
          Electric field/nuclear overlap derivatives assumed to be zero.
 FoFCou: FMM=F IPFlag=           0 FMFlag=    10101102 FMFlg1=           0
         NFxFlg=    40000000 DoJE=F BraDBF=F KetDBF=T FulRan=T
         Omega=  0.000000  0.000000  1.000000  0.000000  0.000000 ICntrl=    6100 IOpCl=  0
         NMat0=    1 NMatS0=    1 NMatT0=    0 NMatD0=    1 NMtDS0=    0 NMtDT0=    0
         I1Cent=           7 NGrid=        2041.
 Symmetry not used in FoFCou.
          There are     3 degrees of freedom in the 1st order CPHF.  IDoFFX=0.
      3 vectors produced by pass  0 Test12= 3.47D-13 3.33D-08 XBig12= 2.75D+01 1.25D+00.
 AX will form     3 AO Fock derivatives at one time.
      3 vectors produced by pass  1 Test12= 3.47D-13 3.33D-08 XBig12= 1.22D-01 2.05D-01.
      3 vectors produced by pass  2 Test12= 3.47D-13 3.33D-08 XBig12= 1.19D-03 1.11D-02.
      3 vectors produced by pass  3 Test12= 3.47D-13 3.33D-08 XBig12= 4.47D-06 4.36D-04.
      3 vectors produced by pass  4 Test12= 3.47D-13 3.33D-08 XBig12= 1.78D-08 2.67D-05.
      3 vectors produced by pass  5 Test12= 3.47D-13 3.33D-08 XBig12= 5.19D-11 2.68D-06.
      3 vectors produced by pass  6 Test12= 3.47D-13 3.33D-08 XBig12= 2.04D-13 1.06D-07.
 Inverted reduced A of dimension    21 with in-core refinement.
 Calculating GIAO nuclear magnetic shielding tensors.
 SCF GIAO Magnetic shielding tensor (ppm):
      1  C    Isotropic =   128.5589   Anisotropy =    48.6996
   XX=   121.2894   YX=   -22.7421   ZX=     0.5900
   XY=   -22.3726   YY=   143.5112   ZY=   -14.3004
   XZ=     1.3727   YZ=   -12.0762   ZZ=   120.8761
   Eigenvalues:   104.5218   120.1295   161.0253
      2  H    Isotropic =    27.3717   Anisotropy =     5.2984
   XX=    30.6155   YX=     1.2512   ZX=     1.4481
   XY=     0.6541   YY=    25.8699   ZY=    -0.1667
   XZ=    -0.5320   YZ=     3.0018   ZZ=    25.6298
   Eigenvalues:    24.3113    26.8999    30.9040
      3  C    Isotropic =   146.3732   Anisotropy =    29.6155
   XX=   146.1874   YX=   -16.0991   ZX=    -0.2950
   XY=   -26.4754   YY=   140.8757   ZY=    -0.7946
   XZ=     0.0211   YZ=    12.3677   ZZ=   152.0563
   Eigenvalues:   121.4824   151.5202   166.1168
      4  H    Isotropic =    27.6576   Anisotropy =     8.4452
   XX=    30.3700   YX=     3.3874   ZX=    -0.6369
   XY=     5.1075   YY=    26.6296   ZY=     0.0807
   XZ=    -0.1299   YZ=    -2.6794   ZZ=    25.9732
   Eigenvalues:    23.5280    26.1570    33.2877
      5  C    Isotropic =    -5.2216   Anisotropy =   168.6287
   XX=   -72.9805   YX=   -24.2546   ZX=   -27.7585
   XY=   -23.4508   YY=   -23.9112   ZY=    45.7205
   XZ=   -26.4915   YZ=    52.9368   ZZ=    81.2268
   Eigenvalues:   -83.0283   -39.8340   107.1975
      6  O    Isotropic =  -235.9288   Anisotropy =   953.4031
   XX=  -311.3007   YX=  -129.5160   ZX=  -106.4024
   XY=  -107.1434   YY=  -651.0360   ZY=   358.5901
   XZ=  -103.7878   YZ=   337.4732   ZZ=   254.5504
   Eigenvalues:  -782.7775  -324.6821   399.6733
      7  O    Isotropic =   274.7608   Anisotropy =    63.1703
   XX=   267.8743   YX=     1.7369   ZX=    -0.4104
   XY=     8.0876   YY=   285.9506   ZY=   -27.6310
   XZ=     6.7438   YZ=   -48.0051   ZZ=   270.4576
   Eigenvalues:   238.5456   268.8625   316.8743
      8  H    Isotropic =    30.2795   Anisotropy =    13.8511
   XX=    37.1602   YX=    -0.1118   ZX=     6.2805
   XY=     0.3309   YY=    28.6990   ZY=     0.1101
   XZ=     5.3794   YZ=     1.3419   ZZ=    24.9793
   Eigenvalues:    22.5732    28.7516    39.5136
      9  C    Isotropic =   185.1933   Anisotropy =    10.6601
   XX=   186.0877   YX=     3.1571   ZX=     3.8943
   XY=     3.4535   YY=   184.4593   ZY=     1.6526
   XZ=     5.2464   YZ=     3.2306   ZZ=   185.0328
   Eigenvalues:   180.8797   182.4001   192.3000
     10  H    Isotropic =    30.0990   Anisotropy =     8.1891
   XX=    28.4745   YX=     3.4780   ZX=    -1.7195
   XY=     3.3041   YY=    32.9691   ZY=    -2.0842
   XZ=    -0.7760   YZ=    -1.7267   ZZ=    28.8532
   Eigenvalues:    26.6291    28.1094    35.5583
     11  H    Isotropic =    30.8360   Anisotropy =    10.1987
   XX=    28.5546   YX=    -0.2920   ZX=    -1.7877
   XY=    -0.2154   YY=    29.5103   ZY=     4.8727
   XZ=    -0.2859   YZ=     5.0596   ZZ=    34.4431
   Eigenvalues:    26.3793    28.4935    37.6351
     12  H    Isotropic =    30.7422   Anisotropy =     8.9049
   XX=    32.7536   YX=    -2.4508   ZX=     4.2462
   XY=    -1.9540   YY=    29.2865   ZY=    -0.0847
   XZ=     4.9984   YZ=     0.1890   ZZ=    30.1865
   Eigenvalues:    26.0351    29.5127    36.6788
     13  C    Isotropic =    64.6105   Anisotropy =   158.9727
   XX=    -3.0092   YX=   -22.8447   ZX=   -18.7192
   XY=   -20.6662   YY=    30.8639   ZY=    27.1684
   XZ=   -13.2406   YZ=    10.3377   ZZ=   165.9770
   Eigenvalues:   -13.8644    37.1037   170.5923
     14  C    Isotropic =    66.0258   Anisotropy =   182.1898
   XX=   -20.8944   YX=   -30.4392   ZX=   -22.3167
   XY=   -33.2828   YY=    40.0467   ZY=    26.1687
   XZ=   -24.3779   YZ=    24.9162   ZZ=   178.9251
   Eigenvalues:   -35.1566    45.7483   187.4856
     15  C    Isotropic =    69.6092   Anisotropy =   176.4385
   XX=    11.0299   YX=    33.4947   ZX=   -30.8201
   XY=    17.9466   YY=    22.1453   ZY=    34.2420
   XZ=   -24.7687   YZ=    42.0286   ZZ=   175.6524
   Eigenvalues:   -20.4494    42.0421   187.2349
     16  C    Isotropic =    69.1782   Anisotropy =   184.3464
   XX=    45.6543   YX=   -13.3252   ZX=   -17.2200
   XY=     1.6187   YY=   -19.1999   ZY=    43.5858
   XZ=   -13.8516   YZ=    44.0003   ZZ=   181.0804
   Eigenvalues:   -28.4462    43.9051   192.0758
     17  C    Isotropic =    69.6010   Anisotropy =   174.2106
   XX=     9.2647   YX=    34.7721   ZX=   -31.5181
   XY=    34.1853   YY=    26.3335   ZY=    37.8691
   XZ=   -31.4017   YZ=    39.4698   ZZ=   173.2049
   Eigenvalues:   -29.4636    52.5253   185.7414
     18  C    Isotropic =    69.8984   Anisotropy =   173.2925
   XX=    53.7561   YX=   -17.1670   ZX=   -14.4227
   XY=   -17.5384   YY=   -19.5154   ZY=    39.4158
   XZ=   -15.3957   YZ=    38.6010   ZZ=   175.4545
   Eigenvalues:   -29.5035    53.7720   185.4267
     19  H    Isotropic =    23.0458   Anisotropy =     9.4187
   XX=    27.2471   YX=     4.0798   ZX=    -0.0030
   XY=     3.0380   YY=    23.1781   ZY=    -0.8693
   XZ=     0.0893   YZ=    -0.7514   ZZ=    18.7122
   Eigenvalues:    18.4998    21.3127    29.3249
     20  H    Isotropic =    23.0695   Anisotropy =     7.3575
   XX=    27.8171   YX=    -0.2186   ZX=     1.3474
   XY=    -0.4103   YY=    22.8929   ZY=    -1.2113
   XZ=     0.7777   YZ=    -0.9505   ZZ=    18.4984
   Eigenvalues:    18.1503    23.0836    27.9745
     21  H    Isotropic =    23.6984   Anisotropy =     4.8384
   XX=    25.6163   YX=     1.4239   ZX=     0.4461
   XY=     1.5277   YY=    25.2344   ZY=    -0.9137
   XZ=     0.4458   YZ=    -0.8868   ZZ=    20.2445
   Eigenvalues:    19.9957    24.1754    26.9240
     22  H    Isotropic =    23.7023   Anisotropy =     5.4272
   XX=    27.2068   YX=     0.1855   ZX=     0.8675
   XY=     0.0859   YY=    23.5980   ZY=    -0.8030
   XZ=     0.9152   YZ=    -0.7205   ZZ=    20.3020
   Eigenvalues:    20.0218    23.7646    27.3204
     23  H    Isotropic =    23.6794   Anisotropy =     4.5471
   XX=    24.4017   YX=    -0.7774   ZX=     0.6860
   XY=    -1.0772   YY=    25.9196   ZY=    -1.3313
   XZ=     0.5499   YZ=    -1.2969   ZZ=    20.7168
   Eigenvalues:    20.3650    23.9623    26.7107
     24  C    Isotropic =   177.1536   Anisotropy =    28.8070
   XX=   175.9804   YX=     7.7446   ZX=    -8.8348
   XY=     0.8920   YY=   178.1380   ZY=   -13.7307
   XZ=    -6.5097   YZ=   -16.4294   ZZ=   177.3422
   Eigenvalues:   162.1203   172.9821   196.3582
     25  H    Isotropic =    30.4259   Anisotropy =     9.9632
   XX=    28.2990   YX=    -1.2651   ZX=    -3.4855
   XY=    -0.5414   YY=    28.8678   ZY=     2.4184
   XZ=    -4.2146   YZ=     3.1981   ZZ=    34.1108
   Eigenvalues:    26.2675    27.9420    37.0680
     26  H    Isotropic =    30.6641   Anisotropy =     9.1680
   XX=    28.1347   YX=    -1.8405   ZX=    -0.2620
   XY=    -2.9766   YY=    32.3850   ZY=    -4.3156
   XZ=    -1.4092   YZ=    -4.9655   ZZ=    31.4727
   Eigenvalues:    25.3669    29.8494    36.7762
     27  H    Isotropic =    30.7072   Anisotropy =     6.5417
   XX=    33.8650   YX=     2.7594   ZX=     0.1350
   XY=     2.7875   YY=    28.6359   ZY=     1.2734
   XZ=    -1.4445   YZ=     0.8382   ZZ=    29.6207
   Eigenvalues:    26.8859    30.1673    35.0684
 End of Minotr Frequency-dependent properties file   721 does not exist.
 End of Minotr Frequency-dependent properties file   722 does not exist.

 **********************************************************************

            Population analysis using the SCF density.

 **********************************************************************

 Orbital symmetries:
       Occupied  (A) (A) (A) (A) (A) (A) (A) (A) (A) (A) (A) (A)
                 (A) (A) (A) (A) (A) (A) (A) (A) (A) (A) (A) (A)
                 (A) (A) (A) (A) (A) (A) (A) (A) (A) (A) (A) (A)
                 (A) (A) (A) (A) (A) (A) (A) (A) (A) (A) (A) (A)
       Virtual   (A) (A) (A) (A) (A) (A) (A) (A) (A) (A) (A) (A)
                 (A) (A) (A) (A) (A) (A) (A) (A) (A) (A) (A) (A)
                 (A) (A) (A) (A) (A) (A) (A) (A) (A) (A) (A) (A)
                 (A) (A) (A) (A) (A) (A) (A) (A) (A) (A) (A) (A)
                 (A) (A) (A) (A) (A) (A) (A) (A) (A) (A) (A) (A)
                 (A) (A) (A) (A) (A) (A) (A) (A) (A) (A) (A) (A)
                 (A) (A) (A) (A) (A) (A) (A) (A) (A) (A) (A) (A)
                 (A) (A) (A) (A) (A) (A) (A) (A) (A) (A) (A) (A)
                 (A) (A) (A) (A) (A) (A) (A) (A) (A) (A) (A) (A)
                 (A) (A) (A) (A) (A) (A) (A) (A) (A) (A) (A) (A)
                 (A) (A) (A) (A) (A) (A) (A) (A) (A) (A) (A) (A)
                 (A) (A) (A) (A) (A) (A) (A) (A) (A) (A) (A) (A)
                 (A) (A) (A) (A) (A) (A) (A) (A) (A) (A) (A) (A)
                 (A) (A) (A) (A) (A) (A) (A) (A) (A) (A) (A) (A)
                 (A) (A) (A) (A) (A) (A) (A) (A) (A) (A) (A) (A)
                 (A) (A) (A) (A) (A) (A) (A) (A) (A) (A) (A) (A)
                 (A) (A) (A) (A) (A) (A) (A) (A) (A) (A) (A) (A)
                 (A) (A) (A) (A) (A) (A) (A) (A) (A) (A) (A) (A)
                 (A)
 The electronic state is 1-A.
 Alpha  occ. eigenvalues --  -19.22884 -19.22802 -10.33528 -10.29689 -10.26320
 Alpha  occ. eigenvalues --  -10.26116 -10.25844 -10.25733 -10.25561 -10.25470
 Alpha  occ. eigenvalues --  -10.25038 -10.23054 -10.22866  -1.06181  -1.03848
 Alpha  occ. eigenvalues --   -0.88581  -0.82164  -0.78245  -0.77130  -0.74367
 Alpha  occ. eigenvalues --   -0.68522  -0.64699  -0.62554  -0.60281  -0.55782
 Alpha  occ. eigenvalues --   -0.52542  -0.50524  -0.49095  -0.47094  -0.46489
 Alpha  occ. eigenvalues --   -0.45286  -0.44794  -0.43434  -0.43216  -0.40735
 Alpha  occ. eigenvalues --   -0.39435  -0.38862  -0.38017  -0.37130  -0.36714
 Alpha  occ. eigenvalues --   -0.36247  -0.35351  -0.34397  -0.32162  -0.28448
 Alpha  occ. eigenvalues --   -0.26933  -0.26657  -0.25527
 Alpha virt. eigenvalues --   -0.05163  -0.00308   0.04689   0.09587   0.11331
 Alpha virt. eigenvalues --    0.13156   0.14485   0.15079   0.17091   0.17523
 Alpha virt. eigenvalues --    0.17901   0.18270   0.19133   0.19765   0.20131
 Alpha virt. eigenvalues --    0.21147   0.21247   0.22087   0.23963   0.25193
 Alpha virt. eigenvalues --    0.26569   0.27152   0.29799   0.30796   0.31722
 Alpha virt. eigenvalues --    0.32158   0.33645   0.38322   0.40800   0.50176
 Alpha virt. eigenvalues --    0.51598   0.53262   0.54022   0.54695   0.56136
 Alpha virt. eigenvalues --    0.56393   0.57692   0.59730   0.60187   0.60742
 Alpha virt. eigenvalues --    0.61010   0.61776   0.62399   0.63057   0.63831
 Alpha virt. eigenvalues --    0.64264   0.65752   0.67494   0.68212   0.69687
 Alpha virt. eigenvalues --    0.72145   0.74598   0.77258   0.78140   0.79375
 Alpha virt. eigenvalues --    0.79845   0.83056   0.83465   0.83788   0.84474
 Alpha virt. eigenvalues --    0.85142   0.85283   0.87234   0.88712   0.90378
 Alpha virt. eigenvalues --    0.90936   0.91689   0.91965   0.93298   0.94723
 Alpha virt. eigenvalues --    0.95258   0.96737   0.97544   0.99619   1.01747
 Alpha virt. eigenvalues --    1.02077   1.04662   1.05508   1.06302   1.07079
 Alpha virt. eigenvalues --    1.10009   1.11044   1.13698   1.16813   1.19735
 Alpha virt. eigenvalues --    1.21026   1.22177   1.24958   1.26801   1.28332
 Alpha virt. eigenvalues --    1.33956   1.35059   1.36908   1.40116   1.40866
 Alpha virt. eigenvalues --    1.42299   1.42551   1.42982   1.46423   1.46765
 Alpha virt. eigenvalues --    1.48645   1.51509   1.56626   1.61623   1.63861
 Alpha virt. eigenvalues --    1.67549   1.71475   1.72380   1.73441   1.76394
 Alpha virt. eigenvalues --    1.78559   1.79458   1.82639   1.84417   1.85780
 Alpha virt. eigenvalues --    1.87452   1.89657   1.91151   1.92485   1.93113
 Alpha virt. eigenvalues --    1.94488   1.96039   1.97350   1.98277   1.98854
 Alpha virt. eigenvalues --    1.99859   2.01091   2.03044   2.05250   2.05962
 Alpha virt. eigenvalues --    2.07241   2.08391   2.09461   2.09871   2.12271
 Alpha virt. eigenvalues --    2.14442   2.15490   2.16124   2.16890   2.21155
 Alpha virt. eigenvalues --    2.23647   2.27435   2.29744   2.30876   2.32721
 Alpha virt. eigenvalues --    2.33615   2.34821   2.37982   2.38549   2.39540
 Alpha virt. eigenvalues --    2.41285   2.42487   2.44689   2.45798   2.47098
 Alpha virt. eigenvalues --    2.47683   2.50168   2.51179   2.53134   2.53343
 Alpha virt. eigenvalues --    2.57836   2.59328   2.60274   2.60476   2.63771
 Alpha virt. eigenvalues --    2.64519   2.65840   2.66499   2.68689   2.71148
 Alpha virt. eigenvalues --    2.72888   2.75787   2.76270   2.77896   2.79712
 Alpha virt. eigenvalues --    2.81214   2.84403   2.85938   2.87757   2.90284
 Alpha virt. eigenvalues --    2.91816   2.94161   2.94712   2.97948   3.03633
 Alpha virt. eigenvalues --    3.06375   3.10836   3.12122   3.21491   3.23002
 Alpha virt. eigenvalues --    3.25168   3.26183   3.27739   3.36450   3.39701
 Alpha virt. eigenvalues --    3.41444   3.45694   3.47027   3.49527   3.51798
 Alpha virt. eigenvalues --    3.52903   3.54726   3.58281   3.91447   3.99405
 Alpha virt. eigenvalues --    4.13161   4.16034   4.18670   4.22177   4.33990
 Alpha virt. eigenvalues --    4.42584   4.46483   4.53198   4.61504   4.69394
 Alpha virt. eigenvalues --    4.78383   4.87722
          Condensed to atoms (all electrons):
              1          2          3          4          5          6
     1  C    4.768712   0.407515   0.319275  -0.035816  -0.024076  -0.002323
     2  H    0.407515   0.581423  -0.061202  -0.003744  -0.001317  -0.000102
     3  C    0.319275  -0.061202   5.377585   0.389646   0.258063  -0.090805
     4  H   -0.035816  -0.003744   0.389646   0.562231  -0.032472   0.002830
     5  C   -0.024076  -0.001317   0.258063  -0.032472   4.642078   0.526602
     6  O   -0.002323  -0.000102  -0.090805   0.002830   0.526602   8.131766
     7  O    0.234174  -0.038511  -0.052249  -0.000629   0.003175  -0.000011
     8  H   -0.029575   0.006401  -0.005046  -0.000577   0.000045   0.000004
     9  C   -0.034099   0.005471   0.322787  -0.049174  -0.032273   0.000740
    10  H   -0.006729  -0.000014  -0.030122   0.004889  -0.007683   0.007721
    11  H    0.004178  -0.000122  -0.029915  -0.003660  -0.004488   0.000756
    12  H   -0.002761   0.000090  -0.036620  -0.003167   0.005730   0.000325
    13  C   -0.006069   0.002867  -0.103095  -0.001041   0.326644  -0.088368
    14  C   -0.000001  -0.000006  -0.000032   0.000004   0.000150  -0.000014
    15  C   -0.001334   0.003025  -0.004257   0.000330  -0.038256   0.003903
    16  C   -0.000079  -0.000155   0.009136  -0.000272  -0.039095  -0.000228
    17  C    0.000004  -0.000001  -0.000061  -0.000021   0.005778   0.001001
    18  C    0.000037   0.000005   0.000075   0.000183   0.004491  -0.000069
    19  H   -0.001420   0.000032   0.001937   0.002088  -0.007484   0.000030
    20  H   -0.000003  -0.000003   0.000603  -0.000022  -0.008772   0.014884
    21  H    0.000000   0.000000   0.000001   0.000000  -0.000131   0.000004
    22  H   -0.000001   0.000000   0.000016  -0.000005  -0.000123   0.000000
    23  H    0.000000   0.000000   0.000000   0.000000   0.000006   0.000000
    24  C    0.357087  -0.049054  -0.053701   0.005544  -0.000524  -0.000814
    25  H   -0.029645  -0.006547   0.005671  -0.000096   0.000046   0.000029
    26  H   -0.025162  -0.000427  -0.000859  -0.000043   0.001020   0.004687
    27  H   -0.028048   0.004837  -0.009273  -0.000096   0.000137  -0.000065
              7          8          9         10         11         12
     1  C    0.234174  -0.029575  -0.034099  -0.006729   0.004178  -0.002761
     2  H   -0.038511   0.006401   0.005471  -0.000014  -0.000122   0.000090
     3  C   -0.052249  -0.005046   0.322787  -0.030122  -0.029915  -0.036620
     4  H   -0.000629  -0.000577  -0.049174   0.004889  -0.003660  -0.003167
     5  C    0.003175   0.000045  -0.032273  -0.007683  -0.004488   0.005730
     6  O   -0.000011   0.000004   0.000740   0.007721   0.000756   0.000325
     7  O    8.200898   0.293419  -0.002301  -0.000021   0.000001   0.003714
     8  H    0.293419   0.389646   0.002921  -0.000005  -0.000071   0.002518
     9  C   -0.002301   0.002921   5.045215   0.386292   0.390031   0.380979
    10  H   -0.000021  -0.000005   0.386292   0.546037  -0.027294  -0.029080
    11  H    0.000001  -0.000071   0.390031  -0.027294   0.550693  -0.027864
    12  H    0.003714   0.002518   0.380979  -0.029080  -0.027864   0.571666
    13  C    0.000032  -0.000011   0.005680   0.000309   0.000023  -0.000083
    14  C    0.000000   0.000000   0.000000   0.000000   0.000000   0.000000
    15  C   -0.000411   0.000013   0.000053  -0.000010   0.000007  -0.000003
    16  C    0.000001   0.000000  -0.000208  -0.000008  -0.000003   0.000001
    17  C    0.000000   0.000000   0.000001   0.000000   0.000000   0.000000
    18  C   -0.000001   0.000000  -0.000003   0.000000   0.000000   0.000000
    19  H    0.001550  -0.000043  -0.000041  -0.000001  -0.000010   0.000012
    20  H    0.000000   0.000000  -0.000017  -0.000003  -0.000003   0.000000
    21  H    0.000000   0.000000   0.000000   0.000000   0.000000   0.000000
    22  H    0.000000   0.000000   0.000000   0.000000   0.000000   0.000000
    23  H    0.000000   0.000000   0.000000   0.000000   0.000000   0.000000
    24  C   -0.050738  -0.006767  -0.011751   0.003132   0.000179  -0.000902
    25  H    0.001408  -0.000625   0.000088   0.000009  -0.000003  -0.000061
    26  H    0.003615   0.000050  -0.000507   0.000849  -0.000010  -0.000032
    27  H   -0.003510   0.005587   0.003600  -0.000072  -0.000043   0.000701
             13         14         15         16         17         18
     1  C   -0.006069  -0.000001  -0.001334  -0.000079   0.000004   0.000037
     2  H    0.002867  -0.000006   0.003025  -0.000155  -0.000001   0.000005
     3  C   -0.103095  -0.000032  -0.004257   0.009136  -0.000061   0.000075
     4  H   -0.001041   0.000004   0.000330  -0.000272  -0.000021   0.000183
     5  C    0.326644   0.000150  -0.038256  -0.039095   0.005778   0.004491
     6  O   -0.088368  -0.000014   0.003903  -0.000228   0.001001  -0.000069
     7  O    0.000032   0.000000  -0.000411   0.000001   0.000000  -0.000001
     8  H   -0.000011   0.000000   0.000013   0.000000   0.000000   0.000000
     9  C    0.005680   0.000000   0.000053  -0.000208   0.000001  -0.000003
    10  H    0.000309   0.000000  -0.000010  -0.000008   0.000000   0.000000
    11  H    0.000023   0.000000   0.000007  -0.000003   0.000000   0.000000
    12  H   -0.000083   0.000000  -0.000003   0.000001   0.000000   0.000000
    13  C    5.027573  -0.031977   0.513261   0.496684  -0.035016  -0.027518
    14  C   -0.031977   4.863891  -0.048051  -0.045635   0.533810   0.542948
    15  C    0.513261  -0.048051   4.961003  -0.069324  -0.037484   0.520292
    16  C    0.496684  -0.045635  -0.069324   4.962751   0.506999  -0.038572
    17  C   -0.035016   0.533810  -0.037484   0.506999   4.907775  -0.040646
    18  C   -0.027518   0.542948   0.520292  -0.038572  -0.040646   4.889246
    19  H   -0.036379   0.004130   0.377979   0.004494   0.000194  -0.036197
    20  H   -0.043854   0.004171   0.004732   0.379370  -0.035866   0.000113
    21  H    0.003107  -0.037481   0.000610  -0.033976   0.382082   0.003924
    22  H    0.002968  -0.036982  -0.032892   0.000645   0.003906   0.380982
    23  H    0.000473   0.381956   0.004201   0.003922  -0.036852  -0.036653
    24  C    0.000384   0.000000  -0.000021   0.000009   0.000000  -0.000001
    25  H    0.000000   0.000000   0.000000  -0.000001   0.000000   0.000000
    26  H    0.000183   0.000000  -0.000032  -0.000009   0.000000   0.000001
    27  H   -0.000017   0.000000   0.000000   0.000000   0.000000   0.000000
             19         20         21         22         23         24
     1  C   -0.001420  -0.000003   0.000000  -0.000001   0.000000   0.357087
     2  H    0.000032  -0.000003   0.000000   0.000000   0.000000  -0.049054
     3  C    0.001937   0.000603   0.000001   0.000016   0.000000  -0.053701
     4  H    0.002088  -0.000022   0.000000  -0.000005   0.000000   0.005544
     5  C   -0.007484  -0.008772  -0.000131  -0.000123   0.000006  -0.000524
     6  O    0.000030   0.014884   0.000004   0.000000   0.000000  -0.000814
     7  O    0.001550   0.000000   0.000000   0.000000   0.000000  -0.050738
     8  H   -0.000043   0.000000   0.000000   0.000000   0.000000  -0.006767
     9  C   -0.000041  -0.000017   0.000000   0.000000   0.000000  -0.011751
    10  H   -0.000001  -0.000003   0.000000   0.000000   0.000000   0.003132
    11  H   -0.000010  -0.000003   0.000000   0.000000   0.000000   0.000179
    12  H    0.000012   0.000000   0.000000   0.000000   0.000000  -0.000902
    13  C   -0.036379  -0.043854   0.003107   0.002968   0.000473   0.000384
    14  C    0.004130   0.004171  -0.037481  -0.036982   0.381956   0.000000
    15  C    0.377979   0.004732   0.000610  -0.032892   0.004201  -0.000021
    16  C    0.004494   0.379370  -0.033976   0.000645   0.003922   0.000009
    17  C    0.000194  -0.035866   0.382082   0.003906  -0.036852   0.000000
    18  C   -0.036197   0.000113   0.003924   0.380982  -0.036653  -0.000001
    19  H    0.524941  -0.000105   0.000013  -0.004424  -0.000143   0.000096
    20  H   -0.000105   0.525671  -0.004220   0.000013  -0.000138   0.000001
    21  H    0.000013  -0.004220   0.530840  -0.000146  -0.004440   0.000000
    22  H   -0.004424   0.000013  -0.000146   0.530607  -0.004480   0.000000
    23  H   -0.000143  -0.000138  -0.004440  -0.004480   0.531607   0.000000
    24  C    0.000096   0.000001   0.000000   0.000000   0.000000   5.103130
    25  H   -0.000001   0.000000   0.000000   0.000000   0.000000   0.383971
    26  H   -0.000014  -0.000003   0.000000   0.000000   0.000000   0.361754
    27  H    0.000001   0.000000   0.000000   0.000000   0.000000   0.383436
             25         26         27
     1  C   -0.029645  -0.025162  -0.028048
     2  H   -0.006547  -0.000427   0.004837
     3  C    0.005671  -0.000859  -0.009273
     4  H   -0.000096  -0.000043  -0.000096
     5  C    0.000046   0.001020   0.000137
     6  O    0.000029   0.004687  -0.000065
     7  O    0.001408   0.003615  -0.003510
     8  H   -0.000625   0.000050   0.005587
     9  C    0.000088  -0.000507   0.003600
    10  H    0.000009   0.000849  -0.000072
    11  H   -0.000003  -0.000010  -0.000043
    12  H   -0.000061  -0.000032   0.000701
    13  C    0.000000   0.000183  -0.000017
    14  C    0.000000   0.000000   0.000000
    15  C    0.000000  -0.000032   0.000000
    16  C   -0.000001  -0.000009   0.000000
    17  C    0.000000   0.000000   0.000000
    18  C    0.000000   0.000001   0.000000
    19  H   -0.000001  -0.000014   0.000001
    20  H    0.000000  -0.000003   0.000000
    21  H    0.000000   0.000000   0.000000
    22  H    0.000000   0.000000   0.000000
    23  H    0.000000   0.000000   0.000000
    24  C    0.383971   0.361754   0.383436
    25  H    0.553403  -0.024195  -0.032912
    26  H   -0.024195   0.554073  -0.024620
    27  H   -0.032912  -0.024620   0.558637
 Mulliken atomic charges:
              1
     1  C    0.136159
     2  H    0.149539
     3  C   -0.207558
     4  H    0.163091
     5  C    0.422731
     6  O   -0.512481
     7  O   -0.593602
     8  H    0.342116
     9  C   -0.413484
    10  H    0.151805
    11  H    0.147620
    12  H    0.134835
    13  C   -0.006761
    14  C   -0.130882
    15  C   -0.157334
    16  C   -0.136451
    17  C   -0.155602
    18  C   -0.162638
    19  H    0.168766
    20  H    0.163452
    21  H    0.159812
    22  H    0.159915
    23  H    0.160541
    24  C   -0.424451
    25  H    0.149459
    26  H    0.149683
    27  H    0.141720
 Sum of Mulliken atomic charges =   0.00000
 Mulliken charges with hydrogens summed into heavy atoms:
              1
     1  C    0.285699
     3  C   -0.044468
     5  C    0.422731
     6  O   -0.512481
     7  O   -0.251486
     9  C    0.020776
    13  C   -0.006761
    14  C    0.029659
    15  C    0.011432
    16  C    0.027001
    17  C    0.004209
    18  C   -0.002722
    24  C    0.016412
 Sum of Mulliken charges with hydrogens summed into heavy atoms =   0.00000
 Electronic spatial extent (au):  <R**2>=           2840.5168
 Charge=              0.0000 electrons
 Dipole moment (field-independent basis, Debye):
    X=              0.4736    Y=              1.6273    Z=             -0.8229  Tot=              1.8840
 Quadrupole moment (field-independent basis, Debye-Ang):
   XX=            -59.0812   YY=            -83.6262   ZZ=            -77.0718
   XY=              2.3413   XZ=              2.6796   YZ=             -0.4854
 Traceless Quadrupole moment (field-independent basis, Debye-Ang):
   XX=             14.1786   YY=            -10.3665   ZZ=             -3.8121
   XY=              2.3413   XZ=              2.6796   YZ=             -0.4854
 Octapole moment (field-independent basis, Debye-Ang**2):
  XXX=             -7.6312  YYY=              8.6951  ZZZ=              0.1339  XYY=             23.6250
  XXY=              1.5514  XXZ=             -0.1818  XZZ=            -17.1089  YZZ=             -0.1653
  YYZ=             -3.8893  XYZ=             -2.6206
 Hexadecapole moment (field-independent basis, Debye-Ang**3):
 XXXX=          -2274.4163 YYYY=           -722.3531 ZZZZ=           -329.3246 XXXY=            -23.9768
 XXXZ=             61.8843 YYYX=             16.8523 YYYZ=             -8.6435 ZZZX=             -1.8458
 ZZZY=              2.0763 XXYY=           -548.5319 XXZZ=           -524.1422 YYZZ=           -169.2198
 XXYZ=            -25.5539 YYXZ=              4.5382 ZZXY=            -13.4022
 N-N= 7.786578470958D+02 E-N=-2.901775008148D+03  KE= 5.725952820703D+02
 1\1\GINC-COMPUTE-8-13\SP\RmPW1PW91\6-31G(d,p)\C11H14O2\FBRUNO.IQUIR\21
 -Dec-2021\0\\# mPW1PW91/6-31g** scrf=(pcm,solvent=chloroform,smd,dovac
 uum) nmr\\comment\\0,1\C,0,0.447029479,-0.673115095,1.817952624\H,0,1.
 345167445,-0.487343181,1.218618105\C,0,-0.784595781,-0.10558436,1.0908
 49341\H,0,-0.789793956,0.986815363,1.186444245\C,0,-0.717989753,-0.463
 56547,-0.390555728\O,0,-1.258454409,-1.480675718,-0.826018079\O,0,0.63
 8692027,0.047620921,3.038817707\H,0,-0.022750839,-0.263902598,3.681238
 306\C,0,-2.119894151,-0.556168626,1.691725563\H,0,-2.272479622,-1.6365
 23586,1.600252938\H,0,-2.953298759,-0.071292872,1.170605411\H,0,-2.185
 925247,-0.287692625,2.750770964\C,0,0.029742195,0.421693275,-1.3406796
 57\C,0,1.385410842,2.006670828,-3.218096902\C,0,0.824069699,1.49548789
 2,-0.918806946\C,0,-0.072437711,0.1490536,-2.713161655\C,0,0.601257072
 ,0.938803236,-3.647175949\C,0,1.49791632,2.283955513,-1.856931914\H,0,
 0.95047671,1.741228013,0.131530462\H,0,-0.680805069,-0.682942908,-3.06
 4328534\H,0,0.513263068,0.717771709,-4.708076141\H,0,2.115105032,3.115
 176063,-1.52326023\H,0,1.911515016,2.621401394,-3.944477396\C,0,0.3991
 55352,-2.166650327,2.123496926\H,0,1.339639646,-2.482001536,2.58927829
 9\H,0,0.249875043,-2.759770974,1.216966013\H,0,-0.38988965,-2.40844793
 ,2.843022226\\Version=EM64L-G09RevC.01\State=1-A\HF=-577.9458042\RMSD=
 7.496e-09\Dipole=0.2426508,0.6794815,0.1698448\Quadrupole=-3.626312,-2
 .2037724,5.8300844,0.2952253,-6.2815748,-5.5554804\PG=C01 [X(C11H14O2)
 ]\\@


 WAR ES EIN GOTT DER DIESE ZEICHEN SCHRIEB?
          - LUDWIG BOLTZMANN, QUOTING GOETHE, ABOUT MAXWELL'S EQUATIONS.
 Job cpu time:  0 days  0 hours 20 minutes 50.1 seconds.
 File lengths (MBytes):  RWF=     81 Int=      0 D2E=      0 Chk=      5 Scr=      1
 Normal termination of Gaussian 09 at Tue Dec 21 09:19:55 2021.
