 Entering Gaussian System, Link 0=g09
 Input=/home/fbruno.iquir/2_val_run/2b_008_MPW_A_SMD.gjc
 Output=/home/fbruno.iquir/2_val_run/2b_008_MPW_A_SMD.log
 Initial command:
 /share/apps/Gaussian09/EM64T.SSE4.2-enabled/g09/l1.exe /tmp/Gau-13896.inp -scrdir=/tmp/
 Entering Link 1 = /share/apps/Gaussian09/EM64T.SSE4.2-enabled/g09/l1.exe PID=     13898.
  
 Copyright (c) 1988,1990,1992,1993,1995,1998,2003,2009,2011,
            Gaussian, Inc.  All Rights Reserved.
  
 This is part of the Gaussian(R) 09 program.  It is based on
 the Gaussian(R) 03 system (copyright 2003, Gaussian, Inc.),
 the Gaussian(R) 98 system (copyright 1998, Gaussian, Inc.),
 the Gaussian(R) 94 system (copyright 1995, Gaussian, Inc.),
 the Gaussian 92(TM) system (copyright 1992, Gaussian, Inc.),
 the Gaussian 90(TM) system (copyright 1990, Gaussian, Inc.),
 the Gaussian 88(TM) system (copyright 1988, Gaussian, Inc.),
 the Gaussian 86(TM) system (copyright 1986, Carnegie Mellon
 University), and the Gaussian 82(TM) system (copyright 1983,
 Carnegie Mellon University). Gaussian is a federally registered
 trademark of Gaussian, Inc.
  
 This software contains proprietary and confidential information,
 including trade secrets, belonging to Gaussian, Inc.
  
 This software is provided under written license and may be
 used, copied, transmitted, or stored only in accord with that
 written license.
  
 The following legend is applicable only to US Government
 contracts under FAR:
  
                    RESTRICTED RIGHTS LEGEND
  
 Use, reproduction and disclosure by the US Government is
 subject to restrictions as set forth in subparagraphs (a)
 and (c) of the Commercial Computer Software - Restricted
 Rights clause in FAR 52.227-19.
  
 Gaussian, Inc.
 340 Quinnipiac St., Bldg. 40, Wallingford CT 06492
  
  
 ---------------------------------------------------------------
 Warning -- This program may not be used in any manner that
 competes with the business of Gaussian, Inc. or will provide
 assistance to any competitor of Gaussian, Inc.  The licensee
 of this program is prohibited from giving any competitor of
 Gaussian, Inc. access to this program.  By using this program,
 the user acknowledges that Gaussian, Inc. is engaged in the
 business of creating and licensing software in the field of
 computational chemistry and represents and warrants to the
 licensee that it is not a competitor of Gaussian, Inc. and that
 it will not use this program in any manner prohibited above.
 ---------------------------------------------------------------
  

 Cite this work as:
 Gaussian 09, Revision C.01,
 M. J. Frisch, G. W. Trucks, H. B. Schlegel, G. E. Scuseria, 
 M. A. Robb, J. R. Cheeseman, G. Scalmani, V. Barone, B. Mennucci, 
 G. A. Petersson, H. Nakatsuji, M. Caricato, X. Li, H. P. Hratchian, 
 A. F. Izmaylov, J. Bloino, G. Zheng, J. L. Sonnenberg, M. Hada, 
 M. Ehara, K. Toyota, R. Fukuda, J. Hasegawa, M. Ishida, T. Nakajima, 
 Y. Honda, O. Kitao, H. Nakai, T. Vreven, J. A. Montgomery, Jr., 
 J. E. Peralta, F. Ogliaro, M. Bearpark, J. J. Heyd, E. Brothers, 
 K. N. Kudin, V. N. Staroverov, T. Keith, R. Kobayashi, J. Normand, 
 K. Raghavachari, A. Rendell, J. C. Burant, S. S. Iyengar, J. Tomasi, 
 M. Cossi, N. Rega, J. M. Millam, M. Klene, J. E. Knox, J. B. Cross, 
 V. Bakken, C. Adamo, J. Jaramillo, R. Gomperts, R. E. Stratmann, 
 O. Yazyev, A. J. Austin, R. Cammi, C. Pomelli, J. W. Ochterski, 
 R. L. Martin, K. Morokuma, V. G. Zakrzewski, G. A. Voth, 
 P. Salvador, J. J. Dannenberg, S. Dapprich, A. D. Daniels, 
 O. Farkas, J. B. Foresman, J. V. Ortiz, J. Cioslowski, 
 and D. J. Fox, Gaussian, Inc., Wallingford CT, 2010.
 
 ******************************************
 Gaussian 09:  EM64L-G09RevC.01 23-Sep-2011
                21-Dec-2021 
 ******************************************
 %nprocshared=4
 Will use up to    4 processors via shared memory.
 -----------------------------------------------------------------
 # mPW1PW91/6-31g** scrf=(pcm,solvent=chloroform,smd,dovacuum) nmr
 -----------------------------------------------------------------
 1/38=1/1;
 2/12=2,17=6,18=5,40=1/2;
 3/5=1,6=6,7=101,11=2,16=1,25=1,30=1,70=32101,72=7,74=-7/1,2,8,3;
 4//1;
 5/5=2,38=5,53=7/2;
 8/6=1,10=90,11=11/1;
 10/13=100,45=16/2;
 6/7=2,8=2,9=2,10=2,28=1/1;
 99/9=1/99;
 -------
 comment
 -------
 Charge =  0 Multiplicity = 1
 Symbolic Z-Matrix:
 6                     0.33557  -1.0637    2.02259 
 1                     0.2524   -2.13843   1.82315 
 6                    -0.52729  -0.24767   1.04296 
 1                    -0.19475   0.79418   1.09089 
 6                    -0.30467  -0.80015  -0.36317 
 8                    -0.47475  -1.99301  -0.62125 
 8                     1.70266  -0.68911   1.81103 
 1                     2.25413  -1.33234   2.2906 
 6                    -2.02467  -0.3106    1.33693 
 1                    -2.37179  -1.34655   1.41913 
 1                    -2.60132   0.16646   0.53659 
 1                    -2.26751   0.20793   2.26959 
 6                     0.11447   0.11819  -1.46109 
 6                     0.92416   1.74892  -3.58805 
 6                     0.82466  -0.42474  -2.54041 
 6                    -0.20412   1.48096  -1.4632 
 6                     0.20497   2.29337  -2.52454 
 6                     1.23179   0.38977  -3.5984 
 1                     1.06575  -1.486    -2.55758 
 1                    -0.78399   1.93081  -0.66344 
 1                    -0.04252   3.35225  -2.52466 
 1                     1.78649  -0.03819  -4.42959 
 1                     1.24017   2.38331  -4.4126 
 6                     0.016    -0.80056   3.49 
 1                     0.74086  -1.30775   4.13646 
 1                    -0.98294  -1.15568   3.75835 
 1                     0.08624   0.26834   3.71971 
 
                          Input orientation:                          
 ---------------------------------------------------------------------
 Center     Atomic      Atomic             Coordinates (Angstroms)
 Number     Number       Type             X           Y           Z
 ---------------------------------------------------------------------
      1          6           0        0.335573   -1.063703    2.022591
      2          1           0        0.252397   -2.138435    1.823151
      3          6           0       -0.527288   -0.247668    1.042960
      4          1           0       -0.194745    0.794181    1.090894
      5          6           0       -0.304666   -0.800151   -0.363174
      6          8           0       -0.474749   -1.993015   -0.621250
      7          8           0        1.702657   -0.689107    1.811032
      8          1           0        2.254129   -1.332340    2.290600
      9          6           0       -2.024668   -0.310605    1.336930
     10          1           0       -2.371788   -1.346550    1.419132
     11          1           0       -2.601318    0.166461    0.536592
     12          1           0       -2.267505    0.207935    2.269594
     13          6           0        0.114467    0.118190   -1.461092
     14          6           0        0.924160    1.748924   -3.588046
     15          6           0        0.824665   -0.424744   -2.540411
     16          6           0       -0.204122    1.480963   -1.463204
     17          6           0        0.204965    2.293373   -2.524539
     18          6           0        1.231789    0.389766   -3.598404
     19          1           0        1.065749   -1.485996   -2.557584
     20          1           0       -0.783990    1.930811   -0.663441
     21          1           0       -0.042524    3.352250   -2.524663
     22          1           0        1.786494   -0.038194   -4.429595
     23          1           0        1.240165    2.383309   -4.412600
     24          6           0        0.015999   -0.800562    3.490004
     25          1           0        0.740856   -1.307753    4.136455
     26          1           0       -0.982940   -1.155677    3.758353
     27          1           0        0.086239    0.268337    3.719715
 ---------------------------------------------------------------------
                    Distance matrix (angstroms):
                    1          2          3          4          5
     1  C    0.000000
     2  H    1.096240   0.000000
     3  C    1.539519   2.188974   0.000000
     4  H    2.145001   3.055548   1.094683   0.000000
     5  C    2.484198   2.623231   1.527092   2.160623   0.000000
     6  O    2.917214   2.554405   2.412176   3.283032   1.232257
     7  O    1.433178   2.050354   2.399471   2.513739   2.961225
     8  H    1.955722   2.207992   3.235645   3.458088   3.724671
     9  C    2.570608   2.960134   1.527261   2.151674   2.467472
    10  H    2.788184   2.770678   2.179731   3.070828   2.783552
    11  H    3.513804   3.887346   2.174744   2.548112   2.649250
    12  H    2.907592   3.471983   2.177283   2.455474   3.435177
    13  C    3.685350   3.987183   2.610742   2.658046   1.491457
    14  C    6.303694   6.696557   5.247790   4.904688   4.290407
    15  C    4.633408   4.722806   3.834016   3.963755   2.481266
    16  C    4.349409   4.910048   3.061610   2.644839   2.534492
    17  C    5.653619   6.208508   4.440735   3.934298   3.808032
    18  C    5.874637   6.061705   5.004292   4.918137   3.774031
    19  H    4.657198   4.503116   4.127364   4.483240   2.676538
    20  H    4.175560   4.880163   2.779113   2.171826   2.788918
    21  H    6.349891   7.009856   5.091398   4.431607   4.688622
    22  H    6.692349   6.772097   5.945277   5.924015   4.635656
    23  H    7.356076   7.765722   6.309442   5.905315   5.377617
    24  C    1.524688   2.150393   2.566881   2.888486   3.866499
    25  H    2.166157   2.505993   3.507376   3.816926   4.647305
    26  H    2.181698   2.497374   2.899217   3.396842   4.192069
    27  H    2.171803   3.068732   2.794225   2.695582   4.238450
                    6          7          8          9         10
     6  O    0.000000
     7  O    3.515291   0.000000
     8  H    4.045014   0.973578   0.000000
     9  C    3.011183   3.776372   4.501280   0.000000
    10  H    2.860041   4.145711   4.707309   1.095642   0.000000
    11  H    3.244415   4.569507   5.375714   1.095745   1.766568
    12  H    4.051560   4.095993   4.776826   1.094402   1.774988
    13  C    2.347274   3.725705   4.556027   3.548054   4.077084
    14  C    4.976036   5.974957   6.769157   6.098577   6.746634
    15  C    2.798416   4.447002   5.119157   4.813055   5.171559
    16  C    3.584780   4.366421   5.296103   3.790099   4.582736
    17  C    4.738950   5.471330   6.366351   5.163613   5.953255
    18  C    4.177723   5.536036   6.220225   5.954205   6.416871
    19  H    2.525785   4.486145   4.994071   5.108763   5.258363
    20  H    3.936219   4.378402   5.348334   3.250340   4.195153
    21  H    5.690488   6.178712   7.099771   5.679551   6.561837
    22  H    4.841284   6.275042   6.859629   6.917512   7.294568
    23  H    6.038830   6.956094   7.730916   7.139566   7.808147
    24  C    4.308734   2.382475   2.594337   3.006677   3.207513
    25  H    4.958129   2.591404   2.387003   4.059528   4.132058
    26  H    4.487796   3.349952   3.558669   2.768146   2.727138
    27  H    4.926703   2.678167   3.050292   3.235547   3.733957
                   11         12         13         14         15
    11  H    0.000000
    12  H    1.765345   0.000000
    13  C    3.371729   4.427173   0.000000
    14  C    5.652064   6.846410   2.799792   0.000000
    15  C    4.642718   5.753082   1.401460   2.415010   0.000000
    16  C    3.387277   4.451060   1.399519   2.420698   2.418780
    17  C    4.665780   5.783241   2.422918   1.394530   2.787910
    18  C    5.642763   6.834583   2.426988   1.393576   1.395896
    19  H    5.074635   6.105869   2.163480   3.398030   1.088426
    20  H    2.802800   3.711039   2.174641   3.391781   3.414590
    21  H    5.105679   6.149972   3.408075   2.153118   3.875300
    22  H    6.630067   7.834196   3.410592   2.155369   2.154890
    23  H    6.645744   7.854153   3.887076   1.087286   3.400425
    24  C    4.063019   2.778643   5.036582   7.577826   6.095990
    25  H    5.128591   3.851327   5.810182   8.309320   6.735524
    26  H    3.840174   2.392895   5.483579   8.126704   6.593643
    27  H    4.167206   2.765251   5.183059   7.503174   6.341515
                   16         17         18         19         20
    16  C    0.000000
    17  C    1.397782   0.000000
    18  C    2.794930   2.414803   0.000000
    19  H    3.407797   3.876296   2.151595   0.000000
    20  H    1.085464   2.138497   3.879716   4.322485   0.000000
    21  H    2.157435   1.087415   3.398986   4.963665   2.456503
    22  H    3.881992   3.400982   1.087071   2.473869   4.966717
    23  H    3.405750   2.155111   2.153415   4.294534   4.284642
    24  C    5.457846   6.766304   7.289758   6.176174   5.035026
    25  H    6.326619   7.591056   7.934144   6.704289   5.987692
    26  H    5.901108   7.265108   7.836791   6.648104   5.396132
    27  H    5.330799   6.565483   7.408232   6.591025   4.767931
                   21         22         23         24         25
    21  H    0.000000
    22  H    4.297579   0.000000
    23  H    2.479606   2.482426   0.000000
    24  C    7.309275   8.150823   8.607368   0.000000
    25  H    8.166995   8.722520   9.325213   1.095700   0.000000
    26  H    7.789870   8.715562   9.177749   1.093616   1.771316
    27  H    6.965583   8.330431   8.481698   1.095558   1.756775
                   26         27
    26  H    0.000000
    27  H    1.781138   0.000000
 Stoichiometry    C11H14O2
 Framework group  C1[X(C11H14O2)]
 Deg. of freedom    75
 Full point group                 C1      NOp   1
 Largest Abelian subgroup         C1      NOp   1
 Largest concise Abelian subgroup C1      NOp   1
                         Standard orientation:                         
 ---------------------------------------------------------------------
 Center     Atomic      Atomic             Coordinates (Angstroms)
 Number     Number       Type             X           Y           Z
 ---------------------------------------------------------------------
      1          6           0        2.479632   -0.475254   -0.323240
      2          1           0        2.674910   -1.216304    0.460631
      3          6           0        1.407978    0.536368    0.122066
      4          1           0        1.048927    1.059133   -0.770196
      5          6           0        0.260750   -0.237224    0.768156
      6          8           0        0.454085   -1.012578    1.706188
      7          8           0        1.966322   -1.176337   -1.462975
      8          1           0        2.556896   -1.933325   -1.624359
      9          6           0        1.908739    1.561783    1.137096
     10          1           0        2.388671    1.074285    1.992925
     11          1           0        1.080694    2.165588    1.524934
     12          1           0        2.630537    2.248219    0.683742
     13          6           0       -1.132333   -0.047396    0.270432
     14          6           0       -3.779843    0.216253   -0.601357
     15          6           0       -2.046309   -1.094153    0.452192
     16          6           0       -1.558508    1.140500   -0.334491
     17          6           0       -2.879840    1.267670   -0.772330
     18          6           0       -3.364987   -0.963605    0.013364
     19          1           0       -1.730945   -2.017482    0.934563
     20          1           0       -0.890213    1.986614   -0.459805
     21          1           0       -3.209576    2.190876   -1.242900
     22          1           0       -4.066535   -1.782042    0.153784
     23          1           0       -4.807246    0.318586   -0.942183
     24          6           0        3.796507    0.168394   -0.743038
     25          1           0        4.471540   -0.583036   -1.167587
     26          1           0        4.305230    0.641154    0.101767
     27          1           0        3.633134    0.919033   -1.524125
 ---------------------------------------------------------------------
 Rotational constants (GHZ):      1.5985742      0.4351121      0.4255647
 Standard basis: 6-31G(d,p) (6D, 7F)
 There are   265 symmetry adapted basis functions of A   symmetry.
 Integral buffers will be    131072 words long.
 Raffenetti 2 integral format.
 Two-electron integral symmetry is turned on.
   265 basis functions,   462 primitive gaussians,   265 cartesian basis functions
    48 alpha electrons       48 beta electrons
       nuclear repulsion energy       777.1253549819 Hartrees.
 NAtoms=   27 NActive=   27 NUniq=   27 SFac= 1.00D+00 NAtFMM=   60 NAOKFM=F Big=F
 ------------------------------------------------------------------------------
 Polarizable Continuum Model (PCM)
 =================================
 Model                : C-PCM.
 Atomic radii         : SMD-Coulomb.
 Polarization charges : Total charges.
 Charge compensation  : None.
 Solution method      : Matrix inversion.
 Cavity type          : VdW (van der Waals Surface) (Alpha=1.000).
 Cavity algorithm     : GePol (No added spheres)
                        Default sphere list used, NSphG=   27.
                        Lebedev-Laikov grids with approx.  5.0 points / Ang**2.
                        Smoothing algorithm: Karplus/York (Gamma=1.0000).
                        Polarization charges: spherical gaussians, with
                                              point-specific exponents (IZeta= 3).
                        Self-potential: point-specific (ISelfS= 7).
                        Self-field    : sphere-specific E.n sum rule (ISelfD= 2).
 Solvent              : Chloroform, Eps=   4.711300 Eps(inf)=   2.090627
 ------------------------------------------------------------------------------
 ------------------------------------------------------------------------------
 Atomic radii for non-electrostatic terms: SMD-CDS.
 ------------------------------------------------------------------------------
 Nuclear repulsion after PCM non-electrostatic terms =      777.1186910116 Hartrees.
 One-electron integrals computed using PRISM.
 NBasis=   265 RedAO= T  NBF=   265
 NBsUse=   265 1.00D-06 NBFU=   265
 Harris functional with IExCor=  908 diagonalized for initial guess.
 ExpMin= 1.61D-01 ExpMax= 5.48D+03 ExpMxC= 8.25D+02 IAcc=1 IRadAn=         1 AccDes= 0.00D+00
 HarFok:  IExCor=  908 AccDes= 0.00D+00 IRadAn=         1 IDoV= 1
 ScaDFX=  1.000000  1.000000  1.000000  1.000000
 FoFCou: FMM=F IPFlag=           0 FMFlag=      100000 FMFlg1=           0
         NFxFlg=           0 DoJE=T BraDBF=F KetDBF=T FulRan=T
         Omega=  0.000000  0.000000  1.000000  0.000000  0.000000 ICntrl=     500 IOpCl=  0
         NMat0=    1 NMatS0=    1 NMatT0=    0 NMatD0=    1 NMtDS0=    0 NMtDT0=    0
         I1Cent=           4 NGrid=           0.
 Petite list used in FoFCou.
 Initial guess orbital symmetries:
       Occupied  (A) (A) (A) (A) (A) (A) (A) (A) (A) (A) (A) (A)
                 (A) (A) (A) (A) (A) (A) (A) (A) (A) (A) (A) (A)
                 (A) (A) (A) (A) (A) (A) (A) (A) (A) (A) (A) (A)
                 (A) (A) (A) (A) (A) (A) (A) (A) (A) (A) (A) (A)
       Virtual   (A) (A) (A) (A) (A) (A) (A) (A) (A) (A) (A) (A)
                 (A) (A) (A) (A) (A) (A) (A) (A) (A) (A) (A) (A)
                 (A) (A) (A) (A) (A) (A) (A) (A) (A) (A) (A) (A)
                 (A) (A) (A) (A) (A) (A) (A) (A) (A) (A) (A) (A)
                 (A) (A) (A) (A) (A) (A) (A) (A) (A) (A) (A) (A)
                 (A) (A) (A) (A) (A) (A) (A) (A) (A) (A) (A) (A)
                 (A) (A) (A) (A) (A) (A) (A) (A) (A) (A) (A) (A)
                 (A) (A) (A) (A) (A) (A) (A) (A) (A) (A) (A) (A)
                 (A) (A) (A) (A) (A) (A) (A) (A) (A) (A) (A) (A)
                 (A) (A) (A) (A) (A) (A) (A) (A) (A) (A) (A) (A)
                 (A) (A) (A) (A) (A) (A) (A) (A) (A) (A) (A) (A)
                 (A) (A) (A) (A) (A) (A) (A) (A) (A) (A) (A) (A)
                 (A) (A) (A) (A) (A) (A) (A) (A) (A) (A) (A) (A)
                 (A) (A) (A) (A) (A) (A) (A) (A) (A) (A) (A) (A)
                 (A) (A) (A) (A) (A) (A) (A) (A) (A) (A) (A) (A)
                 (A) (A) (A) (A) (A) (A) (A) (A) (A) (A) (A) (A)
                 (A) (A) (A) (A) (A) (A) (A) (A) (A) (A) (A) (A)
                 (A) (A) (A) (A) (A) (A) (A) (A) (A) (A) (A) (A)
                 (A)
 The electronic state of the initial guess is 1-A.
 Requested convergence on RMS density matrix=1.00D-08 within 128 cycles.
 Requested convergence on MAX density matrix=1.00D-06.
 Requested convergence on             energy=1.00D-06.
 No special actions if energy rises.
 Error on total polarization charges =  0.02861
 SCF Done:  E(RmPW1PW91) =  -577.944967974     A.U. after   12 cycles
             Convg  =    0.6013D-08             -V/T =  2.0093
 SMD-CDS (non-electrostatic) energy       (kcal/mol) =      -4.18
 (included in total energy above)
 Range of M.O.s used for correlation:     1   265
 NBasis=   265 NAE=    48 NBE=    48 NFC=     0 NFV=     0
 NROrb=    265 NOA=    48 NOB=    48 NVA=   217 NVB=   217
 NEqPCM:  Using equilibrium solvation (IEInf=0, Eps=   4.7113, EpsInf=   2.0906)
          Differentiating once with respect to magnetic field using GIAOs.
          Electric field/nuclear overlap derivatives assumed to be zero.
 FoFCou: FMM=F IPFlag=           0 FMFlag=    10101102 FMFlg1=           0
         NFxFlg=    40000000 DoJE=F BraDBF=F KetDBF=T FulRan=T
         Omega=  0.000000  0.000000  1.000000  0.000000  0.000000 ICntrl=    6100 IOpCl=  0
         NMat0=    1 NMatS0=    1 NMatT0=    0 NMatD0=    1 NMtDS0=    0 NMtDT0=    0
         I1Cent=           7 NGrid=        2043.
 Symmetry not used in FoFCou.
          There are     3 degrees of freedom in the 1st order CPHF.  IDoFFX=0.
      3 vectors produced by pass  0 Test12= 3.47D-13 3.33D-08 XBig12= 2.77D+01 1.33D+00.
 AX will form     3 AO Fock derivatives at one time.
      3 vectors produced by pass  1 Test12= 3.47D-13 3.33D-08 XBig12= 1.74D-01 2.71D-01.
      3 vectors produced by pass  2 Test12= 3.47D-13 3.33D-08 XBig12= 1.02D-03 1.03D-02.
      3 vectors produced by pass  3 Test12= 3.47D-13 3.33D-08 XBig12= 3.01D-06 3.47D-04.
      3 vectors produced by pass  4 Test12= 3.47D-13 3.33D-08 XBig12= 1.04D-08 2.36D-05.
      3 vectors produced by pass  5 Test12= 3.47D-13 3.33D-08 XBig12= 2.96D-11 2.01D-06.
      3 vectors produced by pass  6 Test12= 3.47D-13 3.33D-08 XBig12= 1.02D-13 6.50D-08.
 Inverted reduced A of dimension    21 with in-core refinement.
 Calculating GIAO nuclear magnetic shielding tensors.
 SCF GIAO Magnetic shielding tensor (ppm):
      1  C    Isotropic =   124.0289   Anisotropy =    46.4763
   XX=   117.4172   YX=     3.3174   ZX=     3.7463
   XY=     5.9988   YY=   116.5962   ZY=    25.1068
   XZ=     4.1856   YZ=    23.9172   ZZ=   138.0734
   Eigenvalues:   100.3913   116.6824   155.0132
      2  H    Isotropic =    27.1750   Anisotropy =     4.4541
   XX=    25.7050   YX=     0.1783   ZX=     1.2071
   XY=    -0.1362   YY=    26.8687   ZY=    -1.1619
   XZ=    -0.6366   YZ=    -2.7641   ZZ=    28.9513
   Eigenvalues:    25.5255    25.8551    30.1444
      3  C    Isotropic =   146.7249   Anisotropy =    25.9513
   XX=   156.4212   YX=    -1.5964   ZX=   -12.5580
   XY=    -0.1451   YY=   142.6049   ZY=     6.5113
   XZ=   -11.3498   YZ=     9.4196   ZZ=   141.1487
   Eigenvalues:   130.7495   145.3995   164.0258
      4  H    Isotropic =    28.1023   Anisotropy =     7.4357
   XX=    31.5681   YX=    -0.7134   ZX=     2.3882
   XY=    -3.2517   YY=    26.1539   ZY=    -0.7830
   XZ=     1.9349   YZ=    -1.0244   ZZ=    26.5849
   Eigenvalues:    25.4115    25.8360    33.0594
      5  C    Isotropic =   -12.7949   Anisotropy =   181.6383
   XX=   -85.4154   YX=   -11.3504   ZX=   -23.6262
   XY=   -12.2020   YY=    49.5123   ZY=    69.1609
   XZ=   -22.5690   YZ=    86.4342   ZZ=    -2.4816
   Eigenvalues:   -92.2694   -54.4126   108.2973
      6  O    Isotropic =  -234.5533   Anisotropy =   936.9174
   XX=  -314.8718   YX=   -46.2209   ZX=   -78.7944
   XY=   -31.8408   YY=   -58.4261   ZY=   513.1848
   XZ=  -110.9400   YZ=   600.3068   ZZ=  -330.3621
   Eigenvalues:  -773.1552  -320.5631   390.0583
      7  O    Isotropic =   277.5271   Anisotropy =    84.5558
   XX=   274.7362   YX=   -27.0146   ZX=   -16.5705
   XY=   -25.0802   YY=   300.5059   ZY=    42.9541
   XZ=     0.5426   YZ=    31.3437   ZZ=   257.3392
   Eigenvalues:   234.8095   263.8742   333.8976
      8  H    Isotropic =    30.8040   Anisotropy =    19.4678
   XX=    29.0589   YX=    -6.8690   ZX=    -0.0373
   XY=    -7.9388   YY=    36.9838   ZY=     6.1263
   XZ=    -2.5441   YZ=     7.1645   ZZ=    26.3692
   Eigenvalues:    22.1320    26.4974    43.7825
      9  C    Isotropic =   179.1199   Anisotropy =    20.0493
   XX=   175.5860   YX=     5.4022   ZX=     4.4159
   XY=     8.0528   YY=   182.0601   ZY=     5.6374
   XZ=     3.2450   YZ=    10.5207   ZZ=   179.7136
   Eigenvalues:   171.0389   173.8347   192.4861
     10  H    Isotropic =    30.5160   Anisotropy =     8.7665
   XX=    28.7246   YX=    -0.8037   ZX=     3.6192
   XY=     0.0614   YY=    28.5138   ZY=    -0.0566
   XZ=     4.1901   YZ=    -0.8640   ZZ=    34.3097
   Eigenvalues:    26.7086    28.4791    36.3604
     11  H    Isotropic =    30.4533   Anisotropy =     8.6334
   XX=    30.9164   YX=    -2.9086   ZX=    -1.1172
   XY=    -2.7330   YY=    31.7910   ZY=     3.2826
   XZ=    -0.4915   YZ=     5.1695   ZZ=    28.6525
   Eigenvalues:    25.5160    29.6350    36.2089
     12  H    Isotropic =    30.4196   Anisotropy =     8.8756
   XX=    30.6696   YX=     3.9048   ZX=    -2.1290
   XY=     4.1900   YY=    33.3590   ZY=    -0.2516
   XZ=    -0.8390   YZ=     0.6287   ZZ=    27.2303
   Eigenvalues:    26.1204    28.8018    36.3367
     13  C    Isotropic =    60.2500   Anisotropy =   162.3280
   XX=     3.3462   YX=     1.8445   ZX=   -51.0454
   XY=   -12.1345   YY=    37.2560   ZY=    53.0397
   XZ=   -53.9612   YZ=    21.7573   ZZ=   140.1479
   Eigenvalues:   -15.6188    27.9002   168.4687
     14  C    Isotropic =    66.8101   Anisotropy =   181.1073
   XX=   -16.9240   YX=    -6.4255   ZX=   -57.0544
   XY=    -3.3161   YY=    65.2682   ZY=    50.1878
   XZ=   -52.6811   YZ=    47.8672   ZZ=   152.0862
   Eigenvalues:   -34.1484    47.0304   187.5483
     15  C    Isotropic =    69.6752   Anisotropy =   178.2945
   XX=    57.9444   YX=     2.5257   ZX=   -39.1637
   XY=   -10.9388   YY=     7.3843   ZY=    70.6847
   XZ=   -46.0564   YZ=    76.2423   ZZ=   143.6970
   Eigenvalues:   -26.9367    47.4242   188.5382
     16  C    Isotropic =    71.2590   Anisotropy =   174.6328
   XX=    33.6086   YX=   -52.6007   ZX=   -24.5807
   XY=   -39.9352   YY=    24.0869   ZY=    50.1297
   XZ=   -35.9213   YZ=    55.6576   ZZ=   156.0814
   Eigenvalues:   -20.2212    46.3172   187.6808
     17  C    Isotropic =    70.4936   Anisotropy =   173.8274
   XX=    54.7218   YX=     7.3110   ZX=   -41.9708
   XY=     9.5200   YY=    12.3674   ZY=    73.7425
   XZ=   -40.1578   YZ=    73.7992   ZZ=   144.3915
   Eigenvalues:   -28.3316    53.4338   186.3785
     18  C    Isotropic =    69.8768   Anisotropy =   174.5548
   XX=    29.3638   YX=   -51.7583   ZX=   -23.9273
   XY=   -52.7096   YY=    23.5561   ZY=    52.6252
   XZ=   -24.9166   YZ=    53.4102   ZZ=   156.7104
   Eigenvalues:   -28.8388    52.2225   186.2466
     19  H    Isotropic =    23.3614   Anisotropy =     7.1224
   XX=    27.0037   YX=     1.7720   ZX=     1.1563
   XY=     2.8531   YY=    22.6669   ZY=    -1.4412
   XZ=     1.8185   YZ=    -1.0574   ZZ=    20.4137
   Eigenvalues:    19.1353    22.8393    28.1097
     20  H    Isotropic =    23.3777   Anisotropy =     8.7563
   XX=    27.4416   YX=    -2.5756   ZX=     2.5411
   XY=    -1.9065   YY=    22.2051   ZY=    -1.9835
   XZ=     2.2081   YZ=    -1.6468   ZZ=    20.4865
   Eigenvalues:    19.2248    21.6931    29.2153
     21  H    Isotropic =    23.7831   Anisotropy =     5.1348
   XX=    26.7877   YX=     0.8836   ZX=     1.3783
   XY=     1.0355   YY=    23.6444   ZY=    -1.2408
   XZ=     1.1597   YZ=    -0.9275   ZZ=    20.9173
   Eigenvalues:    20.1881    23.9550    27.2063
     22  H    Isotropic =    23.7467   Anisotropy =     4.7464
   XX=    25.8580   YX=    -0.4287   ZX=     1.7232
   XY=    -0.6229   YY=    23.9104   ZY=    -1.9491
   XZ=     1.6063   YZ=    -1.9330   ZZ=    21.4716
   Eigenvalues:    20.1307    24.1984    26.9109
     23  H    Isotropic =    23.7074   Anisotropy =     4.4207
   XX=    23.9446   YX=     0.8443   ZX=     0.5867
   XY=     1.1838   YY=    25.7039   ZY=    -1.9765
   XZ=     0.8318   YZ=    -1.9326   ZZ=    21.4737
   Eigenvalues:    20.4027    24.0650    26.6545
     24  C    Isotropic =   172.4233   Anisotropy =    30.6421
   XX=   184.6811   YX=    13.6408   ZX=    -4.0685
   XY=    12.2985   YY=   166.8736   ZY=     3.3675
   XZ=   -10.8604   YZ=    -0.5974   ZZ=   165.7153
   Eigenvalues:   157.1207   167.2979   192.8514
     25  H    Isotropic =    30.6599   Anisotropy =     9.3721
   XX=    34.1580   YX=    -3.3934   ZX=    -2.7826
   XY=    -2.8314   YY=    29.9273   ZY=     1.0640
   XZ=    -2.8038   YZ=     1.8560   ZZ=    27.8943
   Eigenvalues:    26.7921    28.2796    36.9079
     26  H    Isotropic =    30.3697   Anisotropy =     8.3248
   XX=    33.6042   YX=     2.1958   ZX=     2.6855
   XY=     2.0715   YY=    28.0933   ZY=     3.5767
   XZ=     1.6626   YZ=     2.6485   ZZ=    29.4115
   Eigenvalues:    25.5582    29.6313    35.9195
     27  H    Isotropic =    30.5615   Anisotropy =     7.3986
   XX=    29.6429   YX=     1.0913   ZX=    -2.5933
   XY=     0.2281   YY=    31.0537   ZY=    -3.7691
   XZ=    -1.8338   YZ=    -3.7358   ZZ=    30.9878
   Eigenvalues:    26.7523    29.4382    35.4938
 End of Minotr Frequency-dependent properties file   721 does not exist.
 End of Minotr Frequency-dependent properties file   722 does not exist.

 **********************************************************************

            Population analysis using the SCF density.

 **********************************************************************

 Orbital symmetries:
       Occupied  (A) (A) (A) (A) (A) (A) (A) (A) (A) (A) (A) (A)
                 (A) (A) (A) (A) (A) (A) (A) (A) (A) (A) (A) (A)
                 (A) (A) (A) (A) (A) (A) (A) (A) (A) (A) (A) (A)
                 (A) (A) (A) (A) (A) (A) (A) (A) (A) (A) (A) (A)
       Virtual   (A) (A) (A) (A) (A) (A) (A) (A) (A) (A) (A) (A)
                 (A) (A) (A) (A) (A) (A) (A) (A) (A) (A) (A) (A)
                 (A) (A) (A) (A) (A) (A) (A) (A) (A) (A) (A) (A)
                 (A) (A) (A) (A) (A) (A) (A) (A) (A) (A) (A) (A)
                 (A) (A) (A) (A) (A) (A) (A) (A) (A) (A) (A) (A)
                 (A) (A) (A) (A) (A) (A) (A) (A) (A) (A) (A) (A)
                 (A) (A) (A) (A) (A) (A) (A) (A) (A) (A) (A) (A)
                 (A) (A) (A) (A) (A) (A) (A) (A) (A) (A) (A) (A)
                 (A) (A) (A) (A) (A) (A) (A) (A) (A) (A) (A) (A)
                 (A) (A) (A) (A) (A) (A) (A) (A) (A) (A) (A) (A)
                 (A) (A) (A) (A) (A) (A) (A) (A) (A) (A) (A) (A)
                 (A) (A) (A) (A) (A) (A) (A) (A) (A) (A) (A) (A)
                 (A) (A) (A) (A) (A) (A) (A) (A) (A) (A) (A) (A)
                 (A) (A) (A) (A) (A) (A) (A) (A) (A) (A) (A) (A)
                 (A) (A) (A) (A) (A) (A) (A) (A) (A) (A) (A) (A)
                 (A) (A) (A) (A) (A) (A) (A) (A) (A) (A) (A) (A)
                 (A) (A) (A) (A) (A) (A) (A) (A) (A) (A) (A) (A)
                 (A) (A) (A) (A) (A) (A) (A) (A) (A) (A) (A) (A)
                 (A)
 The electronic state is 1-A.
 Alpha  occ. eigenvalues --  -19.22683 -19.22543 -10.33393 -10.29180 -10.26110
 Alpha  occ. eigenvalues --  -10.25972 -10.25680 -10.25636 -10.25471 -10.25362
 Alpha  occ. eigenvalues --  -10.25308 -10.23644 -10.22572  -1.06061  -1.03482
 Alpha  occ. eigenvalues --   -0.88487  -0.82412  -0.78272  -0.77068  -0.74049
 Alpha  occ. eigenvalues --   -0.68216  -0.64797  -0.62591  -0.59455  -0.55355
 Alpha  occ. eigenvalues --   -0.53600  -0.51078  -0.48460  -0.47310  -0.46139
 Alpha  occ. eigenvalues --   -0.44934  -0.44603  -0.43283  -0.42535  -0.41306
 Alpha  occ. eigenvalues --   -0.39111  -0.38801  -0.37767  -0.37604  -0.36594
 Alpha  occ. eigenvalues --   -0.35863  -0.35419  -0.34978  -0.32360  -0.27429
 Alpha  occ. eigenvalues --   -0.26741  -0.26582  -0.25589
 Alpha virt. eigenvalues --   -0.04623  -0.00190   0.04288   0.10154   0.10832
 Alpha virt. eigenvalues --    0.12699   0.14973   0.15931   0.16533   0.17337
 Alpha virt. eigenvalues --    0.17870   0.18455   0.18969   0.19371   0.19719
 Alpha virt. eigenvalues --    0.21074   0.21242   0.22678   0.24118   0.25167
 Alpha virt. eigenvalues --    0.26237   0.27638   0.29015   0.30726   0.31387
 Alpha virt. eigenvalues --    0.32334   0.34176   0.38087   0.40673   0.49571
 Alpha virt. eigenvalues --    0.52611   0.54118   0.54480   0.55880   0.55998
 Alpha virt. eigenvalues --    0.56816   0.57705   0.59256   0.59789   0.60496
 Alpha virt. eigenvalues --    0.61149   0.61419   0.61785   0.62609   0.62946
 Alpha virt. eigenvalues --    0.63393   0.66732   0.67791   0.68577   0.69539
 Alpha virt. eigenvalues --    0.71251   0.73896   0.75993   0.78595   0.79561
 Alpha virt. eigenvalues --    0.81048   0.82762   0.83108   0.84114   0.84604
 Alpha virt. eigenvalues --    0.84937   0.85888   0.88428   0.88752   0.89520
 Alpha virt. eigenvalues --    0.90181   0.90580   0.91534   0.91876   0.94025
 Alpha virt. eigenvalues --    0.95607   0.96525   0.97688   0.98687   1.01326
 Alpha virt. eigenvalues --    1.02223   1.03562   1.03911   1.05040   1.07584
 Alpha virt. eigenvalues --    1.10114   1.11338   1.12939   1.16267   1.19311
 Alpha virt. eigenvalues --    1.21206   1.22312   1.24442   1.26213   1.28398
 Alpha virt. eigenvalues --    1.34153   1.35223   1.36116   1.40803   1.42022
 Alpha virt. eigenvalues --    1.42575   1.44205   1.44830   1.45705   1.48741
 Alpha virt. eigenvalues --    1.50322   1.52120   1.55098   1.58526   1.61610
 Alpha virt. eigenvalues --    1.64200   1.68873   1.73493   1.75748   1.76703
 Alpha virt. eigenvalues --    1.77457   1.80175   1.81648   1.85882   1.86511
 Alpha virt. eigenvalues --    1.88061   1.88353   1.89453   1.91383   1.93490
 Alpha virt. eigenvalues --    1.93997   1.95689   1.97957   1.98209   2.00387
 Alpha virt. eigenvalues --    2.01170   2.02671   2.04127   2.05708   2.06878
 Alpha virt. eigenvalues --    2.07082   2.07610   2.08688   2.09795   2.12491
 Alpha virt. eigenvalues --    2.14236   2.14482   2.15143   2.17962   2.21758
 Alpha virt. eigenvalues --    2.24433   2.27669   2.29374   2.29966   2.31447
 Alpha virt. eigenvalues --    2.32282   2.36365   2.38004   2.38975   2.40128
 Alpha virt. eigenvalues --    2.41598   2.42788   2.43414   2.44957   2.46550
 Alpha virt. eigenvalues --    2.47388   2.50200   2.51076   2.51839   2.54062
 Alpha virt. eigenvalues --    2.55983   2.57804   2.60548   2.60807   2.63120
 Alpha virt. eigenvalues --    2.66543   2.68104   2.68669   2.70552   2.71537
 Alpha virt. eigenvalues --    2.75340   2.76328   2.76873   2.77917   2.78483
 Alpha virt. eigenvalues --    2.81354   2.83066   2.85627   2.88524   2.90231
 Alpha virt. eigenvalues --    2.91396   2.94238   2.96388   2.97913   3.03372
 Alpha virt. eigenvalues --    3.06477   3.07448   3.11451   3.21261   3.22920
 Alpha virt. eigenvalues --    3.24370   3.26265   3.27617   3.34789   3.39641
 Alpha virt. eigenvalues --    3.42769   3.45576   3.47574   3.48666   3.49773
 Alpha virt. eigenvalues --    3.52929   3.54608   3.56840   3.91660   3.99101
 Alpha virt. eigenvalues --    4.13164   4.16389   4.18751   4.24663   4.34736
 Alpha virt. eigenvalues --    4.44682   4.46457   4.50981   4.57480   4.62894
 Alpha virt. eigenvalues --    4.82020   4.87057
          Condensed to atoms (all electrons):
              1          2          3          4          5          6
     1  C    4.770345   0.390694   0.349757  -0.035274  -0.027443  -0.004159
     2  H    0.390694   0.607268  -0.051221   0.005943  -0.010158   0.012242
     3  C    0.349757  -0.051221   5.283087   0.373531   0.294856  -0.085846
     4  H   -0.035274   0.005943   0.373531   0.568281  -0.037778   0.003156
     5  C   -0.027443  -0.010158   0.294856  -0.037778   4.627303   0.522341
     6  O   -0.004159   0.012242  -0.085846   0.003156   0.522341   8.143932
     7  O    0.208187  -0.034911  -0.058909   0.002771   0.008394  -0.000490
     8  H   -0.022667  -0.007099   0.006905  -0.000159  -0.000135  -0.000026
     9  C   -0.036015  -0.000050   0.324558  -0.034937  -0.035002  -0.001332
    10  H   -0.004718   0.003528  -0.034975   0.005013  -0.006055   0.004625
    11  H    0.004488  -0.000099  -0.032180  -0.003050  -0.004420  -0.000122
    12  H   -0.005998  -0.000140  -0.030408  -0.004330   0.004411   0.000085
    13  C    0.003010   0.001254  -0.099296   0.001935   0.313663  -0.092572
    14  C    0.000001   0.000000  -0.000028   0.000005   0.000204  -0.000014
    15  C   -0.000228  -0.000032   0.008014  -0.000121  -0.037339   0.002018
    16  C    0.000010  -0.000040  -0.005081   0.000945  -0.037416   0.002735
    17  C   -0.000005   0.000000  -0.000077   0.000064   0.004185  -0.000075
    18  C    0.000003   0.000000  -0.000082  -0.000031   0.005861   0.000831
    19  H    0.000001  -0.000010   0.000589  -0.000022  -0.007211   0.010759
    20  H    0.000046  -0.000005   0.002365   0.000962  -0.006720   0.000040
    21  H    0.000000   0.000000   0.000013  -0.000003  -0.000120   0.000000
    22  H    0.000000   0.000000   0.000002   0.000000  -0.000133   0.000003
    23  H    0.000000   0.000000   0.000000   0.000000   0.000005   0.000000
    24  C    0.356763  -0.055949  -0.056563  -0.005223   0.005243   0.000169
    25  H   -0.027830  -0.004105   0.004941  -0.000139  -0.000099   0.000000
    26  H   -0.023582   0.000929  -0.003014   0.000291  -0.000175   0.000003
    27  H   -0.030141   0.005318  -0.007637   0.003815  -0.000047  -0.000004
              7          8          9         10         11         12
     1  C    0.208187  -0.022667  -0.036015  -0.004718   0.004488  -0.005998
     2  H   -0.034911  -0.007099  -0.000050   0.003528  -0.000099  -0.000140
     3  C   -0.058909   0.006905   0.324558  -0.034975  -0.032180  -0.030408
     4  H    0.002771  -0.000159  -0.034937   0.005013  -0.003050  -0.004330
     5  C    0.008394  -0.000135  -0.035002  -0.006055  -0.004420   0.004411
     6  O   -0.000490  -0.000026  -0.001332   0.004625  -0.000122   0.000085
     7  O    8.236228   0.291158   0.002374   0.000003  -0.000045   0.000012
     8  H    0.291158   0.385962  -0.000213   0.000002   0.000003  -0.000004
     9  C    0.002374  -0.000213   5.037417   0.386373   0.385768   0.387675
    10  H    0.000003   0.000002   0.386373   0.545548  -0.027167  -0.027130
    11  H   -0.000045   0.000003   0.385768  -0.027167   0.551112  -0.027758
    12  H    0.000012  -0.000004   0.387675  -0.027130  -0.027758   0.547886
    13  C   -0.000281   0.000029   0.000170   0.000525   0.000948  -0.000088
    14  C    0.000000   0.000000   0.000000   0.000000   0.000000   0.000000
    15  C    0.000001  -0.000001  -0.000160  -0.000002  -0.000051   0.000002
    16  C   -0.000112   0.000003  -0.000476  -0.000048   0.000751  -0.000030
    17  C   -0.000001   0.000000   0.000030   0.000000   0.000002  -0.000001
    18  C    0.000000   0.000000   0.000002   0.000000   0.000000   0.000000
    19  H   -0.000005   0.000000  -0.000011  -0.000001  -0.000002   0.000000
    20  H   -0.000021   0.000000  -0.000352  -0.000036   0.000629   0.000111
    21  H    0.000000   0.000000  -0.000001   0.000000  -0.000001   0.000000
    22  H    0.000000   0.000000   0.000000   0.000000   0.000000   0.000000
    23  H    0.000000   0.000000   0.000000   0.000000   0.000000   0.000000
    24  C   -0.058994  -0.002590  -0.003339  -0.001592   0.000127   0.002479
    25  H   -0.001446   0.003993   0.000194  -0.000031  -0.000002  -0.000029
    26  H    0.004230  -0.000159   0.000419   0.001052   0.000052  -0.000079
    27  H    0.001555  -0.000522  -0.000870   0.000155  -0.000048   0.000848
             13         14         15         16         17         18
     1  C    0.003010   0.000001  -0.000228   0.000010  -0.000005   0.000003
     2  H    0.001254   0.000000  -0.000032  -0.000040   0.000000   0.000000
     3  C   -0.099296  -0.000028   0.008014  -0.005081  -0.000077  -0.000082
     4  H    0.001935   0.000005  -0.000121   0.000945   0.000064  -0.000031
     5  C    0.313663   0.000204  -0.037339  -0.037416   0.004185   0.005861
     6  O   -0.092572  -0.000014   0.002018   0.002735  -0.000075   0.000831
     7  O   -0.000281   0.000000   0.000001  -0.000112  -0.000001   0.000000
     8  H    0.000029   0.000000  -0.000001   0.000003   0.000000   0.000000
     9  C    0.000170   0.000000  -0.000160  -0.000476   0.000030   0.000002
    10  H    0.000525   0.000000  -0.000002  -0.000048   0.000000   0.000000
    11  H    0.000948   0.000000  -0.000051   0.000751   0.000002   0.000000
    12  H   -0.000088   0.000000   0.000002  -0.000030  -0.000001   0.000000
    13  C    5.014816  -0.031626   0.510786   0.521793  -0.031069  -0.035194
    14  C   -0.031626   4.863553  -0.046316  -0.049368   0.545152   0.536180
    15  C    0.510786  -0.046316   4.932681  -0.060584  -0.038336   0.511066
    16  C    0.521793  -0.049368  -0.060584   4.937116   0.524077  -0.037864
    17  C   -0.031069   0.545152  -0.038336   0.524077   4.884141  -0.040863
    18  C   -0.035194   0.536180   0.511066  -0.037864  -0.040863   4.903053
    19  H   -0.043999   0.004098   0.381033   0.004556   0.000176  -0.035549
    20  H   -0.037471   0.003982   0.004238   0.379958  -0.035127   0.000239
    21  H    0.003098  -0.036989   0.000647  -0.033391   0.380813   0.003879
    22  H    0.003310  -0.037483  -0.034006   0.000619   0.003898   0.381482
    23  H    0.000456   0.382047   0.003986   0.004225  -0.036861  -0.036920
    24  C   -0.000215   0.000000   0.000002   0.000001   0.000000   0.000000
    25  H    0.000003   0.000000   0.000000   0.000000   0.000000   0.000000
    26  H    0.000002   0.000000   0.000000   0.000000   0.000000   0.000000
    27  H    0.000005   0.000000   0.000000  -0.000004   0.000000   0.000000
             19         20         21         22         23         24
     1  C    0.000001   0.000046   0.000000   0.000000   0.000000   0.356763
     2  H   -0.000010  -0.000005   0.000000   0.000000   0.000000  -0.055949
     3  C    0.000589   0.002365   0.000013   0.000002   0.000000  -0.056563
     4  H   -0.000022   0.000962  -0.000003   0.000000   0.000000  -0.005223
     5  C   -0.007211  -0.006720  -0.000120  -0.000133   0.000005   0.005243
     6  O    0.010759   0.000040   0.000000   0.000003   0.000000   0.000169
     7  O   -0.000005  -0.000021   0.000000   0.000000   0.000000  -0.058994
     8  H    0.000000   0.000000   0.000000   0.000000   0.000000  -0.002590
     9  C   -0.000011  -0.000352  -0.000001   0.000000   0.000000  -0.003339
    10  H   -0.000001  -0.000036   0.000000   0.000000   0.000000  -0.001592
    11  H   -0.000002   0.000629  -0.000001   0.000000   0.000000   0.000127
    12  H    0.000000   0.000111   0.000000   0.000000   0.000000   0.002479
    13  C   -0.043999  -0.037471   0.003098   0.003310   0.000456  -0.000215
    14  C    0.004098   0.003982  -0.036989  -0.037483   0.382047   0.000000
    15  C    0.381033   0.004238   0.000647  -0.034006   0.003986   0.000002
    16  C    0.004556   0.379958  -0.033391   0.000619   0.004225   0.000001
    17  C    0.000176  -0.035127   0.380813   0.003898  -0.036861   0.000000
    18  C   -0.035549   0.000239   0.003879   0.381482  -0.036920   0.000000
    19  H    0.527247  -0.000116   0.000014  -0.004259  -0.000138   0.000000
    20  H   -0.000116   0.525480  -0.004321   0.000013  -0.000143   0.000003
    21  H    0.000014  -0.004321   0.532428  -0.000145  -0.004527   0.000000
    22  H   -0.004259   0.000013  -0.000145   0.532052  -0.004478   0.000000
    23  H   -0.000138  -0.000143  -0.004527  -0.004478   0.533038   0.000000
    24  C    0.000000   0.000003   0.000000   0.000000   0.000000   5.123246
    25  H    0.000000   0.000000   0.000000   0.000000   0.000000   0.382112
    26  H    0.000000   0.000000   0.000000   0.000000   0.000000   0.355616
    27  H    0.000000  -0.000001   0.000000   0.000000   0.000000   0.379552
             25         26         27
     1  C   -0.027830  -0.023582  -0.030141
     2  H   -0.004105   0.000929   0.005318
     3  C    0.004941  -0.003014  -0.007637
     4  H   -0.000139   0.000291   0.003815
     5  C   -0.000099  -0.000175  -0.000047
     6  O    0.000000   0.000003  -0.000004
     7  O   -0.001446   0.004230   0.001555
     8  H    0.003993  -0.000159  -0.000522
     9  C    0.000194   0.000419  -0.000870
    10  H   -0.000031   0.001052   0.000155
    11  H   -0.000002   0.000052  -0.000048
    12  H   -0.000029  -0.000079   0.000848
    13  C    0.000003   0.000002   0.000005
    14  C    0.000000   0.000000   0.000000
    15  C    0.000000   0.000000   0.000000
    16  C    0.000000   0.000000  -0.000004
    17  C    0.000000   0.000000   0.000000
    18  C    0.000000   0.000000   0.000000
    19  H    0.000000   0.000000   0.000000
    20  H    0.000000   0.000000  -0.000001
    21  H    0.000000   0.000000   0.000000
    22  H    0.000000   0.000000   0.000000
    23  H    0.000000   0.000000   0.000000
    24  C    0.382112   0.355616   0.379552
    25  H    0.561458  -0.025050  -0.031511
    26  H   -0.025050   0.575766  -0.025262
    27  H   -0.031511  -0.025262   0.563326
 Mulliken atomic charges:
              1
     1  C    0.134756
     2  H    0.136641
     3  C   -0.183300
     4  H    0.154357
     5  C    0.423786
     6  O   -0.518299
     7  O   -0.599697
     8  H    0.345519
     9  C   -0.412222
    10  H    0.154929
    11  H    0.151065
    12  H    0.152486
    13  C   -0.003994
    14  C   -0.133399
    15  C   -0.137299
    16  C   -0.152376
    17  C   -0.160125
    18  C   -0.156094
    19  H    0.162852
    20  H    0.166248
    21  H    0.158605
    22  H    0.159123
    23  H    0.159310
    24  C   -0.420849
    25  H    0.137544
    26  H    0.138961
    27  H    0.141472
 Sum of Mulliken atomic charges =   0.00000
 Mulliken charges with hydrogens summed into heavy atoms:
              1
     1  C    0.271398
     3  C   -0.028943
     5  C    0.423786
     6  O   -0.518299
     7  O   -0.254178
     9  C    0.046257
    13  C   -0.003994
    14  C    0.025911
    15  C    0.025553
    16  C    0.013872
    17  C   -0.001519
    18  C    0.003030
    24  C   -0.002873
 Sum of Mulliken charges with hydrogens summed into heavy atoms =   0.00000
 Electronic spatial extent (au):  <R**2>=           2868.7465
 Charge=              0.0000 electrons
 Dipole moment (field-independent basis, Debye):
    X=              0.4270    Y=              1.6693    Z=             -1.7454  Tot=              2.4526
 Quadrupole moment (field-independent basis, Debye-Ang):
   XX=            -58.9998   YY=            -68.9502   ZZ=            -84.1591
   XY=             -1.6969   XZ=              0.5500   YZ=              1.8225
 Traceless Quadrupole moment (field-independent basis, Debye-Ang):
   XX=             11.7032   YY=              1.7529   ZZ=            -13.4560
   XY=             -1.6969   XZ=              0.5500   YZ=              1.8225
 Octapole moment (field-independent basis, Debye-Ang**2):
  XXX=             -1.9804  YYY=            -13.2872  ZZZ=             -6.2450  XYY=              6.6238
  XXY=            -20.6610  XXZ=            -18.4959  XZZ=              7.6268  YZZ=              3.6013
  YYZ=            -10.7726  XYZ=             16.0817
 Hexadecapole moment (field-independent basis, Debye-Ang**3):
 XXXX=          -2520.7409 YYYY=           -493.8784 ZZZZ=           -457.8993 XXXY=            -41.9408
 XXXZ=             24.9325 YYYX=            -36.8544 YYYZ=              6.4774 ZZZX=            -15.1817
 ZZZY=             17.3023 XXYY=           -487.2284 XXZZ=           -540.8720 YYZZ=           -153.8320
 XXYZ=              2.5627 YYXZ=            -20.8679 ZZXY=            -16.5482
 N-N= 7.771186910116D+02 E-N=-2.899179138168D+03  KE= 5.726110912632D+02
 1\1\GINC-COMPUTE-8-1\SP\RmPW1PW91\6-31G(d,p)\C11H14O2\FBRUNO.IQUIR\21-
 Dec-2021\0\\# mPW1PW91/6-31g** scrf=(pcm,solvent=chloroform,smd,dovacu
 um) nmr\\comment\\0,1\C,0,0.335573051,-1.063703223,2.022590778\H,0,0.2
 52396697,-2.138434775,1.823150521\C,0,-0.527287823,-0.247667784,1.0429
 59696\H,0,-0.194745416,0.794181134,1.090894084\C,0,-0.304665822,-0.800
 150523,-0.363174379\O,0,-0.474748955,-1.993014961,-0.621250212\O,0,1.7
 02657397,-0.689107419,1.811032486\H,0,2.254128641,-1.332340093,2.29059
 9717\C,0,-2.024667517,-0.310604825,1.336929987\H,0,-2.371788009,-1.346
 549953,1.419132445\H,0,-2.601317581,0.166460951,0.536592466\H,0,-2.267
 505482,0.207934584,2.269593881\C,0,0.114466802,0.118190073,-1.46109174
 7\C,0,0.924160418,1.748924327,-3.588046133\C,0,0.824664511,-0.42474384
 3,-2.540411482\C,0,-0.204121852,1.4809628,-1.463203778\C,0,0.204965169
 ,2.293373274,-2.524538694\C,0,1.231789186,0.389766223,-3.598404465\H,0
 ,1.065748806,-1.485995593,-2.557584038\H,0,-0.783989808,1.930810779,-0
 .663440593\H,0,-0.042524286,3.352249936,-2.524662754\H,0,1.786493765,-
 0.038193616,-4.429594923\H,0,1.240165138,2.383308621,-4.412600067\C,0,
 0.015998607,-0.800562498,3.490004406\H,0,0.740855778,-1.307753466,4.13
 645521\H,0,-0.982940259,-1.155677097,3.758352636\H,0,0.086238843,0.268
 336966,3.719714952\\Version=EM64L-G09RevC.01\State=1-A\HF=-577.944968\
 RMSD=6.013e-09\Dipole=0.0210168,0.8304259,0.4909599\Quadrupole=-3.2054
 095,-2.4534213,5.6588308,-4.779213,-2.9186812,-6.0681582\PG=C01 [X(C11
 H14O2)]\\@


 WE LEARN WISDOM FROM FAILURE MUCH MORE THAN FROM SUCCESS.
 WE DISCOVER WHAT WILL DO BY FINDING OUT WHAT WILL NOT DO...
 AND HE WHO NEVER MADE A MISTAKE NEVER MADE A DISCOVERY
 Job cpu time:  0 days  0 hours 18 minutes 57.1 seconds.
 File lengths (MBytes):  RWF=     81 Int=      0 D2E=      0 Chk=      5 Scr=      1
 Normal termination of Gaussian 09 at Tue Dec 21 09:55:43 2021.
