 Entering Gaussian System, Link 0=g09
 Input=/home/eluciano.iquir/wb9/73a_026.gjc
 Output=/home/eluciano.iquir/wb9/73a_026.log
 Initial command:
 /share/apps/Gaussian09/EM64T.SSE4.2-enabled/g09/l1.exe /tmp/Gau-61276.inp -scrdir=/tmp/
 Entering Link 1 = /share/apps/Gaussian09/EM64T.SSE4.2-enabled/g09/l1.exe PID=     61277.
  
 Copyright (c) 1988,1990,1992,1993,1995,1998,2003,2009,2011,
            Gaussian, Inc.  All Rights Reserved.
  
 This is part of the Gaussian(R) 09 program.  It is based on
 the Gaussian(R) 03 system (copyright 2003, Gaussian, Inc.),
 the Gaussian(R) 98 system (copyright 1998, Gaussian, Inc.),
 the Gaussian(R) 94 system (copyright 1995, Gaussian, Inc.),
 the Gaussian 92(TM) system (copyright 1992, Gaussian, Inc.),
 the Gaussian 90(TM) system (copyright 1990, Gaussian, Inc.),
 the Gaussian 88(TM) system (copyright 1988, Gaussian, Inc.),
 the Gaussian 86(TM) system (copyright 1986, Carnegie Mellon
 University), and the Gaussian 82(TM) system (copyright 1983,
 Carnegie Mellon University). Gaussian is a federally registered
 trademark of Gaussian, Inc.
  
 This software contains proprietary and confidential information,
 including trade secrets, belonging to Gaussian, Inc.
  
 This software is provided under written license and may be
 used, copied, transmitted, or stored only in accord with that
 written license.
  
 The following legend is applicable only to US Government
 contracts under FAR:
  
                    RESTRICTED RIGHTS LEGEND
  
 Use, reproduction and disclosure by the US Government is
 subject to restrictions as set forth in subparagraphs (a)
 and (c) of the Commercial Computer Software - Restricted
 Rights clause in FAR 52.227-19.
  
 Gaussian, Inc.
 340 Quinnipiac St., Bldg. 40, Wallingford CT 06492
  
  
 ---------------------------------------------------------------
 Warning -- This program may not be used in any manner that
 competes with the business of Gaussian, Inc. or will provide
 assistance to any competitor of Gaussian, Inc.  The licensee
 of this program is prohibited from giving any competitor of
 Gaussian, Inc. access to this program.  By using this program,
 the user acknowledges that Gaussian, Inc. is engaged in the
 business of creating and licensing software in the field of
 computational chemistry and represents and warrants to the
 licensee that it is not a competitor of Gaussian, Inc. and that
 it will not use this program in any manner prohibited above.
 ---------------------------------------------------------------
  

 Cite this work as:
 Gaussian 09, Revision C.01,
 M. J. Frisch, G. W. Trucks, H. B. Schlegel, G. E. Scuseria, 
 M. A. Robb, J. R. Cheeseman, G. Scalmani, V. Barone, B. Mennucci, 
 G. A. Petersson, H. Nakatsuji, M. Caricato, X. Li, H. P. Hratchian, 
 A. F. Izmaylov, J. Bloino, G. Zheng, J. L. Sonnenberg, M. Hada, 
 M. Ehara, K. Toyota, R. Fukuda, J. Hasegawa, M. Ishida, T. Nakajima, 
 Y. Honda, O. Kitao, H. Nakai, T. Vreven, J. A. Montgomery, Jr., 
 J. E. Peralta, F. Ogliaro, M. Bearpark, J. J. Heyd, E. Brothers, 
 K. N. Kudin, V. N. Staroverov, T. Keith, R. Kobayashi, J. Normand, 
 K. Raghavachari, A. Rendell, J. C. Burant, S. S. Iyengar, J. Tomasi, 
 M. Cossi, N. Rega, J. M. Millam, M. Klene, J. E. Knox, J. B. Cross, 
 V. Bakken, C. Adamo, J. Jaramillo, R. Gomperts, R. E. Stratmann, 
 O. Yazyev, A. J. Austin, R. Cammi, C. Pomelli, J. W. Ochterski, 
 R. L. Martin, K. Morokuma, V. G. Zakrzewski, G. A. Voth, 
 P. Salvador, J. J. Dannenberg, S. Dapprich, A. D. Daniels, 
 O. Farkas, J. B. Foresman, J. V. Ortiz, J. Cioslowski, 
 and D. J. Fox, Gaussian, Inc., Wallingford CT, 2010.
 
 ******************************************
 Gaussian 09:  EM64L-G09RevC.01 23-Sep-2011
                17-May-2022 
 ******************************************
 %nprocshared=4
 Will use up to    4 processors via shared memory.
 ----------------------------------------------------------------
 # wb97xd/6-31+g** scrf=(pcm,solvent=chloroform,smd,dovacuum) nmr
 ----------------------------------------------------------------
 1/38=1/1;
 2/12=2,17=6,18=5,40=1/2;
 3/5=1,6=6,7=111,11=2,16=1,25=1,30=1,70=32101,72=7,74=-58/1,2,8,3;
 4//1;
 5/5=2,38=5,53=7/2;
 8/6=1,10=90,11=11/1;
 10/13=100,45=16/2;
 6/7=2,8=2,9=2,10=2,28=1/1;
 99/9=1/99;
 -------
 comment
 -------
 Charge =  0 Multiplicity = 1
 Symbolic Z-Matrix:
 6                     1.16337   0.62435  -1.40059 
 6                    -0.45216   2.80958  -2.02156 
 6                     0.96702   0.9938   -2.73269 
 6                     0.54951   1.34003  -0.36129 
 6                    -0.25736   2.44042  -0.68963 
 6                     0.15814   2.08481  -3.0426 
 6                     0.74594   0.91264   1.0795 
 6                    -0.52763   0.33237   1.71479 
 6                    -1.00596  -0.90375   0.98406 
 8                    -0.00113  -1.81161   0.82895 
 6                    -0.37209  -3.04832   0.20026 
 8                     1.16994   2.0698    1.81014 
 6                    -0.34112  -0.00991   3.19391 
 8                    -2.16815  -1.07952   0.64109 
 6                    -0.29079  -2.91909  -1.30904 
 1                     1.79915  -0.23025  -1.18073 
 1                    -1.07874   3.66484  -2.26016 
 1                     1.44599   0.43039  -3.52905 
 1                    -0.73153   3.02225   0.0984 
 1                     0.00585   2.37297  -4.0792 
 1                     1.5712    0.19109   1.13081 
 1                    -1.33327   1.07629   1.65442 
 1                    -1.36738  -3.37555   0.52216 
 1                     0.33992  -3.80632   0.54286 
 1                     1.69969   1.75963   2.56309 
 1                    -0.15726   0.89068   3.7883 
 1                    -1.23542  -0.49819   3.59695 
 1                     0.50171  -0.6941    3.34152 
 1                    -0.97763  -2.15041  -1.67688 
 1                    -0.53676  -3.86859  -1.7928 
 1                     0.71693  -2.62029  -1.61497 
 
                          Input orientation:                          
 ---------------------------------------------------------------------
 Center     Atomic      Atomic             Coordinates (Angstroms)
 Number     Number       Type             X           Y           Z
 ---------------------------------------------------------------------
      1          6           0        1.163372    0.624346   -1.400587
      2          6           0       -0.452164    2.809576   -2.021555
      3          6           0        0.967016    0.993797   -2.732687
      4          6           0        0.549513    1.340032   -0.361292
      5          6           0       -0.257356    2.440416   -0.689633
      6          6           0        0.158138    2.084806   -3.042604
      7          6           0        0.745944    0.912637    1.079496
      8          6           0       -0.527629    0.332371    1.714790
      9          6           0       -1.005960   -0.903755    0.984064
     10          8           0       -0.001127   -1.811606    0.828947
     11          6           0       -0.372090   -3.048319    0.200261
     12          8           0        1.169942    2.069803    1.810136
     13          6           0       -0.341120   -0.009907    3.193906
     14          8           0       -2.168150   -1.079523    0.641094
     15          6           0       -0.290786   -2.919093   -1.309041
     16          1           0        1.799152   -0.230251   -1.180734
     17          1           0       -1.078736    3.664839   -2.260157
     18          1           0        1.445993    0.430386   -3.529048
     19          1           0       -0.731530    3.022246    0.098396
     20          1           0        0.005851    2.372973   -4.079199
     21          1           0        1.571199    0.191090    1.130814
     22          1           0       -1.333269    1.076289    1.654419
     23          1           0       -1.367384   -3.375551    0.522156
     24          1           0        0.339924   -3.806322    0.542864
     25          1           0        1.699687    1.759628    2.563088
     26          1           0       -0.157263    0.890676    3.788296
     27          1           0       -1.235424   -0.498187    3.596945
     28          1           0        0.501710   -0.694101    3.341518
     29          1           0       -0.977626   -2.150414   -1.676881
     30          1           0       -0.536759   -3.868586   -1.792801
     31          1           0        0.716930   -2.620295   -1.614973
 ---------------------------------------------------------------------
                    Distance matrix (angstroms):
                    1          2          3          4          5
     1  C    0.000000
     2  C    2.787614   0.000000
     3  C    1.396260   2.411812   0.000000
     4  C    1.403269   2.432981   2.432633   0.000000
     5  C    2.412890   1.395797   2.786730   1.403457   0.000000
     6  C    2.416539   1.392948   1.393066   2.810213   2.415692
     7  C    2.531436   3.827579   3.819450   1.515625   2.543725
     8  C    3.556727   4.483583   4.738302   2.546710   3.209073
     9  C    3.567584   4.809290   4.616013   3.043691   3.813810
    10  O    3.501534   5.448314   4.636036   3.413604   4.522326
    11  C    4.290550   6.265606   5.170502   4.519105   5.561590
    12  O    3.521098   4.226151   4.672923   2.373309   2.902305
    13  C    4.875976   5.929827   6.151678   3.905764   4.592708
    14  O    4.262707   5.015915   5.050775   3.774218   4.220419
    15  C    3.831307   5.775065   4.349660   4.443475   5.395287
    16  H    1.087606   3.875043   2.144599   2.167688   3.406298
    17  H    3.874340   1.086737   3.397477   3.414911   2.154165
    18  H    2.155886   3.396482   1.086758   3.415525   3.873487
    19  H    3.404046   2.148829   3.874880   2.163846   1.088281
    20  H    3.401840   2.152742   2.153847   3.896841   3.400439
    21  H    2.600389   4.570328   3.991994   2.142495   3.423026
    22  H    3.971213   4.158536   4.954273   2.770834   2.917706
    23  H    5.108898   6.750104   5.927447   5.166401   6.043680
    24  H    4.907738   7.139592   5.844966   5.229377   6.395118
    25  H    4.157790   5.172215   5.400791   3.170325   3.856642
    26  H    5.360924   6.125644   6.617995   4.233265   4.739573
    27  H    5.655938   6.566761   6.865931   4.715155   5.288360
    28  H    4.966252   6.476742   6.321509   4.225018   5.162514
    29  H    3.515609   4.999642   3.844791   4.030650   4.750702
    30  H    4.819826   6.682615   5.175664   5.509892   6.410815
    31  H    3.282220   5.569165   3.791238   4.157395   5.236056
                    6          7          8          9         10
     6  C    0.000000
     7  C    4.325645   0.000000
     8  C    5.116064   1.536977   0.000000
     9  C    5.147880   2.525382   1.513528   0.000000
    10  O    5.495116   2.835911   2.378773   1.363064   0.000000
    11  C    6.094775   4.208589   3.707702   2.369661   1.436077
    12  O    4.957122   1.432705   2.430948   3.776108   4.171267
    13  C    6.597813   2.550201   1.529615   2.474748   2.992448
    14  O    5.384629   3.557084   2.416108   1.224422   2.295044
    15  C    5.314675   4.632717   4.446534   3.135505   2.425165
    16  H    3.393962   2.743005   3.756929   3.606745   3.127380
    17  H    2.153738   4.696526   5.216251   5.603777   6.379284
    18  H    2.152279   4.686290   5.603805   5.306617   5.110069
    19  H    3.396496   2.756073   3.144795   4.034005   4.943007
    20  H    1.086628   5.412250   6.165952   6.115336   6.449857
    21  H    4.795864   1.097410   2.183133   2.803920   2.564005
    22  H    5.030252   2.163434   1.098233   2.115912   3.285719
    23  H    6.697031   4.813038   3.984501   2.540426   2.099215
    24  H    6.898842   4.766697   4.388034   3.229699   2.043783
    25  H    5.822877   1.956544   2.778059   4.111867   4.318996
    26  H    6.941658   2.855497   2.179060   3.435693   4.010543
    27  H    7.259303   3.500542   2.175617   2.654107   3.303085
    28  H    6.971182   2.785319   2.181611   2.806174   2.795474
    29  H    4.592629   4.466608   4.227310   2.938637   2.710630
    30  H    6.122725   5.723243   5.472780   4.089175   3.375149
    31  H    4.948571   4.443265   4.621091   3.559473   2.672513
                   11         12         13         14         15
    11  C    0.000000
    12  O    5.582538   0.000000
    13  C    4.265539   2.919473   0.000000
    14  O    2.701171   4.735797   3.316469   0.000000
    15  C    1.517004   6.062349   5.361197   3.272849   0.000000
    16  H    3.816142   3.825108   4.875119   4.447450   3.407958
    17  H    7.184671   4.916094   6.617752   5.666839   6.698780
    18  H    5.414292   5.592028   6.970347   5.721184   4.377652
    19  H    6.082050   2.729981   4.350695   4.379829   6.121653
    20  H    6.917154   6.010930   7.661368   6.239165   5.980613
    21  H    3.890510   2.037658   2.820233   3.979575   4.369567
    22  H    4.477816   2.697662   2.129366   2.524160   5.082514
    23  H    1.096042   6.144005   4.418035   2.434567   2.172717
    24  H    1.094947   6.068258   4.680236   3.706146   2.148144
    25  H    5.743828   0.971482   2.773820   5.168656   6.391071
    26  H    5.332525   2.657993   1.094601   4.222586   6.365140
    27  H    4.334280   3.946270   1.095736   3.153567   5.551741
    28  H    4.021613   3.229679   1.095570   3.816936   5.215970
    29  H    2.167157   5.880609   5.358309   2.817297   1.094497
    30  H    2.161539   7.152513   6.308322   4.045263   1.093647
    31  H    2.159686   5.825256   5.573052   3.973349   1.094699
                   16         17         18         19         20
    16  H    0.000000
    17  H    4.961766   0.000000
    18  H    2.464902   4.294885   0.000000
    19  H    4.315004   2.469059   4.961623   0.000000
    20  H    4.288800   2.480758   2.479984   4.291571   0.000000
    21  H    2.360665   5.530621   4.667681   3.792610   5.861327
    22  H    4.422353   4.699925   5.916910   2.563210   6.029014
    23  H    4.776997   7.575730   6.229968   6.443267   7.490245
    24  H    4.229471   8.104800   5.979428   6.926392   7.723908
    25  H    4.240956   5.883295   6.240622   3.685069   6.882242
    26  H    5.456674   6.717803   7.505053   4.299853   8.007576
    27  H    5.666273   7.187558   7.670204   4.988708   8.288999
    28  H    4.727502   7.271653   7.025726   5.084285   8.044865
    29  H    3.412284   5.845306   3.995620   5.474356   5.215303
    30  H    4.366760   7.567342   5.042521   7.148295   6.669266
    31  H    2.659338   6.568378   3.674489   6.072226   5.613445
                   21         22         23         24         25
    21  H    0.000000
    22  H    3.081181   0.000000
    23  H    4.661187   4.593699   0.000000
    24  H    4.223864   5.279680   1.760935   0.000000
    25  H    2.127964   3.239051   6.319999   6.075365   0.000000
    26  H    3.246415   2.443537   5.507518   5.730778   2.388404
    27  H    3.799216   2.502390   4.213189   4.769998   3.844667
    28  H    2.610476   3.057406   4.316537   4.188623   2.839346
    29  H    4.456714   4.651415   2.547280   3.066796   6.358755
    30  H    5.428810   6.080259   2.508395   2.495552   7.460044
    31  H    4.021567   5.343873   3.079301   2.490995   6.132351
                   26         27         28         29         30
    26  H    0.000000
    27  H    1.768612   0.000000
    28  H    1.773520   1.766709   0.000000
    29  H    6.307882   5.532590   5.430802   0.000000
    30  H    7.344606   6.395083   6.125113   1.777615   0.000000
    31  H    6.502803   5.956435   5.321968   1.759586   1.778086
                   31
    31  H    0.000000
 Stoichiometry    C12H16O3
 Framework group  C1[X(C12H16O3)]
 Deg. of freedom    87
 Full point group                 C1      NOp   1
 Largest Abelian subgroup         C1      NOp   1
 Largest concise Abelian subgroup C1      NOp   1
                         Standard orientation:                         
 ---------------------------------------------------------------------
 Center     Atomic      Atomic             Coordinates (Angstroms)
 Number     Number       Type             X           Y           Z
 ---------------------------------------------------------------------
      1          6           0       -1.447694   -0.742852   -1.012348
      2          6           0       -3.205378   -0.016041    1.025564
      3          6           0       -2.508362   -1.583699   -0.669563
      4          6           0       -1.248862    0.470633   -0.336269
      5          6           0       -2.144752    0.824733    0.684362
      6          6           0       -3.385413   -1.220903    0.350139
      7          6           0       -0.077270    1.362019   -0.696717
      8          6           0        0.995928    1.420170    0.401992
      9          6           0        1.590788    0.056068    0.677921
     10          8           0        2.006262   -0.548553   -0.470887
     11          6           0        2.643728   -1.824832   -0.306369
     12          8           0       -0.601232    2.674101   -0.934513
     13          6           0        2.127279    2.392987    0.065251
     14          8           0        1.734637   -0.404064    1.803441
     15          6           0        1.607673   -2.932368   -0.270951
     16          1           0       -0.775084   -1.044972   -1.811852
     17          1           0       -3.891673    0.272327    1.817297
     18          1           0       -2.650776   -2.522074   -1.198914
     19          1           0       -2.022499    1.768089    1.213029
     20          1           0       -4.211403   -1.874775    0.616511
     21          1           0        0.354536    1.021256   -1.646313
     22          1           0        0.537701    1.768801    1.337192
     23          1           0        3.278705   -1.840352    0.586868
     24          1           0        3.302643   -1.965761   -1.169432
     25          1           0       -0.002248    3.117233   -1.557914
     26          1           0        1.762626    3.424148    0.021801
     27          1           0        2.916781    2.350566    0.823884
     28          1           0        2.585828    2.152277   -0.900184
     29          1           0        0.920415   -2.803085    0.571003
     30          1           0        2.089147   -3.910348   -0.182623
     31          1           0        1.001992   -2.920687   -1.182752
 ---------------------------------------------------------------------
 Rotational constants (GHZ):      0.7427342      0.5041327      0.3629697
 Standard basis: 6-31+G(d,p) (6D, 7F)
 There are   365 symmetry adapted basis functions of A   symmetry.
 Integral buffers will be    131072 words long.
 Raffenetti 2 integral format.
 Two-electron integral symmetry is turned on.
   365 basis functions,   592 primitive gaussians,   365 cartesian basis functions
    56 alpha electrons       56 beta electrons
       nuclear repulsion energy      1027.3586284042 Hartrees.
 NAtoms=   31 NActive=   31 NUniq=   31 SFac= 1.00D+00 NAtFMM=   60 NAOKFM=F Big=F
 Nuclear repulsion after empirical dispersion term =     1027.3361753522 Hartrees.
 ------------------------------------------------------------------------------
 Polarizable Continuum Model (PCM)
 =================================
 Model                : C-PCM.
 Atomic radii         : SMD-Coulomb.
 Polarization charges : Total charges.
 Charge compensation  : None.
 Solution method      : Matrix inversion.
 Cavity type          : VdW (van der Waals Surface) (Alpha=1.000).
 Cavity algorithm     : GePol (No added spheres)
                        Default sphere list used, NSphG=   31.
                        Lebedev-Laikov grids with approx.  5.0 points / Ang**2.
                        Smoothing algorithm: Karplus/York (Gamma=1.0000).
                        Polarization charges: spherical gaussians, with
                                              point-specific exponents (IZeta= 3).
                        Self-potential: point-specific (ISelfS= 7).
                        Self-field    : sphere-specific E.n sum rule (ISelfD= 2).
 Solvent              : Chloroform, Eps=   4.711300 Eps(inf)=   2.090627
 ------------------------------------------------------------------------------
 ------------------------------------------------------------------------------
 Atomic radii for non-electrostatic terms: SMD-CDS.
 ------------------------------------------------------------------------------
 Nuclear repulsion after PCM non-electrostatic terms =     1027.3297861456 Hartrees.
 One-electron integrals computed using PRISM.
 NBasis=   365 RedAO= T  NBF=   365
 NBsUse=   365 1.00D-06 NBFU=   365
 Harris functional with IExCor= 4639 diagonalized for initial guess.
 ExpMin= 4.38D-02 ExpMax= 5.48D+03 ExpMxC= 8.25D+02 IAcc=2 IRadAn=         4 AccDes= 0.00D+00
 HarFok:  IExCor= 4639 AccDes= 0.00D+00 IRadAn=         4 IDoV= 1
 ScaDFX=  1.000000  1.000000  1.000000  1.000000
 FoFCou: FMM=F IPFlag=           0 FMFlag=      100000 FMFlg1=           0
         NFxFlg=           0 DoJE=T BraDBF=F KetDBF=T FulRan=T
         Omega=  0.000000  0.000000  1.000000  0.000000  0.000000 ICntrl=     500 IOpCl=  0
         NMat0=    1 NMatS0=    1 NMatT0=    0 NMatD0=    1 NMtDS0=    0 NMtDT0=    0
         I1Cent=           4 NGrid=           0.
 Petite list used in FoFCou.
 Initial guess orbital symmetries:
       Occupied  (A) (A) (A) (A) (A) (A) (A) (A) (A) (A) (A) (A)
                 (A) (A) (A) (A) (A) (A) (A) (A) (A) (A) (A) (A)
                 (A) (A) (A) (A) (A) (A) (A) (A) (A) (A) (A) (A)
                 (A) (A) (A) (A) (A) (A) (A) (A) (A) (A) (A) (A)
                 (A) (A) (A) (A) (A) (A) (A) (A)
       Virtual   (A) (A) (A) (A) (A) (A) (A) (A) (A) (A) (A) (A)
                 (A) (A) (A) (A) (A) (A) (A) (A) (A) (A) (A) (A)
                 (A) (A) (A) (A) (A) (A) (A) (A) (A) (A) (A) (A)
                 (A) (A) (A) (A) (A) (A) (A) (A) (A) (A) (A) (A)
                 (A) (A) (A) (A) (A) (A) (A) (A) (A) (A) (A) (A)
                 (A) (A) (A) (A) (A) (A) (A) (A) (A) (A) (A) (A)
                 (A) (A) (A) (A) (A) (A) (A) (A) (A) (A) (A) (A)
                 (A) (A) (A) (A) (A) (A) (A) (A) (A) (A) (A) (A)
                 (A) (A) (A) (A) (A) (A) (A) (A) (A) (A) (A) (A)
                 (A) (A) (A) (A) (A) (A) (A) (A) (A) (A) (A) (A)
                 (A) (A) (A) (A) (A) (A) (A) (A) (A) (A) (A) (A)
                 (A) (A) (A) (A) (A) (A) (A) (A) (A) (A) (A) (A)
                 (A) (A) (A) (A) (A) (A) (A) (A) (A) (A) (A) (A)
                 (A) (A) (A) (A) (A) (A) (A) (A) (A) (A) (A) (A)
                 (A) (A) (A) (A) (A) (A) (A) (A) (A) (A) (A) (A)
                 (A) (A) (A) (A) (A) (A) (A) (A) (A) (A) (A) (A)
                 (A) (A) (A) (A) (A) (A) (A) (A) (A) (A) (A) (A)
                 (A) (A) (A) (A) (A) (A) (A) (A) (A) (A) (A) (A)
                 (A) (A) (A) (A) (A) (A) (A) (A) (A) (A) (A) (A)
                 (A) (A) (A) (A) (A) (A) (A) (A) (A) (A) (A) (A)
                 (A) (A) (A) (A) (A) (A) (A) (A) (A) (A) (A) (A)
                 (A) (A) (A) (A) (A) (A) (A) (A) (A) (A) (A) (A)
                 (A) (A) (A) (A) (A) (A) (A) (A) (A) (A) (A) (A)
                 (A) (A) (A) (A) (A) (A) (A) (A) (A) (A) (A) (A)
                 (A) (A) (A) (A) (A) (A) (A) (A) (A) (A) (A) (A)
                 (A) (A) (A) (A) (A) (A) (A) (A) (A)
 The electronic state of the initial guess is 1-A.
 Requested convergence on RMS density matrix=1.00D-08 within 128 cycles.
 Requested convergence on MAX density matrix=1.00D-06.
 Requested convergence on             energy=1.00D-06.
 No special actions if energy rises.
 FoFJK:  IHMeth= 1 ICntrl=     0 DoSepK=T KAlg= 1 I1Cent= 0 FoldK=F
 FoFJK:  IHMeth= 1 ICntrl=     0 DoSepK=T KAlg= 1 I1Cent= 0 FoldK=F
 FoFJK:  IHMeth= 1 ICntrl=     0 DoSepK=T KAlg= 1 I1Cent= 0 FoldK=F
 FoFJK:  IHMeth= 1 ICntrl=     0 DoSepK=T KAlg= 1 I1Cent= 0 FoldK=F
 FoFJK:  IHMeth= 1 ICntrl=     0 DoSepK=T KAlg= 1 I1Cent= 0 FoldK=F
 FoFJK:  IHMeth= 1 ICntrl=     0 DoSepK=T KAlg= 1 I1Cent= 0 FoldK=F
 FoFJK:  IHMeth= 1 ICntrl=     0 DoSepK=T KAlg= 1 I1Cent= 0 FoldK=F
 FoFJK:  IHMeth= 1 ICntrl=     0 DoSepK=T KAlg= 1 I1Cent= 0 FoldK=F
 FoFJK:  IHMeth= 1 ICntrl=     0 DoSepK=T KAlg= 1 I1Cent= 0 FoldK=F
 FoFJK:  IHMeth= 1 ICntrl=     0 DoSepK=T KAlg= 1 I1Cent= 0 FoldK=F
 FoFJK:  IHMeth= 1 ICntrl=     0 DoSepK=T KAlg= 1 I1Cent= 0 FoldK=F
 FoFJK:  IHMeth= 1 ICntrl=     0 DoSepK=T KAlg= 1 I1Cent= 0 FoldK=F
 FoFJK:  IHMeth= 1 ICntrl=     0 DoSepK=T KAlg= 1 I1Cent= 0 FoldK=F
 FoFJK:  IHMeth= 1 ICntrl=     0 DoSepK=T KAlg= 1 I1Cent= 0 FoldK=F
 FoFJK:  IHMeth= 1 ICntrl=     0 DoSepK=T KAlg= 1 I1Cent= 0 FoldK=F
 FoFJK:  IHMeth= 1 ICntrl=     0 DoSepK=T KAlg= 1 I1Cent= 0 FoldK=F
 Error on total polarization charges =  0.03787
 SCF Done:  E(RwB97XD) =  -692.445629029     A.U. after   16 cycles
             Convg  =    0.2945D-08             -V/T =  2.0095
 SMD-CDS (non-electrostatic) energy       (kcal/mol) =      -4.01
 (included in total energy above)
 Range of M.O.s used for correlation:     1   365
 NBasis=   365 NAE=    56 NBE=    56 NFC=     0 NFV=     0
 NROrb=    365 NOA=    56 NOB=    56 NVA=   309 NVB=   309

 **** Warning!!: The largest alpha MO coefficient is  0.12790563D+03

 NEqPCM:  Using equilibrium solvation (IEInf=0, Eps=   4.7113, EpsInf=   2.0906)
          Differentiating once with respect to magnetic field using GIAOs.
          Electric field/nuclear overlap derivatives assumed to be zero.
 FoFCou: FMM=F IPFlag=           0 FMFlag=    10101102 FMFlg1=           0
         NFxFlg=    40000000 DoJE=F BraDBF=F KetDBF=T FulRan=T
         Omega=  0.000000  0.000000  1.000000  0.000000  0.000000 ICntrl=    6100 IOpCl=  0
         NMat0=    1 NMatS0=    1 NMatT0=    0 NMatD0=    1 NMtDS0=    0 NMtDT0=    0
         I1Cent=           7 NGrid=        2283.
 Symmetry not used in FoFCou.
 FoFJK:  IHMeth= 1 ICntrl=  6127 DoSepK=T KAlg= 1 I1Cent= 0 FoldK=F
 FoFJK:  IHMeth= 1 ICntrl=     0 DoSepK=T KAlg= 1 I1Cent= 0 FoldK=F
          There are     3 degrees of freedom in the 1st order CPHF.  IDoFFX=0.
      3 vectors produced by pass  0 Test12= 5.77D-13 3.33D-08 XBig12= 1.26D+02 2.17D+00.
 AX will form     3 AO Fock derivatives at one time.
 FoFJK:  IHMeth= 1 ICntrl=     0 DoSepK=T KAlg= 1 I1Cent= 0 FoldK=F
      3 vectors produced by pass  1 Test12= 5.77D-13 3.33D-08 XBig12= 8.82D-01 2.50D-01.
 FoFJK:  IHMeth= 1 ICntrl=     0 DoSepK=T KAlg= 1 I1Cent= 0 FoldK=F
      3 vectors produced by pass  2 Test12= 5.77D-13 3.33D-08 XBig12= 1.38D-02 4.11D-02.
 FoFJK:  IHMeth= 1 ICntrl=     0 DoSepK=T KAlg= 1 I1Cent= 0 FoldK=F
      3 vectors produced by pass  3 Test12= 5.77D-13 3.33D-08 XBig12= 2.60D-04 4.10D-03.
 FoFJK:  IHMeth= 1 ICntrl=     0 DoSepK=T KAlg= 1 I1Cent= 0 FoldK=F
      3 vectors produced by pass  4 Test12= 5.77D-13 3.33D-08 XBig12= 4.89D-06 6.52D-04.
 FoFJK:  IHMeth= 1 ICntrl=     0 DoSepK=T KAlg= 1 I1Cent= 0 FoldK=F
      3 vectors produced by pass  5 Test12= 5.77D-13 3.33D-08 XBig12= 1.03D-07 9.47D-05.
 FoFJK:  IHMeth= 1 ICntrl=     0 DoSepK=T KAlg= 1 I1Cent= 0 FoldK=F
      3 vectors produced by pass  6 Test12= 5.77D-13 3.33D-08 XBig12= 1.93D-09 9.94D-06.
 FoFJK:  IHMeth= 1 ICntrl=     0 DoSepK=T KAlg= 1 I1Cent= 0 FoldK=F
      3 vectors produced by pass  7 Test12= 5.77D-13 3.33D-08 XBig12= 1.82D-11 1.02D-06.
 FoFJK:  IHMeth= 1 ICntrl=     0 DoSepK=T KAlg= 1 I1Cent= 0 FoldK=F
      2 vectors produced by pass  8 Test12= 5.77D-13 3.33D-08 XBig12= 1.86D-13 1.03D-07.
 FoFJK:  IHMeth= 1 ICntrl=     0 DoSepK=T KAlg= 1 I1Cent= 0 FoldK=F
 Inverted reduced A of dimension    26 with in-core refinement.
 Calculating GIAO nuclear magnetic shielding tensors.
 SCF GIAO Magnetic shielding tensor (ppm):
      1  C    Isotropic =    69.7584   Anisotropy =   162.7660
   XX=    67.1879   YX=   -21.3672   ZX=    84.4494
   XY=   -15.2777   YY=    79.1301   ZY=   -54.4382
   XZ=    82.7433   YZ=   -59.9205   ZZ=    62.9573
   Eigenvalues:   -27.3100    58.3162   178.2691
      2  C    Isotropic =    69.7386   Anisotropy =   177.1399
   XX=    66.8744   YX=   -21.8184   ZX=    90.8021
   XY=   -18.7130   YY=    76.4416   ZY=   -59.4975
   XZ=    92.8150   YZ=   -59.9719   ZZ=    65.8998
   Eigenvalues:   -33.8295    55.2135   187.8319
      3  C    Isotropic =    70.6318   Anisotropy =   173.6963
   XX=   101.0124   YX=   -45.0630   ZX=    45.2596
   XY=   -45.8049   YY=    18.0501   ZY=   -76.5235
   XZ=    43.9977   YZ=   -77.3462   ZZ=    92.8330
   Eigenvalues:   -32.0831    57.5492   186.4294
      4  C    Isotropic =    53.5194   Anisotropy =   183.5898
   XX=    41.6610   YX=   -69.0022   ZX=    66.0706
   XY=   -69.2637   YY=    35.0634   ZY=   -45.0162
   XZ=    70.0841   YZ=   -40.5357   ZZ=    83.8339
   Eigenvalues:   -34.2987    18.9443   175.9126
      5  C    Isotropic =    73.1298   Anisotropy =   181.4109
   XX=    98.6930   YX=   -45.6472   ZX=    49.7060
   XY=   -45.8035   YY=    25.1915   ZY=   -75.6427
   XZ=    50.8704   YZ=   -81.9394   ZZ=    95.5049
   Eigenvalues:   -27.1384    52.4574   194.0704
      6  C    Isotropic =    71.5435   Anisotropy =   177.7398
   XX=    52.3189   YX=   -75.6778   ZX=    67.7024
   XY=   -76.9730   YY=    50.9944   ZY=   -29.4722
   XZ=    68.5483   YZ=   -27.0043   ZZ=   111.3174
   Eigenvalues:   -31.5262    56.1201   190.0367
      7  C    Isotropic =   120.1345   Anisotropy =    27.5403
   XX=   119.1530   YX=    -6.3878   ZX=     5.1383
   XY=    -8.4398   YY=   135.6024   ZY=     1.8789
   XZ=     5.1829   YZ=     4.6001   ZZ=   105.6481
   Eigenvalues:   102.9354   118.9734   138.4947
      8  C    Isotropic =   143.5405   Anisotropy =    29.8841
   XX=   144.8611   YX=   -14.1366   ZX=     3.1181
   XY=   -17.1084   YY=   148.4534   ZY=     2.9648
   XZ=    10.3908   YZ=    -5.0051   ZZ=   137.3070
   Eigenvalues:   128.5385   138.6197   163.4633
      9  C    Isotropic =    19.7252   Anisotropy =   105.1883
   XX=    62.2086   YX=    49.7042   ZX=    25.2115
   XY=    50.8617   YY=    -7.6529   ZY=   -25.1876
   XZ=    39.8728   YZ=   -59.5501   ZZ=     4.6197
   Eigenvalues:   -70.8856    40.2104    89.8507
     10  O    Isotropic =   136.0034   Anisotropy =   166.2777
   XX=   205.4288   YX=    72.1177   ZX=    -7.0551
   XY=    83.2851   YY=    85.1324   ZY=    45.4338
   XZ=   -68.0123   YZ=   173.4607   ZZ=   117.4488
   Eigenvalues:   -38.1024   199.2573   246.8552
     11  C    Isotropic =   137.2692   Anisotropy =    66.6667
   XX=   140.4571   YX=   -17.2088   ZX=    -1.3348
   XY=   -21.2255   YY=   172.6033   ZY=    -6.4416
   XZ=     0.1408   YZ=    -1.3810   ZZ=    98.7472
   Eigenvalues:    98.4707   131.6232   181.7137
     12  O    Isotropic =   292.6118   Anisotropy =    46.4503
   XX=   292.6744   YX=    13.5695   ZX=   -23.4348
   XY=     0.1611   YY=   314.2293   ZY=   -16.7753
   XZ=   -25.8015   YZ=    -4.4418   ZZ=   270.9317
   Eigenvalues:   254.4305   299.8262   323.5787
     13  C    Isotropic =   180.0830   Anisotropy =    28.3047
   XX=   187.3651   YX=    15.5881   ZX=    -3.7197
   XY=    12.0204   YY=   179.5369   ZY=    -1.5591
   XZ=    -7.3476   YZ=    -1.7762   ZZ=   173.3471
   Eigenvalues:   168.1463   173.1499   198.9528
     14  O    Isotropic =   -48.9592   Anisotropy =   534.0943
   XX=   211.3564   YX=   181.5965   ZX=    66.3755
   XY=   183.0300   YY=   -67.2872   ZY=    15.2542
   XZ=    54.0883   YZ=     2.4537   ZZ=  -290.9467
   Eigenvalues:  -299.0173  -154.9639   307.1037
     15  C    Isotropic =   180.7617   Anisotropy =    22.7174
   XX=   187.0343   YX=     6.9076   ZX=     1.8023
   XY=     2.3620   YY=   193.4662   ZY=    -1.2578
   XZ=     1.4755   YZ=    -2.0737   ZZ=   161.7847
   Eigenvalues:   161.5551   184.8234   195.9067
     16  H    Isotropic =    23.7283   Anisotropy =     6.7520
   XX=    24.6304   YX=     2.7232   ZX=     1.4778
   XY=     2.7685   YY=    25.2756   ZY=     1.5295
   XZ=     0.7292   YZ=     1.5540   ZZ=    21.2788
   Eigenvalues:    20.7416    22.2136    28.2296
     17  H    Isotropic =    23.7116   Anisotropy =     4.9708
   XX=    24.3727   YX=     2.3268   ZX=    -1.4864
   XY=     2.4460   YY=    24.8786   ZY=     1.1275
   XZ=    -1.2860   YZ=     1.3305   ZZ=    21.8836
   Eigenvalues:    20.1943    23.9151    27.0255
     18  H    Isotropic =    23.9148   Anisotropy =     5.2493
   XX=    25.8013   YX=     1.7814   ZX=    -2.1693
   XY=     1.9050   YY=    23.0048   ZY=     0.8428
   XZ=    -2.2384   YZ=     0.5194   ZZ=    22.9385
   Eigenvalues:    20.6808    23.6494    27.4144
     19  H    Isotropic =    23.4117   Anisotropy =     9.4809
   XX=    26.6358   YX=     1.0687   ZX=    -4.6535
   XY=     1.9953   YY=    21.0811   ZY=    -0.1204
   XZ=    -4.3188   YZ=    -0.1908   ZZ=    22.5183
   Eigenvalues:    19.3313    21.1715    29.7324
     20  H    Isotropic =    23.7600   Anisotropy =     4.3201
   XX=    23.7046   YX=     0.5457   ZX=    -2.0190
   XY=     0.7570   YY=    24.0551   ZY=     2.4614
   XZ=    -2.1024   YZ=     2.4945   ZZ=    23.5203
   Eigenvalues:    20.1604    24.4795    26.6400
     21  H    Isotropic =    26.7020   Anisotropy =     7.0052
   XX=    24.1592   YX=    -1.9630   ZX=    -0.7544
   XY=    -1.4288   YY=    29.8691   ZY=     2.4936
   XZ=    -1.3614   YZ=     1.7734   ZZ=    26.0776
   Eigenvalues:    23.5715    25.1623    31.3721
     22  H    Isotropic =    28.5140   Anisotropy =     5.1362
   XX=    29.4156   YX=     1.5491   ZX=    -3.0261
   XY=    -0.5324   YY=    25.9370   ZY=     1.2311
   XZ=    -1.1409   YZ=     0.4192   ZZ=    30.1895
   Eigenvalues:    25.5302    28.0737    31.9382
     23  H    Isotropic =    27.0881   Anisotropy =     7.3184
   XX=    29.5559   YX=    -2.0509   ZX=     3.5622
   XY=    -2.4065   YY=    27.3817   ZY=    -0.7743
   XZ=     2.8554   YZ=     0.8723   ZZ=    24.3266
   Eigenvalues:    22.5715    26.7257    31.9670
     24  H    Isotropic =    27.7937   Anisotropy =     8.3985
   XX=    30.1708   YX=    -1.4562   ZX=    -5.7186
   XY=    -1.8544   YY=    28.0350   ZY=     1.2856
   XZ=    -3.2284   YZ=     0.1317   ZZ=    25.1752
   Eigenvalues:    22.5395    27.4489    33.3927
     25  H    Isotropic =    29.2185   Anisotropy =    18.7081
   XX=    28.1595   YX=     2.4626   ZX=    -5.7624
   XY=     4.3436   YY=    30.5322   ZY=    -8.6222
   XZ=    -5.4175   YZ=    -9.2857   ZZ=    28.9638
   Eigenvalues:    20.1909    25.7740    41.6906
     26  H    Isotropic =    29.9908   Anisotropy =     8.9570
   XX=    28.6793   YX=     0.9676   ZX=     0.2258
   XY=    -0.0345   YY=    35.9290   ZY=     0.0870
   XZ=     0.8336   YZ=     0.2154   ZZ=    25.3639
   Eigenvalues:    25.2808    28.7293    35.9621
     27  H    Isotropic =    30.3662   Anisotropy =     9.6892
   XX=    33.1834   YX=     2.7933   ZX=     4.5425
   XY=     2.5848   YY=    28.4768   ZY=     0.8069
   XZ=     3.9707   YZ=     0.7448   ZZ=    29.4384
   Eigenvalues:    26.2192    28.0537    36.8257
     28  H    Isotropic =    30.4441   Anisotropy =     7.9706
   XX=    30.8206   YX=     1.2111   ZX=    -5.0432
   XY=     1.1134   YY=    28.8748   ZY=    -0.2843
   XZ=    -3.9135   YZ=     1.1442   ZZ=    31.6367
   Eigenvalues:    26.2291    29.3453    35.7578
     29  H    Isotropic =    30.8644   Anisotropy =     4.9062
   XX=    31.9318   YX=     0.6184   ZX=    -4.3352
   XY=     0.1066   YY=    30.8599   ZY=    -0.1688
   XZ=    -1.6381   YZ=    -0.7643   ZZ=    29.8016
   Eigenvalues:    27.6863    30.7718    34.1353
     30  H    Isotropic =    30.7969   Anisotropy =    11.8070
   XX=    28.3818   YX=    -2.3894   ZX=     0.1686
   XY=    -3.2612   YY=    37.8480   ZY=    -0.4018
   XZ=     0.7320   YZ=    -0.8376   ZZ=    26.1609
   Eigenvalues:    26.0726    27.6499    38.6683
     31  H    Isotropic =    30.4128   Anisotropy =     6.8023
   XX=    31.1650   YX=     0.2026   ZX=     3.7975
   XY=     0.6517   YY=    29.8889   ZY=     2.4937
   XZ=     3.9440   YZ=     0.6423   ZZ=    30.1845
   Eigenvalues:    26.5187    29.7720    34.9477
 End of Minotr Frequency-dependent properties file   721 does not exist.
 End of Minotr Frequency-dependent properties file   722 does not exist.

 **********************************************************************

            Population analysis using the SCF density.

 **********************************************************************

 Orbital symmetries:
       Occupied  (A) (A) (A) (A) (A) (A) (A) (A) (A) (A) (A) (A)
                 (A) (A) (A) (A) (A) (A) (A) (A) (A) (A) (A) (A)
                 (A) (A) (A) (A) (A) (A) (A) (A) (A) (A) (A) (A)
                 (A) (A) (A) (A) (A) (A) (A) (A) (A) (A) (A) (A)
                 (A) (A) (A) (A) (A) (A) (A) (A)
       Virtual   (A) (A) (A) (A) (A) (A) (A) (A) (A) (A) (A) (A)
                 (A) (A) (A) (A) (A) (A) (A) (A) (A) (A) (A) (A)
                 (A) (A) (A) (A) (A) (A) (A) (A) (A) (A) (A) (A)
                 (A) (A) (A) (A) (A) (A) (A) (A) (A) (A) (A) (A)
                 (A) (A) (A) (A) (A) (A) (A) (A) (A) (A) (A) (A)
                 (A) (A) (A) (A) (A) (A) (A) (A) (A) (A) (A) (A)
                 (A) (A) (A) (A) (A) (A) (A) (A) (A) (A) (A) (A)
                 (A) (A) (A) (A) (A) (A) (A) (A) (A) (A) (A) (A)
                 (A) (A) (A) (A) (A) (A) (A) (A) (A) (A) (A) (A)
                 (A) (A) (A) (A) (A) (A) (A) (A) (A) (A) (A) (A)
                 (A) (A) (A) (A) (A) (A) (A) (A) (A) (A) (A) (A)
                 (A) (A) (A) (A) (A) (A) (A) (A) (A) (A) (A) (A)
                 (A) (A) (A) (A) (A) (A) (A) (A) (A) (A) (A) (A)
                 (A) (A) (A) (A) (A) (A) (A) (A) (A) (A) (A) (A)
                 (A) (A) (A) (A) (A) (A) (A) (A) (A) (A) (A) (A)
                 (A) (A) (A) (A) (A) (A) (A) (A) (A) (A) (A) (A)
                 (A) (A) (A) (A) (A) (A) (A) (A) (A) (A) (A) (A)
                 (A) (A) (A) (A) (A) (A) (A) (A) (A) (A) (A) (A)
                 (A) (A) (A) (A) (A) (A) (A) (A) (A) (A) (A) (A)
                 (A) (A) (A) (A) (A) (A) (A) (A) (A) (A) (A) (A)
                 (A) (A) (A) (A) (A) (A) (A) (A) (A) (A) (A) (A)
                 (A) (A) (A) (A) (A) (A) (A) (A) (A) (A) (A) (A)
                 (A) (A) (A) (A) (A) (A) (A) (A) (A) (A) (A) (A)
                 (A) (A) (A) (A) (A) (A) (A) (A) (A) (A) (A) (A)
                 (A) (A) (A) (A) (A) (A) (A) (A) (A) (A) (A) (A)
                 (A) (A) (A) (A) (A) (A) (A) (A) (A)
 The electronic state is 1-A.
 Alpha  occ. eigenvalues --  -19.32902 -19.28313 -19.27493 -10.44046 -10.36043
 Alpha  occ. eigenvalues --  -10.35095 -10.31709 -10.31432 -10.30645 -10.30573
 Alpha  occ. eigenvalues --  -10.30526 -10.30509 -10.30423 -10.29401 -10.28637
 Alpha  occ. eigenvalues --   -1.20989  -1.13076  -1.12416  -0.96167  -0.91492
 Alpha  occ. eigenvalues --   -0.86575  -0.85344  -0.84630  -0.78013  -0.75786
 Alpha  occ. eigenvalues --   -0.71503  -0.70054  -0.67634  -0.64848  -0.61561
 Alpha  occ. eigenvalues --   -0.60761  -0.59312  -0.57528  -0.55731  -0.54648
 Alpha  occ. eigenvalues --   -0.53676  -0.52769  -0.51598  -0.51065  -0.50193
 Alpha  occ. eigenvalues --   -0.49698  -0.47401  -0.46588  -0.46128  -0.45432
 Alpha  occ. eigenvalues --   -0.44851  -0.44562  -0.43413  -0.42334  -0.42129
 Alpha  occ. eigenvalues --   -0.40409  -0.38868  -0.37598  -0.35392  -0.33147
 Alpha  occ. eigenvalues --   -0.32709
 Alpha virt. eigenvalues --    0.04854   0.05521   0.06368   0.07316   0.07464
 Alpha virt. eigenvalues --    0.08180   0.08385   0.09569   0.09681   0.10301
 Alpha virt. eigenvalues --    0.10683   0.11186   0.11655   0.12472   0.12773
 Alpha virt. eigenvalues --    0.13304   0.13948   0.14186   0.14800   0.15248
 Alpha virt. eigenvalues --    0.15718   0.16490   0.17234   0.17716   0.18528
 Alpha virt. eigenvalues --    0.18794   0.19127   0.19449   0.19715   0.20019
 Alpha virt. eigenvalues --    0.21013   0.21416   0.22038   0.22651   0.22812
 Alpha virt. eigenvalues --    0.22966   0.23544   0.24323   0.24481   0.25078
 Alpha virt. eigenvalues --    0.25528   0.25886   0.26311   0.26580   0.27086
 Alpha virt. eigenvalues --    0.27641   0.27719   0.28194   0.28669   0.29013
 Alpha virt. eigenvalues --    0.29784   0.30201   0.30921   0.31136   0.31399
 Alpha virt. eigenvalues --    0.32067   0.32284   0.32660   0.33512   0.33748
 Alpha virt. eigenvalues --    0.34341   0.35119   0.35458   0.35943   0.36086
 Alpha virt. eigenvalues --    0.36405   0.36891   0.37614   0.37912   0.38877
 Alpha virt. eigenvalues --    0.39556   0.39973   0.40775   0.41311   0.41981
 Alpha virt. eigenvalues --    0.42700   0.43458   0.43853   0.44484   0.44830
 Alpha virt. eigenvalues --    0.45440   0.45987   0.46249   0.47201   0.48107
 Alpha virt. eigenvalues --    0.48593   0.50531   0.50932   0.52275   0.54154
 Alpha virt. eigenvalues --    0.56309   0.58142   0.61148   0.66690   0.69678
 Alpha virt. eigenvalues --    0.72720   0.73227   0.74977   0.75398   0.76660
 Alpha virt. eigenvalues --    0.77827   0.78531   0.79075   0.80535   0.81140
 Alpha virt. eigenvalues --    0.82595   0.82976   0.83427   0.84764   0.85298
 Alpha virt. eigenvalues --    0.85986   0.87563   0.87906   0.90195   0.90490
 Alpha virt. eigenvalues --    0.91231   0.91984   0.93271   0.94693   0.95860
 Alpha virt. eigenvalues --    0.97744   0.99344   1.00298   1.01883   1.02657
 Alpha virt. eigenvalues --    1.03742   1.04421   1.05917   1.06972   1.08059
 Alpha virt. eigenvalues --    1.08786   1.10182   1.10981   1.11716   1.12716
 Alpha virt. eigenvalues --    1.13220   1.14915   1.16397   1.17836   1.19116
 Alpha virt. eigenvalues --    1.21091   1.21718   1.22681   1.23666   1.24893
 Alpha virt. eigenvalues --    1.25457   1.27223   1.28034   1.29871   1.30453
 Alpha virt. eigenvalues --    1.31845   1.34548   1.35867   1.37833   1.39140
 Alpha virt. eigenvalues --    1.40408   1.41658   1.42315   1.43233   1.43874
 Alpha virt. eigenvalues --    1.45710   1.46446   1.48341   1.49680   1.50540
 Alpha virt. eigenvalues --    1.51713   1.52329   1.53050   1.55430   1.57726
 Alpha virt. eigenvalues --    1.58713   1.60011   1.62217   1.64798   1.65935
 Alpha virt. eigenvalues --    1.69324   1.69559   1.73335   1.74239   1.76423
 Alpha virt. eigenvalues --    1.78456   1.79920   1.84694   1.85669   1.88361
 Alpha virt. eigenvalues --    1.89369   1.90475   1.92174   1.94702   1.95885
 Alpha virt. eigenvalues --    1.97190   1.98443   2.00153   2.00773   2.01104
 Alpha virt. eigenvalues --    2.02085   2.02838   2.03505   2.04695   2.07265
 Alpha virt. eigenvalues --    2.07480   2.09410   2.09947   2.10168   2.11049
 Alpha virt. eigenvalues --    2.13093   2.13527   2.14783   2.15652   2.17786
 Alpha virt. eigenvalues --    2.18249   2.20361   2.21352   2.22276   2.23022
 Alpha virt. eigenvalues --    2.24885   2.26544   2.28161   2.28945   2.31588
 Alpha virt. eigenvalues --    2.32681   2.36104   2.38338   2.38988   2.40840
 Alpha virt. eigenvalues --    2.41875   2.43057   2.45196   2.48249   2.48978
 Alpha virt. eigenvalues --    2.49447   2.50685   2.51243   2.52201   2.55069
 Alpha virt. eigenvalues --    2.56395   2.57617   2.57671   2.58938   2.61135
 Alpha virt. eigenvalues --    2.62100   2.64501   2.64711   2.66325   2.68250
 Alpha virt. eigenvalues --    2.69015   2.72035   2.73053   2.74770   2.76030
 Alpha virt. eigenvalues --    2.76542   2.77506   2.80982   2.81438   2.83194
 Alpha virt. eigenvalues --    2.84413   2.84682   2.86413   2.87549   2.90162
 Alpha virt. eigenvalues --    2.91065   2.92827   2.95439   2.95931   2.96896
 Alpha virt. eigenvalues --    2.98936   3.00833   3.02742   3.07285   3.09822
 Alpha virt. eigenvalues --    3.11690   3.14233   3.16708   3.21340   3.25597
 Alpha virt. eigenvalues --    3.27716   3.31118   3.36991   3.37535   3.38788
 Alpha virt. eigenvalues --    3.39093   3.43758   3.45184   3.48634   3.52225
 Alpha virt. eigenvalues --    3.54219   3.57945   3.59675   3.60875   3.62749
 Alpha virt. eigenvalues --    3.63284   3.66033   3.68609   4.00021   4.41646
 Alpha virt. eigenvalues --    4.43339   4.45023   4.49887   4.52741   4.57375
 Alpha virt. eigenvalues --    4.57925   4.61000   4.64355   4.66005   4.76448
 Alpha virt. eigenvalues --    4.80350   4.83155   4.93411   4.97959
          Condensed to atoms (all electrons):
              1          2          3          4          5          6
     1  C   22.485700  -1.086797  -2.724697  -7.589847 -10.461863   0.452345
     2  C   -1.086797   6.699685   0.402814  -0.140592   0.536165   0.314428
     3  C   -2.724697   0.402814   7.554609   1.555419   0.390454   0.266734
     4  C   -7.589847  -0.140592   1.555419  19.711599  -0.685949  -1.135723
     5  C  -10.461863   0.536165   0.390454  -0.685949  18.346323   0.389326
     6  C    0.452345   0.314428   0.266734  -1.135723   0.389326   5.458585
     7  C    5.900675  -1.040078  -1.696153  -7.195717  -3.483058   0.163563
     8  C   -1.771039   0.162769   0.119271   0.965169   1.630760  -0.021010
     9  C    0.184721   0.069900   0.077831   0.714791  -0.395177  -0.024353
    10  O    0.135581  -0.004592  -0.004297  -0.020291  -0.076891   0.002460
    11  C    0.080137   0.004268   0.029084   0.005584  -0.069141   0.000812
    12  O   -0.074283   0.081932  -0.039430   0.169833   0.065577  -0.001302
    13  C    0.153170  -0.043600  -0.034325  -0.480484  -0.206894   0.003660
    14  O   -0.041050   0.006249   0.016022   0.052440  -0.014201  -0.003539
    15  C    0.029599   0.000735  -0.016927  -0.024033   0.008807   0.000365
    16  H    0.175607   0.009927   0.077575   0.085991  -0.026823  -0.010741
    17  H    0.014301   0.265993  -0.007428   0.045433   0.005959   0.000736
    18  H    0.058528  -0.008248   0.237077   0.001385   0.001472   0.031138
    19  H    0.031418  -0.042522  -0.004595   0.040686   0.223116  -0.015022
    20  H    0.004013   0.017005   0.027116  -0.002497  -0.006639   0.287502
    21  H    0.226937  -0.002957   0.057494   0.045386  -0.196424  -0.001843
    22  H    0.091546  -0.027419   0.000397   0.079071  -0.159296  -0.002318
    23  H   -0.005592   0.000187   0.000251   0.005467   0.001208  -0.000206
    24  H    0.007606  -0.000041  -0.000414  -0.006886   0.000104   0.000130
    25  H    0.005216  -0.007814   0.001790  -0.035117   0.012141   0.000696
    26  H   -0.009536   0.003233   0.000248  -0.004461   0.022744  -0.000003
    27  H    0.001651  -0.000256  -0.000186  -0.005474  -0.005199   0.000023
    28  H    0.017125  -0.001264   0.000040  -0.021696  -0.017851  -0.000005
    29  H    0.026289   0.000669  -0.005331  -0.015044   0.000148   0.000441
    30  H   -0.001684  -0.000082  -0.001301   0.003322   0.000434  -0.000224
    31  H   -0.021682   0.001128   0.012898   0.008024  -0.001207  -0.001467
              7          8          9         10         11         12
     1  C    5.900675  -1.771039   0.184721   0.135581   0.080137  -0.074283
     2  C   -1.040078   0.162769   0.069900  -0.004592   0.004268   0.081932
     3  C   -1.696153   0.119271   0.077831  -0.004297   0.029084  -0.039430
     4  C   -7.195717   0.965169   0.714791  -0.020291   0.005584   0.169833
     5  C   -3.483058   1.630760  -0.395177  -0.076891  -0.069141   0.065577
     6  C    0.163563  -0.021010  -0.024353   0.002460   0.000812  -0.001302
     7  C   15.222706  -1.939014  -0.893821  -0.005343  -0.102047  -0.158600
     8  C   -1.939014   8.466956  -0.447039  -0.433441  -0.046259   0.067324
     9  C   -0.893821  -0.447039   5.975467   0.426836  -0.100622   0.046005
    10  O   -0.005343  -0.433441   0.426836   8.448658   0.095625  -0.004928
    11  C   -0.102047  -0.046259  -0.100622   0.095625   5.170042  -0.001358
    12  O   -0.158600   0.067324   0.046005  -0.004928  -0.001358   8.316649
    13  C    0.851961  -0.711651  -0.319379  -0.038318  -0.032556  -0.103487
    14  O   -0.043085  -0.055422   0.646923  -0.158141   0.001447  -0.000849
    15  C   -0.007092  -0.019519  -0.014147  -0.052559   0.298282   0.000430
    16  H   -0.003704   0.001371   0.001910   0.000780  -0.003388   0.000070
    17  H    0.002636  -0.001313   0.000725   0.000003  -0.000002  -0.000026
    18  H    0.004281  -0.001218   0.000616  -0.000043   0.000049   0.000010
    19  H    0.079506  -0.008846  -0.001694  -0.000108  -0.000049   0.001338
    20  H    0.000716  -0.000259  -0.000171   0.000001   0.000018  -0.000004
    21  H    0.141637   0.010165   0.036876   0.013818   0.009483  -0.041262
    22  H    0.034975   0.291219  -0.004275   0.013596   0.003325  -0.003338
    23  H   -0.002694   0.016186  -0.000678  -0.037384   0.392352   0.000005
    24  H    0.002526  -0.002454   0.006925  -0.060621   0.426941   0.000010
    25  H    0.108675  -0.091416  -0.016136  -0.000363  -0.000596   0.239804
    26  H   -0.047645  -0.030365  -0.018389  -0.000809  -0.000507   0.012666
    27  H    0.058554  -0.147769   0.011157  -0.001505  -0.002987   0.000014
    28  H    0.044280  -0.100893  -0.008335   0.007565   0.002748  -0.005969
    29  H   -0.004274  -0.003163  -0.007835  -0.004996  -0.032671   0.000001
    30  H    0.000006   0.001895   0.007240   0.007063  -0.045591   0.000000
    31  H    0.000732   0.004907   0.010381  -0.003887  -0.054039  -0.000003
             13         14         15         16         17         18
     1  C    0.153170  -0.041050   0.029599   0.175607   0.014301   0.058528
     2  C   -0.043600   0.006249   0.000735   0.009927   0.265993  -0.008248
     3  C   -0.034325   0.016022  -0.016927   0.077575  -0.007428   0.237077
     4  C   -0.480484   0.052440  -0.024033   0.085991   0.045433   0.001385
     5  C   -0.206894  -0.014201   0.008807  -0.026823   0.005959   0.001472
     6  C    0.003660  -0.003539   0.000365  -0.010741   0.000736   0.031138
     7  C    0.851961  -0.043085  -0.007092  -0.003704   0.002636   0.004281
     8  C   -0.711651  -0.055422  -0.019519   0.001371  -0.001313  -0.001218
     9  C   -0.319379   0.646923  -0.014147   0.001910   0.000725   0.000616
    10  O   -0.038318  -0.158141  -0.052559   0.000780   0.000003  -0.000043
    11  C   -0.032556   0.001447   0.298282  -0.003388  -0.000002   0.000049
    12  O   -0.103487  -0.000849   0.000430   0.000070  -0.000026   0.000010
    13  C    6.271315  -0.053365   0.007814   0.000685   0.000098   0.000088
    14  O   -0.053365   8.146736  -0.032425  -0.000243  -0.000012  -0.000015
    15  C    0.007814  -0.032425   5.164896   0.001955   0.000005   0.000853
    16  H    0.000685  -0.000243   0.001955   0.522711   0.000012  -0.004002
    17  H    0.000098  -0.000012   0.000005   0.000012   0.495981  -0.000124
    18  H    0.000088  -0.000015   0.000853  -0.004002  -0.000124   0.501324
    19  H    0.015478  -0.000245  -0.000038  -0.000111  -0.003949   0.000011
    20  H   -0.000029   0.000005  -0.000069  -0.000127  -0.003800  -0.003891
    21  H   -0.041266  -0.000188  -0.000326   0.002819   0.000002  -0.000008
    22  H   -0.016151  -0.005464  -0.000428  -0.000004   0.000003   0.000000
    23  H   -0.000607  -0.000727  -0.035596  -0.000003   0.000000   0.000000
    24  H   -0.001349   0.000766  -0.042694  -0.000021   0.000000   0.000000
    25  H    0.038147   0.000046  -0.000005  -0.000004   0.000000   0.000000
    26  H    0.438954  -0.000035  -0.000019   0.000000   0.000000   0.000000
    27  H    0.449006   0.001570   0.000119   0.000000   0.000000   0.000000
    28  H    0.434555   0.000037  -0.000092   0.000000   0.000000   0.000000
    29  H   -0.001594   0.003195   0.408437  -0.000137   0.000000  -0.000017
    30  H    0.000076  -0.000185   0.392549   0.000011   0.000000   0.000001
    31  H    0.000934  -0.000910   0.406120   0.000291   0.000000  -0.000017
             19         20         21         22         23         24
     1  C    0.031418   0.004013   0.226937   0.091546  -0.005592   0.007606
     2  C   -0.042522   0.017005  -0.002957  -0.027419   0.000187  -0.000041
     3  C   -0.004595   0.027116   0.057494   0.000397   0.000251  -0.000414
     4  C    0.040686  -0.002497   0.045386   0.079071   0.005467  -0.006886
     5  C    0.223116  -0.006639  -0.196424  -0.159296   0.001208   0.000104
     6  C   -0.015022   0.287502  -0.001843  -0.002318  -0.000206   0.000130
     7  C    0.079506   0.000716   0.141637   0.034975  -0.002694   0.002526
     8  C   -0.008846  -0.000259   0.010165   0.291219   0.016186  -0.002454
     9  C   -0.001694  -0.000171   0.036876  -0.004275  -0.000678   0.006925
    10  O   -0.000108   0.000001   0.013818   0.013596  -0.037384  -0.060621
    11  C   -0.000049   0.000018   0.009483   0.003325   0.392352   0.426941
    12  O    0.001338  -0.000004  -0.041262  -0.003338   0.000005   0.000010
    13  C    0.015478  -0.000029  -0.041266  -0.016151  -0.000607  -0.001349
    14  O   -0.000245   0.000005  -0.000188  -0.005464  -0.000727   0.000766
    15  C   -0.000038  -0.000069  -0.000326  -0.000428  -0.035596  -0.042694
    16  H   -0.000111  -0.000127   0.002819  -0.000004  -0.000003  -0.000021
    17  H   -0.003949  -0.003800   0.000002   0.000003   0.000000   0.000000
    18  H    0.000011  -0.003891  -0.000008   0.000000   0.000000   0.000000
    19  H    0.506459  -0.000120  -0.000054  -0.000283   0.000000   0.000000
    20  H   -0.000120   0.498719   0.000000   0.000000   0.000000   0.000000
    21  H   -0.000054   0.000000   0.581374   0.003943  -0.000010   0.000004
    22  H   -0.000283   0.000000   0.003943   0.503629  -0.000006   0.000002
    23  H    0.000000   0.000000  -0.000010  -0.000006   0.521241  -0.031266
    24  H    0.000000   0.000000   0.000004   0.000002  -0.031266   0.530098
    25  H    0.000038   0.000000  -0.009551  -0.000173   0.000000   0.000000
    26  H    0.000000   0.000000   0.000056  -0.004206   0.000000   0.000000
    27  H    0.000002   0.000000  -0.000037  -0.002473  -0.000003   0.000002
    28  H   -0.000001   0.000000   0.002611   0.003970   0.000008   0.000008
    29  H    0.000000   0.000000   0.000007   0.000005  -0.004693   0.003907
    30  H    0.000000   0.000000   0.000000   0.000000  -0.001256  -0.001041
    31  H    0.000000   0.000000  -0.000021   0.000000   0.003853  -0.005332
             25         26         27         28         29         30
     1  C    0.005216  -0.009536   0.001651   0.017125   0.026289  -0.001684
     2  C   -0.007814   0.003233  -0.000256  -0.001264   0.000669  -0.000082
     3  C    0.001790   0.000248  -0.000186   0.000040  -0.005331  -0.001301
     4  C   -0.035117  -0.004461  -0.005474  -0.021696  -0.015044   0.003322
     5  C    0.012141   0.022744  -0.005199  -0.017851   0.000148   0.000434
     6  C    0.000696  -0.000003   0.000023  -0.000005   0.000441  -0.000224
     7  C    0.108675  -0.047645   0.058554   0.044280  -0.004274   0.000006
     8  C   -0.091416  -0.030365  -0.147769  -0.100893  -0.003163   0.001895
     9  C   -0.016136  -0.018389   0.011157  -0.008335  -0.007835   0.007240
    10  O   -0.000363  -0.000809  -0.001505   0.007565  -0.004996   0.007063
    11  C   -0.000596  -0.000507  -0.002987   0.002748  -0.032671  -0.045591
    12  O    0.239804   0.012666   0.000014  -0.005969   0.000001   0.000000
    13  C    0.038147   0.438954   0.449006   0.434555  -0.001594   0.000076
    14  O    0.000046  -0.000035   0.001570   0.000037   0.003195  -0.000185
    15  C   -0.000005  -0.000019   0.000119  -0.000092   0.408437   0.392549
    16  H   -0.000004   0.000000   0.000000   0.000000  -0.000137   0.000011
    17  H    0.000000   0.000000   0.000000   0.000000   0.000000   0.000000
    18  H    0.000000   0.000000   0.000000   0.000000  -0.000017   0.000001
    19  H    0.000038   0.000000   0.000002  -0.000001   0.000000   0.000000
    20  H    0.000000   0.000000   0.000000   0.000000   0.000000   0.000000
    21  H   -0.009551   0.000056  -0.000037   0.002611   0.000007   0.000000
    22  H   -0.000173  -0.004206  -0.002473   0.003970   0.000005   0.000000
    23  H    0.000000   0.000000  -0.000003   0.000008  -0.004693  -0.001256
    24  H    0.000000   0.000000   0.000002   0.000008   0.003907  -0.001041
    25  H    0.352778  -0.000924  -0.000011   0.000319   0.000000   0.000000
    26  H   -0.000924   0.501784  -0.022078  -0.026161   0.000000   0.000000
    27  H   -0.000011  -0.022078   0.505042  -0.023776   0.000000   0.000000
    28  H    0.000319  -0.026161  -0.023776   0.510587   0.000000   0.000000
    29  H    0.000000   0.000000   0.000000   0.000000   0.506974  -0.022012
    30  H    0.000000   0.000000   0.000000   0.000000  -0.022012   0.507794
    31  H    0.000000   0.000000   0.000000   0.000000  -0.029762  -0.023671
             31
     1  C   -0.021682
     2  C    0.001128
     3  C    0.012898
     4  C    0.008024
     5  C   -0.001207
     6  C   -0.001467
     7  C    0.000732
     8  C    0.004907
     9  C    0.010381
    10  O   -0.003887
    11  C   -0.054039
    12  O   -0.000003
    13  C    0.000934
    14  O   -0.000910
    15  C    0.406120
    16  H    0.000291
    17  H    0.000000
    18  H   -0.000017
    19  H    0.000000
    20  H    0.000000
    21  H   -0.000021
    22  H    0.000000
    23  H    0.003853
    24  H   -0.005332
    25  H    0.000000
    26  H    0.000000
    27  H    0.000000
    28  H    0.000000
    29  H   -0.029762
    30  H   -0.023671
    31  H    0.522080
 Mulliken atomic charges:
              1
     1  C   -0.294095
     2  C   -0.170823
     3  C   -0.292041
     4  C   -0.125792
     5  C    0.171877
     6  C   -0.155187
     7  C    0.004895
     8  C    0.094097
     9  C    0.033745
    10  O   -0.243469
    11  C   -0.028384
    12  O   -0.566829
    13  C   -0.580886
    14  O   -0.465335
    15  C   -0.474997
    16  H    0.167595
    17  H    0.184765
    18  H    0.180752
    19  H    0.179583
    20  H    0.182512
    21  H    0.161337
    22  H    0.200152
    23  H    0.179963
    24  H    0.173088
    25  H    0.402461
    26  H    0.185451
    27  H    0.184614
    28  H    0.182189
    29  H    0.181457
    30  H    0.176653
    31  H    0.170651
 Sum of Mulliken atomic charges =   0.00000
 Mulliken charges with hydrogens summed into heavy atoms:
              1
     1  C   -0.126500
     2  C    0.013942
     3  C   -0.111289
     4  C   -0.125792
     5  C    0.351460
     6  C    0.027325
     7  C    0.166232
     8  C    0.294249
     9  C    0.033745
    10  O   -0.243469
    11  C    0.324667
    12  O   -0.164367
    13  C   -0.028632
    14  O   -0.465335
    15  C    0.053764
 Sum of Mulliken charges with hydrogens summed into heavy atoms =   0.00000
 Electronic spatial extent (au):  <R**2>=           3295.4124
 Charge=              0.0000 electrons
 Dipole moment (field-independent basis, Debye):
    X=              1.9966    Y=             -0.5627    Z=             -3.1305  Tot=              3.7554
 Quadrupole moment (field-independent basis, Debye-Ang):
   XX=            -84.8185   YY=            -80.5925   ZZ=            -92.6539
   XY=              5.5592   XZ=            -10.2142   YZ=              3.1085
 Traceless Quadrupole moment (field-independent basis, Debye-Ang):
   XX=              1.2031   YY=              5.4291   ZZ=             -6.6323
   XY=              5.5592   XZ=            -10.2142   YZ=              3.1085
 Octapole moment (field-independent basis, Debye-Ang**2):
  XXX=             24.4122  YYY=             -2.9904  ZZZ=            -23.1440  XYY=             29.9909
  XXY=            -24.1995  XXZ=             11.4733  XZZ=             -4.3096  YZZ=             14.5780
  YYZ=            -14.5481  XYZ=             -5.4495
 Hexadecapole moment (field-independent basis, Debye-Ang**3):
 XXXX=          -2274.8122 YYYY=          -1469.2357 ZZZZ=           -493.6788 XXXY=              6.9368
 XXXZ=            -89.2638 YYYX=             19.4844 YYYZ=            -30.7328 ZZZX=            -39.1066
 ZZZY=            -10.6534 XXYY=           -595.3753 XXZZ=           -484.5689 YYZZ=           -302.1583
 XXYZ=             23.1058 YYXZ=            -14.5261 ZZXY=              3.5636
 N-N= 1.027329786146D+03 E-N=-3.666649399487D+03  KE= 6.859106450885D+02
 1\1\GINC-COMPUTE-8-12\SP\RwB97XD\6-31+G(d,p)\C12H16O3\ELUCIANO.IQUIR\1
 7-May-2022\0\\# wb97xd/6-31+g** scrf=(pcm,solvent=chloroform,smd,dovac
 uum) nmr\\comment\\0,1\C,0,1.163372465,0.624345821,-1.400586762\C,0,-0
 .452164485,2.809576468,-2.021555264\C,0,0.967015848,0.993796899,-2.732
 687216\C,0,0.549513418,1.340031648,-0.361291683\C,0,-0.25735639,2.4404
 15846,-0.689632529\C,0,0.158137982,2.084805544,-3.042604158\C,0,0.7459
 44485,0.912636727,1.079495657\C,0,-0.527629062,0.33237086,1.714790304\
 C,0,-1.005959862,-0.903754774,0.984064025\O,0,-0.001126924,-1.81160621
 8,0.828947397\C,0,-0.372089631,-3.048318864,0.200260938\O,0,1.16994169
 ,2.069803198,1.810135642\C,0,-0.341120173,-0.009906564,3.193905981\O,0
 ,-2.168150358,-1.079523228,0.64109408\C,0,-0.290785755,-2.919092956,-1
 .309041101\H,0,1.799152166,-0.230250944,-1.180733559\H,0,-1.078735832,
 3.664839425,-2.260157404\H,0,1.445993482,0.430385538,-3.52904808\H,0,-
 0.731530325,3.022245645,0.098395855\H,0,0.005851019,2.372972955,-4.079
 198844\H,0,1.571198854,0.191090034,1.130813633\H,0,-1.333269026,1.0762
 89362,1.654419474\H,0,-1.367383725,-3.375551205,0.522155946\H,0,0.3399
 23922,-3.806322158,0.542864482\H,0,1.699687364,1.759627645,2.563088038
 \H,0,-0.157262803,0.890676339,3.788295749\H,0,-1.23542371,-0.498187399
 ,3.596945185\H,0,0.501710267,-0.69410052,3.341518224\H,0,-0.977625918,
 -2.150414046,-1.676880642\H,0,-0.536759217,-3.868586217,-1.792800761\H
 ,0,0.716930234,-2.62029486,-1.61497261\\Version=EM64L-G09RevC.01\State
 =1-A\HF=-692.445629\RMSD=2.945e-09\Dipole=1.0436612,-0.9749385,0.37841
 02\Quadrupole=-7.9015627,0.7462206,7.155342,-6.2712571,2.0584633,-0.36
 77152\PG=C01 [X(C12H16O3)]\\@


 ERWIN WITH HIS PSI CAN DO
 CALCULATIONS QUITE A FEW.
 BUT ONE THING HAS NOT BEEN SEEN
 JUST WHAT DOES PSI REALLY MEAN.
 -- WALTER HUCKEL, TRANS. BY FELIX BLOCH
 Job cpu time:  0 days  2 hours  1 minutes 34.1 seconds.
 File lengths (MBytes):  RWF=    124 Int=      0 D2E=      0 Chk=      9 Scr=      1
 Normal termination of Gaussian 09 at Tue May 17 18:14:45 2022.
