 Entering Gaussian System, Link 0=g09
 Input=/home/eluciano.iquir/wb9/73a_031.gjc
 Output=/home/eluciano.iquir/wb9/73a_031.log
 Initial command:
 /share/apps/Gaussian09/EM64T.SSE4.2-enabled/g09/l1.exe /tmp/Gau-6878.inp -scrdir=/tmp/
 Entering Link 1 = /share/apps/Gaussian09/EM64T.SSE4.2-enabled/g09/l1.exe PID=      6879.
  
 Copyright (c) 1988,1990,1992,1993,1995,1998,2003,2009,2011,
            Gaussian, Inc.  All Rights Reserved.
  
 This is part of the Gaussian(R) 09 program.  It is based on
 the Gaussian(R) 03 system (copyright 2003, Gaussian, Inc.),
 the Gaussian(R) 98 system (copyright 1998, Gaussian, Inc.),
 the Gaussian(R) 94 system (copyright 1995, Gaussian, Inc.),
 the Gaussian 92(TM) system (copyright 1992, Gaussian, Inc.),
 the Gaussian 90(TM) system (copyright 1990, Gaussian, Inc.),
 the Gaussian 88(TM) system (copyright 1988, Gaussian, Inc.),
 the Gaussian 86(TM) system (copyright 1986, Carnegie Mellon
 University), and the Gaussian 82(TM) system (copyright 1983,
 Carnegie Mellon University). Gaussian is a federally registered
 trademark of Gaussian, Inc.
  
 This software contains proprietary and confidential information,
 including trade secrets, belonging to Gaussian, Inc.
  
 This software is provided under written license and may be
 used, copied, transmitted, or stored only in accord with that
 written license.
  
 The following legend is applicable only to US Government
 contracts under FAR:
  
                    RESTRICTED RIGHTS LEGEND
  
 Use, reproduction and disclosure by the US Government is
 subject to restrictions as set forth in subparagraphs (a)
 and (c) of the Commercial Computer Software - Restricted
 Rights clause in FAR 52.227-19.
  
 Gaussian, Inc.
 340 Quinnipiac St., Bldg. 40, Wallingford CT 06492
  
  
 ---------------------------------------------------------------
 Warning -- This program may not be used in any manner that
 competes with the business of Gaussian, Inc. or will provide
 assistance to any competitor of Gaussian, Inc.  The licensee
 of this program is prohibited from giving any competitor of
 Gaussian, Inc. access to this program.  By using this program,
 the user acknowledges that Gaussian, Inc. is engaged in the
 business of creating and licensing software in the field of
 computational chemistry and represents and warrants to the
 licensee that it is not a competitor of Gaussian, Inc. and that
 it will not use this program in any manner prohibited above.
 ---------------------------------------------------------------
  

 Cite this work as:
 Gaussian 09, Revision C.01,
 M. J. Frisch, G. W. Trucks, H. B. Schlegel, G. E. Scuseria, 
 M. A. Robb, J. R. Cheeseman, G. Scalmani, V. Barone, B. Mennucci, 
 G. A. Petersson, H. Nakatsuji, M. Caricato, X. Li, H. P. Hratchian, 
 A. F. Izmaylov, J. Bloino, G. Zheng, J. L. Sonnenberg, M. Hada, 
 M. Ehara, K. Toyota, R. Fukuda, J. Hasegawa, M. Ishida, T. Nakajima, 
 Y. Honda, O. Kitao, H. Nakai, T. Vreven, J. A. Montgomery, Jr., 
 J. E. Peralta, F. Ogliaro, M. Bearpark, J. J. Heyd, E. Brothers, 
 K. N. Kudin, V. N. Staroverov, T. Keith, R. Kobayashi, J. Normand, 
 K. Raghavachari, A. Rendell, J. C. Burant, S. S. Iyengar, J. Tomasi, 
 M. Cossi, N. Rega, J. M. Millam, M. Klene, J. E. Knox, J. B. Cross, 
 V. Bakken, C. Adamo, J. Jaramillo, R. Gomperts, R. E. Stratmann, 
 O. Yazyev, A. J. Austin, R. Cammi, C. Pomelli, J. W. Ochterski, 
 R. L. Martin, K. Morokuma, V. G. Zakrzewski, G. A. Voth, 
 P. Salvador, J. J. Dannenberg, S. Dapprich, A. D. Daniels, 
 O. Farkas, J. B. Foresman, J. V. Ortiz, J. Cioslowski, 
 and D. J. Fox, Gaussian, Inc., Wallingford CT, 2010.
 
 ******************************************
 Gaussian 09:  EM64L-G09RevC.01 23-Sep-2011
                17-May-2022 
 ******************************************
 %nprocshared=4
 Will use up to    4 processors via shared memory.
 ----------------------------------------------------------------
 # wb97xd/6-31+g** scrf=(pcm,solvent=chloroform,smd,dovacuum) nmr
 ----------------------------------------------------------------
 1/38=1/1;
 2/12=2,17=6,18=5,40=1/2;
 3/5=1,6=6,7=111,11=2,16=1,25=1,30=1,70=32101,72=7,74=-58/1,2,8,3;
 4//1;
 5/5=2,38=5,53=7/2;
 8/6=1,10=90,11=11/1;
 10/13=100,45=16/2;
 6/7=2,8=2,9=2,10=2,28=1/1;
 99/9=1/99;
 -------
 comment
 -------
 Charge =  0 Multiplicity = 1
 Symbolic Z-Matrix:
 6                     1.73564   1.13448   1.09977 
 6                     2.45118  -0.0737   -1.30965 
 6                     2.91628   0.39443   1.00999 
 6                     0.89632   1.28015  -0.01499 
 6                     1.27118   0.6662   -1.22193 
 6                     3.27324  -0.20917  -0.19377 
 6                    -0.39057   2.07587   0.09783 
 6                    -1.66912   1.27326   0.39303 
 6                    -1.83622   0.10425  -0.56141 
 8                    -1.36475  -1.05705  -0.02761 
 6                    -1.42761  -2.18594  -0.90633 
 8                    -0.58211   2.88173  -1.0688 
 6                    -1.755     0.84063   1.85987 
 8                    -2.31479   0.1994   -1.68525 
 6                    -0.76996  -3.36078  -0.20948 
 1                     1.47571   1.5947    2.05084 
 1                     2.72639  -0.54595  -2.24927 
 1                     3.55768   0.28732   1.88115 
 1                     0.63721   0.75439  -2.10396 
 1                     4.19174  -0.78624  -0.26188 
 1                    -0.25814   2.80859   0.90461 
 1                    -2.53965   1.9195    0.21198 
 1                    -0.89473  -1.96585  -1.83826 
 1                    -2.47485  -2.42129  -1.12544 
 1                     0.29727   3.16103  -1.37805 
 1                    -1.75881   1.71435   2.52012 
 1                    -2.67733   0.27831   2.04345 
 1                    -0.91661   0.20108   2.15399 
 1                     0.27187  -3.12862   0.03561 
 1                    -0.79406  -4.25289  -0.84141 
 1                    -1.27743  -3.5822    0.73525 
 
                          Input orientation:                          
 ---------------------------------------------------------------------
 Center     Atomic      Atomic             Coordinates (Angstroms)
 Number     Number       Type             X           Y           Z
 ---------------------------------------------------------------------
      1          6           0        1.735645    1.134476    1.099773
      2          6           0        2.451175   -0.073703   -1.309652
      3          6           0        2.916281    0.394430    1.009991
      4          6           0        0.896322    1.280150   -0.014993
      5          6           0        1.271181    0.666199   -1.221934
      6          6           0        3.273243   -0.209166   -0.193767
      7          6           0       -0.390567    2.075865    0.097834
      8          6           0       -1.669121    1.273260    0.393032
      9          6           0       -1.836220    0.104254   -0.561406
     10          8           0       -1.364750   -1.057047   -0.027614
     11          6           0       -1.427607   -2.185935   -0.906331
     12          8           0       -0.582105    2.881728   -1.068798
     13          6           0       -1.754998    0.840634    1.859868
     14          8           0       -2.314787    0.199403   -1.685251
     15          6           0       -0.769958   -3.360781   -0.209480
     16          1           0        1.475705    1.594704    2.050837
     17          1           0        2.726387   -0.545955   -2.249269
     18          1           0        3.557684    0.287316    1.881153
     19          1           0        0.637207    0.754386   -2.103961
     20          1           0        4.191741   -0.786235   -0.261880
     21          1           0       -0.258139    2.808588    0.904608
     22          1           0       -2.539650    1.919503    0.211976
     23          1           0       -0.894732   -1.965851   -1.838258
     24          1           0       -2.474845   -2.421288   -1.125440
     25          1           0        0.297274    3.161034   -1.378053
     26          1           0       -1.758813    1.714346    2.520120
     27          1           0       -2.677333    0.278310    2.043451
     28          1           0       -0.916609    0.201079    2.153993
     29          1           0        0.271874   -3.128618    0.035611
     30          1           0       -0.794055   -4.252888   -0.841413
     31          1           0       -1.277428   -3.582199    0.735251
 ---------------------------------------------------------------------
                    Distance matrix (angstroms):
                    1          2          3          4          5
     1  C    0.000000
     2  C    2.788729   0.000000
     3  C    1.396291   2.411684   0.000000
     4  C    1.402992   2.434467   2.432144   0.000000
     5  C    2.413572   1.395542   2.785983   1.405049   0.000000
     6  C    2.417193   1.392604   1.393120   2.810654   2.414880
     7  C    2.531970   3.831079   3.820275   1.517226   2.547617
     8  C    3.480111   4.657283   4.709446   2.597697   3.409107
     9  C    4.071743   4.355835   5.013956   3.024580   3.226146
    10  O    3.960583   4.143896   4.637956   3.251937   3.368102
    11  C    5.005571   4.434991   5.403697   4.267186   3.939255
    12  O    3.623197   4.241860   4.769352   2.421013   2.892523
    13  C    3.584504   5.345443   4.768881   3.276854   4.322694
    14  O    5.003670   4.788535   5.887821   3.777433   3.645782
    15  C    5.310322   4.731909   5.401581   4.934831   4.626865
    16  H    1.088073   3.876598   2.144592   2.168475   3.408076
    17  H    3.875757   1.087034   3.397523   3.416985   2.154613
    18  H    2.155936   3.396459   1.087103   3.415250   3.873086
    19  H    3.408071   2.146425   3.875622   2.169645   1.089804
    20  H    3.402299   2.152928   2.153700   3.897523   3.400139
    21  H    2.610731   4.533314   3.989512   2.124751   3.383908
    22  H    4.436507   5.585388   5.721001   3.502312   4.260199
    23  H    5.016267   3.880045   5.311052   4.131428   3.463917
    24  H    5.943337   5.459924   6.446129   5.128207   4.855368
    25  H    3.509341   3.886836   4.496226   2.398857   2.682735
    26  H    3.816395   5.965591   5.087157   3.696629   4.927722
    27  H    4.593247   6.137492   5.689467   4.244041   5.138478
    28  H    3.002842   4.838834   4.004643   3.025824   4.049647
    29  H    4.631310   3.986426   4.511560   4.453059   4.120761
    30  H    6.260293   5.311907   6.228311   5.844216   5.348590
    31  H    5.608788   5.513044   5.785867   5.378708   5.326807
                    6          7          8          9         10
     6  C    0.000000
     7  C    4.327806   0.000000
     8  C    5.193157   1.538186   0.000000
     9  C    5.132251   2.532145   1.518370   0.000000
    10  O    4.717784   3.283277   2.387450   1.362292   0.000000
    11  C    5.149112   4.499638   3.703067   2.351788   1.431951
    12  O    5.018268   1.430780   2.430168   3.089435   4.148559
    13  C    5.531970   2.547985   1.531714   2.532078   2.704824
    14  O    5.798063   3.225388   2.426791   1.225197   2.286700
    15  C    5.126441   5.458526   4.758766   3.642422   2.386219
    16  H    3.394603   2.743849   3.569534   4.473712   4.406805
    17  H    2.153502   4.700876   5.441671   4.908058   4.683414
    18  H    2.152369   4.686984   5.523230   5.924002   5.448032
    19  H    3.394991   2.765959   3.438510   2.986635   3.405927
    20  H    1.086871   5.414662   6.246609   6.100738   5.568017
    21  H    4.773251   1.097864   2.147047   3.457305   4.127562
    22  H    6.203675   2.157784   1.099196   2.094770   3.208994
    23  H    4.812724   4.509779   4.008762   2.608081   2.079729
    24  H    6.229126   5.105390   4.074879   2.665397   2.073328
    25  H    4.649427   1.956773   3.250714   3.816099   4.730562
    26  H    6.032136   2.805398   2.174190   3.477670   3.785083
    27  H    6.375902   3.499418   2.174925   2.742817   2.792018
    28  H    4.820283   2.831842   2.194728   2.868528   2.557952
    29  H    4.193332   5.246842   4.824079   3.905375   2.640822
    30  H    5.771832   6.410780   5.729564   4.488786   3.346843
    31  H    5.740125   5.762510   4.883239   3.947595   2.639315
                   11         12         13         14         15
    11  C    0.000000
    12  O    5.140280   0.000000
    13  C    4.113291   3.757502   0.000000
    14  O    2.661512   3.252241   3.645876   0.000000
    15  C    1.516036   6.304176   4.785853   4.152024   0.000000
    16  H    5.609572   3.952611   3.323031   5.502095   5.891423
    17  H    4.663549   4.908018   6.236220   5.127096   4.930356
    18  H    6.224159   5.707104   5.341460   6.871163   6.033890
    19  H    3.787250   2.661554   4.630553   3.032753   4.743814
    20  H    5.826796   6.074099   6.520139   6.732932   5.590124
    21  H    5.439892   2.001159   2.650651   4.212484   6.290014
    22  H    4.397940   2.529474   2.120185   2.570755   5.584876
    23  H    1.095847   4.918214   4.721499   2.593896   2.148095
    24  H    1.095494   5.630955   4.479998   2.684591   2.151342
    25  H    5.638069   0.973118   4.481095   3.960870   6.711082
    26  H    5.202159   3.953195   1.095135   4.504365   5.846834
    27  H    4.041725   4.566602   1.095725   3.747117   4.685805
    28  H    3.914657   4.205253   1.094731   4.085915   4.277191
    29  H    2.159662   6.170353   4.815712   4.552791   1.095163
    30  H    2.162844   7.141384   5.845023   4.779914   1.093515
    31  H    2.160300   6.746882   4.588495   4.608194   1.095019
                   16         17         18         19         20
    16  H    0.000000
    17  H    4.963621   0.000000
    18  H    2.464283   4.294855   0.000000
    19  H    4.321061   2.465091   4.962709   0.000000
    20  H    4.288867   2.480870   2.479340   4.289696   0.000000
    21  H    2.406984   5.487012   4.676639   3.751384   5.838226
    22  H    4.428316   6.314060   6.528986   4.100424   7.270294
    23  H    5.781141   3.911207   6.223727   3.133229   5.454234
    24  H    6.467131   5.642046   7.264127   4.552722   6.918273
    25  H    3.949605   4.516788   5.432399   2.536622   5.656293
    26  H    3.270573   6.926258   5.541645   5.295712   7.028622
    27  H    4.356681   6.950327   6.237135   5.330464   7.323386
    28  H    2.770559   5.763523   4.483433   4.566253   5.736416
    29  H    5.274478   4.232666   5.086371   4.448478   4.576092
    30  H    6.907333   5.302539   6.852988   5.358669   6.100139
    31  H    6.009229   5.844371   6.297979   5.525660   6.222820
                   21         22         23         24         25
    21  H    0.000000
    22  H    2.544701   0.000000
    23  H    5.542909   4.690969   0.000000
    24  H    6.032122   4.542615   1.792286   0.000000
    25  H    2.375552   3.481053   5.283713   6.237850   0.000000
    26  H    2.461558   2.445265   5.769397   5.559342   4.638551
    27  H    3.681273   2.463082   4.825100   4.167818   5.372622
    28  H    2.965409   3.059195   4.542481   4.478794   4.765522
    29  H    6.023827   5.780943   2.494870   3.064771   6.446613
    30  H    7.293850   6.500395   2.496872   2.502096   7.513003
    31  H    6.473778   5.668840   3.063002   2.498738   7.239954
                   26         27         28         29         30
    26  H    0.000000
    27  H    1.770054   0.000000
    28  H    1.770123   1.765880   0.000000
    29  H    5.809542   4.933194   4.121519   0.000000
    30  H    6.916541   5.692182   5.368920   1.780269   0.000000
    31  H    5.609892   4.309833   4.056626   1.759422   1.780264
                   31
    31  H    0.000000
 Stoichiometry    C12H16O3
 Framework group  C1[X(C12H16O3)]
 Deg. of freedom    87
 Full point group                 C1      NOp   1
 Largest Abelian subgroup         C1      NOp   1
 Largest concise Abelian subgroup C1      NOp   1
                         Standard orientation:                         
 ---------------------------------------------------------------------
 Center     Atomic      Atomic             Coordinates (Angstroms)
 Number     Number       Type             X           Y           Z
 ---------------------------------------------------------------------
      1          6           0       -2.112657   -0.319247    1.055261
      2          6           0       -2.113953    1.334498   -1.190208
      3          6           0       -2.926379    0.814888    1.020264
      4          6           0       -1.287929   -0.641644   -0.032979
      5          6           0       -1.300586    0.200970   -1.157259
      6          6           0       -2.926550    1.640896   -0.101561
      7          6           0       -0.398322   -1.869491    0.021496
      8          6           0        1.053075   -1.644664    0.478567
      9          6           0        1.722877   -0.523591   -0.296037
     10          8           0        1.663767    0.660995    0.374112
     11          6           0        2.215478    1.775690   -0.335503
     12          8           0       -0.410763   -2.550130   -1.236958
     13          6           0        1.158343   -1.445604    1.993638
     14          8           0        2.232917   -0.663061   -1.401259
     15          6           0        1.974174    3.024094    0.490103
     16          1           0       -2.126866   -0.948242    1.942992
     17          1           0       -2.110514    1.978985   -2.065575
     18          1           0       -3.559918    1.055200    1.870365
     19          1           0       -0.666002   -0.017907   -2.015785
     20          1           0       -3.559267    2.524251   -0.126887
     21          1           0       -0.862680   -2.585471    0.712185
     22          1           0        1.638584   -2.545332    0.245739
     23          1           0        1.725793    1.879155   -1.310379
     24          1           0        3.291296    1.623979   -0.475888
     25          1           0       -1.299408   -2.441825   -1.618455
     26          1           0        0.781717   -2.325770    2.525409
     27          1           0        2.201915   -1.295411    2.291986
     28          1           0        0.589899   -0.576000    2.338743
     29          1           0        0.902178    3.173757    0.656863
     30          1           0        2.380824    3.907486   -0.009926
     31          1           0        2.439665    2.929937    1.476774
 ---------------------------------------------------------------------
 Rotational constants (GHZ):      0.6931924      0.5385785      0.4071870
 Standard basis: 6-31+G(d,p) (6D, 7F)
 There are   365 symmetry adapted basis functions of A   symmetry.
 Integral buffers will be    131072 words long.
 Raffenetti 2 integral format.
 Two-electron integral symmetry is turned on.
   365 basis functions,   592 primitive gaussians,   365 cartesian basis functions
    56 alpha electrons       56 beta electrons
       nuclear repulsion energy      1036.3997839586 Hartrees.
 NAtoms=   31 NActive=   31 NUniq=   31 SFac= 1.00D+00 NAtFMM=   60 NAOKFM=F Big=F
 Nuclear repulsion after empirical dispersion term =     1036.3772250459 Hartrees.
 ------------------------------------------------------------------------------
 Polarizable Continuum Model (PCM)
 =================================
 Model                : C-PCM.
 Atomic radii         : SMD-Coulomb.
 Polarization charges : Total charges.
 Charge compensation  : None.
 Solution method      : Matrix inversion.
 Cavity type          : VdW (van der Waals Surface) (Alpha=1.000).
 Cavity algorithm     : GePol (No added spheres)
                        Default sphere list used, NSphG=   31.
                        Lebedev-Laikov grids with approx.  5.0 points / Ang**2.
                        Smoothing algorithm: Karplus/York (Gamma=1.0000).
                        Polarization charges: spherical gaussians, with
                                              point-specific exponents (IZeta= 3).
                        Self-potential: point-specific (ISelfS= 7).
                        Self-field    : sphere-specific E.n sum rule (ISelfD= 2).
 Solvent              : Chloroform, Eps=   4.711300 Eps(inf)=   2.090627
 ------------------------------------------------------------------------------
 ------------------------------------------------------------------------------
 Atomic radii for non-electrostatic terms: SMD-CDS.
 ------------------------------------------------------------------------------
 Nuclear repulsion after PCM non-electrostatic terms =     1036.3705868638 Hartrees.
 One-electron integrals computed using PRISM.
 NBasis=   365 RedAO= T  NBF=   365
 NBsUse=   365 1.00D-06 NBFU=   365
 Harris functional with IExCor= 4639 diagonalized for initial guess.
 ExpMin= 4.38D-02 ExpMax= 5.48D+03 ExpMxC= 8.25D+02 IAcc=2 IRadAn=         4 AccDes= 0.00D+00
 HarFok:  IExCor= 4639 AccDes= 0.00D+00 IRadAn=         4 IDoV= 1
 ScaDFX=  1.000000  1.000000  1.000000  1.000000
 FoFCou: FMM=F IPFlag=           0 FMFlag=      100000 FMFlg1=           0
         NFxFlg=           0 DoJE=T BraDBF=F KetDBF=T FulRan=T
         Omega=  0.000000  0.000000  1.000000  0.000000  0.000000 ICntrl=     500 IOpCl=  0
         NMat0=    1 NMatS0=    1 NMatT0=    0 NMatD0=    1 NMtDS0=    0 NMtDT0=    0
         I1Cent=           4 NGrid=           0.
 Petite list used in FoFCou.
 Initial guess orbital symmetries:
       Occupied  (A) (A) (A) (A) (A) (A) (A) (A) (A) (A) (A) (A)
                 (A) (A) (A) (A) (A) (A) (A) (A) (A) (A) (A) (A)
                 (A) (A) (A) (A) (A) (A) (A) (A) (A) (A) (A) (A)
                 (A) (A) (A) (A) (A) (A) (A) (A) (A) (A) (A) (A)
                 (A) (A) (A) (A) (A) (A) (A) (A)
       Virtual   (A) (A) (A) (A) (A) (A) (A) (A) (A) (A) (A) (A)
                 (A) (A) (A) (A) (A) (A) (A) (A) (A) (A) (A) (A)
                 (A) (A) (A) (A) (A) (A) (A) (A) (A) (A) (A) (A)
                 (A) (A) (A) (A) (A) (A) (A) (A) (A) (A) (A) (A)
                 (A) (A) (A) (A) (A) (A) (A) (A) (A) (A) (A) (A)
                 (A) (A) (A) (A) (A) (A) (A) (A) (A) (A) (A) (A)
                 (A) (A) (A) (A) (A) (A) (A) (A) (A) (A) (A) (A)
                 (A) (A) (A) (A) (A) (A) (A) (A) (A) (A) (A) (A)
                 (A) (A) (A) (A) (A) (A) (A) (A) (A) (A) (A) (A)
                 (A) (A) (A) (A) (A) (A) (A) (A) (A) (A) (A) (A)
                 (A) (A) (A) (A) (A) (A) (A) (A) (A) (A) (A) (A)
                 (A) (A) (A) (A) (A) (A) (A) (A) (A) (A) (A) (A)
                 (A) (A) (A) (A) (A) (A) (A) (A) (A) (A) (A) (A)
                 (A) (A) (A) (A) (A) (A) (A) (A) (A) (A) (A) (A)
                 (A) (A) (A) (A) (A) (A) (A) (A) (A) (A) (A) (A)
                 (A) (A) (A) (A) (A) (A) (A) (A) (A) (A) (A) (A)
                 (A) (A) (A) (A) (A) (A) (A) (A) (A) (A) (A) (A)
                 (A) (A) (A) (A) (A) (A) (A) (A) (A) (A) (A) (A)
                 (A) (A) (A) (A) (A) (A) (A) (A) (A) (A) (A) (A)
                 (A) (A) (A) (A) (A) (A) (A) (A) (A) (A) (A) (A)
                 (A) (A) (A) (A) (A) (A) (A) (A) (A) (A) (A) (A)
                 (A) (A) (A) (A) (A) (A) (A) (A) (A) (A) (A) (A)
                 (A) (A) (A) (A) (A) (A) (A) (A) (A) (A) (A) (A)
                 (A) (A) (A) (A) (A) (A) (A) (A) (A) (A) (A) (A)
                 (A) (A) (A) (A) (A) (A) (A) (A) (A) (A) (A) (A)
                 (A) (A) (A) (A) (A) (A) (A) (A) (A)
 The electronic state of the initial guess is 1-A.
 Requested convergence on RMS density matrix=1.00D-08 within 128 cycles.
 Requested convergence on MAX density matrix=1.00D-06.
 Requested convergence on             energy=1.00D-06.
 No special actions if energy rises.
 FoFJK:  IHMeth= 1 ICntrl=     0 DoSepK=T KAlg= 1 I1Cent= 0 FoldK=F
 FoFJK:  IHMeth= 1 ICntrl=     0 DoSepK=T KAlg= 1 I1Cent= 0 FoldK=F
 FoFJK:  IHMeth= 1 ICntrl=     0 DoSepK=T KAlg= 1 I1Cent= 0 FoldK=F
 FoFJK:  IHMeth= 1 ICntrl=     0 DoSepK=T KAlg= 1 I1Cent= 0 FoldK=F
 FoFJK:  IHMeth= 1 ICntrl=     0 DoSepK=T KAlg= 1 I1Cent= 0 FoldK=F
 FoFJK:  IHMeth= 1 ICntrl=     0 DoSepK=T KAlg= 1 I1Cent= 0 FoldK=F
 FoFJK:  IHMeth= 1 ICntrl=     0 DoSepK=T KAlg= 1 I1Cent= 0 FoldK=F
 FoFJK:  IHMeth= 1 ICntrl=     0 DoSepK=T KAlg= 1 I1Cent= 0 FoldK=F
 FoFJK:  IHMeth= 1 ICntrl=     0 DoSepK=T KAlg= 1 I1Cent= 0 FoldK=F
 FoFJK:  IHMeth= 1 ICntrl=     0 DoSepK=T KAlg= 1 I1Cent= 0 FoldK=F
 FoFJK:  IHMeth= 1 ICntrl=     0 DoSepK=T KAlg= 1 I1Cent= 0 FoldK=F
 FoFJK:  IHMeth= 1 ICntrl=     0 DoSepK=T KAlg= 1 I1Cent= 0 FoldK=F
 FoFJK:  IHMeth= 1 ICntrl=     0 DoSepK=T KAlg= 1 I1Cent= 0 FoldK=F
 FoFJK:  IHMeth= 1 ICntrl=     0 DoSepK=T KAlg= 1 I1Cent= 0 FoldK=F
 FoFJK:  IHMeth= 1 ICntrl=     0 DoSepK=T KAlg= 1 I1Cent= 0 FoldK=F
 FoFJK:  IHMeth= 1 ICntrl=     0 DoSepK=T KAlg= 1 I1Cent= 0 FoldK=F
 Error on total polarization charges =  0.03829
 SCF Done:  E(RwB97XD) =  -692.443719659     A.U. after   16 cycles
             Convg  =    0.4041D-08             -V/T =  2.0095
 SMD-CDS (non-electrostatic) energy       (kcal/mol) =      -4.17
 (included in total energy above)
 Range of M.O.s used for correlation:     1   365
 NBasis=   365 NAE=    56 NBE=    56 NFC=     0 NFV=     0
 NROrb=    365 NOA=    56 NOB=    56 NVA=   309 NVB=   309

 **** Warning!!: The largest alpha MO coefficient is  0.15135635D+03

 NEqPCM:  Using equilibrium solvation (IEInf=0, Eps=   4.7113, EpsInf=   2.0906)
          Differentiating once with respect to magnetic field using GIAOs.
          Electric field/nuclear overlap derivatives assumed to be zero.
 FoFCou: FMM=F IPFlag=           0 FMFlag=    10101102 FMFlg1=           0
         NFxFlg=    40000000 DoJE=F BraDBF=F KetDBF=T FulRan=T
         Omega=  0.000000  0.000000  1.000000  0.000000  0.000000 ICntrl=    6100 IOpCl=  0
         NMat0=    1 NMatS0=    1 NMatT0=    0 NMatD0=    1 NMtDS0=    0 NMtDT0=    0
         I1Cent=           7 NGrid=        2233.
 Symmetry not used in FoFCou.
 FoFJK:  IHMeth= 1 ICntrl=  6127 DoSepK=T KAlg= 1 I1Cent= 0 FoldK=F
 FoFJK:  IHMeth= 1 ICntrl=     0 DoSepK=T KAlg= 1 I1Cent= 0 FoldK=F
          There are     3 degrees of freedom in the 1st order CPHF.  IDoFFX=0.
      3 vectors produced by pass  0 Test12= 5.77D-13 3.33D-08 XBig12= 1.49D+02 2.90D+00.
 AX will form     3 AO Fock derivatives at one time.
 FoFJK:  IHMeth= 1 ICntrl=     0 DoSepK=T KAlg= 1 I1Cent= 0 FoldK=F
      3 vectors produced by pass  1 Test12= 5.77D-13 3.33D-08 XBig12= 9.07D-01 2.09D-01.
 FoFJK:  IHMeth= 1 ICntrl=     0 DoSepK=T KAlg= 1 I1Cent= 0 FoldK=F
      3 vectors produced by pass  2 Test12= 5.77D-13 3.33D-08 XBig12= 1.47D-02 4.31D-02.
 FoFJK:  IHMeth= 1 ICntrl=     0 DoSepK=T KAlg= 1 I1Cent= 0 FoldK=F
      3 vectors produced by pass  3 Test12= 5.77D-13 3.33D-08 XBig12= 2.49D-04 4.59D-03.
 FoFJK:  IHMeth= 1 ICntrl=     0 DoSepK=T KAlg= 1 I1Cent= 0 FoldK=F
      3 vectors produced by pass  4 Test12= 5.77D-13 3.33D-08 XBig12= 5.06D-06 5.72D-04.
 FoFJK:  IHMeth= 1 ICntrl=     0 DoSepK=T KAlg= 1 I1Cent= 0 FoldK=F
      3 vectors produced by pass  5 Test12= 5.77D-13 3.33D-08 XBig12= 7.61D-08 5.81D-05.
 FoFJK:  IHMeth= 1 ICntrl=     0 DoSepK=T KAlg= 1 I1Cent= 0 FoldK=F
      3 vectors produced by pass  6 Test12= 5.77D-13 3.33D-08 XBig12= 1.13D-09 6.23D-06.
 FoFJK:  IHMeth= 1 ICntrl=     0 DoSepK=T KAlg= 1 I1Cent= 0 FoldK=F
      3 vectors produced by pass  7 Test12= 5.77D-13 3.33D-08 XBig12= 1.25D-11 8.48D-07.
 FoFJK:  IHMeth= 1 ICntrl=     0 DoSepK=T KAlg= 1 I1Cent= 0 FoldK=F
      3 vectors produced by pass  8 Test12= 5.77D-13 3.33D-08 XBig12= 1.24D-13 7.76D-08.
 FoFJK:  IHMeth= 1 ICntrl=     0 DoSepK=T KAlg= 1 I1Cent= 0 FoldK=F
 Inverted reduced A of dimension    27 with in-core refinement.
 Calculating GIAO nuclear magnetic shielding tensors.
 SCF GIAO Magnetic shielding tensor (ppm):
      1  C    Isotropic =    69.8492   Anisotropy =   165.2483
   XX=   118.0038   YX=    54.1778   ZX=    41.3402
   XY=    40.2958   YY=    72.3501   ZY=    69.7627
   XZ=    33.6383   YZ=    72.1534   ZZ=    19.1938
   Eigenvalues:   -30.1225    59.6554   180.0147
      2  C    Isotropic =    69.3954   Anisotropy =   178.3583
   XX=   127.5182   YX=    51.1069   ZX=    44.8525
   XY=    51.2540   YY=    61.8101   ZY=    74.1417
   XZ=    39.5476   YZ=    71.0088   ZZ=    18.8580
   Eigenvalues:   -35.4276    55.3129   188.3010
      3  C    Isotropic =    70.5858   Anisotropy =   173.9353
   XX=    98.4283   YX=    64.6135   ZX=    76.2375
   XY=    64.2209   YY=    90.6170   ZY=    10.8239
   XZ=    79.1146   YZ=    12.0810   ZZ=    22.7120
   Eigenvalues:   -31.7095    56.9241   186.5427
      4  C    Isotropic =    54.1803   Anisotropy =   182.2092
   XX=    80.1925   YX=    82.9455   ZX=    54.1072
   XY=    88.3276   YY=    31.5808   ZY=    37.4273
   XZ=    45.5937   YZ=    36.1999   ZZ=    50.7677
   Eigenvalues:   -33.1399    20.0278   175.6531
      5  C    Isotropic =    72.6594   Anisotropy =   182.3476
   XX=    99.6226   YX=    73.1087   ZX=    79.7859
   XY=    60.3145   YY=    97.3565   ZY=    17.7378
   XZ=    75.5037   YZ=    20.4791   ZZ=    20.9990
   Eigenvalues:   -30.1186    53.8724   194.2244
      6  C    Isotropic =    71.0147   Anisotropy =   178.0845
   XX=   103.2407   YX=    90.2096   ZX=    38.5007
   XY=    97.5026   YY=    34.1847   ZY=    29.8289
   XZ=    40.2943   YZ=    28.4178   ZZ=    75.6189
   Eigenvalues:   -31.3121    54.6186   189.7377
      7  C    Isotropic =   119.0641   Anisotropy =    37.9993
   XX=   110.4298   YX=     0.5166   ZX=     0.1694
   XY=     0.5430   YY=   108.5825   ZY=    13.2924
   XZ=    -2.7614   YZ=    16.4692   ZZ=   138.1799
   Eigenvalues:   102.2748   110.5205   144.3969
      8  C    Isotropic =   149.7969   Anisotropy =    17.3777
   XX=   150.7970   YX=     5.9900   ZX=    -6.7110
   XY=     6.4278   YY=   151.8007   ZY=    -3.2029
   XZ=    -1.0532   YZ=    -9.9281   ZZ=   146.7931
   Eigenvalues:   142.2478   145.7609   161.3820
      9  C    Isotropic =    21.2838   Anisotropy =   101.7566
   XX=    74.8198   YX=   -15.6430   ZX=    20.9597
   XY=   -32.9618   YY=   -60.1558   ZY=    -1.5516
   XZ=    12.5494   YZ=   -35.1598   ZZ=    49.1873
   Eigenvalues:   -66.4435    41.1732    89.1215
     10  O    Isotropic =   127.5595   Anisotropy =   162.6554
   XX=   155.6174   YX=  -101.0086   ZX=    92.2345
   XY=   -17.4888   YY=   191.8015   ZY=    30.0381
   XZ=   110.8334   YZ=   131.9455   ZZ=    35.2596
   Eigenvalues:   -61.8516   208.5337   235.9964
     11  C    Isotropic =   137.2751   Anisotropy =    57.3856
   XX=   126.7597   YX=    15.3175   ZX=   -13.1677
   XY=    19.4664   YY=   155.6967   ZY=   -24.9071
   XZ=   -10.0552   YZ=   -15.4609   ZZ=   129.3689
   Eigenvalues:   116.3536   119.9395   175.5322
     12  O    Isotropic =   276.4366   Anisotropy =    92.2407
   XX=   298.9347   YX=   -21.7537   ZX=    58.4303
   XY=   -28.5798   YY=   263.2763   ZY=    36.4943
   XZ=    46.5381   YZ=    24.5290   ZZ=   267.0989
   Eigenvalues:   202.4917   288.8878   337.9304
     13  C    Isotropic =   180.8325   Anisotropy =    20.5336
   XX=   172.9728   YX=     3.3484   ZX=     2.6689
   XY=     8.3608   YY=   175.8719   ZY=    -1.9566
   XZ=     5.4737   YZ=    -2.8612   ZZ=   193.6529
   Eigenvalues:   167.5472   180.4288   194.5216
     14  O    Isotropic =   -66.1143   Anisotropy =   554.6410
   XX=   168.8271   YX=   -65.2382   ZX=   246.2563
   XY=   -63.9087   YY=  -199.3912   ZY=  -105.3106
   XZ=   201.2963   YZ=  -114.8802   ZZ=  -167.7789
   Eigenvalues:  -324.9697  -177.0196   303.6464
     15  C    Isotropic =   183.1741   Anisotropy =    22.3457
   XX=   173.7145   YX=     0.1822   ZX=    -6.1746
   XY=     3.3261   YY=   194.9945   ZY=     3.9289
   XZ=    -4.4725   YZ=    10.6197   ZZ=   180.8132
   Eigenvalues:   169.7859   181.6651   198.0712
     16  H    Isotropic =    23.8541   Anisotropy =     7.7461
   XX=    26.1427   YX=    -3.1768   ZX=    -3.1635
   XY=    -2.7410   YY=    23.0905   ZY=     0.1871
   XZ=    -2.6063   YZ=     0.4909   ZZ=    22.3290
   Eigenvalues:    20.1473    22.3967    29.0181
     17  H    Isotropic =    23.6929   Anisotropy =     4.8629
   XX=    23.9430   YX=    -3.1518   ZX=    -0.7809
   XY=    -2.9413   YY=    23.6862   ZY=    -0.0731
   XZ=    -0.7865   YZ=    -0.1370   ZZ=    23.4495
   Eigenvalues:    20.6280    23.5159    26.9348
     18  H    Isotropic =    23.7797   Anisotropy =     4.5285
   XX=    23.2352   YX=    -2.4074   ZX=    -0.8421
   XY=    -2.3953   YY=    24.6744   ZY=    -1.9023
   XZ=    -0.8051   YZ=    -1.7446   ZZ=    23.4295
   Eigenvalues:    20.3877    24.1527    26.7987
     19  H    Isotropic =    23.5820   Anisotropy =     8.2393
   XX=    22.4674   YX=    -2.8393   ZX=     2.6938
   XY=    -2.5870   YY=    25.2464   ZY=    -2.6841
   XZ=     2.1029   YZ=    -2.8401   ZZ=    23.0320
   Eigenvalues:    20.3148    21.3562    29.0748
     20  H    Isotropic =    23.7451   Anisotropy =     3.9119
   XX=    23.2370   YX=    -1.7511   ZX=    -1.7472
   XY=    -1.4105   YY=    22.6764   ZY=    -1.3881
   XZ=    -1.6441   YZ=    -1.4494   ZZ=    25.3218
   Eigenvalues:    20.3847    24.4975    26.3530
     21  H    Isotropic =    26.5319   Anisotropy =     5.6396
   XX=    24.0863   YX=     2.5875   ZX=    -2.4468
   XY=     1.7639   YY=    26.5928   ZY=     0.3901
   XZ=    -2.5733   YZ=    -0.6853   ZZ=    28.9165
   Eigenvalues:    22.1441    27.1599    30.2916
     22  H    Isotropic =    28.3502   Anisotropy =     6.0985
   XX=    27.2437   YX=    -4.1141   ZX=    -0.8122
   XY=    -3.3783   YY=    29.4521   ZY=     1.8568
   XZ=    -0.0947   YZ=    -0.5065   ZZ=    28.3549
   Eigenvalues:    24.4419    28.1929    32.4159
     23  H    Isotropic =    27.8384   Anisotropy =     4.9716
   XX=    25.0053   YX=     0.9278   ZX=    -0.2714
   XY=     1.8991   YY=    29.1466   ZY=    -2.9262
   XZ=     1.8762   YZ=    -0.8087   ZZ=    29.3633
   Eigenvalues:    24.2008    28.1615    31.1528
     24  H    Isotropic =    27.8032   Anisotropy =     8.3100
   XX=    31.7336   YX=     1.3439   ZX=    -3.2510
   XY=     2.7366   YY=    28.0607   ZY=    -0.1221
   XZ=    -2.6921   YZ=     0.8920   ZZ=    23.6153
   Eigenvalues:    22.4546    27.6119    33.3432
     25  H    Isotropic =    29.9002   Anisotropy =    15.0421
   XX=    34.3061   YX=     0.7935   ZX=     7.3775
   XY=    -2.2788   YY=    25.7244   ZY=     3.1507
   XZ=     7.5314   YZ=     3.4137   ZZ=    29.6701
   Eigenvalues:    21.7361    28.0362    39.9282
     26  H    Isotropic =    30.6391   Anisotropy =    10.4304
   XX=    27.2256   YX=     0.9242   ZX=    -0.6124
   XY=     1.7113   YY=    31.6968   ZY=    -4.4676
   XZ=    -0.8260   YZ=    -5.5577   ZZ=    32.9950
   Eigenvalues:    26.6360    27.6886    37.5927
     27  H    Isotropic =    30.5221   Anisotropy =    10.3377
   XX=    33.9434   YX=    -0.2168   ZX=     4.5079
   XY=     1.7221   YY=    26.7020   ZY=    -0.5604
   XZ=     4.9705   YZ=    -0.5472   ZZ=    30.9210
   Eigenvalues:    26.1071    28.0454    37.4140
     28  H    Isotropic =    30.4245   Anisotropy =     5.1912
   XX=    29.5481   YX=    -3.9046   ZX=     0.2459
   XY=    -1.4502   YY=    30.4413   ZY=     2.2809
   XZ=    -0.8036   YZ=     1.6769   ZZ=    31.2840
   Eigenvalues:    26.9814    30.4067    33.8852
     29  H    Isotropic =    31.2123   Anisotropy =     7.3600
   XX=    35.8371   YX=    -0.4492   ZX=    -0.9110
   XY=    -1.0374   YY=    31.0982   ZY=     1.8861
   XZ=    -0.9570   YZ=     1.9854   ZZ=    26.7017
   Eigenvalues:    25.9324    31.5856    36.1190
     30  H    Isotropic =    30.7428   Anisotropy =    11.3636
   XX=    28.1790   YX=     3.5042   ZX=    -1.4976
   XY=     3.7767   YY=    36.3927   ZY=    -2.5434
   XZ=    -0.8640   YZ=    -1.7120   ZZ=    27.6565
   Eigenvalues:    26.5796    27.3303    38.3185
     31  H    Isotropic =    30.7561   Anisotropy =     8.8536
   XX=    28.8984   YX=     1.3828   ZX=     3.3074
   XY=     1.3429   YY=    29.3668   ZY=     2.2814
   XZ=     4.0191   YZ=     1.5433   ZZ=    34.0031
   Eigenvalues:    26.9292    28.6806    36.6585
 End of Minotr Frequency-dependent properties file   721 does not exist.
 End of Minotr Frequency-dependent properties file   722 does not exist.

 **********************************************************************

            Population analysis using the SCF density.

 **********************************************************************

 Orbital symmetries:
       Occupied  (A) (A) (A) (A) (A) (A) (A) (A) (A) (A) (A) (A)
                 (A) (A) (A) (A) (A) (A) (A) (A) (A) (A) (A) (A)
                 (A) (A) (A) (A) (A) (A) (A) (A) (A) (A) (A) (A)
                 (A) (A) (A) (A) (A) (A) (A) (A) (A) (A) (A) (A)
                 (A) (A) (A) (A) (A) (A) (A) (A)
       Virtual   (A) (A) (A) (A) (A) (A) (A) (A) (A) (A) (A) (A)
                 (A) (A) (A) (A) (A) (A) (A) (A) (A) (A) (A) (A)
                 (A) (A) (A) (A) (A) (A) (A) (A) (A) (A) (A) (A)
                 (A) (A) (A) (A) (A) (A) (A) (A) (A) (A) (A) (A)
                 (A) (A) (A) (A) (A) (A) (A) (A) (A) (A) (A) (A)
                 (A) (A) (A) (A) (A) (A) (A) (A) (A) (A) (A) (A)
                 (A) (A) (A) (A) (A) (A) (A) (A) (A) (A) (A) (A)
                 (A) (A) (A) (A) (A) (A) (A) (A) (A) (A) (A) (A)
                 (A) (A) (A) (A) (A) (A) (A) (A) (A) (A) (A) (A)
                 (A) (A) (A) (A) (A) (A) (A) (A) (A) (A) (A) (A)
                 (A) (A) (A) (A) (A) (A) (A) (A) (A) (A) (A) (A)
                 (A) (A) (A) (A) (A) (A) (A) (A) (A) (A) (A) (A)
                 (A) (A) (A) (A) (A) (A) (A) (A) (A) (A) (A) (A)
                 (A) (A) (A) (A) (A) (A) (A) (A) (A) (A) (A) (A)
                 (A) (A) (A) (A) (A) (A) (A) (A) (A) (A) (A) (A)
                 (A) (A) (A) (A) (A) (A) (A) (A) (A) (A) (A) (A)
                 (A) (A) (A) (A) (A) (A) (A) (A) (A) (A) (A) (A)
                 (A) (A) (A) (A) (A) (A) (A) (A) (A) (A) (A) (A)
                 (A) (A) (A) (A) (A) (A) (A) (A) (A) (A) (A) (A)
                 (A) (A) (A) (A) (A) (A) (A) (A) (A) (A) (A) (A)
                 (A) (A) (A) (A) (A) (A) (A) (A) (A) (A) (A) (A)
                 (A) (A) (A) (A) (A) (A) (A) (A) (A) (A) (A) (A)
                 (A) (A) (A) (A) (A) (A) (A) (A) (A) (A) (A) (A)
                 (A) (A) (A) (A) (A) (A) (A) (A) (A) (A) (A) (A)
                 (A) (A) (A) (A) (A) (A) (A) (A) (A) (A) (A) (A)
                 (A) (A) (A) (A) (A) (A) (A) (A) (A)
 The electronic state is 1-A.
 Alpha  occ. eigenvalues --  -19.32530 -19.28004 -19.27188 -10.43650 -10.36331
 Alpha  occ. eigenvalues --  -10.34861 -10.32014 -10.31837 -10.30987 -10.30917
 Alpha  occ. eigenvalues --  -10.30865 -10.30840 -10.30727 -10.28992 -10.28697
 Alpha  occ. eigenvalues --   -1.20783  -1.12943  -1.11993  -0.96430  -0.91461
 Alpha  occ. eigenvalues --   -0.86763  -0.85256  -0.84956  -0.77617  -0.75441
 Alpha  occ. eigenvalues --   -0.71510  -0.70264  -0.68072  -0.65398  -0.61978
 Alpha  occ. eigenvalues --   -0.59164  -0.58669  -0.57506  -0.56814  -0.55158
 Alpha  occ. eigenvalues --   -0.54583  -0.53199  -0.51080  -0.50376  -0.49526
 Alpha  occ. eigenvalues --   -0.48545  -0.47243  -0.46766  -0.46438  -0.45502
 Alpha  occ. eigenvalues --   -0.45039  -0.43904  -0.43551  -0.42789  -0.42427
 Alpha  occ. eigenvalues --   -0.40294  -0.38746  -0.37361  -0.35395  -0.33504
 Alpha  occ. eigenvalues --   -0.32626
 Alpha virt. eigenvalues --    0.04608   0.04948   0.06735   0.07097   0.07892
 Alpha virt. eigenvalues --    0.08111   0.08370   0.09370   0.09902   0.09954
 Alpha virt. eigenvalues --    0.10522   0.11052   0.12133   0.12374   0.12689
 Alpha virt. eigenvalues --    0.13632   0.13863   0.14271   0.14730   0.15489
 Alpha virt. eigenvalues --    0.16139   0.16783   0.17205   0.18020   0.18414
 Alpha virt. eigenvalues --    0.18778   0.19140   0.19341   0.19719   0.20238
 Alpha virt. eigenvalues --    0.20897   0.21590   0.22109   0.22209   0.22529
 Alpha virt. eigenvalues --    0.23441   0.23770   0.24034   0.24487   0.24960
 Alpha virt. eigenvalues --    0.25421   0.25719   0.25993   0.26578   0.26730
 Alpha virt. eigenvalues --    0.27527   0.27576   0.28153   0.28446   0.28962
 Alpha virt. eigenvalues --    0.29554   0.29895   0.30052   0.30465   0.30853
 Alpha virt. eigenvalues --    0.31163   0.31666   0.32527   0.33091   0.33468
 Alpha virt. eigenvalues --    0.33953   0.34235   0.34987   0.35908   0.36302
 Alpha virt. eigenvalues --    0.36434   0.37101   0.38232   0.38289   0.39516
 Alpha virt. eigenvalues --    0.39767   0.40407   0.41177   0.42061   0.42269
 Alpha virt. eigenvalues --    0.42689   0.43378   0.43685   0.44137   0.44721
 Alpha virt. eigenvalues --    0.45210   0.46131   0.46607   0.46966   0.47794
 Alpha virt. eigenvalues --    0.48681   0.49514   0.50610   0.52575   0.54305
 Alpha virt. eigenvalues --    0.55856   0.57267   0.60401   0.66201   0.70652
 Alpha virt. eigenvalues --    0.73149   0.74327   0.74447   0.75789   0.76520
 Alpha virt. eigenvalues --    0.78250   0.78336   0.79336   0.79583   0.81020
 Alpha virt. eigenvalues --    0.82059   0.82347   0.83230   0.84083   0.84825
 Alpha virt. eigenvalues --    0.85349   0.87463   0.87949   0.88996   0.90097
 Alpha virt. eigenvalues --    0.91208   0.93052   0.94143   0.95851   0.96946
 Alpha virt. eigenvalues --    0.97808   0.99195   1.00341   1.01990   1.02483
 Alpha virt. eigenvalues --    1.02941   1.03339   1.04660   1.06239   1.07331
 Alpha virt. eigenvalues --    1.09490   1.09806   1.10467   1.11425   1.12107
 Alpha virt. eigenvalues --    1.12564   1.15253   1.16953   1.18888   1.19710
 Alpha virt. eigenvalues --    1.21131   1.22175   1.22592   1.23457   1.24746
 Alpha virt. eigenvalues --    1.25298   1.26542   1.28055   1.31086   1.31923
 Alpha virt. eigenvalues --    1.32532   1.34006   1.34487   1.36712   1.37621
 Alpha virt. eigenvalues --    1.38129   1.39684   1.40365   1.43605   1.45514
 Alpha virt. eigenvalues --    1.46753   1.47540   1.49276   1.50293   1.51091
 Alpha virt. eigenvalues --    1.51735   1.53168   1.53671   1.55870   1.56486
 Alpha virt. eigenvalues --    1.57690   1.59452   1.61416   1.64611   1.65148
 Alpha virt. eigenvalues --    1.71362   1.71717   1.73416   1.76872   1.80528
 Alpha virt. eigenvalues --    1.82723   1.83773   1.85393   1.88663   1.89075
 Alpha virt. eigenvalues --    1.90457   1.92275   1.92466   1.93100   1.95754
 Alpha virt. eigenvalues --    1.97477   1.97699   1.99710   2.01689   2.02145
 Alpha virt. eigenvalues --    2.02884   2.04151   2.05432   2.06397   2.07330
 Alpha virt. eigenvalues --    2.08386   2.09631   2.09865   2.10777   2.11917
 Alpha virt. eigenvalues --    2.13578   2.14056   2.15331   2.16404   2.18656
 Alpha virt. eigenvalues --    2.19406   2.19982   2.21309   2.21713   2.22210
 Alpha virt. eigenvalues --    2.23047   2.24187   2.27455   2.28413   2.29541
 Alpha virt. eigenvalues --    2.31338   2.34308   2.37675   2.39362   2.39598
 Alpha virt. eigenvalues --    2.41435   2.43924   2.45165   2.47006   2.48192
 Alpha virt. eigenvalues --    2.49107   2.49718   2.51421   2.54469   2.55580
 Alpha virt. eigenvalues --    2.56249   2.56829   2.58257   2.60486   2.60974
 Alpha virt. eigenvalues --    2.62926   2.64635   2.65365   2.66758   2.68448
 Alpha virt. eigenvalues --    2.69685   2.70291   2.72276   2.73231   2.74868
 Alpha virt. eigenvalues --    2.76668   2.78955   2.79473   2.81652   2.83682
 Alpha virt. eigenvalues --    2.84425   2.84838   2.85973   2.87108   2.88211
 Alpha virt. eigenvalues --    2.90653   2.91981   2.92383   2.96762   2.99425
 Alpha virt. eigenvalues --    3.00435   3.01149   3.02216   3.05330   3.05899
 Alpha virt. eigenvalues --    3.15029   3.16234   3.17131   3.18184   3.27699
 Alpha virt. eigenvalues --    3.27993   3.32053   3.36949   3.37378   3.38812
 Alpha virt. eigenvalues --    3.39326   3.44935   3.45597   3.49708   3.51226
 Alpha virt. eigenvalues --    3.53547   3.58770   3.58961   3.60549   3.62502
 Alpha virt. eigenvalues --    3.64515   3.66024   3.68097   3.99433   4.41051
 Alpha virt. eigenvalues --    4.42661   4.46307   4.51002   4.54601   4.56098
 Alpha virt. eigenvalues --    4.61322   4.62825   4.63894   4.69565   4.77541
 Alpha virt. eigenvalues --    4.79997   4.82500   4.97091   4.97831
          Condensed to atoms (all electrons):
              1          2          3          4          5          6
     1  C   17.228821  -1.408207  -0.461982  -5.129456  -7.993776   0.506333
     2  C   -1.408207   8.891304   0.278048  -0.602562  -0.608532   0.823832
     3  C   -0.461982   0.278048   6.238698  -0.205042  -0.142984   0.464011
     4  C   -5.129456  -0.602562  -0.205042  15.904472  -0.742932  -1.123659
     5  C   -7.993776  -0.608532  -0.142984  -0.742932  17.819986  -0.357335
     6  C    0.506333   0.823832   0.464011  -1.123659  -0.357335   5.654148
     7  C    3.954707  -1.857172  -0.376239  -2.917003  -2.803345  -0.050363
     8  C   -1.669221   0.866136   0.137711   0.878718   1.450798  -0.003245
     9  C    0.675087  -0.775754  -0.100721   0.035990  -0.815193  -0.039112
    10  O   -0.150769   0.058588  -0.004004  -0.030541   0.235899   0.009834
    11  C   -0.095556   0.099141   0.015342  -0.030418   0.131182   0.006961
    12  O   -0.126608   0.178525   0.007898  -0.107159   0.202481   0.010197
    13  C    0.423963  -0.018206  -0.007712  -0.207846  -0.346850   0.012950
    14  O   -0.014185   0.012464   0.002971   0.062793  -0.045205   0.001711
    15  C   -0.053914   0.006671   0.005072  -0.058240   0.096235   0.000494
    16  H    0.163981   0.010163   0.057504   0.111567   0.015523  -0.010383
    17  H    0.010745   0.259910  -0.009396   0.033930   0.011655   0.022803
    18  H    0.022260  -0.000303   0.273305   0.020491  -0.003819   0.020103
    19  H    0.050132  -0.046070  -0.002787   0.153518   0.177783  -0.009284
    20  H   -0.008557   0.019915   0.029512   0.002953   0.008286   0.271979
    21  H    0.167885   0.023556   0.049436  -0.128853  -0.020229   0.007267
    22  H   -0.027182   0.001588  -0.002244   0.014818   0.025881  -0.000180
    23  H   -0.005304   0.016863   0.001617   0.004387  -0.014690  -0.002536
    24  H   -0.000129  -0.000866  -0.000172  -0.002755   0.003785   0.000336
    25  H    0.016013   0.014377   0.000455   0.037242  -0.054804  -0.001130
    26  H    0.047540   0.000141   0.007979  -0.048389  -0.014551   0.000580
    27  H    0.004927  -0.000574  -0.000681  -0.010710  -0.002001   0.000256
    28  H   -0.015664   0.001267  -0.010601   0.035219   0.004567  -0.002589
    29  H    0.002154  -0.000737  -0.001024  -0.001692   0.000356  -0.000132
    30  H    0.000124   0.000332   0.000051  -0.000409   0.000337  -0.000273
    31  H   -0.001820   0.000863   0.000052   0.000319   0.000706   0.000008
              7          8          9         10         11         12
     1  C    3.954707  -1.669221   0.675087  -0.150769  -0.095556  -0.126608
     2  C   -1.857172   0.866136  -0.775754   0.058588   0.099141   0.178525
     3  C   -0.376239   0.137711  -0.100721  -0.004004   0.015342   0.007898
     4  C   -2.917003   0.878718   0.035990  -0.030541  -0.030418  -0.107159
     5  C   -2.803345   1.450798  -0.815193   0.235899   0.131182   0.202481
     6  C   -0.050363  -0.003245  -0.039112   0.009834   0.006961   0.010197
     7  C   11.559943  -2.958027   1.498386  -0.119742  -0.214809  -0.008598
     8  C   -2.958027   9.376318  -2.107947  -0.385566   0.190446   0.141268
     9  C    1.498386  -2.107947   7.275791   0.300625  -0.348958  -0.243161
    10  O   -0.119742  -0.385566   0.300625   8.474269   0.042509   0.004350
    11  C   -0.214809   0.190446  -0.348958   0.042509   5.391964   0.009601
    12  O   -0.008598   0.141268  -0.243161   0.004350   0.009601   8.242543
    13  C    0.194684  -0.130830  -0.005048   0.046717  -0.011003   0.009723
    14  O   -0.083477  -0.049928   0.680929  -0.170575  -0.064828   0.015487
    15  C    0.006277  -0.034894  -0.008126  -0.023133   0.117536  -0.000649
    16  H   -0.043698   0.010253  -0.003486  -0.000192  -0.000165   0.000334
    17  H   -0.004185   0.000373  -0.000377  -0.000055   0.001346   0.000123
    18  H   -0.005562   0.000708  -0.000378  -0.000040  -0.000075   0.000020
    19  H   -0.012228   0.007359   0.002134  -0.001488  -0.001223   0.003304
    20  H    0.002182  -0.000091   0.000084  -0.000002  -0.000395  -0.000006
    21  H    0.136939   0.121068  -0.068183  -0.000330   0.000528  -0.053194
    22  H    0.033526   0.242634   0.027815   0.011614   0.002496  -0.003794
    23  H   -0.004314   0.005051  -0.031791  -0.035116   0.413711   0.000017
    24  H    0.002505  -0.022585  -0.003200  -0.043255   0.405270  -0.000006
    25  H   -0.020926   0.032494  -0.004109  -0.000019   0.001006   0.232980
    26  H   -0.004050  -0.037360  -0.003866   0.000926  -0.000336   0.000190
    27  H    0.015449  -0.085060   0.036038  -0.003631  -0.003005  -0.000261
    28  H    0.020108  -0.096343  -0.003572   0.000997  -0.000091  -0.000790
    29  H    0.002602  -0.007404   0.003463  -0.002510  -0.063187   0.000000
    30  H   -0.000036  -0.000165   0.000910   0.007691  -0.062523   0.000000
    31  H   -0.000614  -0.002858  -0.005436  -0.003036  -0.055567   0.000000
             13         14         15         16         17         18
     1  C    0.423963  -0.014185  -0.053914   0.163981   0.010745   0.022260
     2  C   -0.018206   0.012464   0.006671   0.010163   0.259910  -0.000303
     3  C   -0.007712   0.002971   0.005072   0.057504  -0.009396   0.273305
     4  C   -0.207846   0.062793  -0.058240   0.111567   0.033930   0.020491
     5  C   -0.346850  -0.045205   0.096235   0.015523   0.011655  -0.003819
     6  C    0.012950   0.001711   0.000494  -0.010383   0.022803   0.020103
     7  C    0.194684  -0.083477   0.006277  -0.043698  -0.004185  -0.005562
     8  C   -0.130830  -0.049928  -0.034894   0.010253   0.000373   0.000708
     9  C   -0.005048   0.680929  -0.008126  -0.003486  -0.000377  -0.000378
    10  O    0.046717  -0.170575  -0.023133  -0.000192  -0.000055  -0.000040
    11  C   -0.011003  -0.064828   0.117536  -0.000165   0.001346  -0.000075
    12  O    0.009723   0.015487  -0.000649   0.000334   0.000123   0.000020
    13  C    5.437284  -0.001431  -0.004280   0.004500   0.000112   0.000358
    14  O   -0.001431   8.081603   0.009468   0.000024  -0.000027   0.000000
    15  C   -0.004280   0.009468   5.339444   0.000046  -0.000444  -0.000062
    16  H    0.004500   0.000024   0.000046   0.507080   0.000011  -0.003984
    17  H    0.000112  -0.000027  -0.000444   0.000011   0.497598  -0.000122
    18  H    0.000358   0.000000  -0.000062  -0.003984  -0.000122   0.495286
    19  H    0.000403  -0.001218  -0.003726  -0.000113  -0.003854   0.000011
    20  H   -0.000084   0.000001   0.000453  -0.000121  -0.003874  -0.003858
    21  H   -0.002236   0.000711  -0.000166   0.001894   0.000002   0.000001
    22  H   -0.025901  -0.005236   0.001060  -0.000015   0.000000   0.000000
    23  H    0.001328   0.004762  -0.024755   0.000000  -0.000035   0.000000
    24  H    0.001994   0.001558  -0.013408   0.000000   0.000000   0.000000
    25  H   -0.002194  -0.000470   0.000054   0.000041   0.000000   0.000000
    26  H    0.407335  -0.000035   0.000143  -0.000092   0.000000   0.000000
    27  H    0.410111   0.000229   0.000460   0.000018   0.000000   0.000000
    28  H    0.422786  -0.000675   0.001668  -0.000287   0.000000  -0.000010
    29  H    0.001218  -0.000218   0.429831   0.000000  -0.000008   0.000000
    30  H   -0.000034   0.000146   0.420447   0.000000   0.000000   0.000000
    31  H    0.001025  -0.000013   0.428355   0.000000   0.000000   0.000000
             19         20         21         22         23         24
     1  C    0.050132  -0.008557   0.167885  -0.027182  -0.005304  -0.000129
     2  C   -0.046070   0.019915   0.023556   0.001588   0.016863  -0.000866
     3  C   -0.002787   0.029512   0.049436  -0.002244   0.001617  -0.000172
     4  C    0.153518   0.002953  -0.128853   0.014818   0.004387  -0.002755
     5  C    0.177783   0.008286  -0.020229   0.025881  -0.014690   0.003785
     6  C   -0.009284   0.271979   0.007267  -0.000180  -0.002536   0.000336
     7  C   -0.012228   0.002182   0.136939   0.033526  -0.004314   0.002505
     8  C    0.007359  -0.000091   0.121068   0.242634   0.005051  -0.022585
     9  C    0.002134   0.000084  -0.068183   0.027815  -0.031791  -0.003200
    10  O   -0.001488  -0.000002  -0.000330   0.011614  -0.035116  -0.043255
    11  C   -0.001223  -0.000395   0.000528   0.002496   0.413711   0.405270
    12  O    0.003304  -0.000006  -0.053194  -0.003794   0.000017  -0.000006
    13  C    0.000403  -0.000084  -0.002236  -0.025901   0.001328   0.001994
    14  O   -0.001218   0.000001   0.000711  -0.005236   0.004762   0.001558
    15  C   -0.003726   0.000453  -0.000166   0.001060  -0.024755  -0.013408
    16  H   -0.000113  -0.000121   0.001894  -0.000015   0.000000   0.000000
    17  H   -0.003854  -0.003874   0.000002   0.000000  -0.000035   0.000000
    18  H    0.000011  -0.003858   0.000001   0.000000   0.000000   0.000000
    19  H    0.501268  -0.000127  -0.000050  -0.000020   0.000282  -0.000007
    20  H   -0.000127   0.497971   0.000000   0.000000   0.000000   0.000000
    21  H   -0.000050   0.000000   0.619284  -0.005100   0.000000   0.000000
    22  H   -0.000020   0.000000  -0.005100   0.513382  -0.000010   0.000023
    23  H    0.000282   0.000000   0.000000  -0.000010   0.535178  -0.033644
    24  H   -0.000007   0.000000   0.000000   0.000023  -0.033644   0.532483
    25  H   -0.001025   0.000000  -0.002870   0.000196   0.000000   0.000000
    26  H    0.000000   0.000000   0.003815  -0.003837   0.000000   0.000000
    27  H    0.000000   0.000000   0.000203  -0.003242  -0.000003  -0.000001
    28  H   -0.000003   0.000000  -0.001102   0.004200  -0.000012   0.000003
    29  H    0.000000  -0.000002   0.000000   0.000000  -0.005155   0.003997
    30  H    0.000000   0.000000   0.000000   0.000000  -0.001587  -0.001593
    31  H    0.000000   0.000000   0.000000   0.000000   0.004088  -0.004987
             25         26         27         28         29         30
     1  C    0.016013   0.047540   0.004927  -0.015664   0.002154   0.000124
     2  C    0.014377   0.000141  -0.000574   0.001267  -0.000737   0.000332
     3  C    0.000455   0.007979  -0.000681  -0.010601  -0.001024   0.000051
     4  C    0.037242  -0.048389  -0.010710   0.035219  -0.001692  -0.000409
     5  C   -0.054804  -0.014551  -0.002001   0.004567   0.000356   0.000337
     6  C   -0.001130   0.000580   0.000256  -0.002589  -0.000132  -0.000273
     7  C   -0.020926  -0.004050   0.015449   0.020108   0.002602  -0.000036
     8  C    0.032494  -0.037360  -0.085060  -0.096343  -0.007404  -0.000165
     9  C   -0.004109  -0.003866   0.036038  -0.003572   0.003463   0.000910
    10  O   -0.000019   0.000926  -0.003631   0.000997  -0.002510   0.007691
    11  C    0.001006  -0.000336  -0.003005  -0.000091  -0.063187  -0.062523
    12  O    0.232980   0.000190  -0.000261  -0.000790   0.000000   0.000000
    13  C   -0.002194   0.407335   0.410111   0.422786   0.001218  -0.000034
    14  O   -0.000470  -0.000035   0.000229  -0.000675  -0.000218   0.000146
    15  C    0.000054   0.000143   0.000460   0.001668   0.429831   0.420447
    16  H    0.000041  -0.000092   0.000018  -0.000287   0.000000   0.000000
    17  H    0.000000   0.000000   0.000000   0.000000  -0.000008   0.000000
    18  H    0.000000   0.000000   0.000000  -0.000010   0.000000   0.000000
    19  H   -0.001025   0.000000   0.000000  -0.000003   0.000000   0.000000
    20  H    0.000000   0.000000   0.000000   0.000000  -0.000002   0.000000
    21  H   -0.002870   0.003815   0.000203  -0.001102   0.000000   0.000000
    22  H    0.000196  -0.003837  -0.003242   0.004200   0.000000   0.000000
    23  H    0.000000   0.000000  -0.000003  -0.000012  -0.005155  -0.001587
    24  H    0.000000   0.000000  -0.000001   0.000003   0.003997  -0.001593
    25  H    0.366558  -0.000009   0.000002   0.000004   0.000000   0.000000
    26  H   -0.000009   0.521689  -0.023103  -0.026924   0.000000   0.000000
    27  H    0.000002  -0.023103   0.512375  -0.024536   0.000000   0.000000
    28  H    0.000004  -0.026924  -0.024536   0.508008   0.000005   0.000000
    29  H    0.000000   0.000000   0.000000   0.000005   0.512117  -0.022554
    30  H    0.000000   0.000000   0.000000   0.000000  -0.022554   0.502525
    31  H    0.000000   0.000000  -0.000004  -0.000014  -0.028294  -0.022668
             31
     1  C   -0.001820
     2  C    0.000863
     3  C    0.000052
     4  C    0.000319
     5  C    0.000706
     6  C    0.000008
     7  C   -0.000614
     8  C   -0.002858
     9  C   -0.005436
    10  O   -0.003036
    11  C   -0.055567
    12  O    0.000000
    13  C    0.001025
    14  O   -0.000013
    15  C    0.428355
    16  H    0.000000
    17  H    0.000000
    18  H    0.000000
    19  H    0.000000
    20  H    0.000000
    21  H    0.000000
    22  H    0.000000
    23  H    0.004088
    24  H   -0.004987
    25  H    0.000000
    26  H    0.000000
    27  H   -0.000004
    28  H   -0.000014
    29  H   -0.028294
    30  H   -0.022668
    31  H    0.515181
 Mulliken atomic charges:
              1
     1  C   -0.112343
     2  C   -0.244701
     3  C   -0.244071
     4  C    0.051246
     5  C   -0.219216
     6  C   -0.213580
     7  C    0.057078
     8  C    0.130188
     9  C    0.031167
    10  O   -0.220015
    11  C    0.123102
    12  O   -0.514814
    13  C   -0.612838
    14  O   -0.437339
    15  C   -0.637917
    16  H    0.179598
    17  H    0.183769
    18  H    0.185670
    19  H    0.187030
    20  H    0.183781
    21  H    0.149724
    22  H    0.197526
    23  H    0.171668
    24  H    0.174652
    25  H    0.386132
    26  H    0.172214
    27  H    0.176745
    28  H    0.184379
    29  H    0.177172
    30  H    0.179280
    31  H    0.174714
 Sum of Mulliken atomic charges =   0.00000
 Mulliken charges with hydrogens summed into heavy atoms:
              1
     1  C    0.067256
     2  C   -0.060932
     3  C   -0.058402
     4  C    0.051246
     5  C   -0.032186
     6  C   -0.029800
     7  C    0.206802
     8  C    0.327713
     9  C    0.031167
    10  O   -0.220015
    11  C    0.469422
    12  O   -0.128681
    13  C   -0.079500
    14  O   -0.437339
    15  C   -0.106751
 Sum of Mulliken charges with hydrogens summed into heavy atoms =   0.00000
 Electronic spatial extent (au):  <R**2>=           3131.7288
 Charge=              0.0000 electrons
 Dipole moment (field-independent basis, Debye):
    X=             -2.4373    Y=              2.3977    Z=              3.0335  Tot=              4.5708
 Quadrupole moment (field-independent basis, Debye-Ang):
   XX=            -87.1478   YY=            -85.3901   ZZ=            -90.0274
   XY=              4.3224   XZ=              5.6454   YZ=             -9.2927
 Traceless Quadrupole moment (field-independent basis, Debye-Ang):
   XX=              0.3739   YY=              2.1317   ZZ=             -2.5056
   XY=              4.3224   XZ=              5.6454   YZ=             -9.2927
 Octapole moment (field-independent basis, Debye-Ang**2):
  XXX=             13.0277  YYY=             19.5959  ZZZ=              0.5793  XYY=              0.6296
  XXY=             19.0239  XXZ=             20.3191  XZZ=            -17.4745  YZZ=              3.0289
  YYZ=              6.2333  XYZ=            -12.0025
 Hexadecapole moment (field-independent basis, Debye-Ang**3):
 XXXX=          -2019.8065 YYYY=          -1499.2148 ZZZZ=           -678.4534 XXXY=             -2.7523
 XXXZ=             -4.1952 YYYX=             28.7050 YYYZ=            -43.1773 ZZZX=             13.2504
 ZZZY=             -5.5113 XXYY=           -503.1039 XXZZ=           -447.4217 YYZZ=           -358.2996
 XXYZ=             -2.1278 YYXZ=             19.7091 ZZXY=             17.6758
 N-N= 1.036370586864D+03 E-N=-3.684661517578D+03  KE= 6.858946591424D+02
 1\1\GINC-COMPUTE-8-12\SP\RwB97XD\6-31+G(d,p)\C12H16O3\ELUCIANO.IQUIR\1
 7-May-2022\0\\# wb97xd/6-31+g** scrf=(pcm,solvent=chloroform,smd,dovac
 uum) nmr\\comment\\0,1\C,0,1.735644677,1.134475612,1.099772651\C,0,2.4
 51175377,-0.073703065,-1.309652396\C,0,2.916280689,0.394430256,1.00999
 1102\C,0,0.896321935,1.280150259,-0.014992677\C,0,1.271180731,0.666199
 324,-1.22193408\C,0,3.273242804,-0.209165548,-0.193766509\C,0,-0.39056
 7275,2.075865328,0.097834364\C,0,-1.669120687,1.27326025,0.393032221\C
 ,0,-1.836220095,0.104254384,-0.56140568\O,0,-1.364750144,-1.057047024,
 -0.02761375\C,0,-1.427607032,-2.185935473,-0.906331043\O,0,-0.58210536
 9,2.881727964,-1.068797722\C,0,-1.75499769,0.840633804,1.85986793\O,0,
 -2.314787491,0.199402738,-1.685250861\C,0,-0.769957848,-3.360781022,-0
 .209479852\H,0,1.475705191,1.594704037,2.050837167\H,0,2.726386899,-0.
 545954615,-2.249269023\H,0,3.557683532,0.287315586,1.881152839\H,0,0.6
 37206508,0.754385998,-2.103961325\H,0,4.191740894,-0.786235243,-0.2618
 79603\H,0,-0.258138726,2.808588413,0.904608465\H,0,-2.539649781,1.9195
 03117,0.211976326\H,0,-0.894732078,-1.965851404,-1.83825755\H,0,-2.474
 845122,-2.421288003,-1.125440389\H,0,0.297273658,3.161033942,-1.378053
 427\H,0,-1.758813039,1.714346086,2.520119955\H,0,-2.677332656,0.278310
 439,2.043451286\H,0,-0.916608763,0.201079153,2.153993114\H,0,0.2718738
 36,-3.128618107,0.035610814\H,0,-0.79405506,-4.252887856,-0.841412893\
 H,0,-1.277427873,-3.58219933,0.735250546\\Version=EM64L-G09RevC.01\Sta
 te=1-A\HF=-692.4437197\RMSD=4.041e-09\Dipole=1.1922713,-0.6823095,1.16
 04983\Quadrupole=-1.2355103,2.1690915,-0.9335812,2.5326344,-6.1664761,
 5.5421011\PG=C01 [X(C12H16O3)]\\@


 GOD GAVE US TWO ENDS... ONE TO SIT ON...    
 AND THE OTHER TO THINK WITH...              
 YOUR SUCCESS DEPENDS UPON WHICH END YOU     
 USE THE MOST...                             
                                             
 IT'S A CASE OF HEADS YOU WIN TAILS YOU LOSE.
          SOURCE UNKNOWN(IT'S JUST AS WELL.) 
 Job cpu time:  0 days  2 hours 19 minutes 27.4 seconds.
 File lengths (MBytes):  RWF=    122 Int=      0 D2E=      0 Chk=      9 Scr=      1
 Normal termination of Gaussian 09 at Tue May 17 20:55:19 2022.
