 Entering Gaussian System, Link 0=g09
 Input=/home/eluciano.iquir/wb9/73a_019.gjc
 Output=/home/eluciano.iquir/wb9/73a_019.log
 Initial command:
 /share/apps/Gaussian09/EM64T.SSE4.2-enabled/g09/l1.exe /tmp/Gau-30479.inp -scrdir=/tmp/
 Entering Link 1 = /share/apps/Gaussian09/EM64T.SSE4.2-enabled/g09/l1.exe PID=     30480.
  
 Copyright (c) 1988,1990,1992,1993,1995,1998,2003,2009,2011,
            Gaussian, Inc.  All Rights Reserved.
  
 This is part of the Gaussian(R) 09 program.  It is based on
 the Gaussian(R) 03 system (copyright 2003, Gaussian, Inc.),
 the Gaussian(R) 98 system (copyright 1998, Gaussian, Inc.),
 the Gaussian(R) 94 system (copyright 1995, Gaussian, Inc.),
 the Gaussian 92(TM) system (copyright 1992, Gaussian, Inc.),
 the Gaussian 90(TM) system (copyright 1990, Gaussian, Inc.),
 the Gaussian 88(TM) system (copyright 1988, Gaussian, Inc.),
 the Gaussian 86(TM) system (copyright 1986, Carnegie Mellon
 University), and the Gaussian 82(TM) system (copyright 1983,
 Carnegie Mellon University). Gaussian is a federally registered
 trademark of Gaussian, Inc.
  
 This software contains proprietary and confidential information,
 including trade secrets, belonging to Gaussian, Inc.
  
 This software is provided under written license and may be
 used, copied, transmitted, or stored only in accord with that
 written license.
  
 The following legend is applicable only to US Government
 contracts under FAR:
  
                    RESTRICTED RIGHTS LEGEND
  
 Use, reproduction and disclosure by the US Government is
 subject to restrictions as set forth in subparagraphs (a)
 and (c) of the Commercial Computer Software - Restricted
 Rights clause in FAR 52.227-19.
  
 Gaussian, Inc.
 340 Quinnipiac St., Bldg. 40, Wallingford CT 06492
  
  
 ---------------------------------------------------------------
 Warning -- This program may not be used in any manner that
 competes with the business of Gaussian, Inc. or will provide
 assistance to any competitor of Gaussian, Inc.  The licensee
 of this program is prohibited from giving any competitor of
 Gaussian, Inc. access to this program.  By using this program,
 the user acknowledges that Gaussian, Inc. is engaged in the
 business of creating and licensing software in the field of
 computational chemistry and represents and warrants to the
 licensee that it is not a competitor of Gaussian, Inc. and that
 it will not use this program in any manner prohibited above.
 ---------------------------------------------------------------
  

 Cite this work as:
 Gaussian 09, Revision C.01,
 M. J. Frisch, G. W. Trucks, H. B. Schlegel, G. E. Scuseria, 
 M. A. Robb, J. R. Cheeseman, G. Scalmani, V. Barone, B. Mennucci, 
 G. A. Petersson, H. Nakatsuji, M. Caricato, X. Li, H. P. Hratchian, 
 A. F. Izmaylov, J. Bloino, G. Zheng, J. L. Sonnenberg, M. Hada, 
 M. Ehara, K. Toyota, R. Fukuda, J. Hasegawa, M. Ishida, T. Nakajima, 
 Y. Honda, O. Kitao, H. Nakai, T. Vreven, J. A. Montgomery, Jr., 
 J. E. Peralta, F. Ogliaro, M. Bearpark, J. J. Heyd, E. Brothers, 
 K. N. Kudin, V. N. Staroverov, T. Keith, R. Kobayashi, J. Normand, 
 K. Raghavachari, A. Rendell, J. C. Burant, S. S. Iyengar, J. Tomasi, 
 M. Cossi, N. Rega, J. M. Millam, M. Klene, J. E. Knox, J. B. Cross, 
 V. Bakken, C. Adamo, J. Jaramillo, R. Gomperts, R. E. Stratmann, 
 O. Yazyev, A. J. Austin, R. Cammi, C. Pomelli, J. W. Ochterski, 
 R. L. Martin, K. Morokuma, V. G. Zakrzewski, G. A. Voth, 
 P. Salvador, J. J. Dannenberg, S. Dapprich, A. D. Daniels, 
 O. Farkas, J. B. Foresman, J. V. Ortiz, J. Cioslowski, 
 and D. J. Fox, Gaussian, Inc., Wallingford CT, 2010.
 
 ******************************************
 Gaussian 09:  EM64L-G09RevC.01 23-Sep-2011
                17-May-2022 
 ******************************************
 %nprocshared=4
 Will use up to    4 processors via shared memory.
 ----------------------------------------------------------------
 # wb97xd/6-31+g** scrf=(pcm,solvent=chloroform,smd,dovacuum) nmr
 ----------------------------------------------------------------
 1/38=1/1;
 2/12=2,17=6,18=5,40=1/2;
 3/5=1,6=6,7=111,11=2,16=1,25=1,30=1,70=32101,72=7,74=-58/1,2,8,3;
 4//1;
 5/5=2,38=5,53=7/2;
 8/6=1,10=90,11=11/1;
 10/13=100,45=16/2;
 6/7=2,8=2,9=2,10=2,28=1/1;
 99/9=1/99;
 -------
 comment
 -------
 Charge =  0 Multiplicity = 1
 Symbolic Z-Matrix:
 6                     0.33066   2.475    -0.11109 
 6                     1.42382   3.04308   2.38983 
 6                     0.25898   3.76957   0.4066 
 6                     0.95607   1.44805   0.61364 
 6                     1.49672   1.74818   1.87372 
 6                     0.80647   4.05322   1.65577 
 6                     1.00932   0.04432   0.03415 
 6                    -0.19006  -0.81427   0.47099 
 6                    -0.4105   -1.90887  -0.55666 
 8                    -0.85436  -1.36011  -1.72772 
 6                    -1.12334  -2.28853  -2.78923 
 8                     2.24758  -0.58064   0.37606 
 6                    -0.05131  -1.42623   1.86654 
 8                    -0.26132  -3.10759  -0.36502 
 6                    -2.54366  -2.81024  -2.68009 
 1                    -0.10746   2.27324  -1.08678 
 1                     1.8464    3.26204   3.36721 
 1                    -0.22635   4.55709  -0.16441 
 1                     1.97563   0.9702    2.46601 
 1                     0.74905   5.06092   2.05906 
 1                     1.03357   0.14375  -1.05808 
 1                    -1.11016  -0.21322   0.46942 
 1                    -0.39365  -3.10626  -2.79916 
 1                    -1.00404  -1.74079  -3.72978 
 1                     2.94408   0.09174   0.27362 
 1                     0.02259  -0.65208   2.63544 
 1                    -0.92665  -2.04154   2.10451 
 1                     0.82836  -2.07415   1.94362 
 1                    -2.68934  -3.36202  -1.7461 
 1                    -2.77874  -3.47313  -3.51756 
 1                    -3.25838  -1.98073  -2.67452 
 
                          Input orientation:                          
 ---------------------------------------------------------------------
 Center     Atomic      Atomic             Coordinates (Angstroms)
 Number     Number       Type             X           Y           Z
 ---------------------------------------------------------------------
      1          6           0        0.330661    2.474995   -0.111093
      2          6           0        1.423818    3.043079    2.389834
      3          6           0        0.258981    3.769571    0.406597
      4          6           0        0.956075    1.448052    0.613639
      5          6           0        1.496718    1.748177    1.873722
      6          6           0        0.806474    4.053225    1.655768
      7          6           0        1.009322    0.044318    0.034150
      8          6           0       -0.190055   -0.814273    0.470991
      9          6           0       -0.410497   -1.908865   -0.556660
     10          8           0       -0.854359   -1.360109   -1.727720
     11          6           0       -1.123341   -2.288529   -2.789231
     12          8           0        2.247579   -0.580642    0.376063
     13          6           0       -0.051313   -1.426231    1.866545
     14          8           0       -0.261317   -3.107593   -0.365018
     15          6           0       -2.543662   -2.810243   -2.680091
     16          1           0       -0.107461    2.273239   -1.086775
     17          1           0        1.846400    3.262037    3.367215
     18          1           0       -0.226351    4.557093   -0.164409
     19          1           0        1.975635    0.970201    2.466012
     20          1           0        0.749047    5.060924    2.059058
     21          1           0        1.033570    0.143750   -1.058084
     22          1           0       -1.110162   -0.213221    0.469416
     23          1           0       -0.393647   -3.106259   -2.799158
     24          1           0       -1.004036   -1.740788   -3.729776
     25          1           0        2.944077    0.091744    0.273617
     26          1           0        0.022591   -0.652080    2.635440
     27          1           0       -0.926645   -2.041539    2.104513
     28          1           0        0.828356   -2.074152    1.943616
     29          1           0       -2.689335   -3.362021   -1.746097
     30          1           0       -2.778738   -3.473130   -3.517562
     31          1           0       -3.258385   -1.980732   -2.674522
 ---------------------------------------------------------------------
                    Distance matrix (angstroms):
                    1          2          3          4          5
     1  C    0.000000
     2  C    2.787893   0.000000
     3  C    1.396090   2.412025   0.000000
     4  C    1.403920   2.432645   2.432746   0.000000
     5  C    2.414011   1.395872   2.787559   1.403631   0.000000
     6  C    2.416403   1.392968   1.393067   2.809864   2.416028
     7  C    2.527818   3.835833   3.818276   1.519576   2.554352
     8  C    3.380718   4.600621   4.606236   2.540094   3.373279
     9  C    4.468342   6.047172   5.798336   3.808676   4.787294
    10  O    4.327329   6.444564   5.666432   4.079877   5.306542
    11  C    5.654883   7.857275   6.987467   5.464936   6.700957
    12  O    3.639892   4.226725   4.783284   2.416614   2.868827
    13  C    4.390503   4.735459   5.405930   3.293343   3.531758
    14  O    5.619626   6.946917   6.939847   4.815985   5.628600
    15  C    6.541806   8.700943   7.789506   6.421051   7.605332
    16  H    1.088399   3.876116   2.145565   2.168744   3.407877
    17  H    3.874987   1.087102   3.397462   3.415465   2.155126
    18  H    2.155977   3.396977   1.087100   3.416083   3.874656
    19  H    3.407611   2.146422   3.876153   2.167748   1.088767
    20  H    3.401710   2.153237   2.153691   3.896786   3.401126
    21  H    2.612580   4.521785   3.986459   2.121760   3.374045
    22  H    3.104749   4.551104   4.212022   2.655177   3.551758
    23  H    6.237044   8.248829   7.614449   5.848990   6.998202
    24  H    5.713940   8.138150   7.004916   5.733759   7.058742
    25  H    3.557784   3.936996   4.555637   2.430502   2.720102
    26  H    4.173362   3.959540   4.957279   3.060984   2.917961
    27  H    5.185442   5.608870   6.169086   4.236105   4.504209
    28  H    5.016400   5.171048   6.069243   3.767104   3.880952
    29  H    6.772324   8.663098   8.011633   6.480291   7.532613
    30  H    7.526792   9.747809   8.779720   7.431937   8.637565
    31  H    6.269443   8.532842   7.411554   6.350609   7.563220
                    6          7          8          9         10
     6  C    0.000000
     7  C    4.329217   0.000000
     8  C    5.107769   1.538348   0.000000
     9  C    6.474749   2.485934   1.517495   0.000000
    10  O    6.596252   2.924023   2.360840   1.367307   0.000000
    11  C    7.981230   4.238149   3.697769   2.374166   1.435660
    12  O    5.018680   1.428551   2.450643   3.114405   3.828249
    13  C    5.550195   2.577815   1.530135   2.496772   3.683476
    14  O    7.516719   3.421754   2.441987   1.223081   2.293982
    15  C    8.782384   5.304651   4.410519   3.141947   2.421496
    16  H    3.394874   2.733453   3.459218   4.226447   3.764291
    17  H    2.153248   4.707837   5.399219   6.872307   7.390310
    18  H    2.152592   4.683102   5.408939   6.480462   6.152366
    19  H    3.395360   2.775783   3.443062   4.808242   5.570152
    20  H    1.086922   5.416118   6.158069   7.534221   7.624976
    21  H    4.764510   1.097019   2.180168   2.559294   2.504851
    22  H    4.825296   2.178990   1.099028   2.101802   2.491625
    23  H    8.517327   4.463417   3.998565   2.542210   2.099828
    24  H    8.114962   4.626808   4.378063   3.232523   2.043416
    25  H    4.708823   1.950095   3.268426   3.993115   4.532256
    26  H    4.869715   2.867981   2.180909   3.457828   4.506385
    27  H    6.352261   3.519257   2.171898   2.714011   3.893017
    28  H    6.134173   2.857748   2.189310   2.795256   4.101231
    29  H    8.875767   5.334088   4.201535   2.952884   2.715719
    30  H    9.811377   6.271882   5.447876   4.101516   3.372185
    31  H    8.466588   5.445278   4.546374   3.549784   2.657244
                   11         12         13         14         15
    11  C    0.000000
    12  O    4.929407   0.000000
    13  C    4.854796   2.867308   0.000000
    14  O    2.700140   3.637202   2.801955   0.000000
    15  C    1.517040   6.104685   5.366488   3.264518   0.000000
    16  H    4.973941   3.978787   4.734060   5.431202   5.857945
    17  H    8.805110   4.886114   5.275716   7.677513   9.628870
    18  H    7.386258   5.727892   6.321042   7.667390   8.122575
    19  H    6.916686   2.616668   3.195429   5.444914   7.822926
    20  H    9.001455   6.074976   6.539176   8.580306   9.759956
    21  H    3.683084   2.013787   3.492171   3.567674   4.914628
    22  H    3.863399   3.379073   2.131789   3.129570   4.326527
    23  H    1.096009   4.841161   4.970761   2.437734   2.173561
    24  H    1.094933   5.364406   5.685546   3.706937   2.148493
    25  H    5.620553   0.973503   3.716723   4.573638   6.874678
    26  H    5.780845   3.171822   1.093605   3.887531   6.284758
    27  H    4.903919   3.898392   1.096102   2.770870   5.108629
    28  H    5.123955   2.588819   1.095244   2.754120   5.769835
    29  H    2.166300   6.050847   4.874179   2.804886   1.094544
    30  H    2.161964   6.985032   6.373167   4.050872   1.093636
    31  H    2.160165   6.448407   5.586955   3.947916   1.094965
                   16         17         18         19         20
    16  H    0.000000
    17  H    4.963197   0.000000
    18  H    2.465944   4.294861   0.000000
    19  H    4.319664   2.466045   4.963229   0.000000
    20  H    4.289646   2.480212   2.479728   4.290005   0.000000
    21  H    2.416092   5.474274   4.675858   3.740289   5.828905
    22  H    3.099940   5.405175   4.892724   3.861221   5.813797
    23  H    5.652713   9.143148   8.105360   7.067746   9.571358
    24  H    4.888938   9.138956   7.278732   7.390243   9.102043
    25  H    3.990172   4.563551   5.493889   2.552678   5.718278
    26  H    4.735957   4.379735   5.919173   2.544579   5.787778
    27  H    5.428876   6.116544   7.012871   4.198153   7.297602
    28  H    5.381341   5.615867   7.037726   3.295032   7.136451
    29  H    6.233533   9.518245   8.442772   7.633607   9.861424
    30  H    6.787136  10.684313   9.068782   8.840272  10.787681
    31  H    5.526801   9.489364   7.631320   7.907468   9.383561
                   21         22         23         24         25
    21  H    0.000000
    22  H    2.656364   0.000000
    23  H    3.953586   4.423420   0.000000
    24  H    3.852435   4.469669   1.761572   0.000000
    25  H    2.329414   4.070405   5.550637   5.913791   0.000000
    26  H    3.911206   2.483422   5.977550   6.538747   3.829695
    27  H    4.315084   2.459668   5.046158   5.842549   4.783887
    28  H    3.737833   3.064993   5.005241   5.971278   3.457785
    29  H    5.159827   4.161397   2.538609   3.066532   6.909636
    30  H    5.802116   5.413608   2.517809   2.489099   7.735113
    31  H    5.054421   4.198011   3.080434   2.500645   7.173368
                   26         27         28         29         30
    26  H    0.000000
    27  H    1.764519   0.000000
    28  H    1.774871   1.762663   0.000000
    29  H    5.822043   4.435983   5.258016   0.000000
    30  H    7.325654   6.089945   6.692737   1.777197   0.000000
    31  H    6.381678   5.317883   6.167444   1.758906   1.779897
                   31
    31  H    0.000000
 Stoichiometry    C12H16O3
 Framework group  C1[X(C12H16O3)]
 Deg. of freedom    87
 Full point group                 C1      NOp   1
 Largest Abelian subgroup         C1      NOp   1
 Largest concise Abelian subgroup C1      NOp   1
                         Standard orientation:                         
 ---------------------------------------------------------------------
 Center     Atomic      Atomic             Coordinates (Angstroms)
 Number     Number       Type             X           Y           Z
 ---------------------------------------------------------------------
      1          6           0       -1.984551    1.462460    0.201670
      2          6           0       -4.010451   -0.375843   -0.335655
      3          6           0       -3.255592    1.908652   -0.164981
      4          6           0       -1.711775    0.089584    0.310276
      5          6           0       -2.740314   -0.823842    0.031097
      6          6           0       -4.267924    0.989718   -0.432151
      7          6           0       -0.316552   -0.370892    0.698126
      8          6           0        0.579868   -0.616234   -0.527742
      9          6           0        2.031812   -0.470668   -0.111256
     10          8           0        2.297271    0.836676    0.188598
     11          6           0        3.647328    1.124543    0.583061
     12          8           0       -0.395948   -1.533347    1.524657
     13          6           0        0.362662   -1.970687   -1.205673
     14          8           0        2.860484   -1.369920   -0.087230
     15          6           0        4.502555    1.396874   -0.639981
     16          1           0       -1.206309    2.196625    0.401550
     17          1           0       -4.798134   -1.093933   -0.549419
     18          1           0       -3.455553    2.974259   -0.244259
     19          1           0       -2.556048   -1.895124    0.092860
     20          1           0       -5.256900    1.337569   -0.719073
     21          1           0        0.115527    0.405747    1.341235
     22          1           0        0.407751    0.159055   -1.287456
     23          1           0        4.065419    0.317178    1.195104
     24          1           0        3.611494    2.019164    1.213336
     25          1           0       -1.129407   -1.389975    2.148508
     26          1           0       -0.656315   -2.064154   -1.591576
     27          1           0        1.046284   -2.089117   -2.054246
     28          1           0        0.550538   -2.805340   -0.521849
     29          1           0        4.553782    0.516348   -1.288114
     30          1           0        5.519113    1.675266   -0.348182
     31          1           0        4.071891    2.207193   -1.237358
 ---------------------------------------------------------------------
 Rotational constants (GHZ):      1.2127103      0.3039533      0.2693583
 Standard basis: 6-31+G(d,p) (6D, 7F)
 There are   365 symmetry adapted basis functions of A   symmetry.
 Integral buffers will be    131072 words long.
 Raffenetti 2 integral format.
 Two-electron integral symmetry is turned on.
   365 basis functions,   592 primitive gaussians,   365 cartesian basis functions
    56 alpha electrons       56 beta electrons
       nuclear repulsion energy       994.0079609985 Hartrees.
 NAtoms=   31 NActive=   31 NUniq=   31 SFac= 1.00D+00 NAtFMM=   60 NAOKFM=F Big=F
 Nuclear repulsion after empirical dispersion term =      993.9873888097 Hartrees.
 ------------------------------------------------------------------------------
 Polarizable Continuum Model (PCM)
 =================================
 Model                : C-PCM.
 Atomic radii         : SMD-Coulomb.
 Polarization charges : Total charges.
 Charge compensation  : None.
 Solution method      : Matrix inversion.
 Cavity type          : VdW (van der Waals Surface) (Alpha=1.000).
 Cavity algorithm     : GePol (No added spheres)
                        Default sphere list used, NSphG=   31.
                        Lebedev-Laikov grids with approx.  5.0 points / Ang**2.
                        Smoothing algorithm: Karplus/York (Gamma=1.0000).
                        Polarization charges: spherical gaussians, with
                                              point-specific exponents (IZeta= 3).
                        Self-potential: point-specific (ISelfS= 7).
                        Self-field    : sphere-specific E.n sum rule (ISelfD= 2).
 Solvent              : Chloroform, Eps=   4.711300 Eps(inf)=   2.090627
 ------------------------------------------------------------------------------
 ------------------------------------------------------------------------------
 Atomic radii for non-electrostatic terms: SMD-CDS.
 ------------------------------------------------------------------------------
 Nuclear repulsion after PCM non-electrostatic terms =      993.9809608778 Hartrees.
 One-electron integrals computed using PRISM.
 NBasis=   365 RedAO= T  NBF=   365
 NBsUse=   365 1.00D-06 NBFU=   365
 Harris functional with IExCor= 4639 diagonalized for initial guess.
 ExpMin= 4.38D-02 ExpMax= 5.48D+03 ExpMxC= 8.25D+02 IAcc=2 IRadAn=         4 AccDes= 0.00D+00
 HarFok:  IExCor= 4639 AccDes= 0.00D+00 IRadAn=         4 IDoV= 1
 ScaDFX=  1.000000  1.000000  1.000000  1.000000
 FoFCou: FMM=F IPFlag=           0 FMFlag=      100000 FMFlg1=           0
         NFxFlg=           0 DoJE=T BraDBF=F KetDBF=T FulRan=T
         Omega=  0.000000  0.000000  1.000000  0.000000  0.000000 ICntrl=     500 IOpCl=  0
         NMat0=    1 NMatS0=    1 NMatT0=    0 NMatD0=    1 NMtDS0=    0 NMtDT0=    0
         I1Cent=           4 NGrid=           0.
 Petite list used in FoFCou.
 Initial guess orbital symmetries:
       Occupied  (A) (A) (A) (A) (A) (A) (A) (A) (A) (A) (A) (A)
                 (A) (A) (A) (A) (A) (A) (A) (A) (A) (A) (A) (A)
                 (A) (A) (A) (A) (A) (A) (A) (A) (A) (A) (A) (A)
                 (A) (A) (A) (A) (A) (A) (A) (A) (A) (A) (A) (A)
                 (A) (A) (A) (A) (A) (A) (A) (A)
       Virtual   (A) (A) (A) (A) (A) (A) (A) (A) (A) (A) (A) (A)
                 (A) (A) (A) (A) (A) (A) (A) (A) (A) (A) (A) (A)
                 (A) (A) (A) (A) (A) (A) (A) (A) (A) (A) (A) (A)
                 (A) (A) (A) (A) (A) (A) (A) (A) (A) (A) (A) (A)
                 (A) (A) (A) (A) (A) (A) (A) (A) (A) (A) (A) (A)
                 (A) (A) (A) (A) (A) (A) (A) (A) (A) (A) (A) (A)
                 (A) (A) (A) (A) (A) (A) (A) (A) (A) (A) (A) (A)
                 (A) (A) (A) (A) (A) (A) (A) (A) (A) (A) (A) (A)
                 (A) (A) (A) (A) (A) (A) (A) (A) (A) (A) (A) (A)
                 (A) (A) (A) (A) (A) (A) (A) (A) (A) (A) (A) (A)
                 (A) (A) (A) (A) (A) (A) (A) (A) (A) (A) (A) (A)
                 (A) (A) (A) (A) (A) (A) (A) (A) (A) (A) (A) (A)
                 (A) (A) (A) (A) (A) (A) (A) (A) (A) (A) (A) (A)
                 (A) (A) (A) (A) (A) (A) (A) (A) (A) (A) (A) (A)
                 (A) (A) (A) (A) (A) (A) (A) (A) (A) (A) (A) (A)
                 (A) (A) (A) (A) (A) (A) (A) (A) (A) (A) (A) (A)
                 (A) (A) (A) (A) (A) (A) (A) (A) (A) (A) (A) (A)
                 (A) (A) (A) (A) (A) (A) (A) (A) (A) (A) (A) (A)
                 (A) (A) (A) (A) (A) (A) (A) (A) (A) (A) (A) (A)
                 (A) (A) (A) (A) (A) (A) (A) (A) (A) (A) (A) (A)
                 (A) (A) (A) (A) (A) (A) (A) (A) (A) (A) (A) (A)
                 (A) (A) (A) (A) (A) (A) (A) (A) (A) (A) (A) (A)
                 (A) (A) (A) (A) (A) (A) (A) (A) (A) (A) (A) (A)
                 (A) (A) (A) (A) (A) (A) (A) (A) (A) (A) (A) (A)
                 (A) (A) (A) (A) (A) (A) (A) (A) (A) (A) (A) (A)
                 (A) (A) (A) (A) (A) (A) (A) (A) (A)
 The electronic state of the initial guess is 1-A.
 Requested convergence on RMS density matrix=1.00D-08 within 128 cycles.
 Requested convergence on MAX density matrix=1.00D-06.
 Requested convergence on             energy=1.00D-06.
 No special actions if energy rises.
 FoFJK:  IHMeth= 1 ICntrl=     0 DoSepK=T KAlg= 1 I1Cent= 0 FoldK=F
 FoFJK:  IHMeth= 1 ICntrl=     0 DoSepK=T KAlg= 1 I1Cent= 0 FoldK=F
 FoFJK:  IHMeth= 1 ICntrl=     0 DoSepK=T KAlg= 1 I1Cent= 0 FoldK=F
 FoFJK:  IHMeth= 1 ICntrl=     0 DoSepK=T KAlg= 1 I1Cent= 0 FoldK=F
 FoFJK:  IHMeth= 1 ICntrl=     0 DoSepK=T KAlg= 1 I1Cent= 0 FoldK=F
 FoFJK:  IHMeth= 1 ICntrl=     0 DoSepK=T KAlg= 1 I1Cent= 0 FoldK=F
 FoFJK:  IHMeth= 1 ICntrl=     0 DoSepK=T KAlg= 1 I1Cent= 0 FoldK=F
 FoFJK:  IHMeth= 1 ICntrl=     0 DoSepK=T KAlg= 1 I1Cent= 0 FoldK=F
 FoFJK:  IHMeth= 1 ICntrl=     0 DoSepK=T KAlg= 1 I1Cent= 0 FoldK=F
 FoFJK:  IHMeth= 1 ICntrl=     0 DoSepK=T KAlg= 1 I1Cent= 0 FoldK=F
 FoFJK:  IHMeth= 1 ICntrl=     0 DoSepK=T KAlg= 1 I1Cent= 0 FoldK=F
 FoFJK:  IHMeth= 1 ICntrl=     0 DoSepK=T KAlg= 1 I1Cent= 0 FoldK=F
 FoFJK:  IHMeth= 1 ICntrl=     0 DoSepK=T KAlg= 1 I1Cent= 0 FoldK=F
 FoFJK:  IHMeth= 1 ICntrl=     0 DoSepK=T KAlg= 1 I1Cent= 0 FoldK=F
 FoFJK:  IHMeth= 1 ICntrl=     0 DoSepK=T KAlg= 1 I1Cent= 0 FoldK=F
 FoFJK:  IHMeth= 1 ICntrl=     0 DoSepK=T KAlg= 1 I1Cent= 0 FoldK=F
 Error on total polarization charges =  0.04022
 SCF Done:  E(RwB97XD) =  -692.441392294     A.U. after   16 cycles
             Convg  =    0.2659D-08             -V/T =  2.0096
 SMD-CDS (non-electrostatic) energy       (kcal/mol) =      -4.03
 (included in total energy above)
 Range of M.O.s used for correlation:     1   365
 NBasis=   365 NAE=    56 NBE=    56 NFC=     0 NFV=     0
 NROrb=    365 NOA=    56 NOB=    56 NVA=   309 NVB=   309

 **** Warning!!: The largest alpha MO coefficient is  0.14904486D+03

 NEqPCM:  Using equilibrium solvation (IEInf=0, Eps=   4.7113, EpsInf=   2.0906)
          Differentiating once with respect to magnetic field using GIAOs.
          Electric field/nuclear overlap derivatives assumed to be zero.
 FoFCou: FMM=F IPFlag=           0 FMFlag=    10101102 FMFlg1=           0
         NFxFlg=    40000000 DoJE=F BraDBF=F KetDBF=T FulRan=T
         Omega=  0.000000  0.000000  1.000000  0.000000  0.000000 ICntrl=    6100 IOpCl=  0
         NMat0=    1 NMatS0=    1 NMatT0=    0 NMatD0=    1 NMtDS0=    0 NMtDT0=    0
         I1Cent=           7 NGrid=        2306.
 Symmetry not used in FoFCou.
 FoFJK:  IHMeth= 1 ICntrl=  6127 DoSepK=T KAlg= 1 I1Cent= 0 FoldK=F
 FoFJK:  IHMeth= 1 ICntrl=     0 DoSepK=T KAlg= 1 I1Cent= 0 FoldK=F
          There are     3 degrees of freedom in the 1st order CPHF.  IDoFFX=0.
      3 vectors produced by pass  0 Test12= 5.77D-13 3.33D-08 XBig12= 2.05D+02 2.47D+00.
 AX will form     3 AO Fock derivatives at one time.
 FoFJK:  IHMeth= 1 ICntrl=     0 DoSepK=T KAlg= 1 I1Cent= 0 FoldK=F
      3 vectors produced by pass  1 Test12= 5.77D-13 3.33D-08 XBig12= 1.57D+00 3.45D-01.
 FoFJK:  IHMeth= 1 ICntrl=     0 DoSepK=T KAlg= 1 I1Cent= 0 FoldK=F
      3 vectors produced by pass  2 Test12= 5.77D-13 3.33D-08 XBig12= 3.05D-02 7.30D-02.
 FoFJK:  IHMeth= 1 ICntrl=     0 DoSepK=T KAlg= 1 I1Cent= 0 FoldK=F
      3 vectors produced by pass  3 Test12= 5.77D-13 3.33D-08 XBig12= 5.21D-04 6.28D-03.
 FoFJK:  IHMeth= 1 ICntrl=     0 DoSepK=T KAlg= 1 I1Cent= 0 FoldK=F
      3 vectors produced by pass  4 Test12= 5.77D-13 3.33D-08 XBig12= 6.51D-06 5.50D-04.
 FoFJK:  IHMeth= 1 ICntrl=     0 DoSepK=T KAlg= 1 I1Cent= 0 FoldK=F
      3 vectors produced by pass  5 Test12= 5.77D-13 3.33D-08 XBig12= 9.81D-08 7.35D-05.
 FoFJK:  IHMeth= 1 ICntrl=     0 DoSepK=T KAlg= 1 I1Cent= 0 FoldK=F
      3 vectors produced by pass  6 Test12= 5.77D-13 3.33D-08 XBig12= 1.26D-09 1.28D-05.
 FoFJK:  IHMeth= 1 ICntrl=     0 DoSepK=T KAlg= 1 I1Cent= 0 FoldK=F
      3 vectors produced by pass  7 Test12= 5.77D-13 3.33D-08 XBig12= 1.62D-11 1.37D-06.
 FoFJK:  IHMeth= 1 ICntrl=     0 DoSepK=T KAlg= 1 I1Cent= 0 FoldK=F
      3 vectors produced by pass  8 Test12= 5.77D-13 3.33D-08 XBig12= 1.73D-13 7.61D-08.
 FoFJK:  IHMeth= 1 ICntrl=     0 DoSepK=T KAlg= 1 I1Cent= 0 FoldK=F
 Inverted reduced A of dimension    27 with in-core refinement.
 Calculating GIAO nuclear magnetic shielding tensors.
 SCF GIAO Magnetic shielding tensor (ppm):
      1  C    Isotropic =    71.7162   Anisotropy =   163.8652
   XX=    23.6579   YX=   -37.1455   ZX=   -41.7440
   XY=   -43.5850   YY=    19.5209   ZY=    -8.4533
   XZ=   -33.3177   YZ=   -15.4345   ZZ=   171.9697
   Eigenvalues:   -25.0045    59.1935   180.9597
      2  C    Isotropic =    70.0357   Anisotropy =   175.5719
   XX=    20.4198   YX=   -40.8324   ZX=   -47.3555
   XY=   -44.8653   YY=    16.4969   ZY=    -9.9220
   XZ=   -48.8533   YZ=   -12.4564   ZZ=   173.1905
   Eigenvalues:   -33.0374    56.0609   187.0836
      3  C    Isotropic =    69.9694   Anisotropy =   174.2784
   XX=    63.0279   YX=    12.7704   ZX=   -34.6180
   XY=    16.1237   YY=   -29.4784   ZY=     8.8825
   XZ=   -34.2064   YZ=    11.5553   ZZ=   176.3587
   Eigenvalues:   -32.8603    56.6135   186.1550
      4  C    Isotropic =    49.2174   Anisotropy =   183.7879
   XX=   -11.6435   YX=    15.4651   ZX=   -54.6332
   XY=    12.3036   YY=     5.5392   ZY=    -0.4185
   XZ=   -57.3986   YZ=   -15.1545   ZZ=   153.7565
   Eigenvalues:   -32.0947     8.0043   171.7426
      5  C    Isotropic =    73.9953   Anisotropy =   178.9315
   XX=    61.5676   YX=     9.6324   ZX=   -39.0208
   XY=     9.0485   YY=   -24.4858   ZY=     9.7593
   XZ=   -26.9026   YZ=     5.5460   ZZ=   184.9043
   Eigenvalues:   -26.1084    54.8114   193.2830
      6  C    Isotropic =    72.2169   Anisotropy =   176.9932
   XX=    -4.0811   YX=    23.9204   ZX=   -55.3194
   XY=    24.8523   YY=    48.2634   ZY=     9.5406
   XZ=   -61.7711   YZ=    12.7147   ZZ=   172.4684
   Eigenvalues:   -30.6742    57.1126   190.2124
      7  C    Isotropic =   121.8437   Anisotropy =    36.6850
   XX=   111.9958   YX=    -3.0789   ZX=     1.0980
   XY=     0.9404   YY=   139.0893   ZY=   -16.6539
   XZ=    -2.5491   YZ=   -13.6259   ZZ=   114.4460
   Eigenvalues:   106.9983   112.2324   146.3003
      8  C    Isotropic =   149.1306   Anisotropy =    21.7808
   XX=   163.0041   YX=    10.0435   ZX=     3.4309
   XY=    -3.5151   YY=   144.2940   ZY=     1.6574
   XZ=    -6.9248   YZ=     1.2137   ZZ=   140.0936
   Eigenvalues:   139.3405   144.4001   163.6511
      9  C    Isotropic =    18.1125   Anisotropy =    93.4571
   XX=    11.7991   YX=   -29.4389   ZX=   -24.8993
   XY=   -65.0790   YY=   -26.4420   ZY=   -34.2164
   XZ=   -26.5347   YZ=   -24.3293   ZZ=    68.9803
   Eigenvalues:   -69.1337    43.0538    80.4172
     10  O    Isotropic =   133.8204   Anisotropy =   156.8243
   XX=    -3.7627   YX=     8.6048   ZX=   -63.0888
   XY=   148.4445   YY=   189.6018   ZY=     9.0055
   XZ=   -21.9678   YZ=   -19.1580   ZZ=   215.6221
   Eigenvalues:   -37.4867   200.5779   238.3699
     11  C    Isotropic =   137.5846   Anisotropy =    65.6977
   XX=   172.6336   YX=    18.7060   ZX=    12.2027
   XY=    23.3037   YY=   107.0015   ZY=     5.1717
   XZ=     8.3153   YZ=     4.4953   ZZ=   133.1187
   Eigenvalues:   100.7543   130.6164   181.3830
     12  O    Isotropic =   291.1838   Anisotropy =    78.8714
   XX=   315.7885   YX=   -16.6274   ZX=   -28.6534
   XY=   -10.5973   YY=   251.6173   ZY=   -10.7634
   XZ=   -36.0564   YZ=   -28.9992   ZZ=   306.1456
   Eigenvalues:   237.4851   292.3016   343.7647
     13  C    Isotropic =   188.4371   Anisotropy =    10.3197
   XX=   189.1114   YX=     3.4568   ZX=     2.5034
   XY=     2.4012   YY=   190.5162   ZY=     4.7937
   XZ=    -0.4119   YZ=     5.5903   ZZ=   185.6836
   Eigenvalues:   182.2934   187.7009   195.3169
     14  O    Isotropic =   -47.2736   Anisotropy =   579.7641
   XX=  -151.7639   YX=    62.0004   ZX=  -110.7749
   XY=    62.8621   YY=  -282.0907   ZY=  -106.5814
   XZ=   -77.8329   YZ=  -136.5933   ZZ=   292.0339
   Eigenvalues:  -318.7949  -162.2617   339.2358
     15  C    Isotropic =   181.5081   Anisotropy =    26.2508
   XX=   190.6172   YX=     7.9180   ZX=    -4.4061
   XY=     7.5903   YY=   164.6942   ZY=    -2.5978
   XZ=    -9.4162   YZ=    -5.7399   ZZ=   189.2130
   Eigenvalues:   162.3610   183.1547   199.0087
     16  H    Isotropic =    23.7448   Anisotropy =     8.1938
   XX=    25.5443   YX=    -3.8274   ZX=     1.0626
   XY=    -3.0166   YY=    25.8844   ZY=    -0.2827
   XZ=     0.9404   YZ=     0.0076   ZZ=    19.8058
   Eigenvalues:    19.5928    22.4343    29.2073
     17  H    Isotropic =    23.7340   Anisotropy =     5.2031
   XX=    25.6540   YX=    -1.4551   ZX=     1.3805
   XY=    -1.6210   YY=    25.0133   ZY=    -0.6143
   XZ=     1.2822   YZ=    -0.5660   ZZ=    20.5348
   Eigenvalues:    20.1993    23.8000    27.2028
     18  H    Isotropic =    23.8012   Anisotropy =     5.0010
   XX=    26.6877   YX=    -0.0114   ZX=     1.6593
   XY=     0.0380   YY=    23.9168   ZY=     0.1319
   XZ=     1.7072   YZ=     0.0353   ZZ=    20.7993
   Eigenvalues:    20.3504    23.9181    27.1352
     19  H    Isotropic =    23.3477   Anisotropy =     9.8778
   XX=    29.4468   YX=     1.6155   ZX=     2.1337
   XY=     0.8428   YY=    20.9588   ZY=     0.4064
   XZ=     1.4764   YZ=    -0.3569   ZZ=    19.6373
   Eigenvalues:    19.2917    20.8184    29.9329
     20  H    Isotropic =    23.7482   Anisotropy =     4.3289
   XX=    24.5516   YX=     0.6132   ZX=     1.0660
   XY=     0.5976   YY=    26.4161   ZY=     0.1936
   XZ=     0.7479   YZ=     0.2809   ZZ=    20.2770
   Eigenvalues:    20.0906    24.5199    26.6341
     21  H    Isotropic =    26.1353   Anisotropy =     6.3348
   XX=    25.5683   YX=     1.2444   ZX=     0.4426
   XY=     2.6240   YY=    29.3745   ZY=     1.0807
   XZ=     0.7974   YZ=     0.7714   ZZ=    23.4632
   Eigenvalues:    23.2599    24.7876    30.3585
     22  H    Isotropic =    28.8617   Anisotropy =     4.8736
   XX=    28.0235   YX=    -0.0666   ZX=     0.7307
   XY=     1.0051   YY=    30.9223   ZY=    -2.0956
   XZ=    -1.7976   YZ=    -2.2515   ZZ=    27.6393
   Eigenvalues:    26.5070    27.9674    32.1108
     23  H    Isotropic =    26.7859   Anisotropy =     5.9690
   XX=    28.1814   YX=    -0.1879   ZX=     2.6349
   XY=     1.8104   YY=    24.6775   ZY=    -1.5441
   XZ=     3.0180   YZ=    -2.2496   ZZ=    27.4988
   Eigenvalues:    22.8420    26.7505    30.7652
     24  H    Isotropic =    27.6574   Anisotropy =     7.5939
   XX=    27.6825   YX=     2.7479   ZX=     0.3583
   XY=     1.6250   YY=    26.8062   ZY=     3.9679
   XZ=    -0.4436   YZ=     5.2410   ZZ=    28.4836
   Eigenvalues:    22.3939    27.8584    32.7200
     25  H    Isotropic =    30.1031   Anisotropy =    16.2215
   XX=    31.7849   YX=    -1.1964   ZX=    -9.3394
   XY=    -0.4167   YY=    25.2648   ZY=    -2.5134
   XZ=    -7.0622   YZ=    -3.2134   ZZ=    33.2595
   Eigenvalues:    22.1481    27.2437    40.9174
     26  H    Isotropic =    30.5768   Anisotropy =     9.4392
   XX=    35.4481   YX=     0.5011   ZX=     3.2240
   XY=     1.4217   YY=    27.6633   ZY=     2.8079
   XZ=     1.7307   YZ=     5.4433   ZZ=    28.6189
   Eigenvalues:    23.9078    30.9529    36.8696
     27  H    Isotropic =    30.7053   Anisotropy =    10.4735
   XX=    30.2809   YX=    -0.3312   ZX=    -3.6763
   XY=    -0.8519   YY=    28.1230   ZY=     3.0765
   XZ=    -4.3422   YZ=     4.5736   ZZ=    33.7119
   Eigenvalues:    25.6538    28.7744    37.6876
     28  H    Isotropic =    29.8168   Anisotropy =     7.8239
   XX=    27.0633   YX=    -1.1382   ZX=     0.2173
   XY=    -1.4965   YY=    34.3063   ZY=    -2.2167
   XZ=    -0.4500   YZ=    -1.5821   ZZ=    28.0807
   Eigenvalues:    26.6360    27.7816    35.0327
     29  H    Isotropic =    30.2741   Anisotropy =     6.4267
   XX=    29.0713   YX=     0.4261   ZX=    -2.6661
   XY=     0.6644   YY=    31.2068   ZY=     2.3788
   XZ=    -3.9342   YZ=     3.4511   ZZ=    30.5443
   Eigenvalues:    25.4649    30.7989    34.5586
     30  H    Isotropic =    30.5675   Anisotropy =    11.5243
   XX=    37.2046   YX=     3.2940   ZX=     0.7202
   XY=     3.4017   YY=    27.5179   ZY=     0.1119
   XZ=    -0.3900   YZ=    -0.3493   ZZ=    26.9800
   Eigenvalues:    26.4258    27.0264    38.2504
     31  H    Isotropic =    30.4586   Anisotropy =     8.3430
   XX=    28.8745   YX=    -0.3216   ZX=    -0.5160
   XY=    -0.5025   YY=    32.1214   ZY=    -3.9901
   XZ=     0.0657   YZ=    -5.3810   ZZ=    30.3798
   Eigenvalues:    26.4075    28.9476    36.0206
 End of Minotr Frequency-dependent properties file   721 does not exist.
 End of Minotr Frequency-dependent properties file   722 does not exist.

 **********************************************************************

            Population analysis using the SCF density.

 **********************************************************************

 Orbital symmetries:
       Occupied  (A) (A) (A) (A) (A) (A) (A) (A) (A) (A) (A) (A)
                 (A) (A) (A) (A) (A) (A) (A) (A) (A) (A) (A) (A)
                 (A) (A) (A) (A) (A) (A) (A) (A) (A) (A) (A) (A)
                 (A) (A) (A) (A) (A) (A) (A) (A) (A) (A) (A) (A)
                 (A) (A) (A) (A) (A) (A) (A) (A)
       Virtual   (A) (A) (A) (A) (A) (A) (A) (A) (A) (A) (A) (A)
                 (A) (A) (A) (A) (A) (A) (A) (A) (A) (A) (A) (A)
                 (A) (A) (A) (A) (A) (A) (A) (A) (A) (A) (A) (A)
                 (A) (A) (A) (A) (A) (A) (A) (A) (A) (A) (A) (A)
                 (A) (A) (A) (A) (A) (A) (A) (A) (A) (A) (A) (A)
                 (A) (A) (A) (A) (A) (A) (A) (A) (A) (A) (A) (A)
                 (A) (A) (A) (A) (A) (A) (A) (A) (A) (A) (A) (A)
                 (A) (A) (A) (A) (A) (A) (A) (A) (A) (A) (A) (A)
                 (A) (A) (A) (A) (A) (A) (A) (A) (A) (A) (A) (A)
                 (A) (A) (A) (A) (A) (A) (A) (A) (A) (A) (A) (A)
                 (A) (A) (A) (A) (A) (A) (A) (A) (A) (A) (A) (A)
                 (A) (A) (A) (A) (A) (A) (A) (A) (A) (A) (A) (A)
                 (A) (A) (A) (A) (A) (A) (A) (A) (A) (A) (A) (A)
                 (A) (A) (A) (A) (A) (A) (A) (A) (A) (A) (A) (A)
                 (A) (A) (A) (A) (A) (A) (A) (A) (A) (A) (A) (A)
                 (A) (A) (A) (A) (A) (A) (A) (A) (A) (A) (A) (A)
                 (A) (A) (A) (A) (A) (A) (A) (A) (A) (A) (A) (A)
                 (A) (A) (A) (A) (A) (A) (A) (A) (A) (A) (A) (A)
                 (A) (A) (A) (A) (A) (A) (A) (A) (A) (A) (A) (A)
                 (A) (A) (A) (A) (A) (A) (A) (A) (A) (A) (A) (A)
                 (A) (A) (A) (A) (A) (A) (A) (A) (A) (A) (A) (A)
                 (A) (A) (A) (A) (A) (A) (A) (A) (A) (A) (A) (A)
                 (A) (A) (A) (A) (A) (A) (A) (A) (A) (A) (A) (A)
                 (A) (A) (A) (A) (A) (A) (A) (A) (A) (A) (A) (A)
                 (A) (A) (A) (A) (A) (A) (A) (A) (A) (A) (A) (A)
                 (A) (A) (A) (A) (A) (A) (A) (A) (A)
 The electronic state is 1-A.
 Alpha  occ. eigenvalues --  -19.32546 -19.28284 -19.27516 -10.43819 -10.36254
 Alpha  occ. eigenvalues --  -10.34946 -10.32112 -10.31658 -10.30850 -10.30810
 Alpha  occ. eigenvalues --  -10.30783 -10.30752 -10.30608 -10.28604 -10.28446
 Alpha  occ. eigenvalues --   -1.20720  -1.13201  -1.12313  -0.96321  -0.91325
 Alpha  occ. eigenvalues --   -0.86601  -0.85160  -0.84833  -0.78094  -0.75995
 Alpha  occ. eigenvalues --   -0.70762  -0.70119  -0.67837  -0.64309  -0.62469
 Alpha  occ. eigenvalues --   -0.60017  -0.59022  -0.57603  -0.55904  -0.55227
 Alpha  occ. eigenvalues --   -0.53291  -0.53195  -0.52021  -0.50913  -0.50365
 Alpha  occ. eigenvalues --   -0.48556  -0.47357  -0.46625  -0.46121  -0.45668
 Alpha  occ. eigenvalues --   -0.44613  -0.43850  -0.43117  -0.42548  -0.41895
 Alpha  occ. eigenvalues --   -0.40738  -0.38782  -0.37566  -0.35773  -0.33422
 Alpha  occ. eigenvalues --   -0.32453
 Alpha virt. eigenvalues --    0.04683   0.05185   0.06238   0.07228   0.07974
 Alpha virt. eigenvalues --    0.08273   0.08631   0.09267   0.09922   0.09999
 Alpha virt. eigenvalues --    0.10429   0.11447   0.11706   0.12165   0.12691
 Alpha virt. eigenvalues --    0.13287   0.13962   0.14287   0.14581   0.15281
 Alpha virt. eigenvalues --    0.15384   0.15910   0.16551   0.17009   0.18394
 Alpha virt. eigenvalues --    0.18681   0.19118   0.19196   0.19760   0.19899
 Alpha virt. eigenvalues --    0.20553   0.21036   0.21216   0.22164   0.22638
 Alpha virt. eigenvalues --    0.23333   0.23769   0.24183   0.24583   0.24848
 Alpha virt. eigenvalues --    0.25220   0.25594   0.25757   0.26669   0.26779
 Alpha virt. eigenvalues --    0.27095   0.27959   0.28291   0.28670   0.28825
 Alpha virt. eigenvalues --    0.29614   0.30185   0.30389   0.31090   0.31226
 Alpha virt. eigenvalues --    0.31925   0.32265   0.33024   0.33819   0.33979
 Alpha virt. eigenvalues --    0.34330   0.34777   0.34914   0.35543   0.36040
 Alpha virt. eigenvalues --    0.36158   0.37059   0.37807   0.38026   0.38974
 Alpha virt. eigenvalues --    0.39436   0.39627   0.40303   0.40869   0.41809
 Alpha virt. eigenvalues --    0.42380   0.42908   0.43273   0.43815   0.44228
 Alpha virt. eigenvalues --    0.45563   0.46113   0.46481   0.47136   0.48154
 Alpha virt. eigenvalues --    0.49109   0.50297   0.51224   0.51527   0.52893
 Alpha virt. eigenvalues --    0.53951   0.56317   0.61158   0.66450   0.70023
 Alpha virt. eigenvalues --    0.73337   0.74620   0.74997   0.76482   0.76976
 Alpha virt. eigenvalues --    0.77539   0.77905   0.79162   0.79639   0.80951
 Alpha virt. eigenvalues --    0.81500   0.82678   0.83347   0.83575   0.84519
 Alpha virt. eigenvalues --    0.84881   0.85941   0.86172   0.87432   0.87959
 Alpha virt. eigenvalues --    0.90629   0.90904   0.91718   0.92817   0.94604
 Alpha virt. eigenvalues --    0.96077   0.98812   0.99357   1.00705   1.02447
 Alpha virt. eigenvalues --    1.03002   1.04619   1.05070   1.05737   1.06455
 Alpha virt. eigenvalues --    1.08183   1.09262   1.10209   1.12130   1.12964
 Alpha virt. eigenvalues --    1.14313   1.15222   1.17213   1.17716   1.18924
 Alpha virt. eigenvalues --    1.19842   1.20742   1.21546   1.23080   1.23252
 Alpha virt. eigenvalues --    1.25486   1.25740   1.27575   1.28970   1.30934
 Alpha virt. eigenvalues --    1.32316   1.33316   1.34390   1.35990   1.37328
 Alpha virt. eigenvalues --    1.38398   1.40592   1.43209   1.43320   1.44514
 Alpha virt. eigenvalues --    1.46066   1.46793   1.48309   1.49020   1.49287
 Alpha virt. eigenvalues --    1.49995   1.50585   1.52246   1.54659   1.55932
 Alpha virt. eigenvalues --    1.56658   1.59104   1.59847   1.62613   1.67389
 Alpha virt. eigenvalues --    1.68981   1.69576   1.71360   1.74585   1.76388
 Alpha virt. eigenvalues --    1.78800   1.81889   1.84321   1.86326   1.87377
 Alpha virt. eigenvalues --    1.88897   1.91149   1.92002   1.93622   1.95726
 Alpha virt. eigenvalues --    1.96443   1.97950   1.98845   2.00090   2.01119
 Alpha virt. eigenvalues --    2.02301   2.03028   2.04689   2.05441   2.05976
 Alpha virt. eigenvalues --    2.06567   2.08013   2.09563   2.10632   2.11058
 Alpha virt. eigenvalues --    2.12098   2.13983   2.14470   2.17192   2.18449
 Alpha virt. eigenvalues --    2.18766   2.20994   2.21362   2.23145   2.24457
 Alpha virt. eigenvalues --    2.25663   2.26060   2.27655   2.29862   2.30902
 Alpha virt. eigenvalues --    2.31308   2.34489   2.36825   2.39027   2.39921
 Alpha virt. eigenvalues --    2.40774   2.42653   2.43740   2.47453   2.48479
 Alpha virt. eigenvalues --    2.48917   2.49890   2.51579   2.53391   2.54473
 Alpha virt. eigenvalues --    2.55962   2.56461   2.56879   2.59463   2.59754
 Alpha virt. eigenvalues --    2.62885   2.64692   2.64997   2.65875   2.68682
 Alpha virt. eigenvalues --    2.69573   2.71795   2.72440   2.73308   2.74369
 Alpha virt. eigenvalues --    2.76216   2.77919   2.79582   2.81750   2.83117
 Alpha virt. eigenvalues --    2.85032   2.85809   2.87856   2.88396   2.89384
 Alpha virt. eigenvalues --    2.91278   2.91752   2.92857   2.95277   2.97151
 Alpha virt. eigenvalues --    2.99207   3.00893   3.01352   3.05621   3.11262
 Alpha virt. eigenvalues --    3.12950   3.14302   3.17034   3.21602   3.27904
 Alpha virt. eigenvalues --    3.29407   3.30154   3.36778   3.37110   3.38314
 Alpha virt. eigenvalues --    3.39081   3.43949   3.44960   3.51954   3.52299
 Alpha virt. eigenvalues --    3.53715   3.56854   3.58764   3.60366   3.62665
 Alpha virt. eigenvalues --    3.64792   3.66049   3.67392   3.99374   4.39932
 Alpha virt. eigenvalues --    4.40472   4.41984   4.45209   4.50700   4.55365
 Alpha virt. eigenvalues --    4.57224   4.60407   4.61944   4.66855   4.74552
 Alpha virt. eigenvalues --    4.80660   4.81908   4.95377   4.97615
          Condensed to atoms (all electrons):
              1          2          3          4          5          6
     1  C   14.742555  -0.763745  -0.483182  -3.364479  -6.673931   0.089881
     2  C   -0.763745   8.703524   0.463170   1.370562  -1.840607   0.693109
     3  C   -0.483182   0.463170   6.536627   0.106242  -0.424317   0.497804
     4  C   -3.364479   1.370562   0.106242  21.082175  -2.694782  -0.840073
     5  C   -6.673931  -1.840607  -0.424317  -2.694782  16.484539  -0.016066
     6  C    0.089881   0.693109   0.497804  -0.840073  -0.016066   5.380260
     7  C    2.722669  -2.954562  -0.825772 -10.441287   0.675017   0.051478
     8  C   -0.522109   0.143703   0.140933   0.580763   0.587046  -0.009635
     9  C    0.031970  -0.062712  -0.040362  -1.105548   0.112427   0.010727
    10  O    0.024767   0.003760   0.009633   0.033531  -0.028470  -0.000278
    11  C    0.009633   0.001474   0.001091   0.060856  -0.007804   0.000369
    12  O   -0.141406   0.235880   0.009653   0.208534   0.079135   0.007370
    13  C   -0.103233   0.070654  -0.031932   0.695343  -0.246335  -0.010025
    14  O   -0.000656   0.000525  -0.000399  -0.032461  -0.002044  -0.000025
    15  C    0.007051  -0.000420   0.000217  -0.033192  -0.001438   0.000086
    16  H    0.188190   0.009952   0.038435   0.123962   0.011983  -0.012682
    17  H    0.007187   0.269307  -0.004955   0.030063   0.022909   0.011784
    18  H    0.036171  -0.004939   0.259513   0.011956   0.002383   0.024155
    19  H    0.046787  -0.039016  -0.002202   0.135392   0.207665  -0.011326
    20  H   -0.009345   0.024598   0.026140   0.007504  -0.000528   0.274251
    21  H    0.159217   0.027248   0.057987   0.187839  -0.094368   0.000779
    22  H   -0.078338   0.010178  -0.003350   0.055564   0.048085  -0.000404
    23  H   -0.001481   0.000011  -0.000095   0.001124   0.000436  -0.000005
    24  H    0.003499  -0.000027   0.000420  -0.006464  -0.000403   0.000027
    25  H    0.018052   0.000866  -0.000360   0.031674  -0.057786  -0.001006
    26  H    0.042337  -0.015930  -0.004884   0.007426  -0.077052  -0.000125
    27  H   -0.011462   0.000059  -0.000265   0.014038   0.011404   0.000102
    28  H   -0.010312   0.006709  -0.001053  -0.043588   0.042335   0.000745
    29  H    0.000531  -0.000006   0.000025  -0.001363  -0.000138   0.000002
    30  H    0.000009   0.000000   0.000005   0.000051   0.000006   0.000000
    31  H   -0.000843   0.000003  -0.000088   0.001483   0.000087  -0.000006
              7          8          9         10         11         12
     1  C    2.722669  -0.522109   0.031970   0.024767   0.009633  -0.141406
     2  C   -2.954562   0.143703  -0.062712   0.003760   0.001474   0.235880
     3  C   -0.825772   0.140933  -0.040362   0.009633   0.001091   0.009653
     4  C  -10.441287   0.580763  -1.105548   0.033531   0.060856   0.208534
     5  C    0.675017   0.587046   0.112427  -0.028470  -0.007804   0.079135
     6  C    0.051478  -0.009635   0.010727  -0.000278   0.000369   0.007370
     7  C   17.796688  -1.395089   1.112373  -0.101578  -0.047531  -0.272402
     8  C   -1.395089   8.271507  -1.320203  -0.259550  -0.046218  -0.134760
     9  C    1.112373  -1.320203   6.536197   0.336176  -0.108411   0.072972
    10  O   -0.101578  -0.259550   0.336176   8.445224   0.050303  -0.002375
    11  C   -0.047531  -0.046218  -0.108411   0.050303   5.168202   0.000132
    12  O   -0.272402  -0.134760   0.072972  -0.002375   0.000132   8.299609
    13  C   -0.467950  -0.282791  -0.097136   0.028201   0.007455  -0.018018
    14  O    0.000567  -0.099941   0.552282  -0.147040   0.016605   0.000817
    15  C    0.023600  -0.051572   0.038827  -0.044672   0.254237  -0.000284
    16  H   -0.059682   0.020563  -0.005996   0.000113   0.000062   0.000461
    17  H   -0.009786  -0.000377  -0.000082   0.000000   0.000001   0.000129
    18  H   -0.002385  -0.000236  -0.000022  -0.000004   0.000005   0.000016
    19  H   -0.021043  -0.013340   0.006630  -0.000013   0.000037   0.005310
    20  H    0.004024  -0.000172  -0.000014   0.000000  -0.000001  -0.000006
    21  H   -0.034592   0.052402  -0.066012   0.013545   0.003501  -0.047190
    22  H   -0.083166   0.366402  -0.029509   0.000983  -0.001524   0.008569
    23  H   -0.006426   0.013349   0.001578  -0.038713   0.395643   0.000009
    24  H    0.003924  -0.014778   0.023167  -0.061246   0.417515   0.000014
    25  H   -0.000882   0.016187  -0.005713   0.000064   0.000022   0.248696
    26  H    0.110639  -0.118974   0.002847  -0.000285  -0.000096  -0.005846
    27  H   -0.010384  -0.128959   0.037612  -0.000585   0.001083   0.000923
    28  H   -0.022584  -0.040982   0.001319   0.000398   0.000077   0.005408
    29  H    0.000946  -0.009561   0.005595  -0.005785  -0.047048   0.000000
    30  H   -0.000199   0.003382   0.004150   0.007187  -0.048356   0.000000
    31  H   -0.002132   0.001682   0.010838  -0.005578  -0.042193   0.000001
             13         14         15         16         17         18
     1  C   -0.103233  -0.000656   0.007051   0.188190   0.007187   0.036171
     2  C    0.070654   0.000525  -0.000420   0.009952   0.269307  -0.004939
     3  C   -0.031932  -0.000399   0.000217   0.038435  -0.004955   0.259513
     4  C    0.695343  -0.032461  -0.033192   0.123962   0.030063   0.011956
     5  C   -0.246335  -0.002044  -0.001438   0.011983   0.022909   0.002383
     6  C   -0.010025  -0.000025   0.000086  -0.012682   0.011784   0.024155
     7  C   -0.467950   0.000567   0.023600  -0.059682  -0.009786  -0.002385
     8  C   -0.282791  -0.099941  -0.051572   0.020563  -0.000377  -0.000236
     9  C   -0.097136   0.552282   0.038827  -0.005996  -0.000082  -0.000022
    10  O    0.028201  -0.147040  -0.044672   0.000113   0.000000  -0.000004
    11  C    0.007455   0.016605   0.254237   0.000062   0.000001   0.000005
    12  O   -0.018018   0.000817  -0.000284   0.000461   0.000129   0.000016
    13  C    5.795333   0.017516  -0.011501   0.002326   0.000469   0.000138
    14  O    0.017516   8.211590  -0.036916   0.000046   0.000000   0.000000
    15  C   -0.011501  -0.036916   5.215558  -0.000002   0.000000   0.000000
    16  H    0.002326   0.000046  -0.000002   0.505460   0.000011  -0.003975
    17  H    0.000469   0.000000   0.000000   0.000011   0.496087  -0.000122
    18  H    0.000138   0.000000   0.000000  -0.003975  -0.000122   0.496138
    19  H    0.003621  -0.000013   0.000000  -0.000109  -0.004071   0.000011
    20  H   -0.000058   0.000000   0.000000  -0.000120  -0.003854  -0.003863
    21  H   -0.020710   0.001711  -0.000231   0.001755   0.000002  -0.000002
    22  H   -0.004218   0.003554   0.001951   0.000089   0.000000   0.000002
    23  H    0.000045   0.000271  -0.033350   0.000000   0.000000   0.000000
    24  H   -0.000911  -0.000033  -0.034931  -0.000001   0.000000   0.000000
    25  H    0.006463  -0.000069   0.000044   0.000035  -0.000001   0.000000
    26  H    0.418039   0.001851   0.000041  -0.000003  -0.000008   0.000000
    27  H    0.451101  -0.002693  -0.000497   0.000000   0.000000   0.000000
    28  H    0.423010  -0.000795   0.000121   0.000000   0.000000   0.000000
    29  H   -0.000589   0.001470   0.420417   0.000000   0.000000   0.000000
    30  H   -0.000069  -0.000220   0.397976   0.000000   0.000000   0.000000
    31  H    0.000306  -0.000421   0.399325   0.000000   0.000000   0.000000
             19         20         21         22         23         24
     1  C    0.046787  -0.009345   0.159217  -0.078338  -0.001481   0.003499
     2  C   -0.039016   0.024598   0.027248   0.010178   0.000011  -0.000027
     3  C   -0.002202   0.026140   0.057987  -0.003350  -0.000095   0.000420
     4  C    0.135392   0.007504   0.187839   0.055564   0.001124  -0.006464
     5  C    0.207665  -0.000528  -0.094368   0.048085   0.000436  -0.000403
     6  C   -0.011326   0.274251   0.000779  -0.000404  -0.000005   0.000027
     7  C   -0.021043   0.004024  -0.034592  -0.083166  -0.006426   0.003924
     8  C   -0.013340  -0.000172   0.052402   0.366402   0.013349  -0.014778
     9  C    0.006630  -0.000014  -0.066012  -0.029509   0.001578   0.023167
    10  O   -0.000013   0.000000   0.013545   0.000983  -0.038713  -0.061246
    11  C    0.000037  -0.000001   0.003501  -0.001524   0.395643   0.417515
    12  O    0.005310  -0.000006  -0.047190   0.008569   0.000009   0.000014
    13  C    0.003621  -0.000058  -0.020710  -0.004218   0.000045  -0.000911
    14  O   -0.000013   0.000000   0.001711   0.003554   0.000271  -0.000033
    15  C    0.000000   0.000000  -0.000231   0.001951  -0.033350  -0.034931
    16  H   -0.000109  -0.000120   0.001755   0.000089   0.000000  -0.000001
    17  H   -0.004071  -0.003854   0.000002   0.000000   0.000000   0.000000
    18  H    0.000011  -0.003863  -0.000002   0.000002   0.000000   0.000000
    19  H    0.500948  -0.000119  -0.000041   0.000061   0.000000   0.000000
    20  H   -0.000119   0.498733   0.000000   0.000000   0.000000   0.000000
    21  H   -0.000041   0.000000   0.594712   0.001081   0.000026   0.000046
    22  H    0.000061   0.000000   0.001081   0.489059  -0.000018   0.000000
    23  H    0.000000   0.000000   0.000026  -0.000018   0.521391  -0.031447
    24  H    0.000000   0.000000   0.000046   0.000000  -0.031447   0.531712
    25  H   -0.000946   0.000000  -0.004744  -0.000108   0.000000   0.000000
    26  H   -0.000025   0.000000  -0.000130  -0.002657   0.000000   0.000000
    27  H    0.000038   0.000000  -0.000069  -0.003516   0.000001   0.000000
    28  H    0.000004   0.000000  -0.000021   0.003643  -0.000002   0.000000
    29  H    0.000000   0.000000  -0.000001   0.000004  -0.004876   0.003936
    30  H    0.000000   0.000000   0.000000  -0.000001  -0.001013  -0.001170
    31  H    0.000000   0.000000   0.000001  -0.000022   0.003800  -0.005190
             25         26         27         28         29         30
     1  C    0.018052   0.042337  -0.011462  -0.010312   0.000531   0.000009
     2  C    0.000866  -0.015930   0.000059   0.006709  -0.000006   0.000000
     3  C   -0.000360  -0.004884  -0.000265  -0.001053   0.000025   0.000005
     4  C    0.031674   0.007426   0.014038  -0.043588  -0.001363   0.000051
     5  C   -0.057786  -0.077052   0.011404   0.042335  -0.000138   0.000006
     6  C   -0.001006  -0.000125   0.000102   0.000745   0.000002   0.000000
     7  C   -0.000882   0.110639  -0.010384  -0.022584   0.000946  -0.000199
     8  C    0.016187  -0.118974  -0.128959  -0.040982  -0.009561   0.003382
     9  C   -0.005713   0.002847   0.037612   0.001319   0.005595   0.004150
    10  O    0.000064  -0.000285  -0.000585   0.000398  -0.005785   0.007187
    11  C    0.000022  -0.000096   0.001083   0.000077  -0.047048  -0.048356
    12  O    0.248696  -0.005846   0.000923   0.005408   0.000000   0.000000
    13  C    0.006463   0.418039   0.451101   0.423010  -0.000589  -0.000069
    14  O   -0.000069   0.001851  -0.002693  -0.000795   0.001470  -0.000220
    15  C    0.000044   0.000041  -0.000497   0.000121   0.420417   0.397976
    16  H    0.000035  -0.000003   0.000000   0.000000   0.000000   0.000000
    17  H   -0.000001  -0.000008   0.000000   0.000000   0.000000   0.000000
    18  H    0.000000   0.000000   0.000000   0.000000   0.000000   0.000000
    19  H   -0.000946  -0.000025   0.000038   0.000004   0.000000   0.000000
    20  H    0.000000   0.000000   0.000000   0.000000   0.000000   0.000000
    21  H   -0.004744  -0.000130  -0.000069  -0.000021  -0.000001   0.000000
    22  H   -0.000108  -0.002657  -0.003516   0.003643   0.000004  -0.000001
    23  H    0.000000   0.000000   0.000001  -0.000002  -0.004876  -0.001013
    24  H    0.000000   0.000000   0.000000   0.000000   0.003936  -0.001170
    25  H    0.350670  -0.000020  -0.000005   0.000030   0.000000   0.000000
    26  H   -0.000020   0.522485  -0.025157  -0.024814   0.000000   0.000000
    27  H   -0.000005  -0.025157   0.519471  -0.024939  -0.000004   0.000000
    28  H    0.000030  -0.024814  -0.024939   0.497605   0.000000   0.000000
    29  H    0.000000   0.000000  -0.000004   0.000000   0.508585  -0.022006
    30  H    0.000000   0.000000   0.000000   0.000000  -0.022006   0.505928
    31  H    0.000000   0.000000   0.000000   0.000000  -0.029499  -0.022777
             31
     1  C   -0.000843
     2  C    0.000003
     3  C   -0.000088
     4  C    0.001483
     5  C    0.000087
     6  C   -0.000006
     7  C   -0.002132
     8  C    0.001682
     9  C    0.010838
    10  O   -0.005578
    11  C   -0.042193
    12  O    0.000001
    13  C    0.000306
    14  O   -0.000421
    15  C    0.399325
    16  H    0.000000
    17  H    0.000000
    18  H    0.000000
    19  H    0.000000
    20  H    0.000000
    21  H    0.000001
    22  H   -0.000022
    23  H    0.003800
    24  H   -0.005190
    25  H    0.000000
    26  H    0.000000
    27  H    0.000000
    28  H    0.000000
    29  H   -0.029499
    30  H   -0.022777
    31  H    0.518430
 Mulliken atomic charges:
              1
     1  C    0.034018
     2  C   -0.353328
     3  C   -0.324679
     4  C   -0.182846
     5  C   -0.119391
     6  C   -0.141273
     7  C    0.257510
     8  C    0.251331
     9  C   -0.055967
    10  O   -0.257713
    11  C   -0.039121
    12  O   -0.561353
    13  C   -0.624545
    14  O   -0.485079
    15  C   -0.510445
    16  H    0.179126
    17  H    0.185307
    18  H    0.185060
    19  H    0.185762
    20  H    0.182831
    21  H    0.166263
    22  H    0.217604
    23  H    0.179742
    24  H    0.172341
    25  H    0.398840
    26  H    0.170342
    27  H    0.172702
    28  H    0.187686
    29  H    0.179363
    30  H    0.177117
    31  H    0.172795
 Sum of Mulliken atomic charges =   0.00000
 Mulliken charges with hydrogens summed into heavy atoms:
              1
     1  C    0.213144
     2  C   -0.168021
     3  C   -0.139619
     4  C   -0.182846
     5  C    0.066371
     6  C    0.041558
     7  C    0.423773
     8  C    0.468935
     9  C   -0.055967
    10  O   -0.257713
    11  C    0.312962
    12  O   -0.162513
    13  C   -0.093815
    14  O   -0.485079
    15  C    0.018830
 Sum of Mulliken charges with hydrogens summed into heavy atoms =   0.00000
 Electronic spatial extent (au):  <R**2>=           4158.9136
 Charge=              0.0000 electrons
 Dipole moment (field-independent basis, Debye):
    X=             -2.0385    Y=              3.7051    Z=             -0.0096  Tot=              4.2289
 Quadrupole moment (field-independent basis, Debye-Ang):
   XX=            -81.1535   YY=            -90.8401   ZZ=            -88.4483
   XY=             11.6314   XZ=              1.2023   YZ=              2.1825
 Traceless Quadrupole moment (field-independent basis, Debye-Ang):
   XX=              5.6605   YY=             -4.0261   ZZ=             -1.6344
   XY=             11.6314   XZ=              1.2023   YZ=              2.1825
 Octapole moment (field-independent basis, Debye-Ang**2):
  XXX=              4.6545  YYY=             18.5532  ZZZ=             15.3336  XYY=            -15.1734
  XXY=             37.1169  XXZ=              0.1206  XZZ=             16.0185  YZZ=             -4.9463
  YYZ=             -1.3514  XYZ=              8.6866
 Hexadecapole moment (field-independent basis, Debye-Ang**3):
 XXXX=          -3886.4694 YYYY=           -932.7871 ZZZZ=           -356.4098 XXXY=            147.0472
 XXXZ=            123.7044 YYYX=             14.5126 YYYZ=              1.3192 ZZZX=            -26.7186
 ZZZY=            -11.9229 XXYY=           -827.8283 XXZZ=           -791.1556 YYZZ=           -227.0962
 XXYZ=             -6.7133 YYXZ=              8.4912 ZZXY=             22.5772
 N-N= 9.939809608778D+02 E-N=-3.599789255966D+03  KE= 6.858812244505D+02
 1\1\GINC-COMPUTE-5-22\SP\RwB97XD\6-31+G(d,p)\C12H16O3\ELUCIANO.IQUIR\1
 7-May-2022\0\\# wb97xd/6-31+g** scrf=(pcm,solvent=chloroform,smd,dovac
 uum) nmr\\comment\\0,1\C,0,0.330661091,2.474995173,-0.111093279\C,0,1.
 423818099,3.043079039,2.389833666\C,0,0.258980997,3.769570792,0.406597
 309\C,0,0.956074933,1.448052303,0.613638907\C,0,1.496718318,1.74817665
 6,1.87372241\C,0,0.806473898,4.053224905,1.655767843\C,0,1.009321779,0
 .044318359,0.03415042\C,0,-0.190055176,-0.814273309,0.470990529\C,0,-0
 .410497211,-1.908865317,-0.556659756\O,0,-0.85435919,-1.360108643,-1.7
 27719825\C,0,-1.123340625,-2.288528604,-2.789230644\O,0,2.247578522,-0
 .580641794,0.376063114\C,0,-0.051312756,-1.426230793,1.86654457\O,0,-0
 .261316984,-3.107592562,-0.365018083\C,0,-2.543661776,-2.810242655,-2.
 680091226\H,0,-0.107461095,2.273239213,-1.086775135\H,0,1.846399836,3.
 262036916,3.367214839\H,0,-0.226350622,4.557092813,-0.164409038\H,0,1.
 975634833,0.970201236,2.466012046\H,0,0.749047187,5.060924382,2.059058
 05\H,0,1.033569521,0.143749852,-1.058083554\H,0,-1.110162298,-0.213220
 945,0.469416087\H,0,-0.393646563,-3.106259264,-2.799157882\H,0,-1.0040
 35516,-1.740787818,-3.729776032\H,0,2.944076982,0.091744251,0.27361671
 8\H,0,0.022591067,-0.652079788,2.635439665\H,0,-0.926645429,-2.0415387
 7,2.104513387\H,0,0.828356075,-2.074151999,1.943615519\H,0,-2.68933506
 1,-3.362021313,-1.746096703\H,0,-2.778737959,-3.473130498,-3.517562132
 \H,0,-3.258384876,-1.980731818,-2.674521789\\Version=EM64L-G09RevC.01\
 State=1-A\HF=-692.4413923\RMSD=2.659e-09\Dipole=-0.3976581,1.5043911,-
 0.5888909\Quadrupole=0.0270023,-6.486608,6.4596057,3.6543049,3.560022,
 4.9354441\PG=C01 [X(C12H16O3)]\\@


 THE SECRET OF SUCCESS IN LIFE IS TO EAT WHAT YOU LIKE, AND LET THE FOOD
 FIGHT IT OUT INSIDE YOU. -- FROM A FORTUNE COOKIE
 Job cpu time:  0 days  0 hours 43 minutes 26.6 seconds.
 File lengths (MBytes):  RWF=    125 Int=      0 D2E=      0 Chk=      9 Scr=      1
 Normal termination of Gaussian 09 at Tue May 17 18:14:28 2022.
