 Entering Gaussian System, Link 0=g09
 Input=/home/eluciano.iquir/wb9/73a_020.gjc
 Output=/home/eluciano.iquir/wb9/73a_020.log
 Initial command:
 /share/apps/Gaussian09/EM64T.SSE4.2-enabled/g09/l1.exe /tmp/Gau-49239.inp -scrdir=/tmp/
 Entering Link 1 = /share/apps/Gaussian09/EM64T.SSE4.2-enabled/g09/l1.exe PID=     49240.
  
 Copyright (c) 1988,1990,1992,1993,1995,1998,2003,2009,2011,
            Gaussian, Inc.  All Rights Reserved.
  
 This is part of the Gaussian(R) 09 program.  It is based on
 the Gaussian(R) 03 system (copyright 2003, Gaussian, Inc.),
 the Gaussian(R) 98 system (copyright 1998, Gaussian, Inc.),
 the Gaussian(R) 94 system (copyright 1995, Gaussian, Inc.),
 the Gaussian 92(TM) system (copyright 1992, Gaussian, Inc.),
 the Gaussian 90(TM) system (copyright 1990, Gaussian, Inc.),
 the Gaussian 88(TM) system (copyright 1988, Gaussian, Inc.),
 the Gaussian 86(TM) system (copyright 1986, Carnegie Mellon
 University), and the Gaussian 82(TM) system (copyright 1983,
 Carnegie Mellon University). Gaussian is a federally registered
 trademark of Gaussian, Inc.
  
 This software contains proprietary and confidential information,
 including trade secrets, belonging to Gaussian, Inc.
  
 This software is provided under written license and may be
 used, copied, transmitted, or stored only in accord with that
 written license.
  
 The following legend is applicable only to US Government
 contracts under FAR:
  
                    RESTRICTED RIGHTS LEGEND
  
 Use, reproduction and disclosure by the US Government is
 subject to restrictions as set forth in subparagraphs (a)
 and (c) of the Commercial Computer Software - Restricted
 Rights clause in FAR 52.227-19.
  
 Gaussian, Inc.
 340 Quinnipiac St., Bldg. 40, Wallingford CT 06492
  
  
 ---------------------------------------------------------------
 Warning -- This program may not be used in any manner that
 competes with the business of Gaussian, Inc. or will provide
 assistance to any competitor of Gaussian, Inc.  The licensee
 of this program is prohibited from giving any competitor of
 Gaussian, Inc. access to this program.  By using this program,
 the user acknowledges that Gaussian, Inc. is engaged in the
 business of creating and licensing software in the field of
 computational chemistry and represents and warrants to the
 licensee that it is not a competitor of Gaussian, Inc. and that
 it will not use this program in any manner prohibited above.
 ---------------------------------------------------------------
  

 Cite this work as:
 Gaussian 09, Revision C.01,
 M. J. Frisch, G. W. Trucks, H. B. Schlegel, G. E. Scuseria, 
 M. A. Robb, J. R. Cheeseman, G. Scalmani, V. Barone, B. Mennucci, 
 G. A. Petersson, H. Nakatsuji, M. Caricato, X. Li, H. P. Hratchian, 
 A. F. Izmaylov, J. Bloino, G. Zheng, J. L. Sonnenberg, M. Hada, 
 M. Ehara, K. Toyota, R. Fukuda, J. Hasegawa, M. Ishida, T. Nakajima, 
 Y. Honda, O. Kitao, H. Nakai, T. Vreven, J. A. Montgomery, Jr., 
 J. E. Peralta, F. Ogliaro, M. Bearpark, J. J. Heyd, E. Brothers, 
 K. N. Kudin, V. N. Staroverov, T. Keith, R. Kobayashi, J. Normand, 
 K. Raghavachari, A. Rendell, J. C. Burant, S. S. Iyengar, J. Tomasi, 
 M. Cossi, N. Rega, J. M. Millam, M. Klene, J. E. Knox, J. B. Cross, 
 V. Bakken, C. Adamo, J. Jaramillo, R. Gomperts, R. E. Stratmann, 
 O. Yazyev, A. J. Austin, R. Cammi, C. Pomelli, J. W. Ochterski, 
 R. L. Martin, K. Morokuma, V. G. Zakrzewski, G. A. Voth, 
 P. Salvador, J. J. Dannenberg, S. Dapprich, A. D. Daniels, 
 O. Farkas, J. B. Foresman, J. V. Ortiz, J. Cioslowski, 
 and D. J. Fox, Gaussian, Inc., Wallingford CT, 2010.
 
 ******************************************
 Gaussian 09:  EM64L-G09RevC.01 23-Sep-2011
                17-May-2022 
 ******************************************
 %nprocshared=4
 Will use up to    4 processors via shared memory.
 ----------------------------------------------------------------
 # wb97xd/6-31+g** scrf=(pcm,solvent=chloroform,smd,dovacuum) nmr
 ----------------------------------------------------------------
 1/38=1/1;
 2/12=2,17=6,18=5,40=1/2;
 3/5=1,6=6,7=111,11=2,16=1,25=1,30=1,70=32101,72=7,74=-58/1,2,8,3;
 4//1;
 5/5=2,38=5,53=7/2;
 8/6=1,10=90,11=11/1;
 10/13=100,45=16/2;
 6/7=2,8=2,9=2,10=2,28=1/1;
 99/9=1/99;
 -------
 comment
 -------
 Charge =  0 Multiplicity = 1
 Symbolic Z-Matrix:
 6                    -0.19073   2.71853  -0.19565 
 6                     1.53999   3.33891   1.89855 
 6                    -0.0903    4.03356   0.26318 
 6                     0.57516   1.69447   0.3863 
 6                     1.43998   2.02358   1.44088 
 6                     0.77483   4.34309   1.31005 
 6                     0.42755   0.26905  -0.11564 
 6                    -0.79138  -0.43145   0.51167 
 6                    -1.24116  -1.54639  -0.40599 
 8                    -0.24091  -2.451    -0.61082 
 6                    -0.5673   -3.562    -1.46117 
 8                     1.63666  -0.4532    0.13487 
 6                    -0.56503  -0.9776    1.91988 
 8                    -2.35934  -1.61167  -0.89861 
 6                    -0.31437  -3.19715  -2.9117 
 1                    -0.87351   2.49811  -1.01365 
 1                     2.21798   3.57771   2.71364 
 1                    -0.68711   4.81665  -0.19714 
 1                     2.04718   1.25195   1.9104 
 1                     0.85454   5.36659   1.6663 
 1                     0.32438   0.3137   -1.20803 
 1                    -1.63369   0.27279   0.55209 
 1                    -1.59917  -3.89598  -1.30365 
 1                     0.08726  -4.38986  -1.16973 
 1                     1.51419  -1.34777  -0.23236 
 1                    -0.32235  -0.1731    2.62061 
 1                    -1.46868  -1.47788   2.28603 
 1                     0.24433  -1.71459   1.95154 
 1                    -0.95729  -2.36908  -3.22641 
 1                    -0.50208  -4.05336  -3.56564 
 1                     0.72037  -2.86661  -3.04982 
 
                          Input orientation:                          
 ---------------------------------------------------------------------
 Center     Atomic      Atomic             Coordinates (Angstroms)
 Number     Number       Type             X           Y           Z
 ---------------------------------------------------------------------
      1          6           0       -0.190732    2.718534   -0.195647
      2          6           0        1.539988    3.338911    1.898552
      3          6           0       -0.090296    4.033555    0.263179
      4          6           0        0.575160    1.694475    0.386297
      5          6           0        1.439981    2.023578    1.440877
      6          6           0        0.774828    4.343089    1.310051
      7          6           0        0.427548    0.269051   -0.115636
      8          6           0       -0.791382   -0.431449    0.511665
      9          6           0       -1.241155   -1.546386   -0.405994
     10          8           0       -0.240908   -2.450995   -0.610822
     11          6           0       -0.567303   -3.562001   -1.461173
     12          8           0        1.636661   -0.453205    0.134870
     13          6           0       -0.565028   -0.977604    1.919875
     14          8           0       -2.359340   -1.611665   -0.898610
     15          6           0       -0.314369   -3.197152   -2.911700
     16          1           0       -0.873508    2.498109   -1.013650
     17          1           0        2.217981    3.577714    2.713643
     18          1           0       -0.687111    4.816653   -0.197137
     19          1           0        2.047179    1.251949    1.910401
     20          1           0        0.854538    5.366586    1.666303
     21          1           0        0.324384    0.313697   -1.208029
     22          1           0       -1.633685    0.272788    0.552094
     23          1           0       -1.599168   -3.895982   -1.303646
     24          1           0        0.087258   -4.389862   -1.169733
     25          1           0        1.514187   -1.347775   -0.232356
     26          1           0       -0.322353   -0.173102    2.620614
     27          1           0       -1.468679   -1.477877    2.286030
     28          1           0        0.244326   -1.714595    1.951544
     29          1           0       -0.957290   -2.369075   -3.226406
     30          1           0       -0.502079   -4.053360   -3.565641
     31          1           0        0.720370   -2.866605   -3.049818
 ---------------------------------------------------------------------
                    Distance matrix (angstroms):
                    1          2          3          4          5
     1  C    0.000000
     2  C    2.786742   0.000000
     3  C    1.396385   2.411390   0.000000
     4  C    1.404972   2.433512   2.435013   0.000000
     5  C    2.412550   1.396269   2.787244   1.402984   0.000000
     6  C    2.416322   1.392902   1.392908   2.812179   2.416542
     7  C    2.527576   3.836472   3.818790   1.518407   2.554627
     8  C    3.283817   4.644820   4.526536   2.530356   3.445224
     9  C    4.397405   6.075509   5.736550   3.798671   4.831570
    10  O    5.186417   6.556795   6.544919   4.341098   5.201602
    11  C    6.417825   7.959335   7.803422   5.687610   6.606798
    12  O    3.675395   4.183308   4.809351   2.408843   2.806918
    13  C    4.275156   4.802483   5.299220   3.285102   3.640961
    14  O    4.893632   6.894714   6.194096   4.603568   5.755262
    15  C    6.510573   8.324499   7.900202   5.966243   7.019878
    16  H    1.088071   3.874639   2.145066   2.168944   3.406187
    17  H    3.873507   1.086773   3.397162   3.414966   2.154195
    18  H    2.156038   3.396410   1.086886   3.417853   3.874130
    19  H    3.405078   2.147742   3.875497   2.164616   1.088372
    20  H    3.401709   2.152962   2.153704   3.898829   3.401362
    21  H    2.659605   4.503383   4.021661   2.123984   3.344391
    22  H    2.936477   4.613704   4.075401   2.632048   3.647277
    23  H    6.852967   8.511876   8.222481   6.231918   7.197918
    24  H    7.180210   8.441489   8.546270   6.299082   7.055307
    25  H    4.409417   5.148442   5.637254   3.243422   3.764470
    26  H    4.038589   4.040287   4.827765   3.047219   3.053360
    27  H    5.040013   5.692421   6.030568   4.224935   4.629770
    28  H    4.944929   5.217228   6.000315   3.765794   3.957816
    29  H    5.971338   8.067385   7.343198   5.649112   6.842941
    30  H    7.570491   9.416640   8.956988   7.058035   8.109624
    31  H    6.337994   7.979133   7.697100   5.712392   6.678179
                    6          7          8          9         10
     6  C    0.000000
     7  C    4.330240   0.000000
     8  C    5.087892   1.539479   0.000000
     9  C    6.457160   2.482879   1.512442   0.000000
    10  O    7.133096   2.844414   2.375198   1.364100   0.000000
    11  C    8.483599   4.180569   3.707109   2.372801   1.436650
    12  O    5.012808   1.430510   2.457201   3.125605   2.841212
    13  C    5.520587   2.585085   1.527278   2.488037   2.946246
    14  O    7.082393   3.452085   2.416667   1.223630   2.296749
    15  C    8.710038   4.514751   4.426746   3.140465   2.419956
    16  H    3.394194   2.732741   3.303882   4.106378   5.005605
    17  H    2.153732   4.707199   5.475250   6.924894   7.310509
    18  H    2.152474   4.682926   5.296777   6.390528   7.293075
    19  H    3.396240   2.773827   3.584371   4.899949   5.030278
    20  H    1.086653   5.416871   6.136729   7.515020   8.215831
    21  H    4.772800   1.098161   2.181174   2.560094   2.884395
    22  H    4.789863   2.166693   1.098662   2.093180   3.272796
    23  H    8.963791   4.781887   3.993853   2.540581   2.100681
    24  H    9.104203   4.788777   4.389550   3.230068   2.044328
    25  H    5.942357   1.951545   2.590148   2.767942   2.107294
    26  H    4.828806   2.871396   2.175867   3.448255   3.954441
    27  H    6.314230   3.523554   2.168436   2.702491   3.293347
    28  H    6.114612   2.870828   2.189156   2.791583   2.709881
    29  H    8.284493   4.307479   4.213680   2.951630   2.713152
    30  H    9.793019   5.608028   5.461352   4.100552   3.371460
    31  H    8.425622   4.304359   4.571602   3.546881   2.654334
                   11         12         13         14         15
    11  C    0.000000
    12  O    4.131516   0.000000
    13  C    4.255655   2.882477   0.000000
    14  O    2.707708   4.286973   3.400801   0.000000
    15  C    1.516944   4.540633   5.322907   3.278446   0.000000
    16  H    6.084321   4.041076   4.558652   4.371633   6.029197
    17  H    8.727109   4.820406   5.396863   7.805761   9.162756
    18  H    8.474313   5.769016   6.170094   6.679198   8.469289
    19  H    6.432507   2.495714   3.434329   5.958879   6.973096
    20  H    9.566734   6.068523   6.506013   8.099616   9.780698
    21  H    3.985000   2.028198   3.498899   3.317399   3.954309
    22  H    4.460495   3.375841   2.139237   2.486419   5.077296
    23  H    1.095948   4.938889   4.469615   2.441315   2.173685
    24  H    1.094871   4.427178   4.649157   3.711837   2.149025
    25  H    3.278016   0.974736   3.015338   3.939257   3.733992
    26  H    5.310896   3.177281   1.094143   4.313203   6.304874
    27  H    4.381505   3.914151   1.095868   3.309548   5.595064
    28  H    3.964629   2.613428   1.095085   3.861741   5.114807
    29  H    2.165920   4.658038   5.345491   2.821002   1.094577
    30  H    2.162053   5.588301   6.289287   4.065015   1.093603
    31  H    2.159970   4.099552   5.469774   3.960705   1.094999
                   16         17         18         19         20
    16  H    0.000000
    17  H    4.961408   0.000000
    18  H    2.465175   4.295017   0.000000
    19  H    4.316642   2.466487   4.962376   0.000000
    20  H    4.289108   2.481121   2.480225   4.290946   0.000000
    21  H    2.498876   5.442337   4.724578   3.684148   5.837339
    22  H    2.825150   5.516355   4.701496   4.043824   5.777499
    23  H    6.441667   9.304051   8.829848   7.080051  10.031771
    24  H    6.956405   9.116077   9.290076   6.720011  10.189215
    25  H    4.593726   5.782273   6.545771   3.410872   7.008757
    26  H    4.543898   4.531068   5.741988   2.854794   5.743163
    27  H    5.201017   6.271628   6.811613   4.467023   7.254520
    28  H    5.271508   5.699530   6.938415   3.471649   7.113145
    29  H    5.347222   8.985034   7.802830   6.966020   9.330690
    30  H    7.040764  10.249948   9.489899   8.039406  10.860434
    31  H    5.955382   8.774370   8.315723   6.582301   9.489217
                   21         22         23         24         25
    21  H    0.000000
    22  H    2.633199   0.000000
    23  H    4.629318   4.563288   0.000000
    24  H    4.709688   5.259908   1.762351   0.000000
    25  H    2.264521   3.626387   4.163412   3.488423   0.000000
    26  H    3.913278   2.489415   5.557868   5.684679   3.590567
    27  H    4.316626   2.469533   4.330131   4.779425   3.905980
    28  H    3.755433   3.071657   4.330494   4.113891   2.552748
    29  H    3.593578   4.659829   2.537805   3.066686   4.014422
    30  H    5.031160   6.078801   2.518927   2.490166   4.743027
    31  H    3.696392   5.326456   3.080420   2.501172   3.297739
                   26         27         28         29         30
    26  H    0.000000
    27  H    1.768742   0.000000
    28  H    1.773409   1.761335   0.000000
    29  H    6.277984   5.607380   5.355687   0.000000
    30  H    7.304687   6.466026   6.038731   1.777389   0.000000
    31  H    6.363649   5.932266   5.154354   1.758767   1.780124
                   31
    31  H    0.000000
 Stoichiometry    C12H16O3
 Framework group  C1[X(C12H16O3)]
 Deg. of freedom    87
 Full point group                 C1      NOp   1
 Largest Abelian subgroup         C1      NOp   1
 Largest concise Abelian subgroup C1      NOp   1
                         Standard orientation:                         
 ---------------------------------------------------------------------
 Center     Atomic      Atomic             Coordinates (Angstroms)
 Number     Number       Type             X           Y           Z
 ---------------------------------------------------------------------
      1          6           0        2.239644    1.373153   -0.062371
      2          6           0        3.949684   -0.814370   -0.299933
      3          6           0        3.618246    1.543736    0.079922
      4          6           0        1.696587    0.104750   -0.327306
      5          6           0        2.571316   -0.986157   -0.441911
      6          6           0        4.472539    0.449987   -0.038778
      7          6           0        0.191941   -0.056328   -0.452421
      8          6           0       -0.484209   -0.172049    0.925776
      9          6           0       -1.927036    0.264125    0.801348
     10          8           0       -2.596762   -0.499247   -0.109419
     11          6           0       -3.984007   -0.175980   -0.296541
     12          8           0       -0.100362   -1.186675   -1.279000
     13          6           0       -0.414107   -1.558684    1.562100
     14          8           0       -2.414776    1.188546    1.437607
     15          6           0       -4.126688    0.911361   -1.344611
     16          1           0        1.589989    2.240507    0.035319
     17          1           0        4.613829   -1.669225   -0.395903
     18          1           0        4.025461    2.530804    0.282884
     19          1           0        2.180141   -1.980582   -0.648443
     20          1           0        5.545552    0.582570    0.070219
     21          1           0       -0.188985    0.819504   -0.994429
     22          1           0       -0.020401    0.543247    1.618806
     23          1           0       -4.458398    0.110804    0.648874
     24          1           0       -4.480404   -1.088590   -0.642192
     25          1           0       -1.070338   -1.233655   -1.362960
     26          1           0        0.622821   -1.858525    1.741056
     27          1           0       -0.934213   -1.563723    2.526668
     28          1           0       -0.888581   -2.323498    0.938285
     29          1           0       -3.635986    1.835004   -1.021822
     30          1           0       -5.181055    1.125764   -1.540330
     31          1           0       -3.647683    0.607340   -2.281174
 ---------------------------------------------------------------------
 Rotational constants (GHZ):      1.3861469      0.2906940      0.2836291
 Standard basis: 6-31+G(d,p) (6D, 7F)
 There are   365 symmetry adapted basis functions of A   symmetry.
 Integral buffers will be    131072 words long.
 Raffenetti 2 integral format.
 Two-electron integral symmetry is turned on.
   365 basis functions,   592 primitive gaussians,   365 cartesian basis functions
    56 alpha electrons       56 beta electrons
       nuclear repulsion energy      1001.8562464360 Hartrees.
 NAtoms=   31 NActive=   31 NUniq=   31 SFac= 1.00D+00 NAtFMM=   60 NAOKFM=F Big=F
 Nuclear repulsion after empirical dispersion term =     1001.8350737267 Hartrees.
 ------------------------------------------------------------------------------
 Polarizable Continuum Model (PCM)
 =================================
 Model                : C-PCM.
 Atomic radii         : SMD-Coulomb.
 Polarization charges : Total charges.
 Charge compensation  : None.
 Solution method      : Matrix inversion.
 Cavity type          : VdW (van der Waals Surface) (Alpha=1.000).
 Cavity algorithm     : GePol (No added spheres)
                        Default sphere list used, NSphG=   31.
                        Lebedev-Laikov grids with approx.  5.0 points / Ang**2.
                        Smoothing algorithm: Karplus/York (Gamma=1.0000).
                        Polarization charges: spherical gaussians, with
                                              point-specific exponents (IZeta= 3).
                        Self-potential: point-specific (ISelfS= 7).
                        Self-field    : sphere-specific E.n sum rule (ISelfD= 2).
 Solvent              : Chloroform, Eps=   4.711300 Eps(inf)=   2.090627
 ------------------------------------------------------------------------------
 ------------------------------------------------------------------------------
 Atomic radii for non-electrostatic terms: SMD-CDS.
 ------------------------------------------------------------------------------
 Nuclear repulsion after PCM non-electrostatic terms =     1001.8284584285 Hartrees.
 One-electron integrals computed using PRISM.
 NBasis=   365 RedAO= T  NBF=   365
 NBsUse=   365 1.00D-06 NBFU=   365
 Harris functional with IExCor= 4639 diagonalized for initial guess.
 ExpMin= 4.38D-02 ExpMax= 5.48D+03 ExpMxC= 8.25D+02 IAcc=2 IRadAn=         4 AccDes= 0.00D+00
 HarFok:  IExCor= 4639 AccDes= 0.00D+00 IRadAn=         4 IDoV= 1
 ScaDFX=  1.000000  1.000000  1.000000  1.000000
 FoFCou: FMM=F IPFlag=           0 FMFlag=      100000 FMFlg1=           0
         NFxFlg=           0 DoJE=T BraDBF=F KetDBF=T FulRan=T
         Omega=  0.000000  0.000000  1.000000  0.000000  0.000000 ICntrl=     500 IOpCl=  0
         NMat0=    1 NMatS0=    1 NMatT0=    0 NMatD0=    1 NMtDS0=    0 NMtDT0=    0
         I1Cent=           4 NGrid=           0.
 Petite list used in FoFCou.
 Initial guess orbital symmetries:
       Occupied  (A) (A) (A) (A) (A) (A) (A) (A) (A) (A) (A) (A)
                 (A) (A) (A) (A) (A) (A) (A) (A) (A) (A) (A) (A)
                 (A) (A) (A) (A) (A) (A) (A) (A) (A) (A) (A) (A)
                 (A) (A) (A) (A) (A) (A) (A) (A) (A) (A) (A) (A)
                 (A) (A) (A) (A) (A) (A) (A) (A)
       Virtual   (A) (A) (A) (A) (A) (A) (A) (A) (A) (A) (A) (A)
                 (A) (A) (A) (A) (A) (A) (A) (A) (A) (A) (A) (A)
                 (A) (A) (A) (A) (A) (A) (A) (A) (A) (A) (A) (A)
                 (A) (A) (A) (A) (A) (A) (A) (A) (A) (A) (A) (A)
                 (A) (A) (A) (A) (A) (A) (A) (A) (A) (A) (A) (A)
                 (A) (A) (A) (A) (A) (A) (A) (A) (A) (A) (A) (A)
                 (A) (A) (A) (A) (A) (A) (A) (A) (A) (A) (A) (A)
                 (A) (A) (A) (A) (A) (A) (A) (A) (A) (A) (A) (A)
                 (A) (A) (A) (A) (A) (A) (A) (A) (A) (A) (A) (A)
                 (A) (A) (A) (A) (A) (A) (A) (A) (A) (A) (A) (A)
                 (A) (A) (A) (A) (A) (A) (A) (A) (A) (A) (A) (A)
                 (A) (A) (A) (A) (A) (A) (A) (A) (A) (A) (A) (A)
                 (A) (A) (A) (A) (A) (A) (A) (A) (A) (A) (A) (A)
                 (A) (A) (A) (A) (A) (A) (A) (A) (A) (A) (A) (A)
                 (A) (A) (A) (A) (A) (A) (A) (A) (A) (A) (A) (A)
                 (A) (A) (A) (A) (A) (A) (A) (A) (A) (A) (A) (A)
                 (A) (A) (A) (A) (A) (A) (A) (A) (A) (A) (A) (A)
                 (A) (A) (A) (A) (A) (A) (A) (A) (A) (A) (A) (A)
                 (A) (A) (A) (A) (A) (A) (A) (A) (A) (A) (A) (A)
                 (A) (A) (A) (A) (A) (A) (A) (A) (A) (A) (A) (A)
                 (A) (A) (A) (A) (A) (A) (A) (A) (A) (A) (A) (A)
                 (A) (A) (A) (A) (A) (A) (A) (A) (A) (A) (A) (A)
                 (A) (A) (A) (A) (A) (A) (A) (A) (A) (A) (A) (A)
                 (A) (A) (A) (A) (A) (A) (A) (A) (A) (A) (A) (A)
                 (A) (A) (A) (A) (A) (A) (A) (A) (A) (A) (A) (A)
                 (A) (A) (A) (A) (A) (A) (A) (A) (A)
 The electronic state of the initial guess is 1-A.
 Requested convergence on RMS density matrix=1.00D-08 within 128 cycles.
 Requested convergence on MAX density matrix=1.00D-06.
 Requested convergence on             energy=1.00D-06.
 No special actions if energy rises.
 FoFJK:  IHMeth= 1 ICntrl=     0 DoSepK=T KAlg= 1 I1Cent= 0 FoldK=F
 FoFJK:  IHMeth= 1 ICntrl=     0 DoSepK=T KAlg= 1 I1Cent= 0 FoldK=F
 FoFJK:  IHMeth= 1 ICntrl=     0 DoSepK=T KAlg= 1 I1Cent= 0 FoldK=F
 FoFJK:  IHMeth= 1 ICntrl=     0 DoSepK=T KAlg= 1 I1Cent= 0 FoldK=F
 FoFJK:  IHMeth= 1 ICntrl=     0 DoSepK=T KAlg= 1 I1Cent= 0 FoldK=F
 FoFJK:  IHMeth= 1 ICntrl=     0 DoSepK=T KAlg= 1 I1Cent= 0 FoldK=F
 FoFJK:  IHMeth= 1 ICntrl=     0 DoSepK=T KAlg= 1 I1Cent= 0 FoldK=F
 FoFJK:  IHMeth= 1 ICntrl=     0 DoSepK=T KAlg= 1 I1Cent= 0 FoldK=F
 FoFJK:  IHMeth= 1 ICntrl=     0 DoSepK=T KAlg= 1 I1Cent= 0 FoldK=F
 FoFJK:  IHMeth= 1 ICntrl=     0 DoSepK=T KAlg= 1 I1Cent= 0 FoldK=F
 FoFJK:  IHMeth= 1 ICntrl=     0 DoSepK=T KAlg= 1 I1Cent= 0 FoldK=F
 FoFJK:  IHMeth= 1 ICntrl=     0 DoSepK=T KAlg= 1 I1Cent= 0 FoldK=F
 FoFJK:  IHMeth= 1 ICntrl=     0 DoSepK=T KAlg= 1 I1Cent= 0 FoldK=F
 FoFJK:  IHMeth= 1 ICntrl=     0 DoSepK=T KAlg= 1 I1Cent= 0 FoldK=F
 FoFJK:  IHMeth= 1 ICntrl=     0 DoSepK=T KAlg= 1 I1Cent= 0 FoldK=F
 FoFJK:  IHMeth= 1 ICntrl=     0 DoSepK=T KAlg= 1 I1Cent= 0 FoldK=F
 Error on total polarization charges =  0.04033
 SCF Done:  E(RwB97XD) =  -692.444922391     A.U. after   16 cycles
             Convg  =    0.3164D-08             -V/T =  2.0095
 SMD-CDS (non-electrostatic) energy       (kcal/mol) =      -4.15
 (included in total energy above)
 Range of M.O.s used for correlation:     1   365
 NBasis=   365 NAE=    56 NBE=    56 NFC=     0 NFV=     0
 NROrb=    365 NOA=    56 NOB=    56 NVA=   309 NVB=   309

 **** Warning!!: The largest alpha MO coefficient is  0.15034570D+03

 NEqPCM:  Using equilibrium solvation (IEInf=0, Eps=   4.7113, EpsInf=   2.0906)
          Differentiating once with respect to magnetic field using GIAOs.
          Electric field/nuclear overlap derivatives assumed to be zero.
 FoFCou: FMM=F IPFlag=           0 FMFlag=    10101102 FMFlg1=           0
         NFxFlg=    40000000 DoJE=F BraDBF=F KetDBF=T FulRan=T
         Omega=  0.000000  0.000000  1.000000  0.000000  0.000000 ICntrl=    6100 IOpCl=  0
         NMat0=    1 NMatS0=    1 NMatT0=    0 NMatD0=    1 NMtDS0=    0 NMtDT0=    0
         I1Cent=           7 NGrid=        2283.
 Symmetry not used in FoFCou.
 FoFJK:  IHMeth= 1 ICntrl=  6127 DoSepK=T KAlg= 1 I1Cent= 0 FoldK=F
 FoFJK:  IHMeth= 1 ICntrl=     0 DoSepK=T KAlg= 1 I1Cent= 0 FoldK=F
          There are     3 degrees of freedom in the 1st order CPHF.  IDoFFX=0.
      3 vectors produced by pass  0 Test12= 5.77D-13 3.33D-08 XBig12= 1.51D+02 2.20D+00.
 AX will form     3 AO Fock derivatives at one time.
 FoFJK:  IHMeth= 1 ICntrl=     0 DoSepK=T KAlg= 1 I1Cent= 0 FoldK=F
      3 vectors produced by pass  1 Test12= 5.77D-13 3.33D-08 XBig12= 1.28D+00 3.29D-01.
 FoFJK:  IHMeth= 1 ICntrl=     0 DoSepK=T KAlg= 1 I1Cent= 0 FoldK=F
      3 vectors produced by pass  2 Test12= 5.77D-13 3.33D-08 XBig12= 2.68D-02 6.33D-02.
 FoFJK:  IHMeth= 1 ICntrl=     0 DoSepK=T KAlg= 1 I1Cent= 0 FoldK=F
      3 vectors produced by pass  3 Test12= 5.77D-13 3.33D-08 XBig12= 4.64D-04 4.49D-03.
 FoFJK:  IHMeth= 1 ICntrl=     0 DoSepK=T KAlg= 1 I1Cent= 0 FoldK=F
      3 vectors produced by pass  4 Test12= 5.77D-13 3.33D-08 XBig12= 5.38D-06 3.73D-04.
 FoFJK:  IHMeth= 1 ICntrl=     0 DoSepK=T KAlg= 1 I1Cent= 0 FoldK=F
      3 vectors produced by pass  5 Test12= 5.77D-13 3.33D-08 XBig12= 7.51D-08 4.06D-05.
 FoFJK:  IHMeth= 1 ICntrl=     0 DoSepK=T KAlg= 1 I1Cent= 0 FoldK=F
      3 vectors produced by pass  6 Test12= 5.77D-13 3.33D-08 XBig12= 8.52D-10 5.07D-06.
 FoFJK:  IHMeth= 1 ICntrl=     0 DoSepK=T KAlg= 1 I1Cent= 0 FoldK=F
      3 vectors produced by pass  7 Test12= 5.77D-13 3.33D-08 XBig12= 8.88D-12 5.04D-07.
 FoFJK:  IHMeth= 1 ICntrl=     0 DoSepK=T KAlg= 1 I1Cent= 0 FoldK=F
      3 vectors produced by pass  8 Test12= 5.77D-13 3.33D-08 XBig12= 8.01D-14 5.56D-08.
 FoFJK:  IHMeth= 1 ICntrl=     0 DoSepK=T KAlg= 1 I1Cent= 0 FoldK=F
 Inverted reduced A of dimension    27 with in-core refinement.
 Calculating GIAO nuclear magnetic shielding tensors.
 SCF GIAO Magnetic shielding tensor (ppm):
      1  C    Isotropic =    71.5459   Anisotropy =   165.4629
   XX=    29.2841   YX=    38.9059   ZX=    -5.2142
   XY=    43.4144   YY=     7.1953   ZY=   -27.7737
   XZ=     2.7310   YZ=   -20.6630   ZZ=   178.1584
   Eigenvalues:   -26.0687    58.8520   181.8545
      2  C    Isotropic =    70.6882   Anisotropy =   175.1054
   XX=    24.2592   YX=    44.8886   ZX=    -6.2685
   XY=    45.5067   YY=     5.6347   ZY=   -27.9524
   XZ=    -5.1678   YZ=   -27.3776   ZZ=   182.1707
   Eigenvalues:   -32.7160    57.3555   187.4252
      3  C    Isotropic =    70.1746   Anisotropy =   174.3464
   XX=    46.1046   YX=   -28.1391   ZX=   -15.9873
   XY=   -28.8685   YY=   -14.3076   ZY=   -36.6787
   XZ=   -16.0353   YZ=   -37.3723   ZZ=   178.7268
   Eigenvalues:   -33.3015    57.4198   186.4055
      4  C    Isotropic =    53.8519   Anisotropy =   180.4298
   XX=   -30.7614   YX=    -3.3884   ZX=   -18.3592
   XY=    -3.6887   YY=    21.5427   ZY=   -21.8826
   XZ=   -19.8180   YZ=    -9.8814   ZZ=   170.7744
   Eigenvalues:   -33.0230    20.4403   174.1384
      5  C    Isotropic =    73.0665   Anisotropy =   181.9062
   XX=    45.4009   YX=   -22.8673   ZX=   -17.9491
   XY=   -24.1928   YY=   -12.4246   ZY=   -39.8549
   XZ=    -8.4997   YZ=   -39.3996   ZZ=   186.2233
   Eigenvalues:   -28.8992    53.7614   194.3373
      6  C    Isotropic =    72.4102   Anisotropy =   175.0465
   XX=   -25.7417   YX=    -7.5142   ZX=   -18.7760
   XY=    -7.5944   YY=    59.9412   ZY=   -22.9393
   XZ=   -22.9828   YZ=   -24.2130   ZZ=   183.0310
   Eigenvalues:   -28.9294    57.0521   189.1078
      7  C    Isotropic =   123.9374   Anisotropy =    42.3849
   XX=   118.0756   YX=    15.8448   ZX=     5.9972
   XY=    10.9448   YY=   136.5042   ZY=    20.4323
   XZ=     0.8603   YZ=    14.8802   ZZ=   117.2323
   Eigenvalues:   105.0430   114.5752   152.1940
      8  C    Isotropic =   145.2081   Anisotropy =    26.4986
   XX=   161.8407   YX=     0.4176   ZX=    -1.4531
   XY=     2.6726   YY=   134.7290   ZY=     7.3634
   XZ=    -8.4557   YZ=     9.9242   ZZ=   139.0545
   Eigenvalues:   127.4448   145.3056   162.8738
      9  C    Isotropic =    18.1293   Anisotropy =   101.2301
   XX=   -19.3871   YX=   -10.4789   ZX=   -45.4874
   XY=   -35.0567   YY=    45.1472   ZY=   -47.2006
   XZ=   -73.1267   YZ=   -36.3001   ZZ=    28.6278
   Eigenvalues:   -74.6630    43.4349    85.6161
     10  O    Isotropic =   143.1440   Anisotropy =   161.6362
   XX=    65.4205   YX=    53.6990   ZX=    -3.2010
   XY=   135.4622   YY=   135.5335   ZY=   -38.6538
   XZ=    86.2967   YZ=   -63.0697   ZZ=   228.4782
   Eigenvalues:   -16.7548   195.2854   250.9015
     11  C    Isotropic =   137.1902   Anisotropy =    67.5623
   XX=   177.6451   YX=    -9.3416   ZX=     8.8080
   XY=    -9.8765   YY=   119.5106   ZY=   -16.6421
   XZ=    13.6424   YZ=   -19.2296   ZZ=   114.4150
   Eigenvalues:    98.7818   130.5571   182.2318
     12  O    Isotropic =   302.3741   Anisotropy =    70.2449
   XX=   348.2032   YX=    11.4983   ZX=     9.1032
   XY=    -2.5409   YY=   272.1520   ZY=     9.9522
   XZ=     2.9970   YZ=    12.6890   ZZ=   286.7670
   Eigenvalues:   265.9718   291.9464   349.2040
     13  C    Isotropic =   187.3560   Anisotropy =    15.8009
   XX=   183.4689   YX=    -3.2419   ZX=     2.7005
   XY=    -0.8876   YY=   193.9840   ZY=    -6.2805
   XZ=     3.0447   YZ=    -6.4411   ZZ=   184.6151
   Eigenvalues:   180.3490   183.8290   197.8899
     14  O    Isotropic =   -44.1422   Anisotropy =   520.4524
   XX=  -117.5169   YX=    67.9225   ZX=   -91.4874
   XY=    57.7391   YY=   -47.2069   ZY=  -287.0756
   XZ=   -99.0399   YZ=  -266.8504   ZZ=    32.2973
   Eigenvalues:  -288.7546  -146.4980   302.8261
     15  C    Isotropic =   181.2585   Anisotropy =    26.2265
   XX=   185.1481   YX=    -2.9049   ZX=     0.7750
   XY=    -6.9771   YY=   179.0681   ZY=   -18.0373
   XZ=     4.9380   YZ=   -16.3419   ZZ=   179.5593
   Eigenvalues:   162.0194   183.0132   198.7429
     16  H    Isotropic =    23.8184   Anisotropy =     8.8430
   XX=    26.8662   YX=     3.8078   ZX=     0.5584
   XY=     3.4452   YY=    24.9991   ZY=     0.5652
   XZ=     0.3414   YZ=     0.2556   ZZ=    19.5899
   Eigenvalues:    19.5526    22.1888    29.7137
     17  H    Isotropic =    23.7560   Anisotropy =     5.1055
   XX=    26.5230   YX=     1.2016   ZX=     0.4889
   XY=     1.2789   YY=    24.2543   ZY=     0.8938
   XZ=     0.4378   YZ=     0.8207   ZZ=    20.4907
   Eigenvalues:    20.2984    23.8099    27.1597
     18  H    Isotropic =    23.7564   Anisotropy =     4.9029
   XX=    26.9176   YX=    -0.6189   ZX=     0.2668
   XY=    -0.4911   YY=    23.9907   ZY=     0.4433
   XZ=     0.3134   YZ=     0.5754   ZZ=    20.3609
   Eigenvalues:    20.2708    23.9734    27.0250
     19  H    Isotropic =    23.3486   Anisotropy =    10.4228
   XX=    29.3286   YX=    -3.1361   ZX=    -0.2442
   XY=    -2.5859   YY=    21.6216   ZY=     0.5363
   XZ=    -0.2238   YZ=     1.2454   ZZ=    19.0957
   Eigenvalues:    18.7621    20.9866    30.2972
     20  H    Isotropic =    23.8158   Anisotropy =     4.1171
   XX=    24.6504   YX=    -0.2782   ZX=     0.1474
   XY=    -0.2070   YY=    26.3860   ZY=     0.9919
   XZ=     0.0127   YZ=     0.9085   ZZ=    20.4111
   Eigenvalues:    20.2606    24.6264    26.5606
     21  H    Isotropic =    26.4241   Anisotropy =     5.7765
   XX=    25.8584   YX=     0.6658   ZX=     0.3277
   XY=     0.7333   YY=    30.0179   ZY=    -1.7574
   XZ=     2.2853   YZ=    -0.6064   ZZ=    23.3959
   Eigenvalues:    22.5821    26.4151    30.2751
     22  H    Isotropic =    28.8737   Anisotropy =     5.4977
   XX=    28.8824   YX=     2.1138   ZX=     1.2834
   XY=     0.8659   YY=    29.9317   ZY=     3.0001
   XZ=    -3.2433   YZ=     3.7780   ZZ=    27.8069
   Eigenvalues:    24.6496    29.4327    32.5388
     23  H    Isotropic =    26.7987   Anisotropy =     6.6961
   XX=    30.2344   YX=    -1.2580   ZX=    -2.6930
   XY=     0.3910   YY=    23.0070   ZY=    -0.7250
   XZ=    -1.4172   YZ=    -0.8134   ZZ=    27.1547
   Eigenvalues:    22.7748    26.3585    31.2628
     24  H    Isotropic =    27.6297   Anisotropy =     8.1586
   XX=    30.1890   YX=     3.8338   ZX=     2.6698
   XY=     2.3524   YY=    29.4788   ZY=    -0.4524
   XZ=     1.4146   YZ=    -0.9347   ZZ=    23.2214
   Eigenvalues:    22.3155    27.5048    33.0688
     25  H    Isotropic =    28.3216   Anisotropy =    20.9313
   XX=    41.9691   YX=     0.4230   ZX=     1.8119
   XY=     1.2633   YY=    20.6278   ZY=     3.6541
   XZ=     2.4196   YZ=     4.9786   ZZ=    22.3677
   Eigenvalues:    17.0752    25.6136    42.2758
     26  H    Isotropic =    30.5769   Anisotropy =     9.1647
   XX=    34.6761   YX=    -3.0197   ZX=     1.6962
   XY=    -3.1496   YY=    28.6476   ZY=    -2.7721
   XZ=    -0.0790   YZ=    -5.0039   ZZ=    28.4069
   Eigenvalues:    24.3747    30.6693    36.6867
     27  H    Isotropic =    30.7496   Anisotropy =    10.5379
   XX=    28.3828   YX=    -0.2018   ZX=    -3.2080
   XY=     0.0206   YY=    28.3790   ZY=    -2.9957
   XZ=    -3.8883   YZ=    -3.0400   ZZ=    35.4869
   Eigenvalues:    26.0037    28.4701    37.7749
     28  H    Isotropic =    30.0761   Anisotropy =     6.7756
   XX=    28.0055   YX=     2.5115   ZX=     1.4673
   XY=     2.5655   YY=    33.3128   ZY=     1.6799
   XZ=     1.1069   YZ=    -0.1095   ZZ=    28.9101
   Eigenvalues:    26.6028    29.0325    34.5932
     29  H    Isotropic =    30.1976   Anisotropy =     6.5260
   XX=    28.0748   YX=     1.6062   ZX=     2.1691
   XY=     0.8917   YY=    34.3065   ZY=     0.0476
   XZ=     2.2344   YZ=    -1.0285   ZZ=    28.2115
   Eigenvalues:    25.7598    30.2848    34.5483
     30  H    Isotropic =    30.5276   Anisotropy =    11.7266
   XX=    35.6470   YX=    -3.0829   ZX=     3.0266
   XY=    -3.7704   YY=    27.8862   ZY=    -1.7376
   XZ=     3.8176   YZ=    -1.6335   ZZ=    28.0495
   Eigenvalues:    26.2744    26.9630    38.3453
     31  H    Isotropic =    30.4097   Anisotropy =     7.4637
   XX=    28.6454   YX=    -1.7494   ZX=    -1.2931
   XY=    -0.9993   YY=    27.4156   ZY=    -0.7021
   XZ=    -1.0815   YZ=     0.7196   ZZ=    35.1682
   Eigenvalues:    26.4762    29.3675    35.3855
 End of Minotr Frequency-dependent properties file   721 does not exist.
 End of Minotr Frequency-dependent properties file   722 does not exist.

 **********************************************************************

            Population analysis using the SCF density.

 **********************************************************************

 Orbital symmetries:
       Occupied  (A) (A) (A) (A) (A) (A) (A) (A) (A) (A) (A) (A)
                 (A) (A) (A) (A) (A) (A) (A) (A) (A) (A) (A) (A)
                 (A) (A) (A) (A) (A) (A) (A) (A) (A) (A) (A) (A)
                 (A) (A) (A) (A) (A) (A) (A) (A) (A) (A) (A) (A)
                 (A) (A) (A) (A) (A) (A) (A) (A)
       Virtual   (A) (A) (A) (A) (A) (A) (A) (A) (A) (A) (A) (A)
                 (A) (A) (A) (A) (A) (A) (A) (A) (A) (A) (A) (A)
                 (A) (A) (A) (A) (A) (A) (A) (A) (A) (A) (A) (A)
                 (A) (A) (A) (A) (A) (A) (A) (A) (A) (A) (A) (A)
                 (A) (A) (A) (A) (A) (A) (A) (A) (A) (A) (A) (A)
                 (A) (A) (A) (A) (A) (A) (A) (A) (A) (A) (A) (A)
                 (A) (A) (A) (A) (A) (A) (A) (A) (A) (A) (A) (A)
                 (A) (A) (A) (A) (A) (A) (A) (A) (A) (A) (A) (A)
                 (A) (A) (A) (A) (A) (A) (A) (A) (A) (A) (A) (A)
                 (A) (A) (A) (A) (A) (A) (A) (A) (A) (A) (A) (A)
                 (A) (A) (A) (A) (A) (A) (A) (A) (A) (A) (A) (A)
                 (A) (A) (A) (A) (A) (A) (A) (A) (A) (A) (A) (A)
                 (A) (A) (A) (A) (A) (A) (A) (A) (A) (A) (A) (A)
                 (A) (A) (A) (A) (A) (A) (A) (A) (A) (A) (A) (A)
                 (A) (A) (A) (A) (A) (A) (A) (A) (A) (A) (A) (A)
                 (A) (A) (A) (A) (A) (A) (A) (A) (A) (A) (A) (A)
                 (A) (A) (A) (A) (A) (A) (A) (A) (A) (A) (A) (A)
                 (A) (A) (A) (A) (A) (A) (A) (A) (A) (A) (A) (A)
                 (A) (A) (A) (A) (A) (A) (A) (A) (A) (A) (A) (A)
                 (A) (A) (A) (A) (A) (A) (A) (A) (A) (A) (A) (A)
                 (A) (A) (A) (A) (A) (A) (A) (A) (A) (A) (A) (A)
                 (A) (A) (A) (A) (A) (A) (A) (A) (A) (A) (A) (A)
                 (A) (A) (A) (A) (A) (A) (A) (A) (A) (A) (A) (A)
                 (A) (A) (A) (A) (A) (A) (A) (A) (A) (A) (A) (A)
                 (A) (A) (A) (A) (A) (A) (A) (A) (A) (A) (A) (A)
                 (A) (A) (A) (A) (A) (A) (A) (A) (A)
 The electronic state is 1-A.
 Alpha  occ. eigenvalues --  -19.33706 -19.27943 -19.27875 -10.44314 -10.36287
 Alpha  occ. eigenvalues --  -10.35501 -10.31901 -10.31660 -10.30681 -10.30576
 Alpha  occ. eigenvalues --  -10.30504 -10.30415 -10.30357 -10.29162 -10.28943
 Alpha  occ. eigenvalues --   -1.21661  -1.13145  -1.12631  -0.96139  -0.91514
 Alpha  occ. eigenvalues --   -0.87085  -0.85186  -0.84578  -0.78257  -0.76240
 Alpha  occ. eigenvalues --   -0.71813  -0.69952  -0.67188  -0.65674  -0.60790
 Alpha  occ. eigenvalues --   -0.59960  -0.59639  -0.58730  -0.56281  -0.54581
 Alpha  occ. eigenvalues --   -0.53943  -0.52902  -0.52261  -0.50535  -0.50061
 Alpha  occ. eigenvalues --   -0.49896  -0.48108  -0.46667  -0.46557  -0.46021
 Alpha  occ. eigenvalues --   -0.44594  -0.44423  -0.43161  -0.42253  -0.42100
 Alpha  occ. eigenvalues --   -0.40951  -0.39433  -0.36938  -0.36278  -0.33137
 Alpha  occ. eigenvalues --   -0.32298
 Alpha virt. eigenvalues --    0.04987   0.05569   0.06269   0.07308   0.07659
 Alpha virt. eigenvalues --    0.08133   0.08894   0.09159   0.09905   0.10307
 Alpha virt. eigenvalues --    0.10628   0.10977   0.11264   0.11993   0.12793
 Alpha virt. eigenvalues --    0.13170   0.13463   0.14235   0.14679   0.15296
 Alpha virt. eigenvalues --    0.15657   0.16094   0.16431   0.17188   0.17860
 Alpha virt. eigenvalues --    0.18510   0.18985   0.19388   0.19714   0.20060
 Alpha virt. eigenvalues --    0.20646   0.20910   0.21012   0.21915   0.22870
 Alpha virt. eigenvalues --    0.23077   0.23427   0.24395   0.24556   0.24699
 Alpha virt. eigenvalues --    0.24915   0.25517   0.25766   0.26472   0.27018
 Alpha virt. eigenvalues --    0.27348   0.27821   0.28286   0.28786   0.29155
 Alpha virt. eigenvalues --    0.29914   0.30155   0.30508   0.30966   0.31083
 Alpha virt. eigenvalues --    0.31695   0.32111   0.32381   0.33201   0.33859
 Alpha virt. eigenvalues --    0.34078   0.34408   0.34932   0.35309   0.35938
 Alpha virt. eigenvalues --    0.36671   0.37569   0.38140   0.38610   0.38974
 Alpha virt. eigenvalues --    0.39521   0.39785   0.40594   0.40871   0.41337
 Alpha virt. eigenvalues --    0.42075   0.42626   0.43066   0.43590   0.43729
 Alpha virt. eigenvalues --    0.45225   0.46031   0.47329   0.47690   0.48143
 Alpha virt. eigenvalues --    0.48866   0.49239   0.50919   0.51789   0.53620
 Alpha virt. eigenvalues --    0.56893   0.57457   0.60794   0.66630   0.69770
 Alpha virt. eigenvalues --    0.73325   0.73964   0.75507   0.75631   0.76735
 Alpha virt. eigenvalues --    0.77539   0.77894   0.79460   0.80349   0.80827
 Alpha virt. eigenvalues --    0.81850   0.82342   0.83272   0.83608   0.83821
 Alpha virt. eigenvalues --    0.84455   0.86563   0.87732   0.88448   0.89106
 Alpha virt. eigenvalues --    0.89778   0.90581   0.92062   0.94144   0.95377
 Alpha virt. eigenvalues --    0.96057   0.98107   0.99710   0.99855   1.01861
 Alpha virt. eigenvalues --    1.02803   1.04061   1.06253   1.06923   1.07495
 Alpha virt. eigenvalues --    1.07667   1.09770   1.10369   1.12035   1.12204
 Alpha virt. eigenvalues --    1.14439   1.14986   1.16224   1.17891   1.18872
 Alpha virt. eigenvalues --    1.19849   1.21246   1.22418   1.22808   1.24242
 Alpha virt. eigenvalues --    1.25263   1.28494   1.28879   1.29376   1.30725
 Alpha virt. eigenvalues --    1.31894   1.33195   1.34478   1.35934   1.37711
 Alpha virt. eigenvalues --    1.39524   1.40847   1.41932   1.43286   1.44624
 Alpha virt. eigenvalues --    1.45291   1.46156   1.46820   1.48806   1.49886
 Alpha virt. eigenvalues --    1.50101   1.51037   1.52326   1.53640   1.57219
 Alpha virt. eigenvalues --    1.58778   1.61213   1.62327   1.63117   1.66457
 Alpha virt. eigenvalues --    1.67240   1.69198   1.69847   1.74974   1.76197
 Alpha virt. eigenvalues --    1.78064   1.82114   1.85284   1.86187   1.89034
 Alpha virt. eigenvalues --    1.90376   1.90895   1.91604   1.93145   1.94524
 Alpha virt. eigenvalues --    1.96650   1.97489   1.99023   1.99574   2.00384
 Alpha virt. eigenvalues --    2.01492   2.04033   2.04889   2.05389   2.06399
 Alpha virt. eigenvalues --    2.08406   2.08971   2.10013   2.10739   2.11576
 Alpha virt. eigenvalues --    2.11884   2.14039   2.14800   2.17406   2.17804
 Alpha virt. eigenvalues --    2.19464   2.20856   2.21323   2.22600   2.24911
 Alpha virt. eigenvalues --    2.25429   2.26924   2.27842   2.29682   2.30281
 Alpha virt. eigenvalues --    2.31827   2.35820   2.38148   2.39634   2.40493
 Alpha virt. eigenvalues --    2.41608   2.42833   2.46558   2.47027   2.48088
 Alpha virt. eigenvalues --    2.48416   2.49466   2.51109   2.52532   2.53822
 Alpha virt. eigenvalues --    2.55774   2.56552   2.56694   2.60929   2.62010
 Alpha virt. eigenvalues --    2.62782   2.63757   2.64528   2.67128   2.68725
 Alpha virt. eigenvalues --    2.69680   2.70960   2.72883   2.73302   2.74515
 Alpha virt. eigenvalues --    2.77321   2.78232   2.79865   2.82367   2.82693
 Alpha virt. eigenvalues --    2.84009   2.85076   2.86150   2.87867   2.89663
 Alpha virt. eigenvalues --    2.90708   2.92951   2.93903   2.95173   2.96391
 Alpha virt. eigenvalues --    2.99145   3.00052   3.01791   3.06771   3.09825
 Alpha virt. eigenvalues --    3.12839   3.16374   3.18018   3.20844   3.25507
 Alpha virt. eigenvalues --    3.27736   3.30095   3.36227   3.37290   3.38565
 Alpha virt. eigenvalues --    3.39113   3.43457   3.45084   3.51357   3.52587
 Alpha virt. eigenvalues --    3.53861   3.56975   3.58978   3.60621   3.62769
 Alpha virt. eigenvalues --    3.65060   3.66397   3.71404   3.99688   4.40346
 Alpha virt. eigenvalues --    4.41388   4.43133   4.45954   4.51322   4.56152
 Alpha virt. eigenvalues --    4.58258   4.61023   4.62410   4.65213   4.75385
 Alpha virt. eigenvalues --    4.80621   4.83112   4.95786   4.98448
          Condensed to atoms (all electrons):
              1          2          3          4          5          6
     1  C   13.859756   0.647539  -0.424369  -1.605084  -7.408344   0.034787
     2  C    0.647539   6.555910  -0.093818   0.530464  -1.421542   0.530197
     3  C   -0.424369  -0.093818   6.280946  -0.191407   0.030634   0.479767
     4  C   -1.605084   0.530464  -0.191407  14.357743  -2.492782  -0.470127
     5  C   -7.408344  -1.421542   0.030634  -2.492782  16.521986   0.119436
     6  C    0.034787   0.530197   0.479767  -0.470127   0.119436   5.257470
     7  C    0.891890  -0.913300  -0.061627  -4.653592   0.327111  -0.079974
     8  C   -0.110759   0.142582   0.008092   0.749934   0.271153  -0.006038
     9  C   -0.281310  -0.071297  -0.010198  -0.665096   0.336781   0.001503
    10  O   -0.017135  -0.001297   0.000929   0.001875   0.018826  -0.000256
    11  C   -0.012506  -0.000844  -0.002276  -0.022955   0.010156  -0.000063
    12  O   -0.020377   0.060788  -0.026849   0.244334  -0.168379   0.001219
    13  C    0.122613   0.034041  -0.063621   0.234768  -0.220525   0.012484
    14  O   -0.026949   0.000176  -0.004274   0.049038   0.008143   0.000099
    15  C    0.002440   0.000120   0.001152   0.002372  -0.003654  -0.000085
    16  H    0.169367   0.002292   0.019741   0.113763   0.033399  -0.010849
    17  H    0.003267   0.275093  -0.004310   0.022718   0.020275   0.016055
    18  H    0.040683  -0.005078   0.257319   0.010363   0.002219   0.022808
    19  H    0.043594  -0.010411  -0.006772   0.056447   0.222756  -0.001416
    20  H   -0.010648   0.028381   0.024358   0.009530   0.000259   0.271912
    21  H    0.218623  -0.001363   0.043521  -0.061034  -0.185329  -0.000649
    22  H   -0.029165   0.003848  -0.007317   0.016091   0.010069  -0.000607
    23  H   -0.000152   0.000000  -0.000010  -0.001459   0.000154   0.000000
    24  H    0.000077   0.000011   0.000011   0.002345  -0.000023  -0.000001
    25  H   -0.004208  -0.008757   0.003610  -0.009118   0.010540  -0.000357
    26  H    0.038422  -0.017152  -0.000258   0.011118  -0.055134  -0.000646
    27  H   -0.011346  -0.002731  -0.000406  -0.002039   0.011178   0.000128
    28  H   -0.005586   0.008014  -0.001844  -0.018272   0.024951   0.000758
    29  H    0.000227   0.000022   0.000072   0.004505  -0.000086  -0.000003
    30  H    0.000034  -0.000001   0.000004   0.000099  -0.000018   0.000000
    31  H   -0.000760   0.000015  -0.000089  -0.001237   0.000567   0.000002
              7          8          9         10         11         12
     1  C    0.891890  -0.110759  -0.281310  -0.017135  -0.012506  -0.020377
     2  C   -0.913300   0.142582  -0.071297  -0.001297  -0.000844   0.060788
     3  C   -0.061627   0.008092  -0.010198   0.000929  -0.002276  -0.026849
     4  C   -4.653592   0.749934  -0.665096   0.001875  -0.022955   0.244334
     5  C    0.327111   0.271153   0.336781   0.018826   0.010156  -0.168379
     6  C   -0.079974  -0.006038   0.001503  -0.000256  -0.000063   0.001219
     7  C   10.857753  -1.551516   0.667867   0.040053   0.001088   0.081135
     8  C   -1.551516   8.649438  -1.110534  -0.494247  -0.145072  -0.196765
     9  C    0.667867  -1.110534   6.297223   0.334766  -0.043140   0.014032
    10  O    0.040053  -0.494247   0.334766   8.588064   0.074589   0.022764
    11  C    0.001088  -0.145072  -0.043140   0.074589   5.192930   0.002522
    12  O    0.081135  -0.196765   0.014032   0.022764   0.002522   8.377227
    13  C   -0.126543  -0.274880  -0.234347   0.030987   0.005494   0.038746
    14  O   -0.101789   0.090878   0.503511  -0.147017   0.007726  -0.000785
    15  C    0.012828  -0.029819  -0.004663  -0.059681   0.282197   0.000439
    16  H   -0.027598   0.015889   0.001825   0.000001  -0.000036   0.000428
    17  H   -0.007135   0.000226  -0.000014   0.000000  -0.000001   0.000074
    18  H   -0.001504  -0.000320   0.000105   0.000000  -0.000001   0.000016
    19  H    0.016834  -0.010694   0.003123   0.000007  -0.000004  -0.000194
    20  H    0.002533  -0.000187  -0.000042   0.000000   0.000000  -0.000001
    21  H    0.281162   0.026356   0.008815   0.001016  -0.000418  -0.057726
    22  H    0.000282   0.262499  -0.017829   0.016200   0.004369   0.008701
    23  H   -0.000585   0.009164   0.003920  -0.039287   0.396048  -0.000196
    24  H    0.001815  -0.000984   0.004719  -0.059606   0.419388   0.000236
    25  H    0.067717  -0.038417   0.005186   0.013565   0.004070   0.213424
    26  H    0.074907  -0.085435  -0.027983  -0.001147  -0.001068  -0.005965
    27  H    0.022161  -0.126572   0.043615  -0.002878  -0.002000   0.000419
    28  H   -0.040874  -0.071102  -0.016192   0.012640   0.005452   0.008156
    29  H    0.000258  -0.002192  -0.006047  -0.005522  -0.042911   0.000038
    30  H   -0.000104   0.002508   0.005390   0.007335  -0.051694  -0.000012
    31  H   -0.000731   0.005472   0.006930  -0.002652  -0.047893  -0.000281
             13         14         15         16         17         18
     1  C    0.122613  -0.026949   0.002440   0.169367   0.003267   0.040683
     2  C    0.034041   0.000176   0.000120   0.002292   0.275093  -0.005078
     3  C   -0.063621  -0.004274   0.001152   0.019741  -0.004310   0.257319
     4  C    0.234768   0.049038   0.002372   0.113763   0.022718   0.010363
     5  C   -0.220525   0.008143  -0.003654   0.033399   0.020275   0.002219
     6  C    0.012484   0.000099  -0.000085  -0.010849   0.016055   0.022808
     7  C   -0.126543  -0.101789   0.012828  -0.027598  -0.007135  -0.001504
     8  C   -0.274880   0.090878  -0.029819   0.015889   0.000226  -0.000320
     9  C   -0.234347   0.503511  -0.004663   0.001825  -0.000014   0.000105
    10  O    0.030987  -0.147017  -0.059681   0.000001   0.000000   0.000000
    11  C    0.005494   0.007726   0.282197  -0.000036  -0.000001  -0.000001
    12  O    0.038746  -0.000785   0.000439   0.000428   0.000074   0.000016
    13  C    5.768115  -0.036197  -0.000524   0.000400   0.000166   0.000150
    14  O   -0.036197   8.185878  -0.035994  -0.000073   0.000000   0.000000
    15  C   -0.000524  -0.035994   5.185087   0.000021   0.000000   0.000001
    16  H    0.000400  -0.000073   0.000021   0.506706   0.000012  -0.003925
    17  H    0.000166   0.000000   0.000000   0.000012   0.497482  -0.000122
    18  H    0.000150   0.000000   0.000001  -0.003925  -0.000122   0.496993
    19  H    0.004733  -0.000001   0.000027  -0.000107  -0.004039   0.000011
    20  H   -0.000025   0.000000   0.000000  -0.000120  -0.003844  -0.003868
    21  H   -0.013970   0.000471   0.002743   0.001042   0.000002  -0.000004
    22  H    0.033377  -0.009215  -0.000559   0.000127   0.000000   0.000003
    23  H   -0.002482  -0.000742  -0.030622   0.000000   0.000000   0.000000
    24  H   -0.000196   0.000512  -0.037883   0.000000   0.000000   0.000000
    25  H   -0.013951   0.000422  -0.002168  -0.000005   0.000000   0.000000
    26  H    0.432114   0.000037  -0.000011  -0.000004  -0.000007   0.000000
    27  H    0.428400   0.000590  -0.000082   0.000001   0.000000   0.000000
    28  H    0.453661  -0.000086  -0.000628   0.000000   0.000000   0.000000
    29  H   -0.000398   0.002078   0.413837   0.000000   0.000000   0.000000
    30  H   -0.000126  -0.000121   0.401189   0.000000   0.000000   0.000000
    31  H    0.000337  -0.000612   0.403474   0.000000   0.000000   0.000000
             19         20         21         22         23         24
     1  C    0.043594  -0.010648   0.218623  -0.029165  -0.000152   0.000077
     2  C   -0.010411   0.028381  -0.001363   0.003848   0.000000   0.000011
     3  C   -0.006772   0.024358   0.043521  -0.007317  -0.000010   0.000011
     4  C    0.056447   0.009530  -0.061034   0.016091  -0.001459   0.002345
     5  C    0.222756   0.000259  -0.185329   0.010069   0.000154  -0.000023
     6  C   -0.001416   0.271912  -0.000649  -0.000607   0.000000  -0.000001
     7  C    0.016834   0.002533   0.281162   0.000282  -0.000585   0.001815
     8  C   -0.010694  -0.000187   0.026356   0.262499   0.009164  -0.000984
     9  C    0.003123  -0.000042   0.008815  -0.017829   0.003920   0.004719
    10  O    0.000007   0.000000   0.001016   0.016200  -0.039287  -0.059606
    11  C   -0.000004   0.000000  -0.000418   0.004369   0.396048   0.419388
    12  O   -0.000194  -0.000001  -0.057726   0.008701  -0.000196   0.000236
    13  C    0.004733  -0.000025  -0.013970   0.033377  -0.002482  -0.000196
    14  O   -0.000001   0.000000   0.000471  -0.009215  -0.000742   0.000512
    15  C    0.000027   0.000000   0.002743  -0.000559  -0.030622  -0.037883
    16  H   -0.000107  -0.000120   0.001042   0.000127   0.000000   0.000000
    17  H   -0.004039  -0.003844   0.000002   0.000000   0.000000   0.000000
    18  H    0.000011  -0.003868  -0.000004   0.000003   0.000000   0.000000
    19  H    0.501041  -0.000117  -0.000033   0.000035   0.000000   0.000000
    20  H   -0.000117   0.500554   0.000000   0.000000   0.000000   0.000000
    21  H   -0.000033   0.000000   0.583575   0.000412   0.000000   0.000002
    22  H    0.000035   0.000000   0.000412   0.511935  -0.000003   0.000002
    23  H    0.000000   0.000000   0.000000  -0.000003   0.514870  -0.030092
    24  H    0.000000   0.000000   0.000002   0.000002  -0.030092   0.525514
    25  H   -0.000015   0.000000  -0.005669  -0.000183   0.000025  -0.000087
    26  H   -0.000086   0.000000  -0.000136  -0.003249   0.000000   0.000000
    27  H    0.000014   0.000000  -0.000075  -0.003362   0.000000   0.000001
    28  H   -0.000046   0.000000  -0.000063   0.003812   0.000008   0.000014
    29  H    0.000000   0.000000  -0.000014   0.000004  -0.004717   0.003943
    30  H    0.000000   0.000000   0.000001   0.000000  -0.001055  -0.001172
    31  H    0.000000   0.000000  -0.000015   0.000000   0.003756  -0.005114
             25         26         27         28         29         30
     1  C   -0.004208   0.038422  -0.011346  -0.005586   0.000227   0.000034
     2  C   -0.008757  -0.017152  -0.002731   0.008014   0.000022  -0.000001
     3  C    0.003610  -0.000258  -0.000406  -0.001844   0.000072   0.000004
     4  C   -0.009118   0.011118  -0.002039  -0.018272   0.004505   0.000099
     5  C    0.010540  -0.055134   0.011178   0.024951  -0.000086  -0.000018
     6  C   -0.000357  -0.000646   0.000128   0.000758  -0.000003   0.000000
     7  C    0.067717   0.074907   0.022161  -0.040874   0.000258  -0.000104
     8  C   -0.038417  -0.085435  -0.126572  -0.071102  -0.002192   0.002508
     9  C    0.005186  -0.027983   0.043615  -0.016192  -0.006047   0.005390
    10  O    0.013565  -0.001147  -0.002878   0.012640  -0.005522   0.007335
    11  C    0.004070  -0.001068  -0.002000   0.005452  -0.042911  -0.051694
    12  O    0.213424  -0.005965   0.000419   0.008156   0.000038  -0.000012
    13  C   -0.013951   0.432114   0.428400   0.453661  -0.000398  -0.000126
    14  O    0.000422   0.000037   0.000590  -0.000086   0.002078  -0.000121
    15  C   -0.002168  -0.000011  -0.000082  -0.000628   0.413837   0.401189
    16  H   -0.000005  -0.000004   0.000001   0.000000   0.000000   0.000000
    17  H    0.000000  -0.000007   0.000000   0.000000   0.000000   0.000000
    18  H    0.000000   0.000000   0.000000   0.000000   0.000000   0.000000
    19  H   -0.000015  -0.000086   0.000014  -0.000046   0.000000   0.000000
    20  H    0.000000   0.000000   0.000000   0.000000   0.000000   0.000000
    21  H   -0.005669  -0.000136  -0.000075  -0.000063  -0.000014   0.000001
    22  H   -0.000183  -0.003249  -0.003362   0.003812   0.000004   0.000000
    23  H    0.000025   0.000000   0.000000   0.000008  -0.004717  -0.001055
    24  H   -0.000087   0.000000   0.000001   0.000014   0.003943  -0.001172
    25  H    0.349533   0.000319   0.000018  -0.001303   0.000003  -0.000002
    26  H    0.000319   0.504848  -0.022469  -0.023467   0.000000   0.000000
    27  H    0.000018  -0.022469   0.515153  -0.026840   0.000000   0.000000
    28  H   -0.001303  -0.023467  -0.026840   0.504585   0.000000   0.000000
    29  H    0.000003   0.000000   0.000000   0.000000   0.508728  -0.021611
    30  H   -0.000002   0.000000   0.000000   0.000000  -0.021611   0.501663
    31  H    0.000136   0.000000   0.000000   0.000000  -0.029415  -0.022413
             31
     1  C   -0.000760
     2  C    0.000015
     3  C   -0.000089
     4  C   -0.001237
     5  C    0.000567
     6  C    0.000002
     7  C   -0.000731
     8  C    0.005472
     9  C    0.006930
    10  O   -0.002652
    11  C   -0.047893
    12  O   -0.000281
    13  C    0.000337
    14  O   -0.000612
    15  C    0.403474
    16  H    0.000000
    17  H    0.000000
    18  H    0.000000
    19  H    0.000000
    20  H    0.000000
    21  H   -0.000015
    22  H    0.000000
    23  H    0.003756
    24  H   -0.005114
    25  H    0.000136
    26  H    0.000000
    27  H    0.000000
    28  H    0.000000
    29  H   -0.029415
    30  H   -0.022413
    31  H    0.516479
 Mulliken atomic charges:
              1
     1  C   -0.104620
     2  C   -0.271903
     3  C   -0.250710
     4  C   -0.223306
     5  C   -0.024774
     6  C   -0.177554
     7  C    0.219477
     8  C    0.021337
     9  C    0.249382
    10  O   -0.332890
    11  C   -0.033149
    12  O   -0.597169
    13  C   -0.612800
    14  O   -0.485706
    15  C   -0.501554
    16  H    0.177704
    17  H    0.184100
    18  H    0.184150
    19  H    0.185311
    20  H    0.181326
    21  H    0.158757
    22  H    0.199722
    23  H    0.183459
    24  H    0.176568
    25  H    0.415671
    26  H    0.182450
    27  H    0.179122
    28  H    0.184250
    29  H    0.179198
    30  H    0.180106
    31  H    0.174043
 Sum of Mulliken atomic charges =   0.00000
 Mulliken charges with hydrogens summed into heavy atoms:
              1
     1  C    0.073084
     2  C   -0.087803
     3  C   -0.066560
     4  C   -0.223306
     5  C    0.160536
     6  C    0.003772
     7  C    0.378234
     8  C    0.221059
     9  C    0.249382
    10  O   -0.332890
    11  C    0.326879
    12  O   -0.181499
    13  C   -0.066978
    14  O   -0.485706
    15  C    0.031794
 Sum of Mulliken charges with hydrogens summed into heavy atoms =   0.00000
 Electronic spatial extent (au):  <R**2>=           4080.4406
 Charge=              0.0000 electrons
 Dipole moment (field-independent basis, Debye):
    X=             -1.6407    Y=             -0.5541    Z=             -0.4710  Tot=              1.7947
 Quadrupole moment (field-independent basis, Debye-Ang):
   XX=            -73.4789   YY=            -89.1027   ZZ=            -96.6859
   XY=              6.3361   XZ=              9.6531   YZ=             -5.0192
 Traceless Quadrupole moment (field-independent basis, Debye-Ang):
   XX=             12.9436   YY=             -2.6802   ZZ=            -10.2634
   XY=              6.3361   XZ=              9.6531   YZ=             -5.0192
 Octapole moment (field-independent basis, Debye-Ang**2):
  XXX=            -47.1772  YYY=             -1.5916  ZZZ=              1.5683  XYY=              9.4453
  XXY=            -16.4478  XXZ=            -21.1257  XZZ=            -21.4428  YZZ=             -7.9065
  YYZ=             -3.0462  XYZ=             12.6917
 Hexadecapole moment (field-independent basis, Debye-Ang**3):
 XXXX=          -3691.9319 YYYY=           -634.5231 ZZZZ=           -553.3015 XXXY=             38.6608
 XXXZ=             94.4840 YYYX=             25.4793 YYYZ=              9.4521 ZZZX=             23.5486
 ZZZY=             -8.3161 XXYY=           -786.8177 XXZZ=           -870.1495 YYZZ=           -215.5012
 XXYZ=              1.5276 YYXZ=             21.0472 ZZXY=             15.4773
 N-N= 1.001828458429D+03 E-N=-3.615196393086D+03  KE= 6.859074788649D+02
 1\1\GINC-COMPUTE-8-12\SP\RwB97XD\6-31+G(d,p)\C12H16O3\ELUCIANO.IQUIR\1
 7-May-2022\0\\# wb97xd/6-31+g** scrf=(pcm,solvent=chloroform,smd,dovac
 uum) nmr\\comment\\0,1\C,0,-0.19073238,2.718533507,-0.195646619\C,0,1.
 539987752,3.338910938,1.898552083\C,0,-0.090296296,4.03355537,0.263179
 021\C,0,0.575159671,1.694474639,0.386297106\C,0,1.439981301,2.02357812
 4,1.44087687\C,0,0.774828166,4.343089317,1.31005081\C,0,0.427548354,0.
 269050635,-0.115635922\C,0,-0.791381715,-0.431448649,0.511665162\C,0,-
 1.241155332,-1.546385638,-0.405994151\O,0,-0.240907589,-2.45099535,-0.
 61082176\C,0,-0.567303377,-3.562001114,-1.461172629\O,0,1.636660864,-0
 .453204592,0.134869529\C,0,-0.565028226,-0.977603945,1.919875434\O,0,-
 2.359340442,-1.611665131,-0.898609587\C,0,-0.314369465,-3.197151758,-2
 .911699886\H,0,-0.873507922,2.498108584,-1.013649636\H,0,2.217981165,3
 .577714366,2.713643139\H,0,-0.687110824,4.816653239,-0.197137175\H,0,2
 .047178558,1.251948634,1.910401492\H,0,0.854537658,5.366585731,1.66630
 3286\H,0,0.324383593,0.313697309,-1.208028554\H,0,-1.633685141,0.27278
 7879,0.552093516\H,0,-1.599167786,-3.89598156,-1.303645743\H,0,0.08725
 8108,-4.389862051,-1.169733183\H,0,1.514186539,-1.347774531,-0.2323559
 85\H,0,-0.322352607,-0.173102163,2.620613878\H,0,-1.468678691,-1.47787
 6831,2.286030399\H,0,0.244325623,-1.714594608,1.951543774\H,0,-0.95729
 0394,-2.369075297,-3.226405768\H,0,-0.502078991,-4.053359996,-3.565641
 035\H,0,0.720369827,-2.866605056,-3.049817864\\Version=EM64L-G09RevC.0
 1\State=1-A\HF=-692.4449224\RMSD=3.164e-09\Dipole=0.12317,-0.6711913,-
 0.1813086\Quadrupole=-12.1604979,10.8458782,1.3146197,-3.7124395,-0.43
 71973,4.1752023\PG=C01 [X(C12H16O3)]\\@


 SATCHEL PAIGE'S GUIDE TO LONGEVITY

    1.  AVOID FRIED MEATS, WHICH ANGRY UP THE BLOOD.

    2.  IF YOUR STOMACH DISPUTES YOU, LIE DOWN AND PACIFY IT WITH COOL
        THOUGHTS.

    3.  KEEP THE JUICES FLOWING BY JANGLING AROUND GENTLY AS YOU MOVE.

    4.  GO VERY LIGHT ON THE VICES, SUCH AS CARRYING ON IN SOCIETY.
        THE SOCIAL RUMBLE AIN'T RESTFUL.

    5.  AVOID RUNNING AT ALL TIMES.

    6.  DON'T LOOK BACK.  SOMETHING MAY BE GAINING ON YOU.
 Job cpu time:  0 days  2 hours  2 minutes 52.2 seconds.
 File lengths (MBytes):  RWF=    124 Int=      0 D2E=      0 Chk=      9 Scr=      1
 Normal termination of Gaussian 09 at Tue May 17 15:15:59 2022.
