 Entering Gaussian System, Link 0=g09
 Input=/home/eluciano.iquir/wb9/73a_030.gjc
 Output=/home/eluciano.iquir/wb9/73a_030.log
 Initial command:
 /share/apps/Gaussian09/EM64T.SSE4.2-enabled/g09/l1.exe /tmp/Gau-4720.inp -scrdir=/tmp/
 Entering Link 1 = /share/apps/Gaussian09/EM64T.SSE4.2-enabled/g09/l1.exe PID=      4721.
  
 Copyright (c) 1988,1990,1992,1993,1995,1998,2003,2009,2011,
            Gaussian, Inc.  All Rights Reserved.
  
 This is part of the Gaussian(R) 09 program.  It is based on
 the Gaussian(R) 03 system (copyright 2003, Gaussian, Inc.),
 the Gaussian(R) 98 system (copyright 1998, Gaussian, Inc.),
 the Gaussian(R) 94 system (copyright 1995, Gaussian, Inc.),
 the Gaussian 92(TM) system (copyright 1992, Gaussian, Inc.),
 the Gaussian 90(TM) system (copyright 1990, Gaussian, Inc.),
 the Gaussian 88(TM) system (copyright 1988, Gaussian, Inc.),
 the Gaussian 86(TM) system (copyright 1986, Carnegie Mellon
 University), and the Gaussian 82(TM) system (copyright 1983,
 Carnegie Mellon University). Gaussian is a federally registered
 trademark of Gaussian, Inc.
  
 This software contains proprietary and confidential information,
 including trade secrets, belonging to Gaussian, Inc.
  
 This software is provided under written license and may be
 used, copied, transmitted, or stored only in accord with that
 written license.
  
 The following legend is applicable only to US Government
 contracts under FAR:
  
                    RESTRICTED RIGHTS LEGEND
  
 Use, reproduction and disclosure by the US Government is
 subject to restrictions as set forth in subparagraphs (a)
 and (c) of the Commercial Computer Software - Restricted
 Rights clause in FAR 52.227-19.
  
 Gaussian, Inc.
 340 Quinnipiac St., Bldg. 40, Wallingford CT 06492
  
  
 ---------------------------------------------------------------
 Warning -- This program may not be used in any manner that
 competes with the business of Gaussian, Inc. or will provide
 assistance to any competitor of Gaussian, Inc.  The licensee
 of this program is prohibited from giving any competitor of
 Gaussian, Inc. access to this program.  By using this program,
 the user acknowledges that Gaussian, Inc. is engaged in the
 business of creating and licensing software in the field of
 computational chemistry and represents and warrants to the
 licensee that it is not a competitor of Gaussian, Inc. and that
 it will not use this program in any manner prohibited above.
 ---------------------------------------------------------------
  

 Cite this work as:
 Gaussian 09, Revision C.01,
 M. J. Frisch, G. W. Trucks, H. B. Schlegel, G. E. Scuseria, 
 M. A. Robb, J. R. Cheeseman, G. Scalmani, V. Barone, B. Mennucci, 
 G. A. Petersson, H. Nakatsuji, M. Caricato, X. Li, H. P. Hratchian, 
 A. F. Izmaylov, J. Bloino, G. Zheng, J. L. Sonnenberg, M. Hada, 
 M. Ehara, K. Toyota, R. Fukuda, J. Hasegawa, M. Ishida, T. Nakajima, 
 Y. Honda, O. Kitao, H. Nakai, T. Vreven, J. A. Montgomery, Jr., 
 J. E. Peralta, F. Ogliaro, M. Bearpark, J. J. Heyd, E. Brothers, 
 K. N. Kudin, V. N. Staroverov, T. Keith, R. Kobayashi, J. Normand, 
 K. Raghavachari, A. Rendell, J. C. Burant, S. S. Iyengar, J. Tomasi, 
 M. Cossi, N. Rega, J. M. Millam, M. Klene, J. E. Knox, J. B. Cross, 
 V. Bakken, C. Adamo, J. Jaramillo, R. Gomperts, R. E. Stratmann, 
 O. Yazyev, A. J. Austin, R. Cammi, C. Pomelli, J. W. Ochterski, 
 R. L. Martin, K. Morokuma, V. G. Zakrzewski, G. A. Voth, 
 P. Salvador, J. J. Dannenberg, S. Dapprich, A. D. Daniels, 
 O. Farkas, J. B. Foresman, J. V. Ortiz, J. Cioslowski, 
 and D. J. Fox, Gaussian, Inc., Wallingford CT, 2010.
 
 ******************************************
 Gaussian 09:  EM64L-G09RevC.01 23-Sep-2011
                17-May-2022 
 ******************************************
 %nprocshared=4
 Will use up to    4 processors via shared memory.
 ----------------------------------------------------------------
 # wb97xd/6-31+g** scrf=(pcm,solvent=chloroform,smd,dovacuum) nmr
 ----------------------------------------------------------------
 1/38=1/1;
 2/12=2,17=6,18=5,40=1/2;
 3/5=1,6=6,7=111,11=2,16=1,25=1,30=1,70=32101,72=7,74=-58/1,2,8,3;
 4//1;
 5/5=2,38=5,53=7/2;
 8/6=1,10=90,11=11/1;
 10/13=100,45=16/2;
 6/7=2,8=2,9=2,10=2,28=1/1;
 99/9=1/99;
 -------
 comment
 -------
 Charge =  0 Multiplicity = 1
 Symbolic Z-Matrix:
 6                     1.07696   1.11002  -1.56257 
 6                    -0.49001   3.41545  -1.6196 
 6                     0.81676   1.75014  -2.77591 
 6                     0.55484   1.61435  -0.36116 
 6                    -0.23122   2.77618  -0.40614 
 6                     0.03283   2.9015   -2.80402 
 6                     0.81828   0.89517   0.94736 
 6                    -0.41764   0.15077   1.47786 
 6                    -0.88091  -0.9202    0.51405 
 8                     0.1498   -1.72835   0.13685 
 6                    -0.19113  -2.79337  -0.76345 
 8                     1.2409    1.87818   1.90033 
 6                    -0.17572  -0.48945   2.8456 
 8                    -2.04853  -1.07064   0.178 
 6                    -0.64001  -4.0133    0.01845 
 1                     1.6902    0.21165  -1.56339 
 1                    -1.09846   4.31569  -1.63821 
 1                     1.22595   1.35045  -3.69997 
 1                    -0.63899   3.19304   0.51283 
 1                    -0.16927   3.39989  -3.74824 
 1                     1.66395   0.20863   0.81393 
 1                    -1.24552   0.86311   1.59382 
 1                     0.71378  -3.0325   -1.3316 
 1                    -0.95066  -2.47692  -1.48753 
 1                     1.80429   1.4277    2.55112 
 1                     0.0008    0.27098   3.61287 
 1                    -1.04279  -1.08241   3.15744 
 1                     0.69032  -1.16014   2.82402 
 1                     0.13144  -4.31624   0.73404 
 1                    -0.84635  -4.85072  -0.65397 
 1                    -1.5439   -3.79868   0.59722 
 
                          Input orientation:                          
 ---------------------------------------------------------------------
 Center     Atomic      Atomic             Coordinates (Angstroms)
 Number     Number       Type             X           Y           Z
 ---------------------------------------------------------------------
      1          6           0        1.076961    1.110018   -1.562573
      2          6           0       -0.490014    3.415446   -1.619601
      3          6           0        0.816764    1.750145   -2.775906
      4          6           0        0.554839    1.614351   -0.361160
      5          6           0       -0.231217    2.776184   -0.406137
      6          6           0        0.032830    2.901495   -2.804022
      7          6           0        0.818284    0.895174    0.947358
      8          6           0       -0.417639    0.150768    1.477862
      9          6           0       -0.880907   -0.920200    0.514047
     10          8           0        0.149799   -1.728347    0.136850
     11          6           0       -0.191134   -2.793368   -0.763452
     12          8           0        1.240897    1.878181    1.900334
     13          6           0       -0.175718   -0.489446    2.845596
     14          8           0       -2.048525   -1.070639    0.178004
     15          6           0       -0.640007   -4.013297    0.018450
     16          1           0        1.690204    0.211652   -1.563395
     17          1           0       -1.098460    4.315689   -1.638214
     18          1           0        1.225945    1.350448   -3.699969
     19          1           0       -0.638989    3.193043    0.512827
     20          1           0       -0.169270    3.399891   -3.748242
     21          1           0        1.663949    0.208632    0.813928
     22          1           0       -1.245521    0.863108    1.593820
     23          1           0        0.713785   -3.032496   -1.331599
     24          1           0       -0.950660   -2.476924   -1.487533
     25          1           0        1.804287    1.427698    2.551118
     26          1           0        0.000801    0.270982    3.612869
     27          1           0       -1.042788   -1.082413    3.157439
     28          1           0        0.690315   -1.160143    2.824016
     29          1           0        0.131439   -4.316241    0.734037
     30          1           0       -0.846355   -4.850717   -0.653968
     31          1           0       -1.543897   -3.798676    0.597216
 ---------------------------------------------------------------------
                    Distance matrix (angstroms):
                    1          2          3          4          5
     1  C    0.000000
     2  C    2.788129   0.000000
     3  C    1.396295   2.412041   0.000000
     4  C    1.403694   2.432969   2.432703   0.000000
     5  C    2.413459   1.395754   2.786903   1.403483   0.000000
     6  C    2.416773   1.392969   1.393180   2.810126   2.415631
     7  C    2.532357   3.827884   3.820167   1.516192   2.543934
     8  C    3.521113   4.500849   4.709172   2.543578   3.236822
     9  C    3.502483   4.847998   4.564715   3.041596   3.864207
    10  O    3.435692   5.472942   4.585727   3.403777   4.553110
    11  C    4.181277   6.274687   5.070438   4.488463   5.581146
    12  O    3.550870   4.212978   4.697180   2.377947   2.879815
    13  C    4.853808   5.940114   6.132053   3.904223   4.608816
    14  O    4.189694   5.077923   4.989217   3.778541   4.294401
    15  C    5.629917   7.608675   6.568703   5.765603   6.815016
    16  H    1.087717   3.875669   2.144771   2.168406   3.407041
    17  H    3.874856   1.086733   3.397711   3.414893   2.154113
    18  H    2.156030   3.396567   1.086775   3.415798   3.873678
    19  H    3.404521   2.149165   3.875169   2.163642   1.088368
    20  H    3.402023   2.152727   2.153919   3.896770   3.400370
    21  H    2.608603   4.565663   3.997610   2.141728   3.416509
    22  H    3.926539   4.172685   4.912674   2.761813   2.947627
    23  H    4.164813   6.565671   4.997027   4.749758   5.957371
    24  H    4.121048   5.911825   4.759392   4.502641   5.411300
    25  H    4.189556   5.158475   5.427371   3.174480   3.834977
    26  H    5.352318   6.124320   6.608340   4.231371   4.741548
    27  H    5.619484   6.584558   6.832708   4.712269   5.314743
    28  H    4.954320   6.486519   6.312281   4.226288   5.174725
    29  H    5.967639   8.105850   7.042045   6.045713   7.192636
    30  H    6.328907   8.329999   7.130214   6.621645   7.655680
    31  H    5.968991   7.620269   6.909419   5.884219   6.779279
                    6          7          8          9         10
     6  C    0.000000
     7  C    4.326097   0.000000
     8  C    5.109203   1.537231   0.000000
     9  C    5.142942   2.524003   1.513450   0.000000
    10  O    5.486150   2.826068   2.377262   1.362987   0.000000
    11  C    6.053557   4.189408   3.707119   2.369926   1.435635
    12  O    4.963623   1.432852   2.431703   3.775550   4.160218
    13  C    6.592432   2.551180   1.529410   2.473654   2.996355
    14  O    5.385385   3.560185   2.416869   1.224292   2.294974
    15  C    7.498894   5.204092   4.418005   3.141798   2.420498
    16  H    3.394304   2.744327   3.700805   3.493918   3.004542
    17  H    2.153803   4.696702   5.245952   5.665165   6.421789
    18  H    2.152207   4.687336   5.563321   5.229972   5.035697
    19  H    3.396738   2.755478   3.199332   4.120352   4.998362
    20  H    1.086644   5.412720   6.158787   6.110379   6.441628
    21  H    4.796000   1.097403   2.185673   2.800086   2.550092
    22  H    5.013005   2.162921   1.098299   2.116374   3.284101
    23  H    6.151746   4.542153   4.393901   3.226645   2.043337
    24  H    5.623860   4.519835   3.997805   2.536647   2.099999
    25  H    5.829893   1.956484   2.778378   4.107621   4.304258
    26  H    6.935208   2.857069   2.178944   3.434970   4.012758
    27  H    7.250344   3.501270   2.175436   2.653306   3.311110
    28  H    6.971657   2.786135   2.181326   2.803973   2.799263
    29  H    8.038862   5.260809   4.561681   3.550539   2.655968
    30  H    8.092743   6.192780   5.453746   4.100538   3.371485
    31  H    7.677680   5.266376   4.200250   2.955011   2.714186
                   11         12         13         14         15
    11  C    0.000000
    12  O    5.565055   0.000000
    13  C    4.281767   2.916500   0.000000
    14  O    2.702598   4.741545   3.310777   0.000000
    15  C    1.516932   6.464425   4.541569   3.266285   0.000000
    16  H    3.634485   3.869963   4.838636   4.319124   5.077628
    17  H    7.219913   4.892378   6.636666   5.763141   8.504512
    18  H    5.272804   5.625133   6.942211   5.623388   6.788091
    19  H    6.137310   2.681046   4.383737   4.503097   7.223278
    20  H    6.875021   6.017523   7.655436   6.239603   8.328561
    21  H    3.865419   2.036331   2.828315   3.977863   4.875006
    22  H    4.476413   2.703072   2.130920   2.527593   5.160209
    23  H    1.094920   5.902371   4.970642   3.709197   2.148803
    24  H    1.096042   5.936961   4.829763   2.440689   2.173690
    25  H    5.725861   0.971526   2.771746   5.168899   6.480232
    26  H    5.345958   2.655881   1.094585   4.218765   5.628990
    27  H    4.361888   3.944698   1.095749   3.144626   4.313417
    28  H    4.039096   3.223002   1.095588   3.809283   4.216805
    29  H    2.160016   6.400157   4.381483   3.949095   1.094974
    30  H    2.161940   7.493940   5.631819   4.052947   1.093617
    31  H    2.166109   6.455996   4.228254   2.805811   1.094554
                   16         17         18         19         20
    16  H    0.000000
    17  H    4.962395   0.000000
    18  H    2.465227   4.294921   0.000000
    19  H    4.315615   2.469500   4.961934   0.000000
    20  H    4.289064   2.480786   2.479753   4.291869   0.000000
    21  H    2.377469   5.523750   4.676628   3.781652   5.861589
    22  H    4.360147   4.731595   5.862581   2.639134   6.010925
    23  H    3.395823   7.574567   5.008161   6.632438   6.927882
    24  H    3.769398   6.795892   4.927602   6.020557   6.344946
    25  H    4.291969   5.858066   6.278259   3.638773   6.889588
    26  H    5.445302   6.718772   7.492918   4.307903   8.000310
    27  H    5.606257   7.220865   7.621680   5.043465   8.279041
    28  H    4.704356   7.286697   7.010873   5.104789   8.045333
    29  H    5.311285   9.036063   7.278030   7.551943   8.928603
    30  H    5.734872   9.222542   7.212974   8.130589   8.837732
    31  H    5.586624   8.428432   7.256121   7.050539   8.520092
                   21         22         23         24         25
    21  H    0.000000
    22  H    3.082464   0.000000
    23  H    4.001375   5.250969   0.000000
    24  H    4.398308   4.553844   1.761633   0.000000
    25  H    2.126887   3.245999   6.013153   6.256717   0.000000
    26  H    3.256382   2.445503   5.989080   5.871147   2.391207
    27  H    3.805951   2.504207   5.199983   4.850660   3.843712
    28  H    2.619535   3.058494   4.558002   4.797516   2.830606
    29  H    4.778017   5.427789   2.500796   3.080486   6.252443
    30  H    5.835525   6.153021   2.489808   2.518055   7.531067
    31  H    5.137680   4.776450   3.066673   2.538726   6.507154
                   26         27         28         29         30
    26  H    0.000000
    27  H    1.768664   0.000000
    28  H    1.773652   1.766596   0.000000
    29  H    5.417320   4.208246   3.826396   0.000000
    30  H    6.719774   5.363350   5.298873   1.779972   0.000000
    31  H    5.295504   3.766156   4.112444   1.758790   1.777306
                   31
    31  H    0.000000
 Stoichiometry    C12H16O3
 Framework group  C1[X(C12H16O3)]
 Deg. of freedom    87
 Full point group                 C1      NOp   1
 Largest Abelian subgroup         C1      NOp   1
 Largest concise Abelian subgroup C1      NOp   1
                         Standard orientation:                         
 ---------------------------------------------------------------------
 Center     Atomic      Atomic             Coordinates (Angstroms)
 Number     Number       Type             X           Y           Z
 ---------------------------------------------------------------------
      1          6           0       -1.527937   -0.958693   -0.999486
      2          6           0       -3.431767   -0.355392    0.946053
      3          6           0       -2.525835   -1.883506   -0.685540
      4          6           0       -1.468411    0.280342   -0.342519
      5          6           0       -2.434406    0.569702    0.633641
      6          6           0       -3.476286   -1.582021    0.287445
      7          6           0       -0.363251    1.265564   -0.669313
      8          6           0        0.698512    1.359449    0.438354
      9          6           0        1.392235    0.032886    0.660862
     10          8           0        1.841385   -0.495582   -0.512475
     11          6           0        2.535095   -1.747998   -0.406316
     12          8           0       -0.974312    2.546283   -0.867887
     13          6           0        1.756365    2.425529    0.149362
     14          8           0        1.578304   -0.457631    1.767054
     15          6           0        4.009741   -1.506573   -0.145131
     16          1           0       -0.794985   -1.214882   -1.761246
     17          1           0       -4.174345   -0.116051    1.702547
     18          1           0       -2.561927   -2.839907   -1.200394
     19          1           0       -2.416149    1.527656    1.149912
     20          1           0       -4.253137   -2.301585    0.531424
     21          1           0        0.091989    0.986919   -1.628170
     22          1           0        0.210515    1.633006    1.383492
     23          1           0        2.410288   -2.263735   -1.364069
     24          1           0        2.088999   -2.388003    0.363555
     25          1           0       -0.403449    3.049387   -1.471927
     26          1           0        1.317028    3.428065    0.144993
     27          1           0        2.543770    2.410137    0.911217
     28          1           0        2.235483    2.258500   -0.821649
     29          1           0        4.438550   -0.868348   -0.924721
     30          1           0        4.559219   -2.451811   -0.120740
     31          1           0        4.160803   -0.989632    0.807760
 ---------------------------------------------------------------------
 Rotational constants (GHZ):      0.8611789      0.4199119      0.3337007
 Standard basis: 6-31+G(d,p) (6D, 7F)
 There are   365 symmetry adapted basis functions of A   symmetry.
 Integral buffers will be    131072 words long.
 Raffenetti 2 integral format.
 Two-electron integral symmetry is turned on.
   365 basis functions,   592 primitive gaussians,   365 cartesian basis functions
    56 alpha electrons       56 beta electrons
       nuclear repulsion energy      1017.3933697140 Hartrees.
 NAtoms=   31 NActive=   31 NUniq=   31 SFac= 1.00D+00 NAtFMM=   60 NAOKFM=F Big=F
 Nuclear repulsion after empirical dispersion term =     1017.3718162521 Hartrees.
 ------------------------------------------------------------------------------
 Polarizable Continuum Model (PCM)
 =================================
 Model                : C-PCM.
 Atomic radii         : SMD-Coulomb.
 Polarization charges : Total charges.
 Charge compensation  : None.
 Solution method      : Matrix inversion.
 Cavity type          : VdW (van der Waals Surface) (Alpha=1.000).
 Cavity algorithm     : GePol (No added spheres)
                        Default sphere list used, NSphG=   31.
                        Lebedev-Laikov grids with approx.  5.0 points / Ang**2.
                        Smoothing algorithm: Karplus/York (Gamma=1.0000).
                        Polarization charges: spherical gaussians, with
                                              point-specific exponents (IZeta= 3).
                        Self-potential: point-specific (ISelfS= 7).
                        Self-field    : sphere-specific E.n sum rule (ISelfD= 2).
 Solvent              : Chloroform, Eps=   4.711300 Eps(inf)=   2.090627
 ------------------------------------------------------------------------------
 ------------------------------------------------------------------------------
 Atomic radii for non-electrostatic terms: SMD-CDS.
 ------------------------------------------------------------------------------
 Nuclear repulsion after PCM non-electrostatic terms =     1017.3651799786 Hartrees.
 One-electron integrals computed using PRISM.
 NBasis=   365 RedAO= T  NBF=   365
 NBsUse=   365 1.00D-06 NBFU=   365
 Harris functional with IExCor= 4639 diagonalized for initial guess.
 ExpMin= 4.38D-02 ExpMax= 5.48D+03 ExpMxC= 8.25D+02 IAcc=2 IRadAn=         4 AccDes= 0.00D+00
 HarFok:  IExCor= 4639 AccDes= 0.00D+00 IRadAn=         4 IDoV= 1
 ScaDFX=  1.000000  1.000000  1.000000  1.000000
 FoFCou: FMM=F IPFlag=           0 FMFlag=      100000 FMFlg1=           0
         NFxFlg=           0 DoJE=T BraDBF=F KetDBF=T FulRan=T
         Omega=  0.000000  0.000000  1.000000  0.000000  0.000000 ICntrl=     500 IOpCl=  0
         NMat0=    1 NMatS0=    1 NMatT0=    0 NMatD0=    1 NMtDS0=    0 NMtDT0=    0
         I1Cent=           4 NGrid=           0.
 Petite list used in FoFCou.
 Initial guess orbital symmetries:
       Occupied  (A) (A) (A) (A) (A) (A) (A) (A) (A) (A) (A) (A)
                 (A) (A) (A) (A) (A) (A) (A) (A) (A) (A) (A) (A)
                 (A) (A) (A) (A) (A) (A) (A) (A) (A) (A) (A) (A)
                 (A) (A) (A) (A) (A) (A) (A) (A) (A) (A) (A) (A)
                 (A) (A) (A) (A) (A) (A) (A) (A)
       Virtual   (A) (A) (A) (A) (A) (A) (A) (A) (A) (A) (A) (A)
                 (A) (A) (A) (A) (A) (A) (A) (A) (A) (A) (A) (A)
                 (A) (A) (A) (A) (A) (A) (A) (A) (A) (A) (A) (A)
                 (A) (A) (A) (A) (A) (A) (A) (A) (A) (A) (A) (A)
                 (A) (A) (A) (A) (A) (A) (A) (A) (A) (A) (A) (A)
                 (A) (A) (A) (A) (A) (A) (A) (A) (A) (A) (A) (A)
                 (A) (A) (A) (A) (A) (A) (A) (A) (A) (A) (A) (A)
                 (A) (A) (A) (A) (A) (A) (A) (A) (A) (A) (A) (A)
                 (A) (A) (A) (A) (A) (A) (A) (A) (A) (A) (A) (A)
                 (A) (A) (A) (A) (A) (A) (A) (A) (A) (A) (A) (A)
                 (A) (A) (A) (A) (A) (A) (A) (A) (A) (A) (A) (A)
                 (A) (A) (A) (A) (A) (A) (A) (A) (A) (A) (A) (A)
                 (A) (A) (A) (A) (A) (A) (A) (A) (A) (A) (A) (A)
                 (A) (A) (A) (A) (A) (A) (A) (A) (A) (A) (A) (A)
                 (A) (A) (A) (A) (A) (A) (A) (A) (A) (A) (A) (A)
                 (A) (A) (A) (A) (A) (A) (A) (A) (A) (A) (A) (A)
                 (A) (A) (A) (A) (A) (A) (A) (A) (A) (A) (A) (A)
                 (A) (A) (A) (A) (A) (A) (A) (A) (A) (A) (A) (A)
                 (A) (A) (A) (A) (A) (A) (A) (A) (A) (A) (A) (A)
                 (A) (A) (A) (A) (A) (A) (A) (A) (A) (A) (A) (A)
                 (A) (A) (A) (A) (A) (A) (A) (A) (A) (A) (A) (A)
                 (A) (A) (A) (A) (A) (A) (A) (A) (A) (A) (A) (A)
                 (A) (A) (A) (A) (A) (A) (A) (A) (A) (A) (A) (A)
                 (A) (A) (A) (A) (A) (A) (A) (A) (A) (A) (A) (A)
                 (A) (A) (A) (A) (A) (A) (A) (A) (A) (A) (A) (A)
                 (A) (A) (A) (A) (A) (A) (A) (A) (A)
 The electronic state of the initial guess is 1-A.
 Requested convergence on RMS density matrix=1.00D-08 within 128 cycles.
 Requested convergence on MAX density matrix=1.00D-06.
 Requested convergence on             energy=1.00D-06.
 No special actions if energy rises.
 FoFJK:  IHMeth= 1 ICntrl=     0 DoSepK=T KAlg= 1 I1Cent= 0 FoldK=F
 FoFJK:  IHMeth= 1 ICntrl=     0 DoSepK=T KAlg= 1 I1Cent= 0 FoldK=F
 FoFJK:  IHMeth= 1 ICntrl=     0 DoSepK=T KAlg= 1 I1Cent= 0 FoldK=F
 FoFJK:  IHMeth= 1 ICntrl=     0 DoSepK=T KAlg= 1 I1Cent= 0 FoldK=F
 FoFJK:  IHMeth= 1 ICntrl=     0 DoSepK=T KAlg= 1 I1Cent= 0 FoldK=F
 FoFJK:  IHMeth= 1 ICntrl=     0 DoSepK=T KAlg= 1 I1Cent= 0 FoldK=F
 FoFJK:  IHMeth= 1 ICntrl=     0 DoSepK=T KAlg= 1 I1Cent= 0 FoldK=F
 FoFJK:  IHMeth= 1 ICntrl=     0 DoSepK=T KAlg= 1 I1Cent= 0 FoldK=F
 FoFJK:  IHMeth= 1 ICntrl=     0 DoSepK=T KAlg= 1 I1Cent= 0 FoldK=F
 FoFJK:  IHMeth= 1 ICntrl=     0 DoSepK=T KAlg= 1 I1Cent= 0 FoldK=F
 FoFJK:  IHMeth= 1 ICntrl=     0 DoSepK=T KAlg= 1 I1Cent= 0 FoldK=F
 FoFJK:  IHMeth= 1 ICntrl=     0 DoSepK=T KAlg= 1 I1Cent= 0 FoldK=F
 FoFJK:  IHMeth= 1 ICntrl=     0 DoSepK=T KAlg= 1 I1Cent= 0 FoldK=F
 FoFJK:  IHMeth= 1 ICntrl=     0 DoSepK=T KAlg= 1 I1Cent= 0 FoldK=F
 FoFJK:  IHMeth= 1 ICntrl=     0 DoSepK=T KAlg= 1 I1Cent= 0 FoldK=F
 FoFJK:  IHMeth= 1 ICntrl=     0 DoSepK=T KAlg= 1 I1Cent= 0 FoldK=F
 Error on total polarization charges =  0.03919
 SCF Done:  E(RwB97XD) =  -692.445078583     A.U. after   16 cycles
             Convg  =    0.2715D-08             -V/T =  2.0095
 SMD-CDS (non-electrostatic) energy       (kcal/mol) =      -4.16
 (included in total energy above)
 Range of M.O.s used for correlation:     1   365
 NBasis=   365 NAE=    56 NBE=    56 NFC=     0 NFV=     0
 NROrb=    365 NOA=    56 NOB=    56 NVA=   309 NVB=   309

 **** Warning!!: The largest alpha MO coefficient is  0.13862001D+03

 NEqPCM:  Using equilibrium solvation (IEInf=0, Eps=   4.7113, EpsInf=   2.0906)
          Differentiating once with respect to magnetic field using GIAOs.
          Electric field/nuclear overlap derivatives assumed to be zero.
 FoFCou: FMM=F IPFlag=           0 FMFlag=    10101102 FMFlg1=           0
         NFxFlg=    40000000 DoJE=F BraDBF=F KetDBF=T FulRan=T
         Omega=  0.000000  0.000000  1.000000  0.000000  0.000000 ICntrl=    6100 IOpCl=  0
         NMat0=    1 NMatS0=    1 NMatT0=    0 NMatD0=    1 NMtDS0=    0 NMtDT0=    0
         I1Cent=           7 NGrid=        2287.
 Symmetry not used in FoFCou.
 FoFJK:  IHMeth= 1 ICntrl=  6127 DoSepK=T KAlg= 1 I1Cent= 0 FoldK=F
 FoFJK:  IHMeth= 1 ICntrl=     0 DoSepK=T KAlg= 1 I1Cent= 0 FoldK=F
          There are     3 degrees of freedom in the 1st order CPHF.  IDoFFX=0.
      3 vectors produced by pass  0 Test12= 5.77D-13 3.33D-08 XBig12= 1.26D+02 1.90D+00.
 AX will form     3 AO Fock derivatives at one time.
 FoFJK:  IHMeth= 1 ICntrl=     0 DoSepK=T KAlg= 1 I1Cent= 0 FoldK=F
      3 vectors produced by pass  1 Test12= 5.77D-13 3.33D-08 XBig12= 9.28D-01 2.34D-01.
 FoFJK:  IHMeth= 1 ICntrl=     0 DoSepK=T KAlg= 1 I1Cent= 0 FoldK=F
      3 vectors produced by pass  2 Test12= 5.77D-13 3.33D-08 XBig12= 1.48D-02 4.54D-02.
 FoFJK:  IHMeth= 1 ICntrl=     0 DoSepK=T KAlg= 1 I1Cent= 0 FoldK=F
      3 vectors produced by pass  3 Test12= 5.77D-13 3.33D-08 XBig12= 2.65D-04 3.96D-03.
 FoFJK:  IHMeth= 1 ICntrl=     0 DoSepK=T KAlg= 1 I1Cent= 0 FoldK=F
      3 vectors produced by pass  4 Test12= 5.77D-13 3.33D-08 XBig12= 4.74D-06 4.61D-04.
 FoFJK:  IHMeth= 1 ICntrl=     0 DoSepK=T KAlg= 1 I1Cent= 0 FoldK=F
      3 vectors produced by pass  5 Test12= 5.77D-13 3.33D-08 XBig12= 1.02D-07 6.63D-05.
 FoFJK:  IHMeth= 1 ICntrl=     0 DoSepK=T KAlg= 1 I1Cent= 0 FoldK=F
      3 vectors produced by pass  6 Test12= 5.77D-13 3.33D-08 XBig12= 1.81D-09 7.65D-06.
 FoFJK:  IHMeth= 1 ICntrl=     0 DoSepK=T KAlg= 1 I1Cent= 0 FoldK=F
      3 vectors produced by pass  7 Test12= 5.77D-13 3.33D-08 XBig12= 1.60D-11 7.74D-07.
 FoFJK:  IHMeth= 1 ICntrl=     0 DoSepK=T KAlg= 1 I1Cent= 0 FoldK=F
      2 vectors produced by pass  8 Test12= 5.77D-13 3.33D-08 XBig12= 1.62D-13 7.48D-08.
 FoFJK:  IHMeth= 1 ICntrl=     0 DoSepK=T KAlg= 1 I1Cent= 0 FoldK=F
 Inverted reduced A of dimension    26 with in-core refinement.
 Calculating GIAO nuclear magnetic shielding tensors.
 SCF GIAO Magnetic shielding tensor (ppm):
      1  C    Isotropic =    70.3903   Anisotropy =   159.8014
   XX=    62.8057   YX=   -17.5662   ZX=    88.4076
   XY=    -9.8303   YY=    74.6132   ZY=   -47.0835
   XZ=    86.3675   YZ=   -52.7621   ZZ=    73.7520
   Eigenvalues:   -25.8616    60.1079   176.9245
      2  C    Isotropic =    70.2174   Anisotropy =   178.2496
   XX=    62.2066   YX=   -18.7947   ZX=    95.6068
   XY=   -16.3151   YY=    72.3978   ZY=   -52.1459
   XZ=    98.7981   YZ=   -53.6031   ZZ=    76.0478
   Eigenvalues:   -34.0622    55.6639   189.0505
      3  C    Isotropic =    71.1954   Anisotropy =   174.7609
   XX=   103.4290   YX=   -32.6408   ZX=    52.9253
   XY=   -34.2911   YY=     9.0071   ZY=   -73.3134
   XZ=    51.2676   YZ=   -74.9354   ZZ=   101.1502
   Eigenvalues:   -32.3331    58.2166   187.7027
      4  C    Isotropic =    53.3518   Anisotropy =   184.5432
   XX=    47.9420   YX=   -65.5489   ZX=    69.5093
   XY=   -64.4156   YY=    21.3124   ZY=   -40.7705
   XZ=    73.5849   YZ=   -36.3259   ZZ=    90.8009
   Eigenvalues:   -34.7087    18.3834   176.3806
      5  C    Isotropic =    72.0657   Anisotropy =   178.8894
   XX=   100.6122   YX=   -34.4507   ZX=    57.2568
   XY=   -32.7156   YY=    13.4637   ZY=   -69.9243
   XZ=    56.6309   YZ=   -75.9935   ZZ=   102.1212
   Eigenvalues:   -27.5953    52.4671   191.3253
      6  C    Isotropic =    71.4309   Anisotropy =   176.1660
   XX=    59.8348   YX=   -71.5860   ZX=    68.6061
   XY=   -72.8834   YY=    36.7513   ZY=   -24.6999
   XZ=    69.4364   YZ=   -21.7242   ZZ=   117.7067
   Eigenvalues:   -31.0525    56.4702   188.8749
      7  C    Isotropic =   119.3986   Anisotropy =    27.9379
   XX=   119.3306   YX=    -7.6828   ZX=     4.7470
   XY=   -10.0165   YY=   133.5948   ZY=     2.7022
   XZ=     3.5618   YZ=     6.7536   ZZ=   105.2705
   Eigenvalues:   102.4490   117.7230   138.0239
      8  C    Isotropic =   142.8993   Anisotropy =    30.0991
   XX=   147.8297   YX=   -13.7397   ZX=     1.6248
   XY=   -18.0615   YY=   144.2824   ZY=     3.0895
   XZ=    11.7914   YZ=    -2.6066   ZZ=   136.5857
   Eigenvalues:   127.4865   138.2459   162.9653
      9  C    Isotropic =    20.1238   Anisotropy =   104.8269
   XX=    53.7214   YX=    58.6980   ZX=    19.7921
   XY=    51.4699   YY=     5.8890   ZY=   -29.2318
   XZ=    44.4919   YZ=   -57.3071   ZZ=     0.7611
   Eigenvalues:   -70.7637    41.1267    90.0085
     10  O    Isotropic =   135.3074   Anisotropy =   169.5856
   XX=   215.0483   YX=    75.5424   ZX=   -11.3807
   XY=    78.8564   YY=    68.3742   ZY=    37.2012
   XZ=   -81.3520   YZ=   161.2079   ZZ=   122.4996
   Eigenvalues:   -38.9754   196.5331   248.3644
     11  C    Isotropic =   137.7203   Anisotropy =    66.2424
   XX=   145.3010   YX=   -25.9322   ZX=     8.3002
   XY=   -21.8351   YY=   166.2758   ZY=     2.5997
   XZ=     5.7091   YZ=     4.5553   ZZ=   101.5842
   Eigenvalues:    99.5474   131.7316   181.8819
     12  O    Isotropic =   294.3814   Anisotropy =    44.4477
   XX=   297.4873   YX=    12.9269   ZX=   -23.1166
   XY=    -1.4513   YY=   314.9259   ZY=   -17.0835
   XZ=   -22.4775   YZ=    -5.5708   ZZ=   270.7309
   Eigenvalues:   256.8073   302.3236   324.0132
     13  C    Isotropic =   180.3876   Anisotropy =    27.2055
   XX=   185.5075   YX=    15.5632   ZX=    -2.5896
   XY=    12.2740   YY=   181.8277   ZY=    -1.5168
   XZ=    -6.3888   YZ=    -1.8451   ZZ=   173.8277
   Eigenvalues:   168.9418   173.6964   198.5247
     14  O    Isotropic =   -48.1256   Anisotropy =   531.7124
   XX=   185.0386   YX=   201.2006   ZX=    37.3557
   XY=   198.9615   YY=   -38.6820   ZY=     9.9184
   XZ=    60.7029   YZ=    14.6581   ZZ=  -290.7335
   Eigenvalues:  -296.1062  -154.6200   306.3493
     15  C    Isotropic =   181.6242   Anisotropy =    26.6694
   XX=   198.4953   YX=    -4.1776   ZX=     4.0335
   XY=     0.8009   YY=   183.2512   ZY=    -0.0018
   XZ=     6.2662   YZ=    -0.0628   ZZ=   163.1260
   Eigenvalues:   162.3894   183.0793   199.4038
     16  H    Isotropic =    23.8905   Anisotropy =     7.5671
   XX=    24.5502   YX=     3.3156   ZX=     1.1249
   XY=     3.1969   YY=    25.6584   ZY=     2.0730
   XZ=     0.4043   YZ=     1.8123   ZZ=    21.4629
   Eigenvalues:    20.5923    22.1439    28.9352
     17  H    Isotropic =    23.6813   Anisotropy =     5.0655
   XX=    24.0381   YX=     2.2326   ZX=    -1.5111
   XY=     2.3487   YY=    25.3183   ZY=     1.0884
   XZ=    -1.3545   YZ=     1.3019   ZZ=    21.6874
   Eigenvalues:    20.1041    23.8815    27.0582
     18  H    Isotropic =    23.9199   Anisotropy =     5.3080
   XX=    25.3425   YX=     2.0667   ZX=    -2.3304
   XY=     2.1838   YY=    23.5953   ZY=     0.7260
   XZ=    -2.4504   YZ=     0.4165   ZZ=    22.8218
   Eigenvalues:    20.4674    23.8337    27.4585
     19  H    Isotropic =    23.5242   Anisotropy =     9.5539
   XX=    26.7238   YX=     1.5008   ZX=    -4.5264
   XY=     2.4556   YY=    21.4876   ZY=    -0.6639
   XZ=    -4.1464   YZ=    -0.6975   ZZ=    22.3612
   Eigenvalues:    19.5496    21.1295    29.8935
     20  H    Isotropic =    23.8461   Anisotropy =     4.2698
   XX=    23.7517   YX=     0.4294   ZX=    -2.1935
   XY=     0.4512   YY=    24.3970   ZY=     2.1716
   XZ=    -2.1924   YZ=     2.3419   ZZ=    23.3896
   Eigenvalues:    20.3543    24.4914    26.6927
     21  H    Isotropic =    26.7051   Anisotropy =     6.7834
   XX=    24.7065   YX=    -2.5835   ZX=    -0.9209
   XY=    -1.7469   YY=    29.2078   ZY=     2.4655
   XZ=    -1.6908   YZ=     1.6464   ZZ=    26.2012
   Eigenvalues:    23.7107    25.1773    31.2274
     22  H    Isotropic =    28.5960   Anisotropy =     5.0716
   XX=    29.7520   YX=     1.7094   ZX=    -3.0636
   XY=    -0.2550   YY=    25.8963   ZY=     0.8018
   XZ=    -0.9780   YZ=     0.3012   ZZ=    30.1398
   Eigenvalues:    25.5465    28.2645    31.9771
     23  H    Isotropic =    27.7606   Anisotropy =     7.3091
   XX=    27.6570   YX=    -0.9390   ZX=     1.5688
   XY=    -1.3387   YY=    29.1183   ZY=     5.7748
   XZ=     2.3307   YZ=     3.4731   ZZ=    26.5064
   Eigenvalues:    22.1016    28.5467    32.6333
     24  H    Isotropic =    27.1570   Anisotropy =     5.5862
   XX=    27.8153   YX=    -0.1992   ZX=    -0.9849
   XY=    -0.3387   YY=    30.4874   ZY=    -2.5251
   XZ=    -0.5280   YZ=    -0.9461   ZZ=    23.1683
   Eigenvalues:    22.6545    27.9353    30.8812
     25  H    Isotropic =    29.1846   Anisotropy =    18.6213
   XX=    27.8985   YX=     2.4227   ZX=    -5.2319
   XY=     4.2360   YY=    31.4090   ZY=    -8.8686
   XZ=    -4.6987   YZ=    -9.5387   ZZ=    28.2464
   Eigenvalues:    20.0443    25.9107    41.5988
     26  H    Isotropic =    29.9479   Anisotropy =     8.9069
   XX=    28.6916   YX=     0.2831   ZX=     0.2365
   XY=    -0.7407   YY=    35.8401   ZY=     0.5120
   XZ=     0.8124   YZ=     0.7931   ZZ=    25.3119
   Eigenvalues:    25.1890    28.7688    35.8858
     27  H    Isotropic =    30.3214   Anisotropy =     9.4223
   XX=    32.6447   YX=     2.5853   ZX=     4.5342
   XY=     2.4379   YY=    28.9025   ZY=     1.1939
   XZ=     4.0723   YZ=     1.1714   ZZ=    29.4171
   Eigenvalues:    26.3169    28.0444    36.6029
     28  H    Isotropic =    30.4096   Anisotropy =     7.8126
   XX=    30.7541   YX=     1.1647   ZX=    -4.9532
   XY=     1.0904   YY=    29.0786   ZY=    -0.8400
   XZ=    -3.9004   YZ=     0.6916   ZZ=    31.3961
   Eigenvalues:    26.4055    29.2053    35.6180
     29  H    Isotropic =    30.5035   Anisotropy =     8.1136
   XX=    32.5494   YX=     1.9863   ZX=    -3.9979
   XY=     1.2296   YY=    29.0028   ZY=    -3.1199
   XZ=    -2.4422   YZ=    -2.1993   ZZ=    29.9582
   Eigenvalues:    26.5941    29.0038    35.9125
     30  H    Isotropic =    30.6864   Anisotropy =    11.7346
   XX=    33.0284   YX=    -6.0182   ZX=     0.1337
   XY=    -5.1966   YY=    32.7211   ZY=    -0.3157
   XZ=     0.7026   YZ=    -0.4140   ZZ=    26.3096
   Eigenvalues:    26.2835    27.2662    38.5095
     31  H    Isotropic =    30.3763   Anisotropy =     6.6457
   XX=    31.9621   YX=    -0.2104   ZX=     2.5933
   XY=    -0.0159   YY=    27.3821   ZY=     3.3638
   XZ=     2.0367   YZ=     2.6326   ZZ=    31.7846
   Eigenvalues:    25.6369    30.6851    34.8067
 End of Minotr Frequency-dependent properties file   721 does not exist.
 End of Minotr Frequency-dependent properties file   722 does not exist.

 **********************************************************************

            Population analysis using the SCF density.

 **********************************************************************

 Orbital symmetries:
       Occupied  (A) (A) (A) (A) (A) (A) (A) (A) (A) (A) (A) (A)
                 (A) (A) (A) (A) (A) (A) (A) (A) (A) (A) (A) (A)
                 (A) (A) (A) (A) (A) (A) (A) (A) (A) (A) (A) (A)
                 (A) (A) (A) (A) (A) (A) (A) (A) (A) (A) (A) (A)
                 (A) (A) (A) (A) (A) (A) (A) (A)
       Virtual   (A) (A) (A) (A) (A) (A) (A) (A) (A) (A) (A) (A)
                 (A) (A) (A) (A) (A) (A) (A) (A) (A) (A) (A) (A)
                 (A) (A) (A) (A) (A) (A) (A) (A) (A) (A) (A) (A)
                 (A) (A) (A) (A) (A) (A) (A) (A) (A) (A) (A) (A)
                 (A) (A) (A) (A) (A) (A) (A) (A) (A) (A) (A) (A)
                 (A) (A) (A) (A) (A) (A) (A) (A) (A) (A) (A) (A)
                 (A) (A) (A) (A) (A) (A) (A) (A) (A) (A) (A) (A)
                 (A) (A) (A) (A) (A) (A) (A) (A) (A) (A) (A) (A)
                 (A) (A) (A) (A) (A) (A) (A) (A) (A) (A) (A) (A)
                 (A) (A) (A) (A) (A) (A) (A) (A) (A) (A) (A) (A)
                 (A) (A) (A) (A) (A) (A) (A) (A) (A) (A) (A) (A)
                 (A) (A) (A) (A) (A) (A) (A) (A) (A) (A) (A) (A)
                 (A) (A) (A) (A) (A) (A) (A) (A) (A) (A) (A) (A)
                 (A) (A) (A) (A) (A) (A) (A) (A) (A) (A) (A) (A)
                 (A) (A) (A) (A) (A) (A) (A) (A) (A) (A) (A) (A)
                 (A) (A) (A) (A) (A) (A) (A) (A) (A) (A) (A) (A)
                 (A) (A) (A) (A) (A) (A) (A) (A) (A) (A) (A) (A)
                 (A) (A) (A) (A) (A) (A) (A) (A) (A) (A) (A) (A)
                 (A) (A) (A) (A) (A) (A) (A) (A) (A) (A) (A) (A)
                 (A) (A) (A) (A) (A) (A) (A) (A) (A) (A) (A) (A)
                 (A) (A) (A) (A) (A) (A) (A) (A) (A) (A) (A) (A)
                 (A) (A) (A) (A) (A) (A) (A) (A) (A) (A) (A) (A)
                 (A) (A) (A) (A) (A) (A) (A) (A) (A) (A) (A) (A)
                 (A) (A) (A) (A) (A) (A) (A) (A) (A) (A) (A) (A)
                 (A) (A) (A) (A) (A) (A) (A) (A) (A) (A) (A) (A)
                 (A) (A) (A) (A) (A) (A) (A) (A) (A)
 The electronic state is 1-A.
 Alpha  occ. eigenvalues --  -19.32902 -19.28320 -19.27512 -10.44060 -10.36042
 Alpha  occ. eigenvalues --  -10.35122 -10.31724 -10.31447 -10.30647 -10.30555
 Alpha  occ. eigenvalues --  -10.30522 -10.30497 -10.30404 -10.29419 -10.28714
 Alpha  occ. eigenvalues --   -1.21017  -1.13077  -1.12442  -0.96152  -0.91511
 Alpha  occ. eigenvalues --   -0.86550  -0.85424  -0.84610  -0.77983  -0.75778
 Alpha  occ. eigenvalues --   -0.71528  -0.70138  -0.67567  -0.64835  -0.61557
 Alpha  occ. eigenvalues --   -0.60759  -0.59255  -0.57519  -0.56100  -0.54646
 Alpha  occ. eigenvalues --   -0.53751  -0.52494  -0.51538  -0.51148  -0.50164
 Alpha  occ. eigenvalues --   -0.48644  -0.48538  -0.46995  -0.46226  -0.44931
 Alpha  occ. eigenvalues --   -0.44834  -0.44467  -0.43585  -0.42351  -0.42023
 Alpha  occ. eigenvalues --   -0.40576  -0.38831  -0.37606  -0.35418  -0.33154
 Alpha  occ. eigenvalues --   -0.32654
 Alpha virt. eigenvalues --    0.04933   0.05541   0.06538   0.06914   0.07517
 Alpha virt. eigenvalues --    0.08299   0.08571   0.09606   0.09768   0.10405
 Alpha virt. eigenvalues --    0.10502   0.11016   0.11526   0.12640   0.12804
 Alpha virt. eigenvalues --    0.13191   0.13909   0.14212   0.14997   0.15011
 Alpha virt. eigenvalues --    0.15494   0.16227   0.16732   0.17443   0.18246
 Alpha virt. eigenvalues --    0.18441   0.18640   0.19501   0.19747   0.20303
 Alpha virt. eigenvalues --    0.20417   0.21200   0.22240   0.22647   0.22956
 Alpha virt. eigenvalues --    0.23137   0.23793   0.24352   0.24565   0.24823
 Alpha virt. eigenvalues --    0.25431   0.25815   0.26348   0.26680   0.27109
 Alpha virt. eigenvalues --    0.27551   0.28260   0.28436   0.29338   0.29630
 Alpha virt. eigenvalues --    0.29947   0.30196   0.30375   0.30672   0.31105
 Alpha virt. eigenvalues --    0.31552   0.32084   0.32747   0.33034   0.33448
 Alpha virt. eigenvalues --    0.34107   0.34303   0.34920   0.35143   0.35516
 Alpha virt. eigenvalues --    0.36693   0.37567   0.37750   0.38238   0.38456
 Alpha virt. eigenvalues --    0.39190   0.40094   0.40258   0.40799   0.41321
 Alpha virt. eigenvalues --    0.42511   0.43114   0.44092   0.44505   0.44765
 Alpha virt. eigenvalues --    0.45101   0.45946   0.46697   0.47184   0.47672
 Alpha virt. eigenvalues --    0.48554   0.50101   0.50912   0.52076   0.54794
 Alpha virt. eigenvalues --    0.56255   0.57988   0.60844   0.66753   0.69669
 Alpha virt. eigenvalues --    0.73000   0.73475   0.74516   0.74937   0.76375
 Alpha virt. eigenvalues --    0.77409   0.78197   0.78343   0.80239   0.81189
 Alpha virt. eigenvalues --    0.82522   0.82968   0.83189   0.83512   0.84413
 Alpha virt. eigenvalues --    0.86261   0.87084   0.88392   0.89714   0.90914
 Alpha virt. eigenvalues --    0.91067   0.92618   0.93630   0.94841   0.96546
 Alpha virt. eigenvalues --    0.97723   0.98943   1.00122   1.02255   1.02464
 Alpha virt. eigenvalues --    1.03441   1.04014   1.05192   1.06080   1.07945
 Alpha virt. eigenvalues --    1.08329   1.08859   1.09778   1.11228   1.12353
 Alpha virt. eigenvalues --    1.13525   1.14705   1.16008   1.18055   1.20109
 Alpha virt. eigenvalues --    1.20201   1.20869   1.21990   1.22721   1.23814
 Alpha virt. eigenvalues --    1.25277   1.27123   1.27790   1.29221   1.30316
 Alpha virt. eigenvalues --    1.31461   1.34100   1.35700   1.36128   1.37998
 Alpha virt. eigenvalues --    1.39484   1.41097   1.42434   1.43715   1.43940
 Alpha virt. eigenvalues --    1.45654   1.47357   1.48008   1.50069   1.50955
 Alpha virt. eigenvalues --    1.51291   1.52375   1.53139   1.54970   1.57103
 Alpha virt. eigenvalues --    1.58590   1.60492   1.63365   1.64443   1.65822
 Alpha virt. eigenvalues --    1.68761   1.69669   1.73080   1.74305   1.76743
 Alpha virt. eigenvalues --    1.78762   1.78879   1.85065   1.86072   1.87308
 Alpha virt. eigenvalues --    1.89406   1.90969   1.92158   1.94664   1.95914
 Alpha virt. eigenvalues --    1.97282   1.98328   1.99566   2.00704   2.01442
 Alpha virt. eigenvalues --    2.01723   2.03121   2.04467   2.05066   2.06901
 Alpha virt. eigenvalues --    2.07786   2.08882   2.09503   2.10578   2.10944
 Alpha virt. eigenvalues --    2.12199   2.13858   2.14498   2.15461   2.18062
 Alpha virt. eigenvalues --    2.18650   2.19251   2.20988   2.21644   2.23377
 Alpha virt. eigenvalues --    2.24465   2.25780   2.27322   2.29496   2.30546
 Alpha virt. eigenvalues --    2.33274   2.36724   2.38067   2.39066   2.40672
 Alpha virt. eigenvalues --    2.41681   2.42648   2.45061   2.48180   2.48542
 Alpha virt. eigenvalues --    2.49550   2.50072   2.51405   2.52402   2.55702
 Alpha virt. eigenvalues --    2.56629   2.56696   2.57797   2.58867   2.61090
 Alpha virt. eigenvalues --    2.62451   2.64093   2.64579   2.66651   2.68735
 Alpha virt. eigenvalues --    2.69091   2.71830   2.72790   2.73323   2.75356
 Alpha virt. eigenvalues --    2.76822   2.79508   2.80365   2.81397   2.82519
 Alpha virt. eigenvalues --    2.84173   2.85510   2.86316   2.86481   2.89514
 Alpha virt. eigenvalues --    2.90565   2.92646   2.94776   2.96972   2.97585
 Alpha virt. eigenvalues --    2.97964   3.01143   3.03374   3.07117   3.09803
 Alpha virt. eigenvalues --    3.11486   3.14441   3.16686   3.20940   3.25391
 Alpha virt. eigenvalues --    3.27725   3.30848   3.36854   3.37542   3.38716
 Alpha virt. eigenvalues --    3.38987   3.43585   3.45181   3.48867   3.51808
 Alpha virt. eigenvalues --    3.54234   3.57984   3.59052   3.60559   3.62753
 Alpha virt. eigenvalues --    3.63095   3.65617   3.68388   3.99958   4.40816
 Alpha virt. eigenvalues --    4.42555   4.44560   4.50137   4.51404   4.56008
 Alpha virt. eigenvalues --    4.59084   4.62034   4.63758   4.66134   4.76464
 Alpha virt. eigenvalues --    4.80458   4.82535   4.93985   4.97704
          Condensed to atoms (all electrons):
              1          2          3          4          5          6
     1  C   19.964371  -0.916808  -1.892860  -6.428877  -9.375952   0.346951
     2  C   -0.916808   6.853240   0.405687   0.055135   0.094127   0.271743
     3  C   -1.892860   0.405687   7.071789   1.196625   0.199192   0.282568
     4  C   -6.428877   0.055135   1.196625  18.501414  -0.859200  -1.110617
     5  C   -9.375952   0.094127   0.199192  -0.859200  17.663284   0.515875
     6  C    0.346951   0.271743   0.282568  -1.110617   0.515875   5.466284
     7  C    5.115425  -1.063170  -1.501116  -6.841096  -3.084819   0.134281
     8  C   -1.450338   0.156490   0.093731   1.009671   1.284593  -0.025271
     9  C   -0.004678   0.097389   0.092073   0.713607  -0.195180  -0.018910
    10  O    0.159211  -0.007898  -0.011873  -0.058304  -0.074552   0.003392
    11  C    0.055986   0.004537   0.010865  -0.000759  -0.031817  -0.000703
    12  O   -0.088875   0.086936  -0.034311   0.193784   0.032515  -0.002703
    13  C    0.161441  -0.042002  -0.026014  -0.475121  -0.206730   0.002673
    14  O   -0.040165   0.005577   0.014211   0.053538  -0.016905  -0.003451
    15  C    0.019638   0.000665  -0.000348  -0.012650  -0.008197   0.001433
    16  H    0.169031   0.007579   0.053113   0.107626  -0.016596  -0.013229
    17  H    0.014981   0.259918  -0.009596   0.039727   0.014884   0.005052
    18  H    0.039484  -0.005917   0.253326   0.003976   0.001273   0.031545
    19  H    0.035636  -0.040431  -0.004236   0.042970   0.221205  -0.014047
    20  H   -0.001162   0.022460   0.032424   0.001701  -0.012389   0.283071
    21  H    0.225482  -0.001516   0.053670   0.050280  -0.194186  -0.002267
    22  H    0.086389  -0.027295   0.001745   0.069964  -0.156407  -0.002879
    23  H    0.009744  -0.000223   0.003169  -0.016455  -0.002184   0.000696
    24  H    0.001595   0.001051   0.002114   0.005583  -0.002057  -0.000666
    25  H    0.004491  -0.008229   0.001666  -0.038490   0.014443   0.000801
    26  H   -0.008838   0.003399   0.000284  -0.001477   0.020916  -0.000020
    27  H    0.000427  -0.000221  -0.000205  -0.006489  -0.003914   0.000019
    28  H    0.016797  -0.001283   0.000081  -0.022960  -0.017352  -0.000012
    29  H   -0.000417   0.000018  -0.000158   0.001318   0.000207  -0.000005
    30  H    0.000493   0.000007   0.000174  -0.000590  -0.000132   0.000001
    31  H    0.000471  -0.000025   0.000112  -0.001061  -0.000208   0.000013
              7          8          9         10         11         12
     1  C    5.115425  -1.450338  -0.004678   0.159211   0.055986  -0.088875
     2  C   -1.063170   0.156490   0.097389  -0.007898   0.004537   0.086936
     3  C   -1.501116   0.093731   0.092073  -0.011873   0.010865  -0.034311
     4  C   -6.841096   1.009671   0.713607  -0.058304  -0.000759   0.193784
     5  C   -3.084819   1.284593  -0.195180  -0.074552  -0.031817   0.032515
     6  C    0.134281  -0.025271  -0.018910   0.003392  -0.000703  -0.002703
     7  C   15.083675  -1.992218  -0.943165   0.021451  -0.072144  -0.152833
     8  C   -1.992218   8.560916  -0.534155  -0.453052   0.003146   0.056823
     9  C   -0.943165  -0.534155   6.133530   0.444043  -0.111536   0.067680
    10  O    0.021451  -0.453052   0.444043   8.456221   0.063707  -0.005956
    11  C   -0.072144   0.003146  -0.111536   0.063707   5.243929  -0.001206
    12  O   -0.152833   0.056823   0.067680  -0.005956  -0.001206   8.320019
    13  C    0.880196  -0.644520  -0.409671  -0.032355  -0.039780  -0.104350
    14  O   -0.040322  -0.035912   0.623601  -0.159679   0.024154  -0.001130
    15  C    0.000081  -0.068165   0.019152  -0.033424   0.179323   0.000169
    16  H    0.002877  -0.003132   0.000961   0.000192   0.002353  -0.000098
    17  H    0.002424  -0.001121   0.000517   0.000003   0.000016  -0.000009
    18  H    0.003200  -0.001244   0.000746  -0.000036   0.000094   0.000011
    19  H    0.072021  -0.005323  -0.003707  -0.000097  -0.000172   0.001385
    20  H    0.000942  -0.000208  -0.000127   0.000001  -0.000042  -0.000003
    21  H    0.142511   0.015138   0.032045   0.013663   0.007617  -0.042516
    22  H    0.054592   0.290605  -0.015373   0.013339   0.003147  -0.003829
    23  H    0.008018  -0.009028   0.010247  -0.060702   0.402459  -0.000012
    24  H   -0.013831   0.017301  -0.013241  -0.037008   0.393472   0.000004
    25  H    0.108017  -0.088400  -0.016545  -0.000331  -0.000514   0.240872
    26  H   -0.054367  -0.026256  -0.017787  -0.000690   0.000014   0.013368
    27  H    0.058983  -0.140824   0.005498  -0.001491  -0.002703  -0.000046
    28  H    0.048783  -0.104038  -0.009588   0.007130   0.003251  -0.006399
    29  H   -0.002491   0.008344   0.005912  -0.004947  -0.050465   0.000003
    30  H   -0.000084   0.002911   0.003130   0.007228  -0.053721   0.000000
    31  H    0.001223  -0.010036   0.002965  -0.005147  -0.058453  -0.000001
             13         14         15         16         17         18
     1  C    0.161441  -0.040165   0.019638   0.169031   0.014981   0.039484
     2  C   -0.042002   0.005577   0.000665   0.007579   0.259918  -0.005917
     3  C   -0.026014   0.014211  -0.000348   0.053113  -0.009596   0.253326
     4  C   -0.475121   0.053538  -0.012650   0.107626   0.039727   0.003976
     5  C   -0.206730  -0.016905  -0.008197  -0.016596   0.014884   0.001273
     6  C    0.002673  -0.003451   0.001433  -0.013229   0.005052   0.031545
     7  C    0.880196  -0.040322   0.000081   0.002877   0.002424   0.003200
     8  C   -0.644520  -0.035912  -0.068165  -0.003132  -0.001121  -0.001244
     9  C   -0.409671   0.623601   0.019152   0.000961   0.000517   0.000746
    10  O   -0.032355  -0.159679  -0.033424   0.000192   0.000003  -0.000036
    11  C   -0.039780   0.024154   0.179323   0.002353   0.000016   0.000094
    12  O   -0.104350  -0.001130   0.000169  -0.000098  -0.000009   0.000011
    13  C    6.248513  -0.049610   0.011878   0.000302   0.000094   0.000065
    14  O   -0.049610   8.149382  -0.056423  -0.000279  -0.000007  -0.000020
    15  C    0.011878  -0.056423   5.306663   0.001687   0.000000   0.000086
    16  H    0.000302  -0.000279   0.001687   0.519826   0.000011  -0.003868
    17  H    0.000094  -0.000007   0.000000   0.000011   0.496342  -0.000122
    18  H    0.000065  -0.000020   0.000086  -0.003868  -0.000122   0.498837
    19  H    0.014053  -0.000180  -0.000022  -0.000112  -0.003950   0.000011
    20  H   -0.000024   0.000005  -0.000003  -0.000126  -0.003823  -0.003892
    21  H   -0.040585  -0.000171   0.000763   0.002453   0.000002  -0.000007
    22  H   -0.012186  -0.004731  -0.000235  -0.000002   0.000003   0.000000
    23  H    0.003360   0.000453  -0.019631   0.000024   0.000000   0.000000
    24  H   -0.001700   0.001159  -0.021247  -0.000028   0.000000   0.000000
    25  H    0.038069   0.000046  -0.000085  -0.000001   0.000000   0.000000
    26  H    0.438066   0.000016  -0.000377   0.000000   0.000000   0.000000
    27  H    0.448099   0.001306  -0.000119   0.000000   0.000000   0.000000
    28  H    0.435075   0.000117   0.000175   0.000000   0.000000   0.000000
    29  H   -0.003286  -0.000504   0.409311   0.000000   0.000000   0.000000
    30  H   -0.000055  -0.000103   0.404916   0.000000   0.000000   0.000000
    31  H    0.003238   0.001753   0.429778   0.000000   0.000000   0.000000
             19         20         21         22         23         24
     1  C    0.035636  -0.001162   0.225482   0.086389   0.009744   0.001595
     2  C   -0.040431   0.022460  -0.001516  -0.027295  -0.000223   0.001051
     3  C   -0.004236   0.032424   0.053670   0.001745   0.003169   0.002114
     4  C    0.042970   0.001701   0.050280   0.069964  -0.016455   0.005583
     5  C    0.221205  -0.012389  -0.194186  -0.156407  -0.002184  -0.002057
     6  C   -0.014047   0.283071  -0.002267  -0.002879   0.000696  -0.000666
     7  C    0.072021   0.000942   0.142511   0.054592   0.008018  -0.013831
     8  C   -0.005323  -0.000208   0.015138   0.290605  -0.009028   0.017301
     9  C   -0.003707  -0.000127   0.032045  -0.015373   0.010247  -0.013241
    10  O   -0.000097   0.000001   0.013663   0.013339  -0.060702  -0.037008
    11  C   -0.000172  -0.000042   0.007617   0.003147   0.402459   0.393472
    12  O    0.001385  -0.000003  -0.042516  -0.003829  -0.000012   0.000004
    13  C    0.014053  -0.000024  -0.040585  -0.012186   0.003360  -0.001700
    14  O   -0.000180   0.000005  -0.000171  -0.004731   0.000453   0.001159
    15  C   -0.000022  -0.000003   0.000763  -0.000235  -0.019631  -0.021247
    16  H   -0.000112  -0.000126   0.002453  -0.000002   0.000024  -0.000028
    17  H   -0.003950  -0.003823   0.000002   0.000003   0.000000   0.000000
    18  H    0.000011  -0.003892  -0.000007   0.000000   0.000000   0.000000
    19  H    0.504956  -0.000119  -0.000053  -0.000262   0.000000   0.000000
    20  H   -0.000119   0.499196   0.000000   0.000000   0.000000   0.000000
    21  H   -0.000053   0.000000   0.578510   0.003863   0.000026   0.000010
    22  H   -0.000262   0.000000   0.003863   0.501189   0.000002   0.000000
    23  H    0.000000   0.000000   0.000026   0.000002   0.531249  -0.031114
    24  H    0.000000   0.000000   0.000010   0.000000  -0.031114   0.520142
    25  H    0.000043   0.000000  -0.009361  -0.000119   0.000000   0.000000
    26  H   -0.000001   0.000000   0.000064  -0.004168   0.000000   0.000000
    27  H    0.000002   0.000000  -0.000037  -0.002424   0.000000  -0.000002
    28  H   -0.000001   0.000000   0.002538   0.003961   0.000000  -0.000004
    29  H    0.000000   0.000000   0.000000   0.000000  -0.005171   0.003782
    30  H    0.000000   0.000000   0.000000   0.000000  -0.001235  -0.001054
    31  H    0.000000   0.000000   0.000000   0.000002   0.003933  -0.004789
             25         26         27         28         29         30
     1  C    0.004491  -0.008838   0.000427   0.016797  -0.000417   0.000493
     2  C   -0.008229   0.003399  -0.000221  -0.001283   0.000018   0.000007
     3  C    0.001666   0.000284  -0.000205   0.000081  -0.000158   0.000174
     4  C   -0.038490  -0.001477  -0.006489  -0.022960   0.001318  -0.000590
     5  C    0.014443   0.020916  -0.003914  -0.017352   0.000207  -0.000132
     6  C    0.000801  -0.000020   0.000019  -0.000012  -0.000005   0.000001
     7  C    0.108017  -0.054367   0.058983   0.048783  -0.002491  -0.000084
     8  C   -0.088400  -0.026256  -0.140824  -0.104038   0.008344   0.002911
     9  C   -0.016545  -0.017787   0.005498  -0.009588   0.005912   0.003130
    10  O   -0.000331  -0.000690  -0.001491   0.007130  -0.004947   0.007228
    11  C   -0.000514   0.000014  -0.002703   0.003251  -0.050465  -0.053721
    12  O    0.240872   0.013368  -0.000046  -0.006399   0.000003   0.000000
    13  C    0.038069   0.438066   0.448099   0.435075  -0.003286  -0.000055
    14  O    0.000046   0.000016   0.001306   0.000117  -0.000504  -0.000103
    15  C   -0.000085  -0.000377  -0.000119   0.000175   0.409311   0.404916
    16  H   -0.000001   0.000000   0.000000   0.000000   0.000000   0.000000
    17  H    0.000000   0.000000   0.000000   0.000000   0.000000   0.000000
    18  H    0.000000   0.000000   0.000000   0.000000   0.000000   0.000000
    19  H    0.000043  -0.000001   0.000002  -0.000001   0.000000   0.000000
    20  H    0.000000   0.000000   0.000000   0.000000   0.000000   0.000000
    21  H   -0.009361   0.000064  -0.000037   0.002538   0.000000   0.000000
    22  H   -0.000119  -0.004168  -0.002424   0.003961   0.000000   0.000000
    23  H    0.000000   0.000000   0.000000   0.000000  -0.005171  -0.001235
    24  H    0.000000   0.000000  -0.000002  -0.000004   0.003782  -0.001054
    25  H    0.352751  -0.001089  -0.000005   0.000369   0.000000   0.000000
    26  H   -0.001089   0.501329  -0.022036  -0.026158   0.000000   0.000000
    27  H   -0.000005  -0.022036   0.504904  -0.023757  -0.000013   0.000000
    28  H    0.000369  -0.026158  -0.023757   0.510748  -0.000008   0.000000
    29  H    0.000000   0.000000  -0.000013  -0.000008   0.517488  -0.022789
    30  H    0.000000   0.000000   0.000000   0.000000  -0.022789   0.504613
    31  H    0.000000   0.000000  -0.000015  -0.000001  -0.029503  -0.021939
             31
     1  C    0.000471
     2  C   -0.000025
     3  C    0.000112
     4  C   -0.001061
     5  C   -0.000208
     6  C    0.000013
     7  C    0.001223
     8  C   -0.010036
     9  C    0.002965
    10  O   -0.005147
    11  C   -0.058453
    12  O   -0.000001
    13  C    0.003238
    14  O    0.001753
    15  C    0.429778
    16  H    0.000000
    17  H    0.000000
    18  H    0.000000
    19  H    0.000000
    20  H    0.000000
    21  H    0.000000
    22  H    0.000002
    23  H    0.003933
    24  H   -0.004789
    25  H    0.000000
    26  H    0.000000
    27  H   -0.000015
    28  H   -0.000001
    29  H   -0.029503
    30  H   -0.021939
    31  H    0.507468
 Mulliken atomic charges:
              1
     1  C   -0.219076
     2  C   -0.210940
     3  C   -0.287904
     4  C   -0.172771
     5  C    0.196264
     6  C   -0.151620
     7  C    0.022953
     8  C    0.093571
     9  C    0.040563
    10  O   -0.242040
    11  C    0.025945
    12  O   -0.569291
    13  C   -0.597132
    14  O   -0.465723
    15  C   -0.564789
    16  H    0.169434
    17  H    0.184653
    18  H    0.182452
    19  H    0.180428
    20  H    0.182118
    21  H    0.162064
    22  H    0.201109
    23  H    0.172375
    24  H    0.180528
    25  H    0.401600
    26  H    0.185806
    27  H    0.185061
    28  H    0.182536
    29  H    0.173373
    30  H    0.178230
    31  H    0.180221
 Sum of Mulliken atomic charges =   0.00000
 Mulliken charges with hydrogens summed into heavy atoms:
              1
     1  C   -0.049641
     2  C   -0.026288
     3  C   -0.105452
     4  C   -0.172771
     5  C    0.376692
     6  C    0.030498
     7  C    0.185017
     8  C    0.294680
     9  C    0.040563
    10  O   -0.242040
    11  C    0.378849
    12  O   -0.167691
    13  C   -0.043729
    14  O   -0.465723
    15  C   -0.032965
 Sum of Mulliken charges with hydrogens summed into heavy atoms =   0.00000
 Electronic spatial extent (au):  <R**2>=           3536.9292
 Charge=              0.0000 electrons
 Dipole moment (field-independent basis, Debye):
    X=              2.1955    Y=             -0.2027    Z=             -3.1198  Tot=              3.8203
 Quadrupole moment (field-independent basis, Debye-Ang):
   XX=            -85.4717   YY=            -79.8802   ZZ=            -92.9151
   XY=              5.0832   XZ=             -9.8853   YZ=              3.1750
 Traceless Quadrupole moment (field-independent basis, Debye-Ang):
   XX=              0.6173   YY=              6.2088   ZZ=             -6.8261
   XY=              5.0832   XZ=             -9.8853   YZ=              3.1750
 Octapole moment (field-independent basis, Debye-Ang**2):
  XXX=             27.1303  YYY=              0.7375  ZZZ=            -21.5058  XYY=             22.6427
  XXY=            -28.1683  XXZ=             15.1576  XZZ=             -3.2562  YZZ=             14.4079
  YYZ=            -16.8509  XYZ=             -1.6295
 Hexadecapole moment (field-independent basis, Debye-Ang**3):
 XXXX=          -2886.1102 YYYY=          -1205.8037 ZZZZ=           -475.7551 XXXY=              6.1600
 XXXZ=           -105.9410 YYYX=             20.2565 YYYZ=            -26.4005 ZZZX=            -31.7941
 ZZZY=             -7.6174 XXYY=           -658.3690 XXZZ=           -585.3658 YYZZ=           -259.7790
 XXYZ=             20.1378 YYXZ=             -7.7716 ZZXY=             -2.1194
 N-N= 1.017365179979D+03 E-N=-3.646696628544D+03  KE= 6.859061343636D+02
 1\1\GINC-COMPUTE-8-12\SP\RwB97XD\6-31+G(d,p)\C12H16O3\ELUCIANO.IQUIR\1
 7-May-2022\0\\# wb97xd/6-31+g** scrf=(pcm,solvent=chloroform,smd,dovac
 uum) nmr\\comment\\0,1\C,0,1.076961101,1.110017808,-1.562573442\C,0,-0
 .490014408,3.415446431,-1.619601234\C,0,0.816764104,1.750144751,-2.775
 906015\C,0,0.554839295,1.614350621,-0.36115978\C,0,-0.231216576,2.7761
 84346,-0.406136711\C,0,0.032830487,2.901495437,-2.804021512\C,0,0.8182
 83503,0.895174244,0.947358364\C,0,-0.417639389,0.150768349,1.477862312
 \C,0,-0.880906627,-0.920200499,0.514047463\O,0,0.149799471,-1.72834679
 2,0.136849827\C,0,-0.191134096,-2.793367976,-0.763451978\O,0,1.2408970
 78,1.878180867,1.900333612\C,0,-0.175717553,-0.48944554,2.845596378\O,
 0,-2.048525184,-1.070638554,0.178004138\C,0,-0.640006784,-4.013296757,
 0.018449857\H,0,1.690203602,0.211651678,-1.563394872\H,0,-1.098459914,
 4.315688885,-1.638214413\H,0,1.225945306,1.350447857,-3.699969182\H,0,
 -0.638988804,3.193042909,0.512827305\H,0,-0.169269783,3.399891428,-3.7
 4824244\H,0,1.663949084,0.208632128,0.813927525\H,0,-1.245520582,0.863
 107582,1.593820475\H,0,0.713784506,-3.032495713,-1.331598838\H,0,-0.95
 066007,-2.476924459,-1.487532565\H,0,1.804287182,1.427698032,2.5511180
 49\H,0,0.000800638,0.270982192,3.612868934\H,0,-1.042788081,-1.0824127
 68,3.157438501\H,0,0.690315303,-1.160143294,2.824015708\H,0,0.13143867
 1,-4.31624106,0.73403652\H,0,-0.846354782,-4.85071663,-0.653967917\H,0
 ,-1.543896695,-3.798675501,0.597215927\\Version=EM64L-G09RevC.01\State
 =1-A\HF=-692.4450786\RMSD=2.715e-09\Dipole=1.0706291,-1.0375919,0.1902
 215\Quadrupole=-7.595215,1.0204216,6.5747933,-6.6697144,0.8743373,-1.1
 314917\PG=C01 [X(C12H16O3)]\\@


 REALITY IS FOR PEOPLE WHO CAN'T FACE SCIENCE FICTION.
 Job cpu time:  0 days  2 hours 11 minutes 36.3 seconds.
 File lengths (MBytes):  RWF=    124 Int=      0 D2E=      0 Chk=      9 Scr=      1
 Normal termination of Gaussian 09 at Tue May 17 20:20:23 2022.
