 Entering Gaussian System, Link 0=g09
 Input=/home/eluciano.iquir/wb9/73b_008.gjc
 Output=/home/eluciano.iquir/wb9/73b_008.log
 Initial command:
 /share/apps/Gaussian09/EM64T.SSE4.2-enabled/g09/l1.exe /tmp/Gau-63347.inp -scrdir=/tmp/
 Entering Link 1 = /share/apps/Gaussian09/EM64T.SSE4.2-enabled/g09/l1.exe PID=     63348.
  
 Copyright (c) 1988,1990,1992,1993,1995,1998,2003,2009,2011,
            Gaussian, Inc.  All Rights Reserved.
  
 This is part of the Gaussian(R) 09 program.  It is based on
 the Gaussian(R) 03 system (copyright 2003, Gaussian, Inc.),
 the Gaussian(R) 98 system (copyright 1998, Gaussian, Inc.),
 the Gaussian(R) 94 system (copyright 1995, Gaussian, Inc.),
 the Gaussian 92(TM) system (copyright 1992, Gaussian, Inc.),
 the Gaussian 90(TM) system (copyright 1990, Gaussian, Inc.),
 the Gaussian 88(TM) system (copyright 1988, Gaussian, Inc.),
 the Gaussian 86(TM) system (copyright 1986, Carnegie Mellon
 University), and the Gaussian 82(TM) system (copyright 1983,
 Carnegie Mellon University). Gaussian is a federally registered
 trademark of Gaussian, Inc.
  
 This software contains proprietary and confidential information,
 including trade secrets, belonging to Gaussian, Inc.
  
 This software is provided under written license and may be
 used, copied, transmitted, or stored only in accord with that
 written license.
  
 The following legend is applicable only to US Government
 contracts under FAR:
  
                    RESTRICTED RIGHTS LEGEND
  
 Use, reproduction and disclosure by the US Government is
 subject to restrictions as set forth in subparagraphs (a)
 and (c) of the Commercial Computer Software - Restricted
 Rights clause in FAR 52.227-19.
  
 Gaussian, Inc.
 340 Quinnipiac St., Bldg. 40, Wallingford CT 06492
  
  
 ---------------------------------------------------------------
 Warning -- This program may not be used in any manner that
 competes with the business of Gaussian, Inc. or will provide
 assistance to any competitor of Gaussian, Inc.  The licensee
 of this program is prohibited from giving any competitor of
 Gaussian, Inc. access to this program.  By using this program,
 the user acknowledges that Gaussian, Inc. is engaged in the
 business of creating and licensing software in the field of
 computational chemistry and represents and warrants to the
 licensee that it is not a competitor of Gaussian, Inc. and that
 it will not use this program in any manner prohibited above.
 ---------------------------------------------------------------
  

 Cite this work as:
 Gaussian 09, Revision C.01,
 M. J. Frisch, G. W. Trucks, H. B. Schlegel, G. E. Scuseria, 
 M. A. Robb, J. R. Cheeseman, G. Scalmani, V. Barone, B. Mennucci, 
 G. A. Petersson, H. Nakatsuji, M. Caricato, X. Li, H. P. Hratchian, 
 A. F. Izmaylov, J. Bloino, G. Zheng, J. L. Sonnenberg, M. Hada, 
 M. Ehara, K. Toyota, R. Fukuda, J. Hasegawa, M. Ishida, T. Nakajima, 
 Y. Honda, O. Kitao, H. Nakai, T. Vreven, J. A. Montgomery, Jr., 
 J. E. Peralta, F. Ogliaro, M. Bearpark, J. J. Heyd, E. Brothers, 
 K. N. Kudin, V. N. Staroverov, T. Keith, R. Kobayashi, J. Normand, 
 K. Raghavachari, A. Rendell, J. C. Burant, S. S. Iyengar, J. Tomasi, 
 M. Cossi, N. Rega, J. M. Millam, M. Klene, J. E. Knox, J. B. Cross, 
 V. Bakken, C. Adamo, J. Jaramillo, R. Gomperts, R. E. Stratmann, 
 O. Yazyev, A. J. Austin, R. Cammi, C. Pomelli, J. W. Ochterski, 
 R. L. Martin, K. Morokuma, V. G. Zakrzewski, G. A. Voth, 
 P. Salvador, J. J. Dannenberg, S. Dapprich, A. D. Daniels, 
 O. Farkas, J. B. Foresman, J. V. Ortiz, J. Cioslowski, 
 and D. J. Fox, Gaussian, Inc., Wallingford CT, 2010.
 
 ******************************************
 Gaussian 09:  EM64L-G09RevC.01 23-Sep-2011
                17-May-2022 
 ******************************************
 %nprocshared=4
 Will use up to    4 processors via shared memory.
 ----------------------------------------------------------------
 # wb97xd/6-31+g** scrf=(pcm,solvent=chloroform,smd,dovacuum) nmr
 ----------------------------------------------------------------
 1/38=1/1;
 2/12=2,17=6,18=5,40=1/2;
 3/5=1,6=6,7=111,11=2,16=1,25=1,30=1,70=32101,72=7,74=-58/1,2,8,3;
 4//1;
 5/5=2,38=5,53=7/2;
 8/6=1,10=90,11=11/1;
 10/13=100,45=16/2;
 6/7=2,8=2,9=2,10=2,28=1/1;
 99/9=1/99;
 -------
 comment
 -------
 Charge =  0 Multiplicity = 1
 Symbolic Z-Matrix:
 6                     0.1208   -1.42509  -1.70373 
 6                    -0.21662  -3.58809   0.02129 
 6                     0.94233  -2.54793  -1.81963 
 6                    -0.88178  -1.36794  -0.72285 
 6                    -1.03858  -2.46581   0.13831 
 6                     0.77329  -3.62875  -0.95757 
 6                    -1.75902  -0.13334  -0.60847 
 6                    -1.28681   0.92353   0.40675 
 6                     0.00688   1.54788  -0.085 
 8                     0.93766   1.65736   0.89994 
 6                     2.19782   2.23012   0.52116 
 8                    -3.10441  -0.51986  -0.29538 
 6                    -1.23315   0.41156   1.84917 
 8                     0.17153   1.93318  -1.23764 
 6                     2.14053   3.74164   0.63586 
 1                     0.27171  -0.59093  -2.38797 
 1                    -0.34831  -4.42984   0.69636 
 1                     1.71506  -2.5775   -2.58369 
 1                    -1.80318  -2.45091   0.91319 
 1                     1.41369  -4.50218  -1.04806 
 1                    -1.82536   0.32764  -1.60254 
 1                    -2.02409   1.73882   0.41098 
 1                     2.49291   1.91394  -0.48596 
 1                     2.94869   1.83658   1.21409 
 1                    -3.30964  -1.28865  -0.85672 
 1                    -1.04254   1.23881   2.54254 
 1                    -2.18179  -0.0478    2.14458 
 1                    -0.43283  -0.32095   1.99537 
 1                     1.39519   4.15988  -0.04793 
 1                     3.11333   4.18522   0.40579 
 1                     1.84671   4.03939   1.64777 
 
                          Input orientation:                          
 ---------------------------------------------------------------------
 Center     Atomic      Atomic             Coordinates (Angstroms)
 Number     Number       Type             X           Y           Z
 ---------------------------------------------------------------------
      1          6           0        0.120797   -1.425085   -1.703728
      2          6           0       -0.216623   -3.588087    0.021289
      3          6           0        0.942326   -2.547927   -1.819631
      4          6           0       -0.881777   -1.367938   -0.722852
      5          6           0       -1.038580   -2.465806    0.138306
      6          6           0        0.773288   -3.628747   -0.957573
      7          6           0       -1.759021   -0.133339   -0.608469
      8          6           0       -1.286811    0.923530    0.406752
      9          6           0        0.006883    1.547885   -0.084998
     10          8           0        0.937657    1.657358    0.899940
     11          6           0        2.197818    2.230120    0.521159
     12          8           0       -3.104407   -0.519855   -0.295381
     13          6           0       -1.233149    0.411562    1.849174
     14          8           0        0.171535    1.933175   -1.237638
     15          6           0        2.140530    3.741645    0.635859
     16          1           0        0.271706   -0.590929   -2.387975
     17          1           0       -0.348315   -4.429835    0.696361
     18          1           0        1.715056   -2.577504   -2.583695
     19          1           0       -1.803184   -2.450912    0.913195
     20          1           0        1.413693   -4.502182   -1.048061
     21          1           0       -1.825363    0.327638   -1.602539
     22          1           0       -2.024090    1.738821    0.410977
     23          1           0        2.492911    1.913940   -0.485957
     24          1           0        2.948689    1.836581    1.214092
     25          1           0       -3.309640   -1.288654   -0.856719
     26          1           0       -1.042538    1.238811    2.542540
     27          1           0       -2.181786   -0.047802    2.144577
     28          1           0       -0.432830   -0.320951    1.995370
     29          1           0        1.395189    4.159884   -0.047935
     30          1           0        3.113330    4.185216    0.405789
     31          1           0        1.846706    4.039388    1.647770
 ---------------------------------------------------------------------
                    Distance matrix (angstroms):
                    1          2          3          4          5
     1  C    0.000000
     2  C    2.787133   0.000000
     3  C    1.396108   2.411240   0.000000
     4  C    1.403758   2.434181   2.433649   0.000000
     5  C    2.412539   1.396001   2.786440   1.404100   0.000000
     6  C    2.416323   1.392748   1.392799   2.811688   2.415832
     7  C    2.530201   3.835475   3.820265   1.518841   2.552864
     8  C    3.457091   4.652803   4.687947   2.586675   3.409001
     9  C    3.387007   5.141931   4.545292   3.114257   4.153622
    10  O    4.116771   5.442342   5.008045   3.885384   4.635309
    11  C    4.756539   6.319092   5.466744   4.896681   5.715993
    12  O    3.633844   4.225355   4.776239   2.417036   2.870967
    13  C    4.222506   4.513499   5.191474   3.147285   3.353233
    14  O    3.390830   5.676258   4.584007   3.503116   4.765358
    15  C    6.020639   7.723913   6.857394   6.090014   6.991906
    16  H    1.089395   3.876335   2.145364   2.169539   3.407948
    17  H    3.874147   1.087017   3.396696   3.416718   2.155296
    18  H    2.155011   3.396851   1.087097   3.416039   3.873535
    19  H    3.406216   2.146122   3.874993   2.167596   1.088712
    20  H    3.401471   2.153372   2.153281   3.898516   3.401167
    21  H    2.621034   4.534067   3.997013   2.130536   3.384213
    22  H    4.368389   5.638683   5.670225   3.498914   4.327178
    23  H    4.273052   6.153955   4.908285   4.713317   5.660681
    24  H    5.210481   6.392887   5.696743   5.356600   5.963738
    25  H    3.536090   3.952853   4.537861   2.432843   2.744718
    26  H    5.145920   5.507975   6.107996   4.181360   4.416395
    27  H    4.691296   4.572071   5.632553   3.413932   3.343470
    28  H    3.899865   3.823339   4.626523   2.947281   2.901039
    29  H    5.963021   7.914151   6.952606   6.016387   7.060998
    30  H    6.699313   8.465262   7.416264   6.933414   7.845126
    31  H    6.638657   8.067288   7.498900   6.504125   7.274676
                    6          7          8          9         10
     6  C    0.000000
     7  C    4.330397   0.000000
     8  C    5.179635   1.539684   0.000000
     9  C    5.305307   2.493783   1.518315   0.000000
    10  O    5.605380   3.571269   2.393741   1.359569   0.000000
    11  C    6.208241   4.745374   3.723292   2.373408   1.435109
    12  O    5.014003   1.434392   2.424873   3.741649   4.744189
    13  C    5.312976   2.571666   1.531527   2.563188   2.676836
    14  O    5.601386   2.897133   2.418713   1.226433   2.287413
    15  C    7.663619   5.636519   4.443076   3.143989   2.420928
    16  H    3.394992   2.738592   3.540206   3.154102   4.038400
    17  H    2.152959   4.706650   5.442717   6.039025   6.224877
    18  H    2.153209   4.684514   5.496473   5.116656   5.538422
    19  H    3.394889   2.772824   3.451084   4.501456   4.938650
    20  H    1.086828   5.417208   6.232781   6.285691   6.477751
    21  H    4.777233   1.097759   2.163879   2.673772   3.957882
    22  H    6.205565   2.148142   1.099226   2.099357   3.002943
    23  H    5.822448   4.720729   4.008009   2.544622   2.098895
    24  H    6.270432   5.418934   4.407371   3.228808   2.043297
    25  H    4.707070   1.949564   3.252992   4.431797   5.459337
    26  H    6.264275   3.510698   2.172709   2.846185   2.606624
    27  H    5.583812   2.786631   2.182775   3.508204   3.766645
    28  H    4.595227   2.928132   2.191284   2.830870   2.644222
    29  H    7.866193   5.356772   4.227748   2.958261   2.714855
    30  H    8.269981   6.589267   5.477211   4.104437   3.371618
    31  H    8.169476   5.958484   4.589948   3.548947   2.657007
                   11         12         13         14         15
    11  C    0.000000
    12  O    6.028490   0.000000
    13  C    4.103939   2.994706   0.000000
    14  O    2.699512   4.199643   3.717103   0.000000
    15  C    1.516953   6.821800   4.893189   3.264582   0.000000
    16  H    4.486790   3.972674   4.606844   2.775683   5.604220
    17  H    7.132215   4.885441   5.054803   6.670719   8.542312
    18  H    5.743381   5.718174   6.105469   4.953843   7.104802
    19  H    6.170394   2.623512   3.065086   5.267429   7.346941
    20  H    6.957096   6.069488   6.288451   6.556883   8.445387
    21  H    4.931076   2.015653   3.503153   2.588146   5.691588
    22  H    4.251826   2.601470   2.110833   2.752539   4.626655
    23  H    1.096053   6.106525   4.646881   2.440119   2.173281
    24  H    1.094914   6.668678   4.463382   3.705792   2.148660
    25  H    6.679252   0.973793   3.811090   4.758556   7.565451
    26  H    3.945705   3.924029   1.096098   4.030615   4.475660
    27  H    5.196667   2.650936   1.094619   4.571845   5.942942
    28  H    3.949882   3.524830   1.094741   3.987315   4.997513
    29  H    2.166119   6.496735   4.955513   2.805523   1.094546
    30  H    2.161915   7.828767   5.934282   4.052987   1.093631
    31  H    2.160089   7.005430   4.763107   3.945619   1.094965
                   16         17         18         19         20
    16  H    0.000000
    17  H    4.963341   0.000000
    18  H    2.463340   4.295043   0.000000
    19  H    4.320002   2.465725   4.962083   0.000000
    20  H    4.289219   2.480507   2.480599   4.289817   0.000000
    21  H    2.420408   5.486362   4.683704   3.748299   5.841754
    22  H    4.304945   6.398593   6.448251   4.225504   7.273051
    23  H    3.850428   7.050810   5.017831   6.282196   6.530489
    24  H    5.102346   7.099736   5.952242   6.407295   6.903149
    25  H    3.956969   4.587867   5.467279   2.598624   5.716052
    26  H    5.420809   6.001989   6.960379   4.104558   7.203089
    27  H    5.182532   4.966000   6.628825   2.726642   6.554533
    28  H    4.447805   4.310162   5.538347   2.754216   5.491340
    29  H    5.413708   8.796423   7.205887   7.406483   8.719632
    30  H    6.220250   9.289054   7.525063   8.274525   8.970693
    31  H    6.340954   8.800627   7.855310   7.482331   8.967353
                   21         22         23         24         25
    21  H    0.000000
    22  H    2.466815   0.000000
    23  H    4.733983   4.608520   0.000000
    24  H    5.744727   5.038162   1.761785   0.000000
    25  H    2.317698   3.524954   6.638047   7.295343   0.000000
    26  H    4.315637   2.399378   4.703934   4.248764   4.804455
    27  H    3.782707   2.494446   5.711474   5.544229   3.437957
    28  H    3.912130   3.047141   4.439784   4.086564   4.164960
    29  H    5.241647   4.214691   2.537937   3.066563   7.244040
    30  H    6.580652   5.690163   2.517703   2.489286   8.532978
    31  H    6.150259   4.669617   3.080244   2.500960   7.826136
                   26         27         28         29         30
    26  H    0.000000
    27  H    1.763982   0.000000
    28  H    1.761816   1.776434   0.000000
    29  H    4.602798   5.941926   5.253059   0.000000
    30  H    5.524333   6.998577   5.950425   1.777221   0.000000
    31  H    4.122084   5.760268   4.932511   1.758921   1.779921
                   31
    31  H    0.000000
 Stoichiometry    C12H16O3
 Framework group  C1[X(C12H16O3)]
 Deg. of freedom    87
 Full point group                 C1      NOp   1
 Largest Abelian subgroup         C1      NOp   1
 Largest concise Abelian subgroup C1      NOp   1
                         Standard orientation:                         
 ---------------------------------------------------------------------
 Center     Atomic      Atomic             Coordinates (Angstroms)
 Number     Number       Type             X           Y           Z
 ---------------------------------------------------------------------
      1          6           0       -1.476425   -1.016865   -1.034614
      2          6           0       -3.246445   -0.726553    1.098662
      3          6           0       -2.291440   -2.083453   -0.650872
      4          6           0       -1.535018    0.210850   -0.356513
      5          6           0       -2.431861    0.340621    0.716021
      6          6           0       -3.176007   -1.937960    0.415084
      7          6           0       -0.633490    1.355686   -0.784851
      8          6           0        0.698300    1.472050   -0.021029
      9          6           0        1.578383    0.283415   -0.364368
     10          8           0        2.163885   -0.263424    0.734077
     11          6           0        3.008307   -1.400589    0.503110
     12          8           0       -1.344047    2.597754   -0.685571
     13          6           0        0.527682    1.719187    1.480765
     14          8           0        1.756392   -0.111839   -1.511636
     15          6           0        4.419671   -0.946887    0.181626
     16          1           0       -0.791238   -1.153596   -1.870440
     17          1           0       -3.934623   -0.612122    1.932281
     18          1           0       -2.234436   -3.028547   -1.185033
     19          1           0       -2.497854    1.277791    1.266157
     20          1           0       -3.809638   -2.768987    0.713582
     21          1           0       -0.424340    1.238800   -1.856144
     22          1           0        1.230764    2.353378   -0.405791
     23          1           0        2.603104   -2.044437   -0.285942
     24          1           0        3.012060   -1.988471    1.426807
     25          1           0       -2.234798    2.436931   -1.044696
     26          1           0        1.494767    1.946287    1.944016
     27          1           0       -0.132160    2.571380    1.671990
     28          1           0        0.121754    0.843575    1.997470
     29          1           0        4.442427   -0.355451   -0.739089
     30          1           0        5.085349   -1.806192    0.061232
     31          1           0        4.809075   -0.307291    0.980519
 ---------------------------------------------------------------------
 Rotational constants (GHZ):      0.8936823      0.3962303      0.3336863
 Standard basis: 6-31+G(d,p) (6D, 7F)
 There are   365 symmetry adapted basis functions of A   symmetry.
 Integral buffers will be    131072 words long.
 Raffenetti 2 integral format.
 Two-electron integral symmetry is turned on.
   365 basis functions,   592 primitive gaussians,   365 cartesian basis functions
    56 alpha electrons       56 beta electrons
       nuclear repulsion energy      1016.2426513537 Hartrees.
 NAtoms=   31 NActive=   31 NUniq=   31 SFac= 1.00D+00 NAtFMM=   60 NAOKFM=F Big=F
 Nuclear repulsion after empirical dispersion term =     1016.2209412839 Hartrees.
 ------------------------------------------------------------------------------
 Polarizable Continuum Model (PCM)
 =================================
 Model                : C-PCM.
 Atomic radii         : SMD-Coulomb.
 Polarization charges : Total charges.
 Charge compensation  : None.
 Solution method      : Matrix inversion.
 Cavity type          : VdW (van der Waals Surface) (Alpha=1.000).
 Cavity algorithm     : GePol (No added spheres)
                        Default sphere list used, NSphG=   31.
                        Lebedev-Laikov grids with approx.  5.0 points / Ang**2.
                        Smoothing algorithm: Karplus/York (Gamma=1.0000).
                        Polarization charges: spherical gaussians, with
                                              point-specific exponents (IZeta= 3).
                        Self-potential: point-specific (ISelfS= 7).
                        Self-field    : sphere-specific E.n sum rule (ISelfD= 2).
 Solvent              : Chloroform, Eps=   4.711300 Eps(inf)=   2.090627
 ------------------------------------------------------------------------------
 ------------------------------------------------------------------------------
 Atomic radii for non-electrostatic terms: SMD-CDS.
 ------------------------------------------------------------------------------
 Nuclear repulsion after PCM non-electrostatic terms =     1016.2144735761 Hartrees.
 One-electron integrals computed using PRISM.
 NBasis=   365 RedAO= T  NBF=   365
 NBsUse=   365 1.00D-06 NBFU=   365
 Harris functional with IExCor= 4639 diagonalized for initial guess.
 ExpMin= 4.38D-02 ExpMax= 5.48D+03 ExpMxC= 8.25D+02 IAcc=2 IRadAn=         4 AccDes= 0.00D+00
 HarFok:  IExCor= 4639 AccDes= 0.00D+00 IRadAn=         4 IDoV= 1
 ScaDFX=  1.000000  1.000000  1.000000  1.000000
 FoFCou: FMM=F IPFlag=           0 FMFlag=      100000 FMFlg1=           0
         NFxFlg=           0 DoJE=T BraDBF=F KetDBF=T FulRan=T
         Omega=  0.000000  0.000000  1.000000  0.000000  0.000000 ICntrl=     500 IOpCl=  0
         NMat0=    1 NMatS0=    1 NMatT0=    0 NMatD0=    1 NMtDS0=    0 NMtDT0=    0
         I1Cent=           4 NGrid=           0.
 Petite list used in FoFCou.
 Initial guess orbital symmetries:
       Occupied  (A) (A) (A) (A) (A) (A) (A) (A) (A) (A) (A) (A)
                 (A) (A) (A) (A) (A) (A) (A) (A) (A) (A) (A) (A)
                 (A) (A) (A) (A) (A) (A) (A) (A) (A) (A) (A) (A)
                 (A) (A) (A) (A) (A) (A) (A) (A) (A) (A) (A) (A)
                 (A) (A) (A) (A) (A) (A) (A) (A)
       Virtual   (A) (A) (A) (A) (A) (A) (A) (A) (A) (A) (A) (A)
                 (A) (A) (A) (A) (A) (A) (A) (A) (A) (A) (A) (A)
                 (A) (A) (A) (A) (A) (A) (A) (A) (A) (A) (A) (A)
                 (A) (A) (A) (A) (A) (A) (A) (A) (A) (A) (A) (A)
                 (A) (A) (A) (A) (A) (A) (A) (A) (A) (A) (A) (A)
                 (A) (A) (A) (A) (A) (A) (A) (A) (A) (A) (A) (A)
                 (A) (A) (A) (A) (A) (A) (A) (A) (A) (A) (A) (A)
                 (A) (A) (A) (A) (A) (A) (A) (A) (A) (A) (A) (A)
                 (A) (A) (A) (A) (A) (A) (A) (A) (A) (A) (A) (A)
                 (A) (A) (A) (A) (A) (A) (A) (A) (A) (A) (A) (A)
                 (A) (A) (A) (A) (A) (A) (A) (A) (A) (A) (A) (A)
                 (A) (A) (A) (A) (A) (A) (A) (A) (A) (A) (A) (A)
                 (A) (A) (A) (A) (A) (A) (A) (A) (A) (A) (A) (A)
                 (A) (A) (A) (A) (A) (A) (A) (A) (A) (A) (A) (A)
                 (A) (A) (A) (A) (A) (A) (A) (A) (A) (A) (A) (A)
                 (A) (A) (A) (A) (A) (A) (A) (A) (A) (A) (A) (A)
                 (A) (A) (A) (A) (A) (A) (A) (A) (A) (A) (A) (A)
                 (A) (A) (A) (A) (A) (A) (A) (A) (A) (A) (A) (A)
                 (A) (A) (A) (A) (A) (A) (A) (A) (A) (A) (A) (A)
                 (A) (A) (A) (A) (A) (A) (A) (A) (A) (A) (A) (A)
                 (A) (A) (A) (A) (A) (A) (A) (A) (A) (A) (A) (A)
                 (A) (A) (A) (A) (A) (A) (A) (A) (A) (A) (A) (A)
                 (A) (A) (A) (A) (A) (A) (A) (A) (A) (A) (A) (A)
                 (A) (A) (A) (A) (A) (A) (A) (A) (A) (A) (A) (A)
                 (A) (A) (A) (A) (A) (A) (A) (A) (A) (A) (A) (A)
                 (A) (A) (A) (A) (A) (A) (A) (A) (A)
 The electronic state of the initial guess is 1-A.
 Requested convergence on RMS density matrix=1.00D-08 within 128 cycles.
 Requested convergence on MAX density matrix=1.00D-06.
 Requested convergence on             energy=1.00D-06.
 No special actions if energy rises.
 FoFJK:  IHMeth= 1 ICntrl=     0 DoSepK=T KAlg= 1 I1Cent= 0 FoldK=F
 FoFJK:  IHMeth= 1 ICntrl=     0 DoSepK=T KAlg= 1 I1Cent= 0 FoldK=F
 FoFJK:  IHMeth= 1 ICntrl=     0 DoSepK=T KAlg= 1 I1Cent= 0 FoldK=F
 FoFJK:  IHMeth= 1 ICntrl=     0 DoSepK=T KAlg= 1 I1Cent= 0 FoldK=F
 FoFJK:  IHMeth= 1 ICntrl=     0 DoSepK=T KAlg= 1 I1Cent= 0 FoldK=F
 FoFJK:  IHMeth= 1 ICntrl=     0 DoSepK=T KAlg= 1 I1Cent= 0 FoldK=F
 FoFJK:  IHMeth= 1 ICntrl=     0 DoSepK=T KAlg= 1 I1Cent= 0 FoldK=F
 FoFJK:  IHMeth= 1 ICntrl=     0 DoSepK=T KAlg= 1 I1Cent= 0 FoldK=F
 FoFJK:  IHMeth= 1 ICntrl=     0 DoSepK=T KAlg= 1 I1Cent= 0 FoldK=F
 FoFJK:  IHMeth= 1 ICntrl=     0 DoSepK=T KAlg= 1 I1Cent= 0 FoldK=F
 FoFJK:  IHMeth= 1 ICntrl=     0 DoSepK=T KAlg= 1 I1Cent= 0 FoldK=F
 FoFJK:  IHMeth= 1 ICntrl=     0 DoSepK=T KAlg= 1 I1Cent= 0 FoldK=F
 FoFJK:  IHMeth= 1 ICntrl=     0 DoSepK=T KAlg= 1 I1Cent= 0 FoldK=F
 FoFJK:  IHMeth= 1 ICntrl=     0 DoSepK=T KAlg= 1 I1Cent= 0 FoldK=F
 FoFJK:  IHMeth= 1 ICntrl=     0 DoSepK=T KAlg= 1 I1Cent= 0 FoldK=F
 Error on total polarization charges =  0.03894
 SCF Done:  E(RwB97XD) =  -692.443424546     A.U. after   15 cycles
             Convg  =    0.9501D-08             -V/T =  2.0096
 SMD-CDS (non-electrostatic) energy       (kcal/mol) =      -4.06
 (included in total energy above)
 Range of M.O.s used for correlation:     1   365
 NBasis=   365 NAE=    56 NBE=    56 NFC=     0 NFV=     0
 NROrb=    365 NOA=    56 NOB=    56 NVA=   309 NVB=   309

 **** Warning!!: The largest alpha MO coefficient is  0.13847952D+03

 NEqPCM:  Using equilibrium solvation (IEInf=0, Eps=   4.7113, EpsInf=   2.0906)
          Differentiating once with respect to magnetic field using GIAOs.
          Electric field/nuclear overlap derivatives assumed to be zero.
 FoFCou: FMM=F IPFlag=           0 FMFlag=    10101102 FMFlg1=           0
         NFxFlg=    40000000 DoJE=F BraDBF=F KetDBF=T FulRan=T
         Omega=  0.000000  0.000000  1.000000  0.000000  0.000000 ICntrl=    6100 IOpCl=  0
         NMat0=    1 NMatS0=    1 NMatT0=    0 NMatD0=    1 NMtDS0=    0 NMtDT0=    0
         I1Cent=           7 NGrid=        2271.
 Symmetry not used in FoFCou.
 FoFJK:  IHMeth= 1 ICntrl=  6127 DoSepK=T KAlg= 1 I1Cent= 0 FoldK=F
 FoFJK:  IHMeth= 1 ICntrl=     0 DoSepK=T KAlg= 1 I1Cent= 0 FoldK=F
          There are     3 degrees of freedom in the 1st order CPHF.  IDoFFX=0.
      3 vectors produced by pass  0 Test12= 5.77D-13 3.33D-08 XBig12= 1.13D+02 1.99D+00.
 AX will form     3 AO Fock derivatives at one time.
 FoFJK:  IHMeth= 1 ICntrl=     0 DoSepK=T KAlg= 1 I1Cent= 0 FoldK=F
      3 vectors produced by pass  1 Test12= 5.77D-13 3.33D-08 XBig12= 8.54D-01 2.20D-01.
 FoFJK:  IHMeth= 1 ICntrl=     0 DoSepK=T KAlg= 1 I1Cent= 0 FoldK=F
      3 vectors produced by pass  2 Test12= 5.77D-13 3.33D-08 XBig12= 1.54D-02 4.36D-02.
 FoFJK:  IHMeth= 1 ICntrl=     0 DoSepK=T KAlg= 1 I1Cent= 0 FoldK=F
      3 vectors produced by pass  3 Test12= 5.77D-13 3.33D-08 XBig12= 3.00D-04 3.82D-03.
 FoFJK:  IHMeth= 1 ICntrl=     0 DoSepK=T KAlg= 1 I1Cent= 0 FoldK=F
      3 vectors produced by pass  4 Test12= 5.77D-13 3.33D-08 XBig12= 4.92D-06 3.68D-04.
 FoFJK:  IHMeth= 1 ICntrl=     0 DoSepK=T KAlg= 1 I1Cent= 0 FoldK=F
      3 vectors produced by pass  5 Test12= 5.77D-13 3.33D-08 XBig12= 8.70D-08 7.36D-05.
 FoFJK:  IHMeth= 1 ICntrl=     0 DoSepK=T KAlg= 1 I1Cent= 0 FoldK=F
      3 vectors produced by pass  6 Test12= 5.77D-13 3.33D-08 XBig12= 1.72D-09 1.37D-05.
 FoFJK:  IHMeth= 1 ICntrl=     0 DoSepK=T KAlg= 1 I1Cent= 0 FoldK=F
      3 vectors produced by pass  7 Test12= 5.77D-13 3.33D-08 XBig12= 2.89D-11 1.26D-06.
 FoFJK:  IHMeth= 1 ICntrl=     0 DoSepK=T KAlg= 1 I1Cent= 0 FoldK=F
      3 vectors produced by pass  8 Test12= 5.77D-13 3.33D-08 XBig12= 2.84D-13 7.13D-08.
 FoFJK:  IHMeth= 1 ICntrl=     0 DoSepK=T KAlg= 1 I1Cent= 0 FoldK=F
 Inverted reduced A of dimension    27 with in-core refinement.
 Calculating GIAO nuclear magnetic shielding tensors.
 SCF GIAO Magnetic shielding tensor (ppm):
      1  C    Isotropic =    69.6610   Anisotropy =   165.6525
   XX=    83.3417   YX=   -28.6857   ZX=    95.6504
   XY=   -16.1462   YY=    70.9378   ZY=   -33.9481
   XZ=    92.0544   YZ=   -42.0921   ZZ=    54.7034
   Eigenvalues:   -28.1667    57.0536   180.0959
      2  C    Isotropic =    70.8369   Anisotropy =   176.4290
   XX=    89.1183   YX=   -24.8349   ZX=    99.8226
   XY=   -23.4255   YY=    69.5507   ZY=   -31.7002
   XZ=   104.0456   YZ=   -35.2803   ZZ=    53.8415
   Eigenvalues:   -33.0399    57.0942   188.4562
      3  C    Isotropic =    70.4775   Anisotropy =   175.0661
   XX=   121.7768   YX=   -24.0471   ZX=    61.9139
   XY=   -24.6200   YY=     1.2589   ZY=   -65.0803
   XZ=    59.4100   YZ=   -63.2604   ZZ=    88.3969
   Eigenvalues:   -33.1078    57.3521   187.1882
      4  C    Isotropic =    54.6541   Anisotropy =   181.4750
   XX=    85.8469   YX=   -65.6956   ZX=    68.4030
   XY=   -62.3491   YY=    10.9053   ZY=   -19.6875
   XZ=    80.1833   YZ=   -23.9236   ZZ=    67.2101
   Eigenvalues:   -31.1041    19.4289   175.6374
      5  C    Isotropic =    70.9701   Anisotropy =   180.9675
   XX=   118.2297   YX=   -29.8824   ZX=    69.2622
   XY=   -19.3214   YY=     6.1602   ZY=   -63.3129
   XZ=    62.5783   YZ=   -68.8507   ZZ=    88.5204
   Eigenvalues:   -31.4479    52.7430   191.6151
      6  C    Isotropic =    71.2267   Anisotropy =   176.0642
   XX=    96.3507   YX=   -64.1265   ZX=    72.3382
   XY=   -68.6040   YY=    16.2915   ZY=    -8.1890
   XZ=    75.3035   YZ=    -4.7514   ZZ=   101.0378
   Eigenvalues:   -30.2605    55.3378   188.6028
      7  C    Isotropic =   121.9474   Anisotropy =    38.5464
   XX=   114.7434   YX=   -12.8352   ZX=    -0.6856
   XY=   -14.0433   YY=   140.9753   ZY=     2.4918
   XZ=    -3.9084   YZ=     8.9121   ZZ=   110.1234
   Eigenvalues:   109.0009   109.1962   147.6449
      8  C    Isotropic =   150.2668   Anisotropy =    30.0575
   XX=   159.3978   YX=   -11.4559   ZX=    -1.9436
   XY=   -15.9376   YY=   151.9659   ZY=     8.4199
   XZ=     5.4149   YZ=     7.7483   ZZ=   139.4366
   Eigenvalues:   132.7248   147.7704   170.3051
      9  C    Isotropic =    21.5418   Anisotropy =    97.4826
   XX=    32.6213   YX=    66.4140   ZX=   -20.9526
   XY=    57.9258   YY=    14.6147   ZY=    22.0203
   XZ=   -44.6362   YZ=    47.0591   ZZ=    17.3893
   Eigenvalues:   -66.2691    44.3642    86.5302
     10  O    Isotropic =   124.4468   Anisotropy =   180.2272
   XX=   190.7664   YX=    85.3446   ZX=    21.8604
   XY=    90.9326   YY=    99.6864   ZY=   -45.6320
   XZ=   102.5449   YZ=  -143.3321   ZZ=    82.8877
   Eigenvalues:   -50.1122   178.8544   244.5983
     11  C    Isotropic =   137.3811   Anisotropy =    66.5481
   XX=   150.3703   YX=   -27.7862   ZX=   -12.5487
   XY=   -23.8226   YY=   159.3441   ZY=     1.1972
   XZ=    -8.3916   YZ=     0.5009   ZZ=   102.4288
   Eigenvalues:    99.8239   130.5729   181.7465
     12  O    Isotropic =   280.8754   Anisotropy =    79.2671
   XX=   327.9146   YX=     2.7329   ZX=    20.3439
   XY=     4.3820   YY=   288.4129   ZY=   -15.7653
   XZ=    29.2118   YZ=   -31.5769   ZZ=   226.2988
   Eigenvalues:   213.0218   295.8843   333.7202
     13  C    Isotropic =   186.9198   Anisotropy =     9.6025
   XX=   185.9975   YX=    -2.0484   ZX=    -3.7856
   XY=    -2.0477   YY=   183.4353   ZY=     2.3676
   XZ=    -2.3301   YZ=     1.0943   ZZ=   191.3268
   Eigenvalues:   182.3005   185.1375   193.3215
     14  O    Isotropic =   -41.5868   Anisotropy =   566.1748
   XX=   129.8833   YX=   248.6781   ZX=   -51.5575
   XY=   243.4465   YY=    25.5365   ZY=   -32.4920
   XZ=   -73.0187   YZ=   -16.5116   ZZ=  -280.1803
   Eigenvalues:  -290.2508  -170.3727   335.8630
     15  C    Isotropic =   181.5118   Anisotropy =    26.8276
   XX=   198.1061   YX=    -1.7038   ZX=    -6.1651
   XY=     3.6246   YY=   183.1388   ZY=     0.8098
   XZ=    -7.2929   YZ=     1.2102   ZZ=   163.2906
   Eigenvalues:   161.9707   183.1679   199.3969
     16  H    Isotropic =    23.9132   Anisotropy =     8.2049
   XX=    23.6212   YX=     3.6148   ZX=     0.6357
   XY=     3.7054   YY=    26.3744   ZY=     2.2731
   XZ=    -0.1357   YZ=     1.9768   ZZ=    21.7440
   Eigenvalues:    20.1992    22.1573    29.3831
     17  H    Isotropic =    23.7095   Anisotropy =     4.9797
   XX=    23.1826   YX=     2.0331   ZX=    -1.7553
   XY=     2.0730   YY=    25.9277   ZY=     0.7018
   XZ=    -1.6122   YZ=     0.7798   ZZ=    22.0181
   Eigenvalues:    20.2159    23.8832    27.0293
     18  H    Isotropic =    23.9152   Anisotropy =     5.0232
   XX=    24.0670   YX=     2.1969   ZX=    -2.3040
   XY=     2.4026   YY=    24.2983   ZY=     0.1048
   XZ=    -2.5008   YZ=     0.0496   ZZ=    23.3802
   Eigenvalues:    20.5427    23.9388    27.2640
     19  H    Isotropic =    23.4171   Anisotropy =     9.4693
   XX=    26.1800   YX=     2.2692   ZX=    -4.5507
   XY=     2.7341   YY=    21.9519   ZY=    -1.5423
   XZ=    -3.3886   YZ=    -1.5985   ZZ=    22.1194
   Eigenvalues:    19.6900    20.8313    29.7300
     20  H    Isotropic =    23.8376   Anisotropy =     4.0183
   XX=    23.2632   YX=     0.7386   ZX=    -2.4249
   XY=     0.5559   YY=    24.4415   ZY=     1.7530
   XZ=    -2.2522   YZ=     2.0055   ZZ=    23.8082
   Eigenvalues:    20.4042    24.5922    26.5165
     21  H    Isotropic =    25.8532   Anisotropy =     6.3353
   XX=    23.1447   YX=    -2.5488   ZX=    -0.9809
   XY=    -2.0137   YY=    26.1205   ZY=     2.1311
   XZ=    -2.1862   YZ=     1.0945   ZZ=    28.2943
   Eigenvalues:    21.8394    25.6434    30.0767
     22  H    Isotropic =    28.2925   Anisotropy =     6.3482
   XX=    28.1016   YX=     3.3731   ZX=    -2.2096
   XY=     2.2754   YY=    29.0347   ZY=    -2.2114
   XZ=    -1.5440   YZ=    -0.5781   ZZ=    27.7412
   Eigenvalues:    25.5008    26.8520    32.5246
     23  H    Isotropic =    27.0978   Anisotropy =     5.3100
   XX=    28.0404   YX=    -0.5500   ZX=     0.0830
   XY=    -0.6981   YY=    29.9989   ZY=     3.1671
   XZ=     2.3150   YZ=     1.0641   ZZ=    23.2542
   Eigenvalues:    22.3373    28.3184    30.6378
     24  H    Isotropic =    28.0332   Anisotropy =     7.2653
   XX=    27.9073   YX=    -1.3596   ZX=    -1.2058
   XY=    -1.9108   YY=    29.3890   ZY=    -5.5211
   XZ=    -0.7307   YZ=    -3.4488   ZZ=    26.8033
   Eigenvalues:    22.8160    28.4069    32.8768
     25  H    Isotropic =    29.8857   Anisotropy =    15.5214
   XX=    37.8426   YX=    -2.5415   ZX=     6.8527
   XY=    -1.4293   YY=    27.7239   ZY=    -0.2013
   XZ=     4.4062   YZ=    -1.6482   ZZ=    24.0907
   Eigenvalues:    22.0726    27.3514    40.2333
     26  H    Isotropic =    30.4232   Anisotropy =    10.2881
   XX=    33.3170   YX=     1.8913   ZX=     3.8498
   XY=     0.9277   YY=    27.4185   ZY=     3.2085
   XZ=     4.6201   YZ=     2.9076   ZZ=    30.5341
   Eigenvalues:    25.3509    28.6367    37.2819
     27  H    Isotropic =    30.1288   Anisotropy =     8.8275
   XX=    29.3773   YX=    -3.1920   ZX=    -0.2341
   XY=    -4.1655   YY=    31.1909   ZY=     3.5827
   XZ=    -0.5392   YZ=     4.2794   ZZ=    29.8183
   Eigenvalues:    25.1725    29.2001    36.0139
     28  H    Isotropic =    30.7853   Anisotropy =     5.8598
   XX=    30.6389   YX=     3.7600   ZX=    -0.8200
   XY=     1.3152   YY=    29.5381   ZY=    -3.4150
   XZ=    -0.4376   YZ=    -1.6663   ZZ=    32.1788
   Eigenvalues:    26.9337    30.7303    34.6918
     29  H    Isotropic =    30.2755   Anisotropy =     6.3467
   XX=    31.7806   YX=     0.4813   ZX=    -2.1872
   XY=     0.6902   YY=    27.5251   ZY=    -4.0496
   XZ=    -0.8485   YZ=    -2.9598   ZZ=    31.5209
   Eigenvalues:    25.4779    30.8421    34.5066
     30  H    Isotropic =    30.6989   Anisotropy =    11.5984
   XX=    34.4578   YX=    -5.6653   ZX=    -1.1863
   XY=    -4.8074   YY=    31.0360   ZY=     0.9593
   XZ=    -0.9742   YZ=     0.9685   ZZ=    26.6028
   Eigenvalues:    26.4022    27.2632    38.4311
     31  H    Isotropic =    30.5483   Anisotropy =     8.7298
   XX=    32.5601   YX=     2.5151   ZX=     3.3679
   XY=     1.9223   YY=    28.8519   ZY=     3.6716
   XZ=     2.6134   YZ=     2.5525   ZZ=    30.2327
   Eigenvalues:    26.3497    28.9269    36.3681
 End of Minotr Frequency-dependent properties file   721 does not exist.
 End of Minotr Frequency-dependent properties file   722 does not exist.

 **********************************************************************

            Population analysis using the SCF density.

 **********************************************************************

 Orbital symmetries:
       Occupied  (A) (A) (A) (A) (A) (A) (A) (A) (A) (A) (A) (A)
                 (A) (A) (A) (A) (A) (A) (A) (A) (A) (A) (A) (A)
                 (A) (A) (A) (A) (A) (A) (A) (A) (A) (A) (A) (A)
                 (A) (A) (A) (A) (A) (A) (A) (A) (A) (A) (A) (A)
                 (A) (A) (A) (A) (A) (A) (A) (A)
       Virtual   (A) (A) (A) (A) (A) (A) (A) (A) (A) (A) (A) (A)
                 (A) (A) (A) (A) (A) (A) (A) (A) (A) (A) (A) (A)
                 (A) (A) (A) (A) (A) (A) (A) (A) (A) (A) (A) (A)
                 (A) (A) (A) (A) (A) (A) (A) (A) (A) (A) (A) (A)
                 (A) (A) (A) (A) (A) (A) (A) (A) (A) (A) (A) (A)
                 (A) (A) (A) (A) (A) (A) (A) (A) (A) (A) (A) (A)
                 (A) (A) (A) (A) (A) (A) (A) (A) (A) (A) (A) (A)
                 (A) (A) (A) (A) (A) (A) (A) (A) (A) (A) (A) (A)
                 (A) (A) (A) (A) (A) (A) (A) (A) (A) (A) (A) (A)
                 (A) (A) (A) (A) (A) (A) (A) (A) (A) (A) (A) (A)
                 (A) (A) (A) (A) (A) (A) (A) (A) (A) (A) (A) (A)
                 (A) (A) (A) (A) (A) (A) (A) (A) (A) (A) (A) (A)
                 (A) (A) (A) (A) (A) (A) (A) (A) (A) (A) (A) (A)
                 (A) (A) (A) (A) (A) (A) (A) (A) (A) (A) (A) (A)
                 (A) (A) (A) (A) (A) (A) (A) (A) (A) (A) (A) (A)
                 (A) (A) (A) (A) (A) (A) (A) (A) (A) (A) (A) (A)
                 (A) (A) (A) (A) (A) (A) (A) (A) (A) (A) (A) (A)
                 (A) (A) (A) (A) (A) (A) (A) (A) (A) (A) (A) (A)
                 (A) (A) (A) (A) (A) (A) (A) (A) (A) (A) (A) (A)
                 (A) (A) (A) (A) (A) (A) (A) (A) (A) (A) (A) (A)
                 (A) (A) (A) (A) (A) (A) (A) (A) (A) (A) (A) (A)
                 (A) (A) (A) (A) (A) (A) (A) (A) (A) (A) (A) (A)
                 (A) (A) (A) (A) (A) (A) (A) (A) (A) (A) (A) (A)
                 (A) (A) (A) (A) (A) (A) (A) (A) (A) (A) (A) (A)
                 (A) (A) (A) (A) (A) (A) (A) (A) (A) (A) (A) (A)
                 (A) (A) (A) (A) (A) (A) (A) (A) (A)
 The electronic state is 1-A.
 Alpha  occ. eigenvalues --  -19.32900 -19.28145 -19.27396 -10.44263 -10.35998
 Alpha  occ. eigenvalues --  -10.35074 -10.32169 -10.31559 -10.30742 -10.30701
 Alpha  occ. eigenvalues --  -10.30680 -10.30637 -10.30554 -10.28663 -10.28487
 Alpha  occ. eigenvalues --   -1.21053  -1.12922  -1.12349  -0.96224  -0.91265
 Alpha  occ. eigenvalues --   -0.86718  -0.84989  -0.84720  -0.77822  -0.75982
 Alpha  occ. eigenvalues --   -0.71539  -0.70020  -0.67925  -0.64534  -0.62467
 Alpha  occ. eigenvalues --   -0.59353  -0.58196  -0.57259  -0.56637  -0.55658
 Alpha  occ. eigenvalues --   -0.53208  -0.52954  -0.51762  -0.50612  -0.50343
 Alpha  occ. eigenvalues --   -0.48941  -0.47474  -0.46631  -0.46373  -0.45302
 Alpha  occ. eigenvalues --   -0.45214  -0.44327  -0.43189  -0.42151  -0.41726
 Alpha  occ. eigenvalues --   -0.40186  -0.38732  -0.37097  -0.36145  -0.33304
 Alpha  occ. eigenvalues --   -0.32468
 Alpha virt. eigenvalues --    0.04940   0.05195   0.06321   0.06849   0.07978
 Alpha virt. eigenvalues --    0.08294   0.08488   0.09312   0.09729   0.10307
 Alpha virt. eigenvalues --    0.10547   0.11188   0.11918   0.12143   0.12677
 Alpha virt. eigenvalues --    0.13228   0.13608   0.14372   0.14404   0.15418
 Alpha virt. eigenvalues --    0.15627   0.16294   0.16985   0.17776   0.17925
 Alpha virt. eigenvalues --    0.18675   0.19321   0.19822   0.19951   0.20278
 Alpha virt. eigenvalues --    0.20503   0.21430   0.21883   0.22302   0.22793
 Alpha virt. eigenvalues --    0.23215   0.23501   0.23818   0.24250   0.24737
 Alpha virt. eigenvalues --    0.25480   0.25566   0.26287   0.26606   0.26645
 Alpha virt. eigenvalues --    0.27450   0.27746   0.28220   0.28567   0.28785
 Alpha virt. eigenvalues --    0.29175   0.30310   0.30582   0.30710   0.31407
 Alpha virt. eigenvalues --    0.31895   0.32289   0.32587   0.32712   0.33266
 Alpha virt. eigenvalues --    0.33560   0.34645   0.35081   0.35351   0.36339
 Alpha virt. eigenvalues --    0.36829   0.37400   0.37984   0.38371   0.38635
 Alpha virt. eigenvalues --    0.39754   0.40023   0.40179   0.41862   0.42012
 Alpha virt. eigenvalues --    0.42719   0.43089   0.43771   0.44119   0.44522
 Alpha virt. eigenvalues --    0.44642   0.45911   0.46197   0.46780   0.48028
 Alpha virt. eigenvalues --    0.48929   0.49275   0.51217   0.52111   0.53162
 Alpha virt. eigenvalues --    0.55711   0.57190   0.60965   0.66214   0.69865
 Alpha virt. eigenvalues --    0.73052   0.73144   0.76211   0.76431   0.77620
 Alpha virt. eigenvalues --    0.77840   0.78156   0.78933   0.79269   0.80668
 Alpha virt. eigenvalues --    0.81834   0.83073   0.83576   0.84120   0.84793
 Alpha virt. eigenvalues --    0.85545   0.86397   0.88493   0.89284   0.90036
 Alpha virt. eigenvalues --    0.90673   0.91666   0.93074   0.93502   0.95795
 Alpha virt. eigenvalues --    0.98695   0.98923   1.00620   1.01410   1.02731
 Alpha virt. eigenvalues --    1.03204   1.05081   1.06337   1.06854   1.07378
 Alpha virt. eigenvalues --    1.09213   1.09961   1.11159   1.11909   1.13071
 Alpha virt. eigenvalues --    1.13386   1.15369   1.16729   1.18074   1.18966
 Alpha virt. eigenvalues --    1.20490   1.20654   1.21997   1.23302   1.24305
 Alpha virt. eigenvalues --    1.25145   1.26507   1.28397   1.28743   1.31314
 Alpha virt. eigenvalues --    1.33384   1.35054   1.35736   1.36416   1.38639
 Alpha virt. eigenvalues --    1.40073   1.41077   1.41517   1.42512   1.45575
 Alpha virt. eigenvalues --    1.46045   1.47070   1.48498   1.49122   1.50281
 Alpha virt. eigenvalues --    1.50885   1.51885   1.52680   1.53886   1.55510
 Alpha virt. eigenvalues --    1.57305   1.58284   1.61573   1.61774   1.66270
 Alpha virt. eigenvalues --    1.70330   1.71023   1.73461   1.74784   1.77843
 Alpha virt. eigenvalues --    1.80411   1.81659   1.84663   1.86540   1.87632
 Alpha virt. eigenvalues --    1.88794   1.91669   1.92395   1.94084   1.95021
 Alpha virt. eigenvalues --    1.97100   1.98038   1.99559   2.00724   2.01101
 Alpha virt. eigenvalues --    2.01624   2.02939   2.04707   2.05755   2.06250
 Alpha virt. eigenvalues --    2.06756   2.08332   2.10333   2.10473   2.11653
 Alpha virt. eigenvalues --    2.13240   2.14720   2.16392   2.17626   2.18376
 Alpha virt. eigenvalues --    2.19651   2.20385   2.21063   2.21565   2.25011
 Alpha virt. eigenvalues --    2.25667   2.26832   2.27580   2.30266   2.30835
 Alpha virt. eigenvalues --    2.32405   2.34307   2.36929   2.38563   2.38955
 Alpha virt. eigenvalues --    2.42529   2.43894   2.44473   2.46608   2.48208
 Alpha virt. eigenvalues --    2.48717   2.49338   2.50916   2.53534   2.55739
 Alpha virt. eigenvalues --    2.56015   2.56256   2.56922   2.59618   2.60055
 Alpha virt. eigenvalues --    2.63275   2.63672   2.65506   2.67146   2.67995
 Alpha virt. eigenvalues --    2.69114   2.70613   2.72506   2.73374   2.75594
 Alpha virt. eigenvalues --    2.77297   2.78540   2.80100   2.82152   2.83438
 Alpha virt. eigenvalues --    2.84697   2.85726   2.86926   2.87531   2.89362
 Alpha virt. eigenvalues --    2.90782   2.92180   2.94485   2.96681   2.97167
 Alpha virt. eigenvalues --    2.97925   2.99188   3.02257   3.07058   3.09315
 Alpha virt. eigenvalues --    3.12966   3.15976   3.17098   3.17703   3.26818
 Alpha virt. eigenvalues --    3.28699   3.31823   3.36506   3.37312   3.38817
 Alpha virt. eigenvalues --    3.39582   3.43713   3.45487   3.51724   3.53065
 Alpha virt. eigenvalues --    3.53815   3.57764   3.58776   3.61619   3.62845
 Alpha virt. eigenvalues --    3.65333   3.66019   3.67124   3.99572   4.40178
 Alpha virt. eigenvalues --    4.41304   4.43747   4.49177   4.53007   4.56461
 Alpha virt. eigenvalues --    4.58344   4.62119   4.63982   4.69882   4.72104
 Alpha virt. eigenvalues --    4.79170   4.82633   4.94608   5.00135
          Condensed to atoms (all electrons):
              1          2          3          4          5          6
     1  C   16.076514  -0.801245  -0.495543  -3.352944  -7.601941   0.110836
     2  C   -0.801245   7.536689   0.391579  -0.080227  -0.613411   0.463419
     3  C   -0.495543   0.391579   6.610357   0.052941  -0.571879   0.391261
     4  C   -3.352944  -0.080227   0.052941  14.530181  -1.980446  -0.971460
     5  C   -7.601941  -0.613411  -0.571879  -1.980446  16.724828   0.317198
     6  C    0.110836   0.463419   0.391261  -0.971460   0.317198   5.523507
     7  C    2.184282  -1.345076  -0.612337  -2.781487  -0.526459   0.083566
     8  C    0.059730   0.481226   0.277170   0.302872  -0.225479  -0.051123
     9  C   -0.698522  -0.077376  -0.172135   0.286420   0.475663   0.006385
    10  O    0.055060   0.005539   0.019468  -0.013765  -0.065689  -0.001838
    11  C    0.047494  -0.001565   0.000990  -0.017826  -0.017151  -0.002291
    12  O   -0.156297   0.149965   0.003092  -0.148514   0.196704   0.011894
    13  C    0.098314  -0.078025  -0.000265  -0.000851  -0.114850   0.006455
    14  O    0.052146   0.002055   0.008101  -0.042369  -0.035636   0.001003
    15  C   -0.004145  -0.001516  -0.004788  -0.003135   0.004905   0.000752
    16  H    0.167806   0.008998   0.073656   0.088963  -0.002768  -0.006388
    17  H    0.004597   0.273083  -0.003594   0.039998   0.012384   0.004440
    18  H    0.020424  -0.006546   0.261738   0.010796   0.006573   0.035231
    19  H    0.046182  -0.034029  -0.000559   0.105090   0.229153  -0.004768
    20  H   -0.004434   0.025948   0.039884   0.010285  -0.012554   0.265921
    21  H    0.138541   0.024782   0.061759  -0.014225  -0.079277  -0.001233
    22  H   -0.008577   0.001099  -0.002284   0.033434   0.001157  -0.000023
    23  H   -0.002342   0.000081  -0.005350   0.006730   0.004398  -0.000408
    24  H    0.003977  -0.000574  -0.001017  -0.004378  -0.000676   0.000495
    25  H    0.026596  -0.015602  -0.002888  -0.013175  -0.034672   0.001304
    26  H   -0.006077  -0.001883  -0.000781  -0.016407   0.006725   0.000269
    27  H   -0.015015   0.002928   0.000301  -0.040927   0.059345   0.000919
    28  H    0.027406   0.009952  -0.004872   0.012388  -0.044647   0.001353
    29  H    0.000224  -0.000014  -0.000016  -0.000330  -0.000114   0.000007
    30  H    0.000002  -0.000006  -0.000048  -0.000106   0.000033   0.000004
    31  H   -0.000160   0.000009  -0.000051   0.000198   0.000216   0.000003
              7          8          9         10         11         12
     1  C    2.184282   0.059730  -0.698522   0.055060   0.047494  -0.156297
     2  C   -1.345076   0.481226  -0.077376   0.005539  -0.001565   0.149965
     3  C   -0.612337   0.277170  -0.172135   0.019468   0.000990   0.003092
     4  C   -2.781487   0.302872   0.286420  -0.013765  -0.017826  -0.148514
     5  C   -0.526459  -0.225479   0.475663  -0.065689  -0.017151   0.196704
     6  C    0.083566  -0.051123   0.006385  -0.001838  -0.002291   0.011894
     7  C   10.070230  -1.852279   0.460785   0.008905  -0.030143   0.000810
     8  C   -1.852279   8.907935  -1.981112  -0.227317   0.124718  -0.025758
     9  C    0.460785  -1.981112   7.247050   0.326818  -0.207967   0.060437
    10  O    0.008905  -0.227317   0.326818   8.407844   0.041852  -0.002790
    11  C   -0.030143   0.124718  -0.207967   0.041852   5.145509  -0.000924
    12  O    0.000810  -0.025758   0.060437  -0.002790  -0.000924   8.320694
    13  C    0.112051   0.082055  -0.239542  -0.006252  -0.011611  -0.039346
    14  O   -0.004883  -0.151640   0.607481  -0.165688   0.009531  -0.001563
    15  C    0.012971  -0.069258   0.036639  -0.054194   0.233961   0.000025
    16  H   -0.023172   0.015099  -0.002963  -0.000471  -0.002373   0.000035
    17  H   -0.004975   0.000482  -0.000842  -0.000001  -0.000006   0.000148
    18  H   -0.001696  -0.001315   0.001603  -0.000035  -0.000041   0.000024
    19  H   -0.021441  -0.008381  -0.002270  -0.000039  -0.000009   0.004070
    20  H    0.001147   0.000361  -0.000244   0.000004   0.000037  -0.000003
    21  H    0.053109   0.271855  -0.182141   0.000246   0.000665  -0.045112
    22  H    0.007458   0.254124   0.054698   0.002581  -0.002685  -0.004503
    23  H   -0.005356   0.012586  -0.010771  -0.036572   0.401261   0.000007
    24  H    0.004617  -0.007133   0.015384  -0.062027   0.413565  -0.000002
    25  H    0.061243  -0.002899  -0.001742   0.000052   0.000001   0.232403
    26  H    0.033512  -0.102494   0.008686   0.001204  -0.002940  -0.000007
    27  H   -0.036086  -0.046754   0.008751   0.000439   0.000244   0.009159
    28  H    0.038997  -0.095550   0.011835  -0.000907  -0.002471  -0.004332
    29  H    0.001742  -0.006054   0.002491  -0.006168  -0.047398  -0.000001
    30  H    0.000232   0.002214   0.004546   0.007110  -0.045062   0.000000
    31  H   -0.001052   0.003106   0.007031  -0.003967  -0.045448   0.000000
             13         14         15         16         17         18
     1  C    0.098314   0.052146  -0.004145   0.167806   0.004597   0.020424
     2  C   -0.078025   0.002055  -0.001516   0.008998   0.273083  -0.006546
     3  C   -0.000265   0.008101  -0.004788   0.073656  -0.003594   0.261738
     4  C   -0.000851  -0.042369  -0.003135   0.088963   0.039998   0.010796
     5  C   -0.114850  -0.035636   0.004905  -0.002768   0.012384   0.006573
     6  C    0.006455   0.001003   0.000752  -0.006388   0.004440   0.035231
     7  C    0.112051  -0.004883   0.012971  -0.023172  -0.004975  -0.001696
     8  C    0.082055  -0.151640  -0.069258   0.015099   0.000482  -0.001315
     9  C   -0.239542   0.607481   0.036639  -0.002963  -0.000842   0.001603
    10  O   -0.006252  -0.165688  -0.054194  -0.000471  -0.000001  -0.000035
    11  C   -0.011611   0.009531   0.233961  -0.002373  -0.000006  -0.000041
    12  O   -0.039346  -0.001563   0.000025   0.000035   0.000148   0.000024
    13  C    5.522968   0.006384  -0.002491   0.001355   0.000808   0.000007
    14  O    0.006384   8.211561  -0.035189  -0.000557   0.000002  -0.000026
    15  C   -0.002491  -0.035189   5.247184  -0.000229  -0.000002   0.000052
    16  H    0.001355  -0.000557  -0.000229   0.507266   0.000011  -0.004014
    17  H    0.000808   0.000002  -0.000002   0.000011   0.496549  -0.000121
    18  H    0.000007  -0.000026   0.000052  -0.004014  -0.000121   0.497008
    19  H    0.006094   0.000015   0.000012  -0.000113  -0.004044   0.000011
    20  H   -0.000074   0.000001   0.000000  -0.000123  -0.003841  -0.003883
    21  H   -0.004567   0.017626  -0.000541   0.001359   0.000002  -0.000002
    22  H   -0.033222  -0.007524   0.001275  -0.000012   0.000000   0.000000
    23  H   -0.005119   0.002534  -0.029269  -0.000051   0.000000   0.000000
    24  H    0.003653  -0.000156  -0.034709   0.000000   0.000000   0.000000
    25  H   -0.000551   0.000064   0.000011   0.000037   0.000000   0.000000
    26  H    0.442029  -0.000899   0.000133   0.000001   0.000000   0.000000
    27  H    0.417952  -0.000259  -0.000070   0.000000   0.000000   0.000000
    28  H    0.407286  -0.000012  -0.000242  -0.000004  -0.000015   0.000000
    29  H    0.000125   0.001453   0.417685   0.000000   0.000000   0.000000
    30  H    0.000186  -0.000239   0.395077   0.000000   0.000000   0.000000
    31  H   -0.002272  -0.000426   0.406197   0.000000   0.000000   0.000000
             19         20         21         22         23         24
     1  C    0.046182  -0.004434   0.138541  -0.008577  -0.002342   0.003977
     2  C   -0.034029   0.025948   0.024782   0.001099   0.000081  -0.000574
     3  C   -0.000559   0.039884   0.061759  -0.002284  -0.005350  -0.001017
     4  C    0.105090   0.010285  -0.014225   0.033434   0.006730  -0.004378
     5  C    0.229153  -0.012554  -0.079277   0.001157   0.004398  -0.000676
     6  C   -0.004768   0.265921  -0.001233  -0.000023  -0.000408   0.000495
     7  C   -0.021441   0.001147   0.053109   0.007458  -0.005356   0.004617
     8  C   -0.008381   0.000361   0.271855   0.254124   0.012586  -0.007133
     9  C   -0.002270  -0.000244  -0.182141   0.054698  -0.010771   0.015384
    10  O   -0.000039   0.000004   0.000246   0.002581  -0.036572  -0.062027
    11  C   -0.000009   0.000037   0.000665  -0.002685   0.401261   0.413565
    12  O    0.004070  -0.000003  -0.045112  -0.004503   0.000007  -0.000002
    13  C    0.006094  -0.000074  -0.004567  -0.033222  -0.005119   0.003653
    14  O    0.000015   0.000001   0.017626  -0.007524   0.002534  -0.000156
    15  C    0.000012   0.000000  -0.000541   0.001275  -0.029269  -0.034709
    16  H   -0.000113  -0.000123   0.001359  -0.000012  -0.000051   0.000000
    17  H   -0.004044  -0.003841   0.000002   0.000000   0.000000   0.000000
    18  H    0.000011  -0.003883  -0.000002   0.000000   0.000000   0.000000
    19  H    0.501640  -0.000120  -0.000034  -0.000018   0.000000   0.000000
    20  H   -0.000120   0.499000   0.000000   0.000000   0.000000   0.000000
    21  H   -0.000034   0.000000   0.603772  -0.005778  -0.000003   0.000000
    22  H   -0.000018   0.000000  -0.005778   0.495463  -0.000019   0.000002
    23  H    0.000000   0.000000  -0.000003  -0.000019   0.521710  -0.031278
    24  H    0.000000   0.000000   0.000000   0.000002  -0.031278   0.529546
    25  H   -0.000967   0.000000  -0.005254   0.000076   0.000000   0.000000
    26  H    0.000051   0.000000  -0.000102  -0.003685  -0.000005   0.000014
    27  H   -0.000402   0.000000   0.000048  -0.002148   0.000001  -0.000001
    28  H   -0.000575   0.000000  -0.000129   0.003956  -0.000007   0.000023
    29  H    0.000000   0.000000  -0.000001   0.000006  -0.004768   0.003946
    30  H    0.000000   0.000000   0.000000  -0.000001  -0.001148  -0.001138
    31  H    0.000000   0.000000   0.000000  -0.000007   0.003783  -0.005000
             25         26         27         28         29         30
     1  C    0.026596  -0.006077  -0.015015   0.027406   0.000224   0.000002
     2  C   -0.015602  -0.001883   0.002928   0.009952  -0.000014  -0.000006
     3  C   -0.002888  -0.000781   0.000301  -0.004872  -0.000016  -0.000048
     4  C   -0.013175  -0.016407  -0.040927   0.012388  -0.000330  -0.000106
     5  C   -0.034672   0.006725   0.059345  -0.044647  -0.000114   0.000033
     6  C    0.001304   0.000269   0.000919   0.001353   0.000007   0.000004
     7  C    0.061243   0.033512  -0.036086   0.038997   0.001742   0.000232
     8  C   -0.002899  -0.102494  -0.046754  -0.095550  -0.006054   0.002214
     9  C   -0.001742   0.008686   0.008751   0.011835   0.002491   0.004546
    10  O    0.000052   0.001204   0.000439  -0.000907  -0.006168   0.007110
    11  C    0.000001  -0.002940   0.000244  -0.002471  -0.047398  -0.045062
    12  O    0.232403  -0.000007   0.009159  -0.004332  -0.000001   0.000000
    13  C   -0.000551   0.442029   0.417952   0.407286   0.000125   0.000186
    14  O    0.000064  -0.000899  -0.000259  -0.000012   0.001453  -0.000239
    15  C    0.000011   0.000133  -0.000070  -0.000242   0.417685   0.395077
    16  H    0.000037   0.000001   0.000000  -0.000004   0.000000   0.000000
    17  H    0.000000   0.000000   0.000000  -0.000015   0.000000   0.000000
    18  H    0.000000   0.000000   0.000000   0.000000   0.000000   0.000000
    19  H   -0.000967   0.000051  -0.000402  -0.000575   0.000000   0.000000
    20  H    0.000000   0.000000   0.000000   0.000000   0.000000   0.000000
    21  H   -0.005254  -0.000102   0.000048  -0.000129  -0.000001   0.000000
    22  H    0.000076  -0.003685  -0.002148   0.003956   0.000006  -0.000001
    23  H    0.000000  -0.000005   0.000001  -0.000007  -0.004768  -0.001148
    24  H    0.000000   0.000014  -0.000001   0.000023   0.003946  -0.001138
    25  H    0.361884   0.000002  -0.000168   0.000002   0.000000   0.000000
    26  H    0.000002   0.517920  -0.024891  -0.024201   0.000001   0.000000
    27  H   -0.000168  -0.024891   0.512502  -0.025570   0.000000   0.000000
    28  H    0.000002  -0.024201  -0.025570   0.508617   0.000000   0.000000
    29  H    0.000000   0.000001   0.000000   0.000000   0.508470  -0.021785
    30  H    0.000000   0.000000   0.000000   0.000000  -0.021785   0.505106
    31  H    0.000000  -0.000002   0.000000  -0.000001  -0.029219  -0.022572
             31
     1  C   -0.000160
     2  C    0.000009
     3  C   -0.000051
     4  C    0.000198
     5  C    0.000216
     6  C    0.000003
     7  C   -0.001052
     8  C    0.003106
     9  C    0.007031
    10  O   -0.003967
    11  C   -0.045448
    12  O    0.000000
    13  C   -0.002272
    14  O   -0.000426
    15  C    0.406197
    16  H    0.000000
    17  H    0.000000
    18  H    0.000000
    19  H    0.000000
    20  H    0.000000
    21  H    0.000000
    22  H   -0.000007
    23  H    0.003783
    24  H   -0.005000
    25  H    0.000000
    26  H   -0.000002
    27  H    0.000000
    28  H   -0.000001
    29  H   -0.029219
    30  H   -0.022572
    31  H    0.515724
 Mulliken atomic charges:
              1
     1  C    0.027109
     2  C   -0.320256
     3  C   -0.313891
     4  C    0.002273
     5  C   -0.111634
     6  C   -0.186690
     7  C    0.110784
     8  C    0.059014
     9  C   -0.045076
    10  O   -0.229403
    11  C    0.018082
    12  O   -0.560317
    13  C   -0.568684
    14  O   -0.472889
    15  C   -0.517098
    16  H    0.178650
    17  H    0.184935
    18  H    0.184212
    19  H    0.185451
    20  H    0.182687
    21  H    0.164635
    22  H    0.215157
    23  H    0.179376
    24  H    0.172866
    25  H    0.394243
    26  H    0.173828
    27  H    0.179702
    28  H    0.181719
    29  H    0.179716
    30  H    0.177594
    31  H    0.173906
 Sum of Mulliken atomic charges =   0.00000
 Mulliken charges with hydrogens summed into heavy atoms:
              1
     1  C    0.205759
     2  C   -0.135321
     3  C   -0.129679
     4  C    0.002273
     5  C    0.073817
     6  C   -0.004003
     7  C    0.275418
     8  C    0.274170
     9  C   -0.045076
    10  O   -0.229403
    11  C    0.370324
    12  O   -0.166074
    13  C   -0.033436
    14  O   -0.472889
    15  C    0.014118
 Sum of Mulliken charges with hydrogens summed into heavy atoms =   0.00000
 Electronic spatial extent (au):  <R**2>=           3579.8024
 Charge=              0.0000 electrons
 Dipole moment (field-independent basis, Debye):
    X=             -0.2402    Y=             -1.7422    Z=              1.6921  Tot=              2.4406
 Quadrupole moment (field-independent basis, Debye-Ang):
   XX=            -78.3950   YY=            -87.4789   ZZ=            -92.3082
   XY=             -1.0658   XZ=              2.9447   YZ=              0.0608
 Traceless Quadrupole moment (field-independent basis, Debye-Ang):
   XX=              7.6657   YY=             -1.4182   ZZ=             -6.2475
   XY=             -1.0658   XZ=              2.9447   YZ=              0.0608
 Octapole moment (field-independent basis, Debye-Ang**2):
  XXX=             30.1684  YYY=            -30.4916  ZZZ=              3.2820  XYY=              8.3754
  XXY=            -11.1642  XXZ=             22.7601  XZZ=            -11.0494  YZZ=              4.6395
  YYZ=             -1.2931  XYZ=              0.2780
 Hexadecapole moment (field-independent basis, Debye-Ang**3):
 XXXX=          -2947.8700 YYYY=          -1195.1202 ZZZZ=           -555.2200 XXXY=            -77.8751
 XXXZ=            -30.7329 YYYX=             18.2078 YYYZ=             16.1616 ZZZX=             13.5190
 ZZZY=             -9.1077 XXYY=           -605.7020 XXZZ=           -596.4362 YYZZ=           -274.0831
 XXYZ=            -41.8402 YYXZ=             14.0289 ZZXY=            -15.4908
 N-N= 1.016214473576D+03 E-N=-3.644360513947D+03  KE= 6.858685490109D+02
 1\1\GINC-COMPUTE-8-6\SP\RwB97XD\6-31+G(d,p)\C12H16O3\ELUCIANO.IQUIR\17
 -May-2022\0\\# wb97xd/6-31+g** scrf=(pcm,solvent=chloroform,smd,dovacu
 um) nmr\\comment\\0,1\C,0,0.120797154,-1.425085202,-1.703728434\C,0,-0
 .216622544,-3.588086781,0.021289025\C,0,0.942325884,-2.547927356,-1.81
 9631154\C,0,-0.881776574,-1.367938049,-0.7228523\C,0,-1.038579901,-2.4
 6580647,0.13830579\C,0,0.773287804,-3.62874723,-0.957572749\C,0,-1.759
 021162,-0.133338886,-0.608468926\C,0,-1.286810937,0.923530422,0.406751
 524\C,0,0.006883054,1.547884662,-0.084998153\O,0,0.937656804,1.6573582
 14,0.899939815\C,0,2.197818305,2.230119557,0.521158696\O,0,-3.10440685
 1,-0.519855357,-0.29538102\C,0,-1.233148878,0.41156159,1.849174226\O,0
 ,0.171534504,1.933175451,-1.237637871\C,0,2.140529852,3.74164494,0.635
 859444\H,0,0.271705994,-0.590929467,-2.387974903\H,0,-0.348314693,-4.4
 29835063,0.696361032\H,0,1.715055624,-2.577504473,-2.583694665\H,0,-1.
 803184,-2.450911516,0.913194514\H,0,1.413693125,-4.502181804,-1.048061
 264\H,0,-1.825363181,0.327638326,-1.6025385\H,0,-2.024090052,1.7388211
 42,0.410977443\H,0,2.49291093,1.913939537,-0.485957036\H,0,2.948688729
 ,1.83658134,1.214092279\H,0,-3.309639639,-1.288654054,-0.856719094\H,0
 ,-1.042538429,1.23881098,2.542539959\H,0,-2.181785883,-0.04780244,2.14
 4577335\H,0,-0.43283022,-0.320950569,1.995369961\H,0,1.395189374,4.159
 884415,-0.047934541\H,0,3.113329924,4.185216274,0.405789106\H,0,1.8467
 0588,4.039387865,1.647770462\\Version=EM64L-G09RevC.01\State=1-A\HF=-6
 92.4434245\RMSD=9.501e-09\Dipole=0.7533975,-0.4376582,0.4034958\Quadru
 pole=0.1384595,3.0321422,-3.1706017,3.057539,0.43495,3.7197301\PG=C01 
 [X(C12H16O3)]\\@


 MUD THROWN IS GROUND LOST -- FROM A TEA BAG
 Job cpu time:  0 days  1 hours 58 minutes 33.3 seconds.
 File lengths (MBytes):  RWF=    123 Int=      0 D2E=      0 Chk=      9 Scr=      1
 Normal termination of Gaussian 09 at Tue May 17 16:32:12 2022.
