 Entering Gaussian System, Link 0=g09
 Input=/home/eluciano.iquir/wb9/73b_022.gjc
 Output=/home/eluciano.iquir/wb9/73b_022.log
 Initial command:
 /share/apps/Gaussian09/EM64T.SSE4.2-enabled/g09/l1.exe /tmp/Gau-26623.inp -scrdir=/tmp/
 Entering Link 1 = /share/apps/Gaussian09/EM64T.SSE4.2-enabled/g09/l1.exe PID=     26624.
  
 Copyright (c) 1988,1990,1992,1993,1995,1998,2003,2009,2011,
            Gaussian, Inc.  All Rights Reserved.
  
 This is part of the Gaussian(R) 09 program.  It is based on
 the Gaussian(R) 03 system (copyright 2003, Gaussian, Inc.),
 the Gaussian(R) 98 system (copyright 1998, Gaussian, Inc.),
 the Gaussian(R) 94 system (copyright 1995, Gaussian, Inc.),
 the Gaussian 92(TM) system (copyright 1992, Gaussian, Inc.),
 the Gaussian 90(TM) system (copyright 1990, Gaussian, Inc.),
 the Gaussian 88(TM) system (copyright 1988, Gaussian, Inc.),
 the Gaussian 86(TM) system (copyright 1986, Carnegie Mellon
 University), and the Gaussian 82(TM) system (copyright 1983,
 Carnegie Mellon University). Gaussian is a federally registered
 trademark of Gaussian, Inc.
  
 This software contains proprietary and confidential information,
 including trade secrets, belonging to Gaussian, Inc.
  
 This software is provided under written license and may be
 used, copied, transmitted, or stored only in accord with that
 written license.
  
 The following legend is applicable only to US Government
 contracts under FAR:
  
                    RESTRICTED RIGHTS LEGEND
  
 Use, reproduction and disclosure by the US Government is
 subject to restrictions as set forth in subparagraphs (a)
 and (c) of the Commercial Computer Software - Restricted
 Rights clause in FAR 52.227-19.
  
 Gaussian, Inc.
 340 Quinnipiac St., Bldg. 40, Wallingford CT 06492
  
  
 ---------------------------------------------------------------
 Warning -- This program may not be used in any manner that
 competes with the business of Gaussian, Inc. or will provide
 assistance to any competitor of Gaussian, Inc.  The licensee
 of this program is prohibited from giving any competitor of
 Gaussian, Inc. access to this program.  By using this program,
 the user acknowledges that Gaussian, Inc. is engaged in the
 business of creating and licensing software in the field of
 computational chemistry and represents and warrants to the
 licensee that it is not a competitor of Gaussian, Inc. and that
 it will not use this program in any manner prohibited above.
 ---------------------------------------------------------------
  

 Cite this work as:
 Gaussian 09, Revision C.01,
 M. J. Frisch, G. W. Trucks, H. B. Schlegel, G. E. Scuseria, 
 M. A. Robb, J. R. Cheeseman, G. Scalmani, V. Barone, B. Mennucci, 
 G. A. Petersson, H. Nakatsuji, M. Caricato, X. Li, H. P. Hratchian, 
 A. F. Izmaylov, J. Bloino, G. Zheng, J. L. Sonnenberg, M. Hada, 
 M. Ehara, K. Toyota, R. Fukuda, J. Hasegawa, M. Ishida, T. Nakajima, 
 Y. Honda, O. Kitao, H. Nakai, T. Vreven, J. A. Montgomery, Jr., 
 J. E. Peralta, F. Ogliaro, M. Bearpark, J. J. Heyd, E. Brothers, 
 K. N. Kudin, V. N. Staroverov, T. Keith, R. Kobayashi, J. Normand, 
 K. Raghavachari, A. Rendell, J. C. Burant, S. S. Iyengar, J. Tomasi, 
 M. Cossi, N. Rega, J. M. Millam, M. Klene, J. E. Knox, J. B. Cross, 
 V. Bakken, C. Adamo, J. Jaramillo, R. Gomperts, R. E. Stratmann, 
 O. Yazyev, A. J. Austin, R. Cammi, C. Pomelli, J. W. Ochterski, 
 R. L. Martin, K. Morokuma, V. G. Zakrzewski, G. A. Voth, 
 P. Salvador, J. J. Dannenberg, S. Dapprich, A. D. Daniels, 
 O. Farkas, J. B. Foresman, J. V. Ortiz, J. Cioslowski, 
 and D. J. Fox, Gaussian, Inc., Wallingford CT, 2010.
 
 ******************************************
 Gaussian 09:  EM64L-G09RevC.01 23-Sep-2011
                17-May-2022 
 ******************************************
 %nprocshared=4
 Will use up to    4 processors via shared memory.
 ----------------------------------------------------------------
 # wb97xd/6-31+g** scrf=(pcm,solvent=chloroform,smd,dovacuum) nmr
 ----------------------------------------------------------------
 1/38=1/1;
 2/12=2,17=6,18=5,40=1/2;
 3/5=1,6=6,7=111,11=2,16=1,25=1,30=1,70=32101,72=7,74=-58/1,2,8,3;
 4//1;
 5/5=2,38=5,53=7/2;
 8/6=1,10=90,11=11/1;
 10/13=100,45=16/2;
 6/7=2,8=2,9=2,10=2,28=1/1;
 99/9=1/99;
 -------
 comment
 -------
 Charge =  0 Multiplicity = 1
 Symbolic Z-Matrix:
 6                    -1.08315  -2.65557   0.64567 
 6                    -3.65503  -1.66755   0.21185 
 6                    -2.19664  -3.42527   0.98859 
 6                    -1.24221  -1.37976   0.08258 
 6                    -2.54315  -0.8964   -0.1306 
 6                    -3.48131  -2.93083   0.77274 
 6                    -0.02804  -0.53979  -0.25782 
 6                     0.19239   0.65352   0.69262 
 6                     1.59787   1.18028   0.46012 
 8                     1.67444   1.78494  -0.76259 
 6                     2.96364   2.33449  -1.0688 
 8                    -0.22507  -0.07513  -1.60136 
 6                     0.03868   0.3053    2.17664 
 8                     2.53429   1.07413   1.23929 
 6                     2.89217   2.96286  -2.44666 
 1                    -0.08912  -3.06003   0.8229 
 1                    -4.65606  -1.28326   0.03529 
 1                    -2.06121  -4.41244   1.42268 
 1                    -2.69219   0.08393  -0.57855 
 1                    -4.34719  -3.53196   1.03685 
 1                     0.86278  -1.18022  -0.28262 
 1                    -0.50236   1.47191   0.46209 
 1                     3.71531   1.53731  -1.06418 
 1                     3.22589   3.09632  -0.3263 
 1                     0.51078   0.52386  -1.82195 
 1                     0.329     1.15327   2.80756 
 1                    -0.9982    0.05913   2.42549 
 1                     0.67169  -0.54443   2.45587 
 1                     2.60765   2.21672  -3.19599 
 1                     3.8555    3.39713  -2.72812 
 1                     2.12885   3.74755  -2.47328 
 
                          Input orientation:                          
 ---------------------------------------------------------------------
 Center     Atomic      Atomic             Coordinates (Angstroms)
 Number     Number       Type             X           Y           Z
 ---------------------------------------------------------------------
      1          6           0       -1.083152   -2.655567    0.645666
      2          6           0       -3.655027   -1.667546    0.211851
      3          6           0       -2.196641   -3.425269    0.988587
      4          6           0       -1.242208   -1.379763    0.082579
      5          6           0       -2.543153   -0.896401   -0.130596
      6          6           0       -3.481311   -2.930825    0.772740
      7          6           0       -0.028039   -0.539789   -0.257821
      8          6           0        0.192387    0.653517    0.692618
      9          6           0        1.597871    1.180280    0.460118
     10          8           0        1.674438    1.784942   -0.762594
     11          6           0        2.963641    2.334494   -1.068796
     12          8           0       -0.225069   -0.075130   -1.601360
     13          6           0        0.038679    0.305302    2.176635
     14          8           0        2.534293    1.074125    1.239293
     15          6           0        2.892167    2.962861   -2.446661
     16          1           0       -0.089116   -3.060034    0.822897
     17          1           0       -4.656057   -1.283261    0.035292
     18          1           0       -2.061211   -4.412443    1.422682
     19          1           0       -2.692191    0.083927   -0.578553
     20          1           0       -4.347187   -3.531957    1.036852
     21          1           0        0.862775   -1.180221   -0.282623
     22          1           0       -0.502360    1.471909    0.462091
     23          1           0        3.715306    1.537307   -1.064178
     24          1           0        3.225886    3.096318   -0.326295
     25          1           0        0.510781    0.523858   -1.821947
     26          1           0        0.329003    1.153274    2.807555
     27          1           0       -0.998199    0.059130    2.425487
     28          1           0        0.671693   -0.544425    2.455874
     29          1           0        2.607650    2.216717   -3.195993
     30          1           0        3.855499    3.397126   -2.728117
     31          1           0        2.128851    3.747546   -2.473283
 ---------------------------------------------------------------------
                    Distance matrix (angstroms):
                    1          2          3          4          5
     1  C    0.000000
     2  C    2.789073   0.000000
     3  C    1.396386   2.412427   0.000000
     4  C    1.403582   2.433358   2.432260   0.000000
     5  C    2.414302   1.395779   2.787080   1.404116   0.000000
     6  C    2.417247   1.393072   1.393357   2.809929   2.415582
     7  C    2.531021   3.827201   3.818686   1.515135   2.543454
     8  C    3.546723   4.518968   4.736196   2.562116   3.250094
     9  C    4.683592   5.980358   5.990716   3.842187   4.670078
    10  O    5.413466   6.424361   6.722960   4.385943   5.037569
    11  C    6.649557   7.839843   8.002262   5.728047   6.453192
    12  O    3.527618   4.193821   4.671012   2.360570   2.865510
    13  C    3.516976   4.625578   4.508356   2.977447   3.665142
    14  O    5.229618   6.846903   6.533692   4.649894   5.616051
    15  C    7.545355   8.448320   8.860311   6.507572   7.056966
    16  H    1.087709   3.876613   2.145346   2.168180   3.407749
    17  H    3.875749   1.086695   3.397896   3.415540   2.154423
    18  H    2.155683   3.397179   1.086873   3.415229   3.873951
    19  H    3.404783   2.149290   3.875043   2.163778   1.088081
    20  H    3.402207   2.153077   2.153732   3.896597   3.400533
    21  H    2.612470   4.570835   4.002030   2.145727   3.421113
    22  H    4.172180   4.456244   5.208661   2.970428   3.181982
    23  H    6.597648   8.137638   7.986997   5.865261   6.779589
    24  H    7.252358   8.386356   8.582762   6.337692   7.018684
    25  H    4.328796   5.127626   5.552012   3.213092   3.768862
    26  H    4.601654   5.528761   5.536297   4.038623   4.591643
    27  H    3.247239   3.865272   3.954994   2.760285   3.135838
    28  H    3.288351   5.001754   4.321982   3.161224   4.141129
    29  H    7.219384   8.119238   8.510225   6.205248   6.754179
    30  H    8.509276   9.523777   9.848216   7.530292   8.131681
    31  H    7.813108   8.365789   9.063317   6.647238   6.991570
                    6          7          8          9         10
     6  C    0.000000
     7  C    4.324835   0.000000
     8  C    5.133224   1.541396   0.000000
     9  C    6.541942   2.473390   1.518854   0.000000
    10  O    7.153843   2.925338   2.365214   1.366201   0.000000
    11  C    8.523629   4.227213   3.688917   2.352683   1.434507
    12  O    4.939075   1.435210   2.442854   3.024708   2.787746
    13  C    4.983350   2.577830   1.532053   2.478527   3.674794
    14  O    7.241878   3.378108   2.441369   1.222812   2.291759
    15  C    9.258580   5.058378   4.740986   3.647213   2.388816
    16  H    3.395026   2.742867   3.726484   4.577969   5.394229
    17  H    2.153677   4.696510   5.262185   6.735066   7.079947
    18  H    2.152743   4.685651   5.592464   6.752330   7.558974
    19  H    3.396680   2.754922   3.203296   4.548127   4.689859
    20  H    1.086671   5.411495   6.184208   7.607990   8.232095
    21  H    4.800989   1.097415   2.182455   2.581471   3.111489
    22  H    5.324916   2.188649   1.097990   2.120382   2.517199
    23  H    8.667743   4.356280   4.034646   2.633340   2.077840
    24  H    9.084098   4.879958   4.025863   2.634404   2.077752
    25  H    5.882520   1.966765   2.537956   2.611604   2.016596
    26  H    5.944648   3.520010   2.177471   2.668560   3.867191
    27  H    4.223417   2.915485   2.184863   3.443723   4.503918
    28  H    5.076937   2.802461   2.184919   2.795613   4.097559
    29  H    8.906373   4.814357   4.837187   3.932048   2.641731
    30  H   10.301833   6.056693   5.713773   4.491786   3.349544
    31  H    9.306516   5.285990   4.831753   3.934163   2.642870
                   11         12         13         14         15
    11  C    0.000000
    12  O    4.032094   0.000000
    13  C    4.817244   3.806250   0.000000
    14  O    2.664609   4.123612   2.774488   0.000000
    15  C    1.516070   4.434082   6.048130   4.157121   0.000000
    16  H    6.480645   3.847748   3.629660   4.913953   7.473508
    17  H    8.506877   4.875639   5.399021   7.662115   9.009180
    18  H    8.773697   5.597190   5.218726   7.159240   9.690350
    19  H    6.106867   2.675467   3.885579   5.621494   6.554628
    20  H    9.607143   5.991800   5.937970   8.283220  10.330816
    21  H    4.169523   2.035609   2.988957   3.192534   5.095745
    22  H    3.885978   2.593849   2.143212   3.159673   4.712387
    23  H    1.095686   4.291279   5.053542   2.629697   2.149656
    24  H    1.095653   4.857259   4.920642   2.649270   2.150612
    25  H    3.140407   0.974126   4.032283   3.710604   3.465545
    26  H    4.833497   4.610261   1.096086   2.707215   6.119739
    27  H    5.751823   4.102591   1.094369   3.862094   6.877822
    28  H    5.095537   4.181575   1.095772   2.751191   6.423894
    29  H    2.159992   3.977400   6.254458   4.580683   1.095070
    30  H    2.162856   5.475142   6.941476   4.783541   1.093532
    31  H    2.160133   4.573188   6.151390   4.592906   1.095030
                   16         17         18         19         20
    16  H    0.000000
    17  H    4.963284   0.000000
    18  H    2.465342   4.295330   0.000000
    19  H    4.315618   2.470380   4.961897   0.000000
    20  H    4.289482   2.480959   2.479881   4.292221   0.000000
    21  H    2.379489   5.528942   4.680280   3.784631   5.866462
    22  H    4.565026   5.002631   6.162658   2.793706   6.336539
    23  H    6.258612   8.901918   8.657491   6.588184   9.752720
    24  H    7.085941   9.024216   9.348466   6.645433  10.155965
    25  H    4.494370   5.780244   6.442812   3.463899   6.944222
    26  H    4.676073   6.202658   6.213550   4.662279   6.852265
    27  H    3.622694   4.571101   4.704315   3.448837   5.102934
    28  H    3.094145   5.898305   4.847454   4.573652   6.010667
    29  H    7.160176   8.686338   9.331462   6.283955   9.966643
    30  H    8.358505  10.098962  10.640769   7.646579  11.378543
    31  H    7.882090   8.811183   9.965972   6.344648  10.356220
                   21         22         23         24         25
    21  H    0.000000
    22  H    3.074409   0.000000
    23  H    4.016555   4.485808   0.000000
    24  H    4.886203   4.142472   1.792907   0.000000
    25  H    2.323210   2.672467   3.445326   4.028190   0.000000
    26  H    3.908876   2.508764   5.157988   4.689176   4.675628
    27  H    3.511847   2.469155   6.048131   5.885551   4.531411
    28  H    2.817821   3.069068   5.097838   5.245892   4.412128
    29  H    4.803280   4.858855   2.496625   3.064487   3.025001
    30  H    5.990738   5.733657   2.499455   2.501129   4.501550
    31  H    5.539389   4.551727   3.063915   2.497427   3.665318
                   26         27         28         29         30
    26  H    0.000000
    27  H    1.761986   0.000000
    28  H    1.767285   1.775877   0.000000
    29  H    6.508896   7.018430   6.581446   0.000000
    30  H    6.936477   7.826892   7.248877   1.780281   0.000000
    31  H    6.152801   6.883372   6.696336   1.759260   1.780182
                   31
    31  H    0.000000
 Stoichiometry    C12H16O3
 Framework group  C1[X(C12H16O3)]
 Deg. of freedom    87
 Full point group                 C1      NOp   1
 Largest Abelian subgroup         C1      NOp   1
 Largest concise Abelian subgroup C1      NOp   1
                         Standard orientation:                         
 ---------------------------------------------------------------------
 Center     Atomic      Atomic             Coordinates (Angstroms)
 Number     Number       Type             X           Y           Z
 ---------------------------------------------------------------------
      1          6           0        2.548575    0.434535   -1.154127
      2          6           0        3.696359   -0.991031    0.950459
      3          6           0        3.935412    0.419793   -0.991765
      4          6           0        1.717315   -0.262786   -0.263739
      5          6           0        2.309879   -0.976568    0.790266
      6          6           0        4.508333   -0.291588    0.060444
      7          6           0        0.212087   -0.215679   -0.430173
      8          6           0       -0.507719    0.635842    0.634108
      9          6           0       -1.926975    0.881202    0.151999
     10          8           0       -2.644170   -0.280684    0.198454
     11          6           0       -4.009424   -0.147927   -0.221390
     12          8           0       -0.241525   -1.575912   -0.368297
     13          6           0        0.158515    1.988500    0.905466
     14          8           0       -2.370563    1.953049   -0.234837
     15          6           0       -4.668049   -1.509552   -0.118152
     16          1           0        2.121645    0.996466   -1.981820
     17          1           0        4.141568   -1.553016    1.767079
     18          1           0        4.569218    0.962350   -1.688338
     19          1           0        1.687364   -1.536283    1.485331
     20          1           0        5.587876   -0.305179    0.183964
     21          1           0       -0.032018    0.143186   -1.438115
     22          1           0       -0.578427    0.094869    1.586962
     23          1           0       -4.044146    0.202212   -1.259043
     24          1           0       -4.527727    0.565625    0.428735
     25          1           0       -1.214925   -1.568889   -0.405238
     26          1           0       -0.460633    2.600817    1.571145
     27          1           0        1.130864    1.866094    1.392497
     28          1           0        0.305390    2.555157   -0.020842
     29          1           0       -4.145081   -2.238955   -0.745571
     30          1           0       -5.715123   -1.461358   -0.429799
     31          1           0       -4.621626   -1.883170    0.910121
 ---------------------------------------------------------------------
 Rotational constants (GHZ):      1.4369668      0.2871904      0.2625865
 Standard basis: 6-31+G(d,p) (6D, 7F)
 There are   365 symmetry adapted basis functions of A   symmetry.
 Integral buffers will be    131072 words long.
 Raffenetti 2 integral format.
 Two-electron integral symmetry is turned on.
   365 basis functions,   592 primitive gaussians,   365 cartesian basis functions
    56 alpha electrons       56 beta electrons
       nuclear repulsion energy       995.3914683591 Hartrees.
 NAtoms=   31 NActive=   31 NUniq=   31 SFac= 1.00D+00 NAtFMM=   60 NAOKFM=F Big=F
 Nuclear repulsion after empirical dispersion term =      995.3706954125 Hartrees.
 ------------------------------------------------------------------------------
 Polarizable Continuum Model (PCM)
 =================================
 Model                : C-PCM.
 Atomic radii         : SMD-Coulomb.
 Polarization charges : Total charges.
 Charge compensation  : None.
 Solution method      : Matrix inversion.
 Cavity type          : VdW (van der Waals Surface) (Alpha=1.000).
 Cavity algorithm     : GePol (No added spheres)
                        Default sphere list used, NSphG=   31.
                        Lebedev-Laikov grids with approx.  5.0 points / Ang**2.
                        Smoothing algorithm: Karplus/York (Gamma=1.0000).
                        Polarization charges: spherical gaussians, with
                                              point-specific exponents (IZeta= 3).
                        Self-potential: point-specific (ISelfS= 7).
                        Self-field    : sphere-specific E.n sum rule (ISelfD= 2).
 Solvent              : Chloroform, Eps=   4.711300 Eps(inf)=   2.090627
 ------------------------------------------------------------------------------
 ------------------------------------------------------------------------------
 Atomic radii for non-electrostatic terms: SMD-CDS.
 ------------------------------------------------------------------------------
 Nuclear repulsion after PCM non-electrostatic terms =      995.3640944872 Hartrees.
 One-electron integrals computed using PRISM.
 NBasis=   365 RedAO= T  NBF=   365
 NBsUse=   365 1.00D-06 NBFU=   365
 Harris functional with IExCor= 4639 diagonalized for initial guess.
 ExpMin= 4.38D-02 ExpMax= 5.48D+03 ExpMxC= 8.25D+02 IAcc=2 IRadAn=         4 AccDes= 0.00D+00
 HarFok:  IExCor= 4639 AccDes= 0.00D+00 IRadAn=         4 IDoV= 1
 ScaDFX=  1.000000  1.000000  1.000000  1.000000
 FoFCou: FMM=F IPFlag=           0 FMFlag=      100000 FMFlg1=           0
         NFxFlg=           0 DoJE=T BraDBF=F KetDBF=T FulRan=T
         Omega=  0.000000  0.000000  1.000000  0.000000  0.000000 ICntrl=     500 IOpCl=  0
         NMat0=    1 NMatS0=    1 NMatT0=    0 NMatD0=    1 NMtDS0=    0 NMtDT0=    0
         I1Cent=           4 NGrid=           0.
 Petite list used in FoFCou.
 Initial guess orbital symmetries:
       Occupied  (A) (A) (A) (A) (A) (A) (A) (A) (A) (A) (A) (A)
                 (A) (A) (A) (A) (A) (A) (A) (A) (A) (A) (A) (A)
                 (A) (A) (A) (A) (A) (A) (A) (A) (A) (A) (A) (A)
                 (A) (A) (A) (A) (A) (A) (A) (A) (A) (A) (A) (A)
                 (A) (A) (A) (A) (A) (A) (A) (A)
       Virtual   (A) (A) (A) (A) (A) (A) (A) (A) (A) (A) (A) (A)
                 (A) (A) (A) (A) (A) (A) (A) (A) (A) (A) (A) (A)
                 (A) (A) (A) (A) (A) (A) (A) (A) (A) (A) (A) (A)
                 (A) (A) (A) (A) (A) (A) (A) (A) (A) (A) (A) (A)
                 (A) (A) (A) (A) (A) (A) (A) (A) (A) (A) (A) (A)
                 (A) (A) (A) (A) (A) (A) (A) (A) (A) (A) (A) (A)
                 (A) (A) (A) (A) (A) (A) (A) (A) (A) (A) (A) (A)
                 (A) (A) (A) (A) (A) (A) (A) (A) (A) (A) (A) (A)
                 (A) (A) (A) (A) (A) (A) (A) (A) (A) (A) (A) (A)
                 (A) (A) (A) (A) (A) (A) (A) (A) (A) (A) (A) (A)
                 (A) (A) (A) (A) (A) (A) (A) (A) (A) (A) (A) (A)
                 (A) (A) (A) (A) (A) (A) (A) (A) (A) (A) (A) (A)
                 (A) (A) (A) (A) (A) (A) (A) (A) (A) (A) (A) (A)
                 (A) (A) (A) (A) (A) (A) (A) (A) (A) (A) (A) (A)
                 (A) (A) (A) (A) (A) (A) (A) (A) (A) (A) (A) (A)
                 (A) (A) (A) (A) (A) (A) (A) (A) (A) (A) (A) (A)
                 (A) (A) (A) (A) (A) (A) (A) (A) (A) (A) (A) (A)
                 (A) (A) (A) (A) (A) (A) (A) (A) (A) (A) (A) (A)
                 (A) (A) (A) (A) (A) (A) (A) (A) (A) (A) (A) (A)
                 (A) (A) (A) (A) (A) (A) (A) (A) (A) (A) (A) (A)
                 (A) (A) (A) (A) (A) (A) (A) (A) (A) (A) (A) (A)
                 (A) (A) (A) (A) (A) (A) (A) (A) (A) (A) (A) (A)
                 (A) (A) (A) (A) (A) (A) (A) (A) (A) (A) (A) (A)
                 (A) (A) (A) (A) (A) (A) (A) (A) (A) (A) (A) (A)
                 (A) (A) (A) (A) (A) (A) (A) (A) (A) (A) (A) (A)
                 (A) (A) (A) (A) (A) (A) (A) (A) (A)
 The electronic state of the initial guess is 1-A.
 Requested convergence on RMS density matrix=1.00D-08 within 128 cycles.
 Requested convergence on MAX density matrix=1.00D-06.
 Requested convergence on             energy=1.00D-06.
 No special actions if energy rises.
 FoFJK:  IHMeth= 1 ICntrl=     0 DoSepK=T KAlg= 1 I1Cent= 0 FoldK=F
 FoFJK:  IHMeth= 1 ICntrl=     0 DoSepK=T KAlg= 1 I1Cent= 0 FoldK=F
 FoFJK:  IHMeth= 1 ICntrl=     0 DoSepK=T KAlg= 1 I1Cent= 0 FoldK=F
 FoFJK:  IHMeth= 1 ICntrl=     0 DoSepK=T KAlg= 1 I1Cent= 0 FoldK=F
 FoFJK:  IHMeth= 1 ICntrl=     0 DoSepK=T KAlg= 1 I1Cent= 0 FoldK=F
 FoFJK:  IHMeth= 1 ICntrl=     0 DoSepK=T KAlg= 1 I1Cent= 0 FoldK=F
 FoFJK:  IHMeth= 1 ICntrl=     0 DoSepK=T KAlg= 1 I1Cent= 0 FoldK=F
 FoFJK:  IHMeth= 1 ICntrl=     0 DoSepK=T KAlg= 1 I1Cent= 0 FoldK=F
 FoFJK:  IHMeth= 1 ICntrl=     0 DoSepK=T KAlg= 1 I1Cent= 0 FoldK=F
 FoFJK:  IHMeth= 1 ICntrl=     0 DoSepK=T KAlg= 1 I1Cent= 0 FoldK=F
 FoFJK:  IHMeth= 1 ICntrl=     0 DoSepK=T KAlg= 1 I1Cent= 0 FoldK=F
 FoFJK:  IHMeth= 1 ICntrl=     0 DoSepK=T KAlg= 1 I1Cent= 0 FoldK=F
 FoFJK:  IHMeth= 1 ICntrl=     0 DoSepK=T KAlg= 1 I1Cent= 0 FoldK=F
 FoFJK:  IHMeth= 1 ICntrl=     0 DoSepK=T KAlg= 1 I1Cent= 0 FoldK=F
 FoFJK:  IHMeth= 1 ICntrl=     0 DoSepK=T KAlg= 1 I1Cent= 0 FoldK=F
 FoFJK:  IHMeth= 1 ICntrl=     0 DoSepK=T KAlg= 1 I1Cent= 0 FoldK=F
 Error on total polarization charges =  0.04058
 SCF Done:  E(RwB97XD) =  -692.445192533     A.U. after   16 cycles
             Convg  =    0.2030D-08             -V/T =  2.0095
 SMD-CDS (non-electrostatic) energy       (kcal/mol) =      -4.14
 (included in total energy above)
 Range of M.O.s used for correlation:     1   365
 NBasis=   365 NAE=    56 NBE=    56 NFC=     0 NFV=     0
 NROrb=    365 NOA=    56 NOB=    56 NVA=   309 NVB=   309

 **** Warning!!: The largest alpha MO coefficient is  0.13061077D+03

 NEqPCM:  Using equilibrium solvation (IEInf=0, Eps=   4.7113, EpsInf=   2.0906)
          Differentiating once with respect to magnetic field using GIAOs.
          Electric field/nuclear overlap derivatives assumed to be zero.
 FoFCou: FMM=F IPFlag=           0 FMFlag=    10101102 FMFlg1=           0
         NFxFlg=    40000000 DoJE=F BraDBF=F KetDBF=T FulRan=T
         Omega=  0.000000  0.000000  1.000000  0.000000  0.000000 ICntrl=    6100 IOpCl=  0
         NMat0=    1 NMatS0=    1 NMatT0=    0 NMatD0=    1 NMtDS0=    0 NMtDT0=    0
         I1Cent=           7 NGrid=        2286.
 Symmetry not used in FoFCou.
 FoFJK:  IHMeth= 1 ICntrl=  6127 DoSepK=T KAlg= 1 I1Cent= 0 FoldK=F
 FoFJK:  IHMeth= 1 ICntrl=     0 DoSepK=T KAlg= 1 I1Cent= 0 FoldK=F
          There are     3 degrees of freedom in the 1st order CPHF.  IDoFFX=0.
      3 vectors produced by pass  0 Test12= 5.77D-13 3.33D-08 XBig12= 1.21D+02 1.51D+00.
 AX will form     3 AO Fock derivatives at one time.
 FoFJK:  IHMeth= 1 ICntrl=     0 DoSepK=T KAlg= 1 I1Cent= 0 FoldK=F
      3 vectors produced by pass  1 Test12= 5.77D-13 3.33D-08 XBig12= 1.11D+00 2.64D-01.
 FoFJK:  IHMeth= 1 ICntrl=     0 DoSepK=T KAlg= 1 I1Cent= 0 FoldK=F
      3 vectors produced by pass  2 Test12= 5.77D-13 3.33D-08 XBig12= 2.27D-02 5.05D-02.
 FoFJK:  IHMeth= 1 ICntrl=     0 DoSepK=T KAlg= 1 I1Cent= 0 FoldK=F
      3 vectors produced by pass  3 Test12= 5.77D-13 3.33D-08 XBig12= 4.15D-04 5.35D-03.
 FoFJK:  IHMeth= 1 ICntrl=     0 DoSepK=T KAlg= 1 I1Cent= 0 FoldK=F
      3 vectors produced by pass  4 Test12= 5.77D-13 3.33D-08 XBig12= 5.12D-06 4.32D-04.
 FoFJK:  IHMeth= 1 ICntrl=     0 DoSepK=T KAlg= 1 I1Cent= 0 FoldK=F
      3 vectors produced by pass  5 Test12= 5.77D-13 3.33D-08 XBig12= 5.79D-08 5.16D-05.
 FoFJK:  IHMeth= 1 ICntrl=     0 DoSepK=T KAlg= 1 I1Cent= 0 FoldK=F
      3 vectors produced by pass  6 Test12= 5.77D-13 3.33D-08 XBig12= 6.89D-10 6.74D-06.
 FoFJK:  IHMeth= 1 ICntrl=     0 DoSepK=T KAlg= 1 I1Cent= 0 FoldK=F
      3 vectors produced by pass  7 Test12= 5.77D-13 3.33D-08 XBig12= 8.17D-12 7.54D-07.
 FoFJK:  IHMeth= 1 ICntrl=     0 DoSepK=T KAlg= 1 I1Cent= 0 FoldK=F
      2 vectors produced by pass  8 Test12= 5.77D-13 3.33D-08 XBig12= 9.26D-14 6.44D-08.
 FoFJK:  IHMeth= 1 ICntrl=     0 DoSepK=T KAlg= 1 I1Cent= 0 FoldK=F
 Inverted reduced A of dimension    26 with in-core refinement.
 Calculating GIAO nuclear magnetic shielding tensors.
 SCF GIAO Magnetic shielding tensor (ppm):
      1  C    Isotropic =    68.9594   Anisotropy =   162.0678
   XX=    47.8204   YX=    11.6376   ZX=   -31.6816
   XY=    20.3991   YY=   113.7434   ZY=    89.6070
   XZ=   -25.9572   YZ=    92.7583   ZZ=    45.3144
   Eigenvalues:   -31.4515    61.3251   177.0046
      2  C    Isotropic =    69.7558   Anisotropy =   176.2790
   XX=    42.6818   YX=    11.1235   ZX=   -30.7562
   XY=    12.9099   YY=   118.9634   ZY=    95.8304
   XZ=   -31.7539   YZ=    98.5279   ZZ=    47.6223
   Eigenvalues:   -34.0496    56.0419   187.2751
      3  C    Isotropic =    70.5941   Anisotropy =   173.5764
   XX=    26.8487   YX=   -32.4973   ZX=    28.5280
   XY=   -32.3876   YY=   120.5432   ZY=    88.9477
   XZ=    29.3845   YZ=    89.0000   ZZ=    64.3904
   Eigenvalues:   -31.8509    57.3215   186.3117
      4  C    Isotropic =    55.0758   Anisotropy =   183.4310
   XX=   -34.5136   YX=    -5.8897   ZX=    -6.0379
   XY=    -8.2799   YY=   129.6765   ZY=    68.9369
   XZ=   -13.7613   YZ=    72.7998   ZZ=    70.0646
   Eigenvalues:   -35.4440    23.3084   177.3632
      5  C    Isotropic =    72.8673   Anisotropy =   182.7372
   XX=    27.3039   YX=   -29.0290   ZX=    23.3429
   XY=   -25.1379   YY=   124.5111   ZY=    92.7729
   XZ=    29.7993   YZ=    96.2527   ZZ=    66.7868
   Eigenvalues:   -28.4343    52.3440   194.6921
      6  C    Isotropic =    71.4137   Anisotropy =   175.9092
   XX=   -28.9633   YX=    -6.3770   ZX=   -13.3352
   XY=    -7.4898   YY=   142.7349   ZY=    63.1787
   XZ=   -15.5324   YZ=    62.2417   ZZ=   100.4694
   Eigenvalues:   -30.5534    56.1079   188.6865
      7  C    Isotropic =   118.9371   Anisotropy =    34.3730
   XX=   114.7231   YX=     9.9980   ZX=    -4.6628
   XY=    12.5139   YY=   135.8749   ZY=    -3.5580
   XZ=    -7.8965   YZ=    -4.6023   ZZ=   106.2134
   Eigenvalues:   102.7663   112.1926   141.8524
      8  C    Isotropic =   148.2727   Anisotropy =    13.5085
   XX=   156.1029   YX=     0.8159   ZX=    -0.1945
   XY=    -6.3214   YY=   145.7923   ZY=     3.2447
   XZ=    -3.6701   YZ=     2.7166   ZZ=   142.9229
   Eigenvalues:   141.0474   146.4923   157.2784
      9  C    Isotropic =    17.9264   Anisotropy =    94.9941
   XX=   -23.8810   YX=   -45.6822   ZX=   -22.6949
   XY=   -74.5435   YY=     3.2458   ZY=    -2.6466
   XZ=   -14.7724   YZ=     5.9541   ZZ=    74.4143
   Eigenvalues:   -73.2060    45.7294    81.2558
     10  O    Isotropic =   130.1067   Anisotropy =   163.5456
   XX=    84.6166   YX=    66.8905   ZX=   -52.0161
   XY=   180.6925   YY=   137.5680   ZY=    66.4080
   XZ=   -56.8717   YZ=    43.1088   ZZ=   168.1354
   Eigenvalues:   -43.3910   194.5740   239.1371
     11  C    Isotropic =   135.8020   Anisotropy =    60.5316
   XX=   171.0167   YX=    -7.4879   ZX=    17.7342
   XY=     1.7354   YY=   118.6632   ZY=    -0.7759
   XZ=    16.2557   YZ=    -2.5534   ZZ=   117.7260
   Eigenvalues:   112.6600   118.5895   176.1564
     12  O    Isotropic =   276.0422   Anisotropy =    34.4311
   XX=   297.4716   YX=     5.0645   ZX=    -4.3098
   XY=     3.7969   YY=   285.9164   ZY=     2.2090
   XZ=     3.5110   YZ=    -6.5358   ZZ=   244.7386
   Eigenvalues:   244.6247   284.5057   298.9963
     13  C    Isotropic =   181.7882   Anisotropy =    12.3518
   XX=   185.4606   YX=     1.2804   ZX=     1.6907
   XY=    -0.7792   YY=   188.9108   ZY=     5.8872
   XZ=     0.1689   YZ=     3.1083   ZZ=   170.9934
   Eigenvalues:   169.8817   185.4602   190.0228
     14  O    Isotropic =   -45.5218   Anisotropy =   558.4313
   XX=  -130.0996   YX=   -21.1105   ZX=  -140.6033
   XY=   -39.9226   YY=  -273.8634   ZY=   122.1127
   XZ=  -111.0450   YZ=   104.3421   ZZ=   267.3976
   Eigenvalues:  -296.7871  -166.5440   326.7657
     15  C    Isotropic =   182.4353   Anisotropy =    22.8803
   XX=   186.4625   YX=     4.9845   ZX=     3.7740
   XY=    11.7656   YY=   191.4390   ZY=    -1.5789
   XZ=     2.6192   YZ=    -3.6392   ZZ=   169.4044
   Eigenvalues:   168.0108   181.6063   197.6888
     16  H    Isotropic =    23.8380   Anisotropy =     8.0432
   XX=    27.6299   YX=     1.3209   ZX=    -2.5165
   XY=     1.1953   YY=    20.6654   ZY=    -1.1726
   XZ=    -2.7163   YZ=    -1.6224   ZZ=    23.2187
   Eigenvalues:    20.0475    22.2664    29.2001
     17  H    Isotropic =    23.7188   Anisotropy =     5.0790
   XX=    26.9798   YX=     0.5205   ZX=    -0.3333
   XY=     0.4451   YY=    21.8056   ZY=    -1.8068
   XZ=    -0.5064   YZ=    -1.7107   ZZ=    22.3711
   Eigenvalues:    20.3056    23.7460    27.1049
     18  H    Isotropic =    23.8035   Anisotropy =     4.7225
   XX=    26.5151   YX=    -0.5693   ZX=     0.9271
   XY=    -0.4598   YY=    21.6376   ZY=    -1.9574
   XZ=     0.8559   YZ=    -1.8840   ZZ=    23.2580
   Eigenvalues:    20.3625    24.0963    26.9519
     19  H    Isotropic =    23.3274   Anisotropy =     9.9017
   XX=    27.1108   YX=    -2.3915   ZX=     3.7847
   XY=    -1.6208   YY=    21.1220   ZY=    -2.7324
   XZ=     3.4678   YZ=    -2.2855   ZZ=    21.7493
   Eigenvalues:    18.7533    21.3003    29.9286
     20  H    Isotropic =    23.7636   Anisotropy =     4.1305
   XX=    24.5154   YX=     0.1461   ZX=    -0.1073
   XY=     0.1560   YY=    22.3720   ZY=    -2.9046
   XZ=    -0.1731   YZ=    -2.9726   ZZ=    24.4035
   Eigenvalues:    20.2781    24.4955    26.5173
     21  H    Isotropic =    26.9621   Anisotropy =     5.4537
   XX=    26.3271   YX=     1.3872   ZX=    -1.0125
   XY=     1.7764   YY=    26.0416   ZY=    -3.0481
   XZ=    -1.0105   YZ=    -1.6095   ZZ=    28.5176
   Eigenvalues:    24.2119    26.0765    30.5979
     22  H    Isotropic =    28.6412   Anisotropy =     4.3391
   XX=    27.9063   YX=     1.8215   ZX=     0.4373
   XY=     0.8113   YY=    27.8309   ZY=    -0.9848
   XZ=    -0.5286   YZ=    -3.1506   ZZ=    30.1865
   Eigenvalues:    25.9592    28.4305    31.5339
     23  H    Isotropic =    27.3474   Anisotropy =     6.5083
   XX=    28.0452   YX=     0.8999   ZX=     3.8158
   XY=     1.8686   YY=    25.8814   ZY=    -2.5799
   XZ=     2.9835   YZ=    -2.8982   ZZ=    28.1156
   Eigenvalues:    22.2676    28.0883    31.6862
     24  H    Isotropic =    27.4389   Anisotropy =     6.9675
   XX=    31.0257   YX=    -1.7646   ZX=    -1.8334
   XY=    -0.7047   YY=    28.2174   ZY=     2.1246
   XZ=    -1.5749   YZ=     1.6971   ZZ=    23.0736
   Eigenvalues:    22.2597    27.9731    32.0839
     25  H    Isotropic =    27.7212   Anisotropy =    22.1513
   XX=    42.4487   YX=    -0.1727   ZX=     0.3692
   XY=     1.8109   YY=    24.2610   ZY=     0.5949
   XZ=     0.0708   YZ=     2.4659   ZZ=    16.4540
   Eigenvalues:    16.1646    24.5104    42.4887
     26  H    Isotropic =    30.7219   Anisotropy =    10.6175
   XX=    29.5503   YX=    -1.4875   ZX=    -1.9991
   XY=    -3.2361   YY=    32.4839   ZY=     5.0980
   XZ=    -1.8899   YZ=     5.3572   ZZ=    30.1316
   Eigenvalues:    25.9488    28.4168    37.8003
     27  H    Isotropic =    31.5935   Anisotropy =     6.5677
   XX=    34.7811   YX=    -0.3285   ZX=     4.0305
   XY=    -2.6853   YY=    30.8767   ZY=     3.1204
   XZ=     1.6546   YZ=     3.1670   ZZ=    29.1228
   Eigenvalues:    25.6301    33.1785    35.9720
     28  H    Isotropic =    30.7550   Anisotropy =     7.9085
   XX=    28.7881   YX=     1.9839   ZX=    -1.1587
   XY=    -0.7163   YY=    33.6586   ZY=    -4.3167
   XZ=    -2.4667   YZ=    -2.6633   ZZ=    29.8182
   Eigenvalues:    26.8507    29.3869    36.0273
     29  H    Isotropic =    30.1995   Anisotropy =     7.5783
   XX=    29.2226   YX=    -0.1644   ZX=    -1.5595
   XY=    -0.7030   YY=    32.8757   ZY=     3.9740
   XZ=    -1.1075   YZ=     3.6161   ZZ=    28.5002
   Eigenvalues:    26.0220    29.3247    35.2517
     30  H    Isotropic =    30.2935   Anisotropy =    11.1031
   XX=    36.7077   YX=     1.7624   ZX=     2.5822
   XY=     2.2608   YY=    27.6159   ZY=     0.1196
   XZ=     2.5076   YZ=    -0.0098   ZZ=    26.5570
   Eigenvalues:    25.8380    27.3469    37.6956
     31  H    Isotropic =    30.1980   Anisotropy =     8.4255
   XX=    28.1597   YX=     2.1392   ZX=    -0.8809
   XY=     1.6052   YY=    29.5108   ZY=    -4.2356
   XZ=    -0.9065   YZ=    -3.4005   ZZ=    32.9236
   Eigenvalues:    26.2731    28.5059    35.8150
 End of Minotr Frequency-dependent properties file   721 does not exist.
 End of Minotr Frequency-dependent properties file   722 does not exist.

 **********************************************************************

            Population analysis using the SCF density.

 **********************************************************************

 Orbital symmetries:
       Occupied  (A) (A) (A) (A) (A) (A) (A) (A) (A) (A) (A) (A)
                 (A) (A) (A) (A) (A) (A) (A) (A) (A) (A) (A) (A)
                 (A) (A) (A) (A) (A) (A) (A) (A) (A) (A) (A) (A)
                 (A) (A) (A) (A) (A) (A) (A) (A) (A) (A) (A) (A)
                 (A) (A) (A) (A) (A) (A) (A) (A)
       Virtual   (A) (A) (A) (A) (A) (A) (A) (A) (A) (A) (A) (A)
                 (A) (A) (A) (A) (A) (A) (A) (A) (A) (A) (A) (A)
                 (A) (A) (A) (A) (A) (A) (A) (A) (A) (A) (A) (A)
                 (A) (A) (A) (A) (A) (A) (A) (A) (A) (A) (A) (A)
                 (A) (A) (A) (A) (A) (A) (A) (A) (A) (A) (A) (A)
                 (A) (A) (A) (A) (A) (A) (A) (A) (A) (A) (A) (A)
                 (A) (A) (A) (A) (A) (A) (A) (A) (A) (A) (A) (A)
                 (A) (A) (A) (A) (A) (A) (A) (A) (A) (A) (A) (A)
                 (A) (A) (A) (A) (A) (A) (A) (A) (A) (A) (A) (A)
                 (A) (A) (A) (A) (A) (A) (A) (A) (A) (A) (A) (A)
                 (A) (A) (A) (A) (A) (A) (A) (A) (A) (A) (A) (A)
                 (A) (A) (A) (A) (A) (A) (A) (A) (A) (A) (A) (A)
                 (A) (A) (A) (A) (A) (A) (A) (A) (A) (A) (A) (A)
                 (A) (A) (A) (A) (A) (A) (A) (A) (A) (A) (A) (A)
                 (A) (A) (A) (A) (A) (A) (A) (A) (A) (A) (A) (A)
                 (A) (A) (A) (A) (A) (A) (A) (A) (A) (A) (A) (A)
                 (A) (A) (A) (A) (A) (A) (A) (A) (A) (A) (A) (A)
                 (A) (A) (A) (A) (A) (A) (A) (A) (A) (A) (A) (A)
                 (A) (A) (A) (A) (A) (A) (A) (A) (A) (A) (A) (A)
                 (A) (A) (A) (A) (A) (A) (A) (A) (A) (A) (A) (A)
                 (A) (A) (A) (A) (A) (A) (A) (A) (A) (A) (A) (A)
                 (A) (A) (A) (A) (A) (A) (A) (A) (A) (A) (A) (A)
                 (A) (A) (A) (A) (A) (A) (A) (A) (A) (A) (A) (A)
                 (A) (A) (A) (A) (A) (A) (A) (A) (A) (A) (A) (A)
                 (A) (A) (A) (A) (A) (A) (A) (A) (A) (A) (A) (A)
                 (A) (A) (A) (A) (A) (A) (A) (A) (A)
 The electronic state is 1-A.
 Alpha  occ. eigenvalues --  -19.33756 -19.28212 -19.27570 -10.44406 -10.36381
 Alpha  occ. eigenvalues --  -10.35464 -10.32107 -10.31550 -10.30677 -10.30608
 Alpha  occ. eigenvalues --  -10.30577 -10.30538 -10.30467 -10.29100 -10.28810
 Alpha  occ. eigenvalues --   -1.21861  -1.13267  -1.12399  -0.96166  -0.91397
 Alpha  occ. eigenvalues --   -0.87387  -0.85223  -0.84645  -0.77677  -0.76177
 Alpha  occ. eigenvalues --   -0.70852  -0.70133  -0.67251  -0.66052  -0.62034
 Alpha  occ. eigenvalues --   -0.60376  -0.59918  -0.58012  -0.57200  -0.54576
 Alpha  occ. eigenvalues --   -0.54207  -0.51462  -0.51282  -0.51096  -0.50172
 Alpha  occ. eigenvalues --   -0.49531  -0.48244  -0.47603  -0.45801  -0.44936
 Alpha  occ. eigenvalues --   -0.44442  -0.44080  -0.43627  -0.43115  -0.42068
 Alpha  occ. eigenvalues --   -0.40957  -0.39530  -0.37125  -0.36230  -0.33230
 Alpha  occ. eigenvalues --   -0.32567
 Alpha virt. eigenvalues --    0.04620   0.05449   0.06847   0.07103   0.07872
 Alpha virt. eigenvalues --    0.08055   0.08427   0.09599   0.09801   0.10119
 Alpha virt. eigenvalues --    0.10762   0.11251   0.11808   0.12202   0.12655
 Alpha virt. eigenvalues --    0.13141   0.13803   0.13932   0.14442   0.14864
 Alpha virt. eigenvalues --    0.16318   0.16474   0.16744   0.17354   0.17674
 Alpha virt. eigenvalues --    0.18441   0.19094   0.19329   0.19620   0.20570
 Alpha virt. eigenvalues --    0.20814   0.21270   0.21837   0.22034   0.22543
 Alpha virt. eigenvalues --    0.22880   0.23446   0.23950   0.24479   0.25170
 Alpha virt. eigenvalues --    0.25459   0.25699   0.26015   0.26581   0.26984
 Alpha virt. eigenvalues --    0.27426   0.28062   0.28294   0.28595   0.28698
 Alpha virt. eigenvalues --    0.29129   0.29559   0.30158   0.30442   0.31229
 Alpha virt. eigenvalues --    0.31705   0.32189   0.32561   0.32952   0.33598
 Alpha virt. eigenvalues --    0.34279   0.34460   0.34748   0.35166   0.36044
 Alpha virt. eigenvalues --    0.36203   0.36878   0.37942   0.38435   0.39056
 Alpha virt. eigenvalues --    0.39205   0.39349   0.40016   0.40534   0.41008
 Alpha virt. eigenvalues --    0.41353   0.42893   0.43181   0.43339   0.44448
 Alpha virt. eigenvalues --    0.45365   0.46014   0.46462   0.47078   0.47954
 Alpha virt. eigenvalues --    0.48742   0.49815   0.50757   0.52608   0.53052
 Alpha virt. eigenvalues --    0.54767   0.55675   0.59061   0.66634   0.69926
 Alpha virt. eigenvalues --    0.73468   0.74403   0.74778   0.75116   0.75504
 Alpha virt. eigenvalues --    0.76802   0.77549   0.78297   0.79450   0.81292
 Alpha virt. eigenvalues --    0.81691   0.82139   0.83311   0.83826   0.84037
 Alpha virt. eigenvalues --    0.85133   0.86776   0.87737   0.88547   0.89096
 Alpha virt. eigenvalues --    0.89901   0.91310   0.92337   0.93880   0.96480
 Alpha virt. eigenvalues --    0.96978   0.98814   0.98914   1.01288   1.02023
 Alpha virt. eigenvalues --    1.02472   1.02581   1.04819   1.06390   1.07364
 Alpha virt. eigenvalues --    1.08457   1.08985   1.09667   1.10223   1.11657
 Alpha virt. eigenvalues --    1.13549   1.15521   1.17802   1.18479   1.18793
 Alpha virt. eigenvalues --    1.20776   1.21448   1.21676   1.23977   1.24902
 Alpha virt. eigenvalues --    1.26886   1.27488   1.28701   1.31037   1.31659
 Alpha virt. eigenvalues --    1.32379   1.33396   1.35386   1.36312   1.37671
 Alpha virt. eigenvalues --    1.38866   1.39838   1.41829   1.43744   1.44419
 Alpha virt. eigenvalues --    1.44799   1.47343   1.48577   1.48860   1.50228
 Alpha virt. eigenvalues --    1.50977   1.51877   1.53331   1.54120   1.55288
 Alpha virt. eigenvalues --    1.57236   1.59848   1.60904   1.61446   1.65645
 Alpha virt. eigenvalues --    1.67148   1.69815   1.73774   1.76044   1.76437
 Alpha virt. eigenvalues --    1.79766   1.81616   1.82492   1.84885   1.85632
 Alpha virt. eigenvalues --    1.87398   1.90999   1.91622   1.93390   1.94245
 Alpha virt. eigenvalues --    1.96842   1.97338   1.98186   1.98992   2.01387
 Alpha virt. eigenvalues --    2.01824   2.02360   2.04278   2.04896   2.06294
 Alpha virt. eigenvalues --    2.07097   2.07772   2.08613   2.10207   2.11289
 Alpha virt. eigenvalues --    2.11942   2.13529   2.14394   2.16635   2.17324
 Alpha virt. eigenvalues --    2.17891   2.19871   2.20422   2.20883   2.23110
 Alpha virt. eigenvalues --    2.23858   2.24978   2.25171   2.27929   2.30644
 Alpha virt. eigenvalues --    2.34055   2.36401   2.37455   2.39184   2.40356
 Alpha virt. eigenvalues --    2.41265   2.42451   2.44635   2.47711   2.48247
 Alpha virt. eigenvalues --    2.49104   2.50562   2.52252   2.53511   2.54419
 Alpha virt. eigenvalues --    2.55777   2.56928   2.58147   2.58883   2.62192
 Alpha virt. eigenvalues --    2.63287   2.64172   2.64967   2.65935   2.68737
 Alpha virt. eigenvalues --    2.69972   2.70421   2.72357   2.73801   2.75172
 Alpha virt. eigenvalues --    2.76823   2.78158   2.81528   2.82442   2.83302
 Alpha virt. eigenvalues --    2.83994   2.84420   2.85681   2.87203   2.88689
 Alpha virt. eigenvalues --    2.90603   2.93161   2.95382   2.95700   2.96080
 Alpha virt. eigenvalues --    2.99030   3.01018   3.03154   3.06474   3.12914
 Alpha virt. eigenvalues --    3.13405   3.14798   3.16592   3.18147   3.27354
 Alpha virt. eigenvalues --    3.28884   3.30731   3.36323   3.37190   3.38582
 Alpha virt. eigenvalues --    3.39087   3.43706   3.44900   3.48750   3.49279
 Alpha virt. eigenvalues --    3.54161   3.57505   3.58919   3.61499   3.62729
 Alpha virt. eigenvalues --    3.63769   3.64329   3.72999   3.99950   4.40271
 Alpha virt. eigenvalues --    4.42036   4.43701   4.45890   4.51894   4.55074
 Alpha virt. eigenvalues --    4.56931   4.59587   4.64058   4.69034   4.73783
 Alpha virt. eigenvalues --    4.75387   4.79688   4.93457   4.97606
          Condensed to atoms (all electrons):
              1          2          3          4          5          6
     1  C   13.351853   0.008915  -0.946286  -1.996273  -5.720477   0.026722
     2  C    0.008915   6.494803  -0.013129   0.069557  -0.772649   0.395410
     3  C   -0.946286  -0.013129   6.375632   0.045161   0.108821   0.472488
     4  C   -1.996273   0.069557   0.045161  12.222953  -1.215399  -0.448425
     5  C   -5.720477  -0.772649   0.108821  -1.215399  14.100790   0.304368
     6  C    0.026722   0.395410   0.472488  -0.448425   0.304368   5.365082
     7  C    1.792944  -0.252306  -0.141489  -2.724031  -1.412251  -0.209262
     8  C   -0.476406  -0.003651   0.000188  -0.138070   0.550164  -0.022324
     9  C   -0.018401  -0.037787   0.013335  -0.193895  -0.041794  -0.002702
    10  O   -0.024942   0.001784   0.001018   0.019279   0.026892  -0.000196
    11  C    0.005791   0.002131  -0.000598   0.007257  -0.002035   0.000069
    12  O   -0.109301   0.063527  -0.020802   0.238792  -0.034744  -0.007139
    13  C    0.017472   0.001007  -0.050924   0.095372  -0.007868   0.017326
    14  O   -0.001295  -0.000493  -0.004077   0.015307  -0.002097   0.000178
    15  C    0.002657  -0.000886   0.000009   0.004139  -0.005923   0.000025
    16  H    0.232625   0.004444   0.044258   0.047809   0.000999  -0.005556
    17  H    0.006904   0.267267  -0.003649   0.036908   0.018875   0.002462
    18  H    0.041732   0.002091   0.267807   0.013009  -0.009225   0.014847
    19  H    0.042250  -0.056612  -0.003482   0.051430   0.221001  -0.013887
    20  H   -0.005529   0.022277   0.027850   0.005089  -0.005065   0.280072
    21  H    0.104550  -0.001867   0.040702  -0.111327  -0.116324  -0.005044
    22  H    0.023133  -0.001169   0.000284   0.027680  -0.040024  -0.000888
    23  H   -0.000163  -0.000007  -0.000018   0.002108  -0.000032   0.000000
    24  H    0.000027  -0.000001   0.000004  -0.001354  -0.000055  -0.000001
    25  H    0.004244  -0.009969   0.003423  -0.029902   0.014789   0.000112
    26  H    0.008999  -0.002577   0.000777  -0.006401  -0.010041   0.000196
    27  H    0.025489   0.000922  -0.000980   0.035669  -0.002080   0.004947
    28  H    0.003333  -0.000020  -0.006286  -0.021562   0.000615  -0.000719
    29  H   -0.000036   0.000001  -0.000001  -0.000288  -0.000031  -0.000001
    30  H    0.000006   0.000000   0.000000  -0.000007  -0.000019   0.000000
    31  H    0.000012  -0.000003   0.000001   0.000596  -0.000069   0.000000
              7          8          9         10         11         12
     1  C    1.792944  -0.476406  -0.018401  -0.024942   0.005791  -0.109301
     2  C   -0.252306  -0.003651  -0.037787   0.001784   0.002131   0.063527
     3  C   -0.141489   0.000188   0.013335   0.001018  -0.000598  -0.020802
     4  C   -2.724031  -0.138070  -0.193895   0.019279   0.007257   0.238792
     5  C   -1.412251   0.550164  -0.041794   0.026892  -0.002035  -0.034744
     6  C   -0.209262  -0.022324  -0.002702  -0.000196   0.000069  -0.007139
     7  C    9.135493  -0.510298  -0.047072  -0.013013   0.031871  -0.071400
     8  C   -0.510298   8.214776  -1.348277  -0.494970  -0.100195  -0.041768
     9  C   -0.047072  -1.348277   6.900089   0.385988  -0.067931  -0.010749
    10  O   -0.013013  -0.494970   0.385988   8.607878  -0.003070   0.002438
    11  C    0.031871  -0.100195  -0.067931  -0.003070   5.332033   0.005035
    12  O   -0.071400  -0.041768  -0.010749   0.002438   0.005035   8.373516
    13  C   -0.156404  -0.079518   0.045558   0.043710   0.003973   0.028829
    14  O   -0.043142  -0.003697   0.515050  -0.145527  -0.052011  -0.001242
    15  C   -0.014467  -0.071350   0.082693   0.000170   0.095631  -0.003692
    16  H   -0.007238   0.004627  -0.008476   0.000002  -0.000111  -0.000002
    17  H   -0.002261  -0.000252   0.000155  -0.000001   0.000001  -0.000028
    18  H   -0.003348  -0.000315   0.000090   0.000000   0.000000   0.000001
    19  H    0.063061  -0.005342   0.025957  -0.000112   0.000032   0.001242
    20  H    0.001968  -0.000182  -0.000072   0.000000   0.000000  -0.000001
    21  H    0.347879   0.061117   0.012095  -0.001465   0.002331  -0.050488
    22  H   -0.057637   0.434814  -0.046870  -0.000939   0.002869  -0.002196
    23  H    0.004099  -0.009568  -0.015982  -0.041518   0.404427  -0.000207
    24  H    0.000585  -0.018288   0.002865  -0.042500   0.413289  -0.000246
    25  H    0.098738  -0.066187  -0.007329   0.018731   0.001127   0.211891
    26  H    0.034025  -0.160895   0.076378  -0.000290   0.001740  -0.000378
    27  H   -0.050353  -0.025630  -0.050146  -0.000048  -0.000500  -0.000563
    28  H    0.004065  -0.023328   0.009534  -0.000201   0.001095   0.000277
    29  H   -0.000077  -0.004749   0.000270  -0.001865  -0.060387  -0.000371
    30  H    0.000065  -0.000243   0.002189   0.006324  -0.056418  -0.000004
    31  H    0.001083  -0.005517  -0.000987  -0.002757  -0.060324  -0.000068
             13         14         15         16         17         18
     1  C    0.017472  -0.001295   0.002657   0.232625   0.006904   0.041732
     2  C    0.001007  -0.000493  -0.000886   0.004444   0.267267   0.002091
     3  C   -0.050924  -0.004077   0.000009   0.044258  -0.003649   0.267807
     4  C    0.095372   0.015307   0.004139   0.047809   0.036908   0.013009
     5  C   -0.007868  -0.002097  -0.005923   0.000999   0.018875  -0.009225
     6  C    0.017326   0.000178   0.000025  -0.005556   0.002462   0.014847
     7  C   -0.156404  -0.043142  -0.014467  -0.007238  -0.002261  -0.003348
     8  C   -0.079518  -0.003697  -0.071350   0.004627  -0.000252  -0.000315
     9  C    0.045558   0.515050   0.082693  -0.008476   0.000155   0.000090
    10  O    0.043710  -0.145527   0.000170   0.000002  -0.000001   0.000000
    11  C    0.003973  -0.052011   0.095631  -0.000111   0.000001   0.000000
    12  O    0.028829  -0.001242  -0.003692  -0.000002  -0.000028   0.000001
    13  C    5.446092  -0.019629   0.002419   0.003649   0.000245   0.000194
    14  O   -0.019629   8.196172   0.011330   0.000008   0.000000   0.000000
    15  C    0.002419   0.011330   5.347692  -0.000019   0.000000   0.000000
    16  H    0.003649   0.000008  -0.000019   0.507881   0.000011  -0.003860
    17  H    0.000245   0.000000   0.000000   0.000011   0.496513  -0.000123
    18  H    0.000194   0.000000   0.000000  -0.003860  -0.000123   0.496430
    19  H   -0.007190  -0.000019   0.000159  -0.000107  -0.004018   0.000011
    20  H   -0.000049   0.000000   0.000000  -0.000121  -0.003825  -0.003861
    21  H   -0.017914  -0.000821  -0.000283   0.001981   0.000002  -0.000005
    22  H   -0.037679   0.004062  -0.000760  -0.000010   0.000001   0.000000
    23  H    0.001668   0.002599  -0.017294   0.000000   0.000000   0.000000
    24  H    0.000074   0.000996  -0.020631   0.000000   0.000000   0.000000
    25  H   -0.003456   0.001043   0.001804  -0.000008   0.000000   0.000000
    26  H    0.421963  -0.002359   0.000235   0.000005   0.000000   0.000000
    27  H    0.420738   0.002145  -0.000160  -0.000051  -0.000004  -0.000003
    28  H    0.391874  -0.001930   0.000025  -0.000159   0.000000  -0.000001
    29  H   -0.000017  -0.000142   0.430427   0.000000   0.000000   0.000000
    30  H    0.000029   0.000101   0.415368   0.000000   0.000000   0.000000
    31  H    0.000255  -0.000050   0.430249   0.000000   0.000000   0.000000
             19         20         21         22         23         24
     1  C    0.042250  -0.005529   0.104550   0.023133  -0.000163   0.000027
     2  C   -0.056612   0.022277  -0.001867  -0.001169  -0.000007  -0.000001
     3  C   -0.003482   0.027850   0.040702   0.000284  -0.000018   0.000004
     4  C    0.051430   0.005089  -0.111327   0.027680   0.002108  -0.001354
     5  C    0.221001  -0.005065  -0.116324  -0.040024  -0.000032  -0.000055
     6  C   -0.013887   0.280072  -0.005044  -0.000888   0.000000  -0.000001
     7  C    0.063061   0.001968   0.347879  -0.057637   0.004099   0.000585
     8  C   -0.005342  -0.000182   0.061117   0.434814  -0.009568  -0.018288
     9  C    0.025957  -0.000072   0.012095  -0.046870  -0.015982   0.002865
    10  O   -0.000112   0.000000  -0.001465  -0.000939  -0.041518  -0.042500
    11  C    0.000032   0.000000   0.002331   0.002869   0.404427   0.413289
    12  O    0.001242  -0.000001  -0.050488  -0.002196  -0.000207  -0.000246
    13  C   -0.007190  -0.000049  -0.017914  -0.037679   0.001668   0.000074
    14  O   -0.000019   0.000000  -0.000821   0.004062   0.002599   0.000996
    15  C    0.000159   0.000000  -0.000283  -0.000760  -0.017294  -0.020631
    16  H   -0.000107  -0.000121   0.001981  -0.000010   0.000000   0.000000
    17  H   -0.004018  -0.003825   0.000002   0.000001   0.000000   0.000000
    18  H    0.000011  -0.003861  -0.000005   0.000000   0.000000   0.000000
    19  H    0.505453  -0.000118  -0.000042  -0.000490   0.000000   0.000000
    20  H   -0.000118   0.499141   0.000000   0.000000   0.000000   0.000000
    21  H   -0.000042   0.000000   0.573405   0.003148  -0.000014   0.000000
    22  H   -0.000490   0.000000   0.003148   0.480813  -0.000020   0.000033
    23  H    0.000000   0.000000  -0.000014  -0.000020   0.526151  -0.032584
    24  H    0.000000   0.000000   0.000000   0.000033  -0.032584   0.520103
    25  H   -0.000026   0.000000  -0.003306  -0.001053   0.000185   0.000028
    26  H    0.000004   0.000000  -0.000119  -0.002595   0.000001  -0.000004
    27  H   -0.000059   0.000000   0.000044  -0.003233   0.000000   0.000000
    28  H   -0.000003   0.000000   0.001494   0.003567  -0.000002   0.000001
    29  H    0.000000   0.000000   0.000000   0.000004  -0.005127   0.003901
    30  H    0.000000   0.000000   0.000000   0.000000  -0.001608  -0.001744
    31  H    0.000000   0.000000   0.000000  -0.000008   0.003969  -0.004996
             25         26         27         28         29         30
     1  C    0.004244   0.008999   0.025489   0.003333  -0.000036   0.000006
     2  C   -0.009969  -0.002577   0.000922  -0.000020   0.000001   0.000000
     3  C    0.003423   0.000777  -0.000980  -0.006286  -0.000001   0.000000
     4  C   -0.029902  -0.006401   0.035669  -0.021562  -0.000288  -0.000007
     5  C    0.014789  -0.010041  -0.002080   0.000615  -0.000031  -0.000019
     6  C    0.000112   0.000196   0.004947  -0.000719  -0.000001   0.000000
     7  C    0.098738   0.034025  -0.050353   0.004065  -0.000077   0.000065
     8  C   -0.066187  -0.160895  -0.025630  -0.023328  -0.004749  -0.000243
     9  C   -0.007329   0.076378  -0.050146   0.009534   0.000270   0.002189
    10  O    0.018731  -0.000290  -0.000048  -0.000201  -0.001865   0.006324
    11  C    0.001127   0.001740  -0.000500   0.001095  -0.060387  -0.056418
    12  O    0.211891  -0.000378  -0.000563   0.000277  -0.000371  -0.000004
    13  C   -0.003456   0.421963   0.420738   0.391874  -0.000017   0.000029
    14  O    0.001043  -0.002359   0.002145  -0.001930  -0.000142   0.000101
    15  C    0.001804   0.000235  -0.000160   0.000025   0.430427   0.415368
    16  H   -0.000008   0.000005  -0.000051  -0.000159   0.000000   0.000000
    17  H    0.000000   0.000000  -0.000004   0.000000   0.000000   0.000000
    18  H    0.000000   0.000000  -0.000003  -0.000001   0.000000   0.000000
    19  H   -0.000026   0.000004  -0.000059  -0.000003   0.000000   0.000000
    20  H    0.000000   0.000000   0.000000   0.000000   0.000000   0.000000
    21  H   -0.003306  -0.000119   0.000044   0.001494   0.000000   0.000000
    22  H   -0.001053  -0.002595  -0.003233   0.003567   0.000004   0.000000
    23  H    0.000185   0.000001   0.000000  -0.000002  -0.005127  -0.001608
    24  H    0.000028  -0.000004   0.000000   0.000001   0.003901  -0.001744
    25  H    0.358227  -0.000003   0.000008  -0.000004   0.000262  -0.000002
    26  H   -0.000003   0.517639  -0.026176  -0.024050   0.000000   0.000000
    27  H    0.000008  -0.026176   0.515034  -0.025203   0.000000   0.000000
    28  H   -0.000004  -0.024050  -0.025203   0.503949   0.000000   0.000000
    29  H    0.000262   0.000000   0.000000   0.000000   0.512975  -0.022326
    30  H   -0.000002   0.000000   0.000000   0.000000  -0.022326   0.496472
    31  H    0.000026   0.000000   0.000000   0.000000  -0.028785  -0.022145
             31
     1  C    0.000012
     2  C   -0.000003
     3  C    0.000001
     4  C    0.000596
     5  C   -0.000069
     6  C    0.000000
     7  C    0.001083
     8  C   -0.005517
     9  C   -0.000987
    10  O   -0.002757
    11  C   -0.060324
    12  O   -0.000068
    13  C    0.000255
    14  O   -0.000050
    15  C    0.430249
    16  H    0.000000
    17  H    0.000000
    18  H    0.000000
    19  H    0.000000
    20  H    0.000000
    21  H    0.000000
    22  H   -0.000008
    23  H    0.003969
    24  H   -0.004996
    25  H    0.000026
    26  H    0.000000
    27  H    0.000000
    28  H    0.000000
    29  H   -0.028785
    30  H   -0.022145
    31  H    0.510938
 Mulliken atomic charges:
              1
     1  C   -0.400550
     2  C   -0.181009
     3  C   -0.210036
     4  C   -0.051180
     5  C    0.050889
     6  C   -0.168161
     7  C    0.200171
     8  C    0.345332
     9  C   -0.173778
    10  O   -0.340799
    11  C    0.092878
    12  O   -0.570159
    13  C   -0.561799
    14  O   -0.470458
    15  C   -0.689567
    16  H    0.177419
    17  H    0.184818
    18  H    0.184527
    19  H    0.180905
    20  H    0.182423
    21  H    0.160269
    22  H    0.215163
    23  H    0.178937
    24  H    0.180497
    25  H    0.406606
    26  H    0.173926
    27  H    0.180195
    28  H    0.183639
    29  H    0.176363
    30  H    0.183962
    31  H    0.178578
 Sum of Mulliken atomic charges =   0.00000
 Mulliken charges with hydrogens summed into heavy atoms:
              1
     1  C   -0.223131
     2  C    0.003808
     3  C   -0.025509
     4  C   -0.051180
     5  C    0.231794
     6  C    0.014262
     7  C    0.360440
     8  C    0.560495
     9  C   -0.173778
    10  O   -0.340799
    11  C    0.452312
    12  O   -0.163553
    13  C   -0.024039
    14  O   -0.470458
    15  C   -0.150664
 Sum of Mulliken charges with hydrogens summed into heavy atoms =   0.00000
 Electronic spatial extent (au):  <R**2>=           4238.2198
 Charge=              0.0000 electrons
 Dipole moment (field-independent basis, Debye):
    X=             -1.4463    Y=             -0.3312    Z=              0.6589  Tot=              1.6235
 Quadrupole moment (field-independent basis, Debye-Ang):
   XX=            -71.6896   YY=           -101.1405   ZZ=            -85.3478
   XY=             10.0153   XZ=              0.8556   YZ=             -2.6458
 Traceless Quadrupole moment (field-independent basis, Debye-Ang):
   XX=             14.3697   YY=            -15.0812   ZZ=              0.7115
   XY=             10.0153   XZ=              0.8556   YZ=             -2.6458
 Octapole moment (field-independent basis, Debye-Ang**2):
  XXX=            -50.5535  YYY=             -8.3035  ZZZ=             -0.2135  XYY=             -0.6391
  XXY=            -26.8482  XXZ=             -1.9572  XZZ=             -8.2842  YZZ=              2.6220
  YYZ=              7.6473  XYZ=            -21.1507
 Hexadecapole moment (field-independent basis, Debye-Ang**3):
 XXXX=          -3892.8235 YYYY=           -847.4634 ZZZZ=           -363.9190 XXXY=             80.2974
 XXXZ=             29.4478 YYYX=             50.7212 YYYZ=             -1.2067 ZZZX=              0.6465
 ZZZY=            -17.6018 XXYY=           -945.6239 XXZZ=           -794.2845 YYZZ=           -183.2800
 XXYZ=            -39.0425 YYXZ=              1.8423 ZZXY=              0.1963
 N-N= 9.953640944872D+02 E-N=-3.602280046228D+03  KE= 6.859083981688D+02
 1\1\GINC-COMPUTE-8-6\SP\RwB97XD\6-31+G(d,p)\C12H16O3\ELUCIANO.IQUIR\17
 -May-2022\0\\# wb97xd/6-31+g** scrf=(pcm,solvent=chloroform,smd,dovacu
 um) nmr\\comment\\0,1\C,0,-1.083151525,-2.655567281,0.645665529\C,0,-3
 .655027447,-1.66754557,0.211851322\C,0,-2.196640877,-3.425269126,0.988
 587312\C,0,-1.24220755,-1.379763194,0.082578776\C,0,-2.543153206,-0.89
 6401189,-0.130596112\C,0,-3.481311347,-2.930825221,0.77273993\C,0,-0.0
 28039282,-0.539789092,-0.257820789\C,0,0.192387443,0.653517225,0.69261
 7782\C,0,1.597870655,1.180279834,0.460118299\O,0,1.674438087,1.7849421
 41,-0.762593855\C,0,2.963640898,2.334493524,-1.068795975\O,0,-0.225069
 424,-0.075130062,-1.601360495\C,0,0.038679179,0.305302212,2.176635063\
 O,0,2.534292603,1.074125385,1.239293061\C,0,2.892167088,2.96286075,-2.
 446661403\H,0,-0.089115998,-3.060034367,0.822897111\H,0,-4.656056578,-
 1.283260986,0.035292349\H,0,-2.061210704,-4.412443277,1.422682284\H,0,
 -2.692191239,0.083926899,-0.578552999\H,0,-4.347186757,-3.531957111,1.
 036851855\H,0,0.862775452,-1.180220951,-0.28262257\H,0,-0.502359973,1.
 471909419,0.462090622\H,0,3.715305972,1.53730713,-1.064177507\H,0,3.22
 5886463,3.096317581,-0.3262952\H,0,0.510780834,0.523858364,-1.82194667
 3\H,0,0.32900339,1.153274019,2.807555118\H,0,-0.998199018,0.059129804,
 2.425486682\H,0,0.671692703,-0.544425086,2.455874145\H,0,2.607649631,2
 .21671667,-3.195992773\H,0,3.85549918,3.397125643,-2.728117406\H,0,2.1
 28851347,3.747545916,-2.473283482\\Version=EM64L-G09RevC.01\State=1-A\
 HF=-692.4451925\RMSD=2.030e-09\Dipole=0.2192255,0.5755994,-0.1690653\Q
 uadrupole=1.8314007,5.1878975,-7.0192983,3.1801312,-9.4300071,-6.40162
 31\PG=C01 [X(C12H16O3)]\\@


 There ain't no surer way to find out whether you
 like people or hate them than to travel with them.
                                     -- Mark Twain
 Job cpu time:  0 days  2 hours 13 minutes 45.4 seconds.
 File lengths (MBytes):  RWF=    124 Int=      0 D2E=      0 Chk=      9 Scr=      1
 Normal termination of Gaussian 09 at Tue May 17 23:31:09 2022.
