 Entering Gaussian System, Link 0=g09
 Input=/home/eluciano.iquir/wb9/73b_017.gjc
 Output=/home/eluciano.iquir/wb9/73b_017.log
 Initial command:
 /share/apps/Gaussian09/EM64T.SSE4.2-enabled/g09/l1.exe /tmp/Gau-15223.inp -scrdir=/tmp/
 Entering Link 1 = /share/apps/Gaussian09/EM64T.SSE4.2-enabled/g09/l1.exe PID=     15224.
  
 Copyright (c) 1988,1990,1992,1993,1995,1998,2003,2009,2011,
            Gaussian, Inc.  All Rights Reserved.
  
 This is part of the Gaussian(R) 09 program.  It is based on
 the Gaussian(R) 03 system (copyright 2003, Gaussian, Inc.),
 the Gaussian(R) 98 system (copyright 1998, Gaussian, Inc.),
 the Gaussian(R) 94 system (copyright 1995, Gaussian, Inc.),
 the Gaussian 92(TM) system (copyright 1992, Gaussian, Inc.),
 the Gaussian 90(TM) system (copyright 1990, Gaussian, Inc.),
 the Gaussian 88(TM) system (copyright 1988, Gaussian, Inc.),
 the Gaussian 86(TM) system (copyright 1986, Carnegie Mellon
 University), and the Gaussian 82(TM) system (copyright 1983,
 Carnegie Mellon University). Gaussian is a federally registered
 trademark of Gaussian, Inc.
  
 This software contains proprietary and confidential information,
 including trade secrets, belonging to Gaussian, Inc.
  
 This software is provided under written license and may be
 used, copied, transmitted, or stored only in accord with that
 written license.
  
 The following legend is applicable only to US Government
 contracts under FAR:
  
                    RESTRICTED RIGHTS LEGEND
  
 Use, reproduction and disclosure by the US Government is
 subject to restrictions as set forth in subparagraphs (a)
 and (c) of the Commercial Computer Software - Restricted
 Rights clause in FAR 52.227-19.
  
 Gaussian, Inc.
 340 Quinnipiac St., Bldg. 40, Wallingford CT 06492
  
  
 ---------------------------------------------------------------
 Warning -- This program may not be used in any manner that
 competes with the business of Gaussian, Inc. or will provide
 assistance to any competitor of Gaussian, Inc.  The licensee
 of this program is prohibited from giving any competitor of
 Gaussian, Inc. access to this program.  By using this program,
 the user acknowledges that Gaussian, Inc. is engaged in the
 business of creating and licensing software in the field of
 computational chemistry and represents and warrants to the
 licensee that it is not a competitor of Gaussian, Inc. and that
 it will not use this program in any manner prohibited above.
 ---------------------------------------------------------------
  

 Cite this work as:
 Gaussian 09, Revision C.01,
 M. J. Frisch, G. W. Trucks, H. B. Schlegel, G. E. Scuseria, 
 M. A. Robb, J. R. Cheeseman, G. Scalmani, V. Barone, B. Mennucci, 
 G. A. Petersson, H. Nakatsuji, M. Caricato, X. Li, H. P. Hratchian, 
 A. F. Izmaylov, J. Bloino, G. Zheng, J. L. Sonnenberg, M. Hada, 
 M. Ehara, K. Toyota, R. Fukuda, J. Hasegawa, M. Ishida, T. Nakajima, 
 Y. Honda, O. Kitao, H. Nakai, T. Vreven, J. A. Montgomery, Jr., 
 J. E. Peralta, F. Ogliaro, M. Bearpark, J. J. Heyd, E. Brothers, 
 K. N. Kudin, V. N. Staroverov, T. Keith, R. Kobayashi, J. Normand, 
 K. Raghavachari, A. Rendell, J. C. Burant, S. S. Iyengar, J. Tomasi, 
 M. Cossi, N. Rega, J. M. Millam, M. Klene, J. E. Knox, J. B. Cross, 
 V. Bakken, C. Adamo, J. Jaramillo, R. Gomperts, R. E. Stratmann, 
 O. Yazyev, A. J. Austin, R. Cammi, C. Pomelli, J. W. Ochterski, 
 R. L. Martin, K. Morokuma, V. G. Zakrzewski, G. A. Voth, 
 P. Salvador, J. J. Dannenberg, S. Dapprich, A. D. Daniels, 
 O. Farkas, J. B. Foresman, J. V. Ortiz, J. Cioslowski, 
 and D. J. Fox, Gaussian, Inc., Wallingford CT, 2010.
 
 ******************************************
 Gaussian 09:  EM64L-G09RevC.01 23-Sep-2011
                17-May-2022 
 ******************************************
 %nprocshared=4
 Will use up to    4 processors via shared memory.
 ----------------------------------------------------------------
 # wb97xd/6-31+g** scrf=(pcm,solvent=chloroform,smd,dovacuum) nmr
 ----------------------------------------------------------------
 1/38=1/1;
 2/12=2,17=6,18=5,40=1/2;
 3/5=1,6=6,7=111,11=2,16=1,25=1,30=1,70=32101,72=7,74=-58/1,2,8,3;
 4//1;
 5/5=2,38=5,53=7/2;
 8/6=1,10=90,11=11/1;
 10/13=100,45=16/2;
 6/7=2,8=2,9=2,10=2,28=1/1;
 99/9=1/99;
 -------
 comment
 -------
 Charge =  0 Multiplicity = 1
 Symbolic Z-Matrix:
 6                     0.25693  -0.8125   -1.86457 
 6                    -0.59844  -3.26221  -0.84889 
 6                     1.03126  -1.95866  -2.05607 
 6                    -0.95543  -0.87369  -1.15751 
 6                    -1.37286  -2.11647  -0.65656 
 6                     0.60418  -3.18257  -1.54678 
 6                    -1.76984   0.38878  -0.93963 
 6                    -1.39854   1.18591   0.32464 
 6                    -0.02504   1.80032   0.14095 
 8                     0.84457   1.44761   1.12216 
 6                     2.16758   1.97449   0.96709 
 8                    -3.16374   0.05472  -0.8948 
 6                    -1.57394   0.40046   1.62742 
 8                     0.2536    2.53543  -0.80068 
 6                     3.01841   1.45727   2.11032 
 1                     0.60769   0.13168  -2.27809 
 1                    -0.93791  -4.2167   -0.45558 
 1                     1.96631  -1.89583  -2.60649 
 1                    -2.31264  -2.19721  -0.11337 
 1                     1.20521  -4.07509  -1.698 
 1                    -1.64677   1.01833  -1.83095 
 1                    -2.09006   2.03685   0.40435 
 1                     2.13372   3.06923   0.99538 
 1                     2.58965   1.64166   0.01215 
 1                    -3.65773   0.86961  -1.08656 
 1                    -1.40103   1.0509    2.49246 
 1                    -2.58927   0.00068   1.71499 
 1                    -0.86847  -0.43305   1.70528 
 1                     2.59724   1.76357   3.07358 
 1                     4.04233   1.83402   2.03635 
 1                     3.04304   0.36248   2.10741 
 
                          Input orientation:                          
 ---------------------------------------------------------------------
 Center     Atomic      Atomic             Coordinates (Angstroms)
 Number     Number       Type             X           Y           Z
 ---------------------------------------------------------------------
      1          6           0        0.256925   -0.812496   -1.864574
      2          6           0       -0.598437   -3.262207   -0.848889
      3          6           0        1.031256   -1.958660   -2.056072
      4          6           0       -0.955432   -0.873688   -1.157505
      5          6           0       -1.372862   -2.116466   -0.656564
      6          6           0        0.604177   -3.182575   -1.546778
      7          6           0       -1.769842    0.388782   -0.939630
      8          6           0       -1.398544    1.185908    0.324640
      9          6           0       -0.025041    1.800316    0.140954
     10          8           0        0.844574    1.447606    1.122157
     11          6           0        2.167583    1.974489    0.967092
     12          8           0       -3.163735    0.054716   -0.894800
     13          6           0       -1.573943    0.400460    1.627421
     14          8           0        0.253596    2.535427   -0.800683
     15          6           0        3.018410    1.457266    2.110315
     16          1           0        0.607694    0.131678   -2.278094
     17          1           0       -0.937907   -4.216702   -0.455585
     18          1           0        1.966312   -1.895833   -2.606492
     19          1           0       -2.312642   -2.197206   -0.113366
     20          1           0        1.205209   -4.075094   -1.697995
     21          1           0       -1.646772    1.018330   -1.830946
     22          1           0       -2.090061    2.036847    0.404352
     23          1           0        2.133720    3.069232    0.995380
     24          1           0        2.589648    1.641657    0.012145
     25          1           0       -3.657728    0.869614   -1.086564
     26          1           0       -1.401026    1.050896    2.492458
     27          1           0       -2.589270    0.000679    1.714992
     28          1           0       -0.868467   -0.433046    1.705281
     29          1           0        2.597237    1.763575    3.073584
     30          1           0        4.042328    1.834021    2.036354
     31          1           0        3.043041    0.362476    2.107411
 ---------------------------------------------------------------------
                    Distance matrix (angstroms):
                    1          2          3          4          5
     1  C    0.000000
     2  C    2.786457   0.000000
     3  C    1.396406   2.410897   0.000000
     4  C    1.404813   2.434690   2.435470   0.000000
     5  C    2.411603   1.396226   2.786271   1.403455   0.000000
     6  C    2.416371   1.392721   1.392747   2.813338   2.416144
     7  C    2.531082   3.835381   3.821397   1.518079   2.552251
     8  C    3.395122   4.669376   4.632497   2.575857   3.445155
     9  C    3.305818   5.190155   4.480244   3.114790   4.218274
    10  O    3.791300   5.305624   4.662471   3.718237   4.558890
    11  C    4.408654   6.194485   5.089246   4.730671   5.648621
    12  O    3.659705   4.193429   4.795851   2.409887   2.824538
    13  C    4.125211   4.527566   5.091231   3.124391   3.404693
    14  O    3.512900   5.860107   4.730495   3.634713   4.930137
    15  C    5.345780   6.641679   5.742484   5.648311   6.301623
    16  H    1.088808   3.875027   2.144344   2.170217   3.406775
    17  H    3.873176   1.086733   3.396751   3.415954   2.154198
    18  H    2.155473   3.396187   1.086848   3.417738   3.873110
    19  H    3.403942   2.147957   3.874618   2.164242   1.088471
    20  H    3.401696   2.152883   2.153549   3.899936   3.401066
    21  H    2.641423   4.515134   4.010609   2.123960   3.358741
    22  H    4.333027   5.645842   5.635635   3.492563   4.346254
    23  H    5.173926   7.138146   5.983852   5.452008   6.474295
    24  H    3.871245   5.912119   4.434906   4.501404   5.502013
    25  H    4.331201   5.146620   5.561084   3.216604   3.784466
    26  H    5.020434   5.514672   5.971813   4.150278   4.466466
    27  H    4.644930   4.602535   5.582844   3.418360   3.403855
    28  H    3.762228   3.821107   4.481543   2.897805   2.943914
    29  H    6.041407   7.131382   6.528453   6.121987   6.688079
    30  H    6.045706   7.472139   6.340263   6.519971   7.223741
    31  H    4.991960   5.927765   5.173929   5.308066   5.769307
                    6          7          8          9         10
     6  C    0.000000
     7  C    4.331187   0.000000
     8  C    5.157203   1.540016   0.000000
     9  C    5.298448   2.490867   1.515833   0.000000
    10  O    5.349727   3.493887   2.395015   1.357716   0.000000
    11  C    5.946351   4.653318   3.708351   2.349561   1.432481
    12  O    5.010219   1.434067   2.425392   3.737821   4.698383
    13  C    5.259076   2.574541   1.531317   2.562864   2.683473
    14  O    5.777120   2.953252   2.411872   1.226666   2.286902
    15  C    6.382083   5.776780   4.771977   3.641245   2.387910
    16  H    3.393981   2.740487   3.451177   3.006078   3.653695
    17  H    2.153635   4.704986   5.478059   6.115038   6.144176
    18  H    2.152698   4.685802   5.423184   5.017516   5.132222
    19  H    3.396094   2.768515   3.531697   4.612806   4.977870
    20  H    1.086599   5.417770   6.208762   6.278191   6.211564
    21  H    4.774424   1.098145   2.176292   2.670188   3.887402
    22  H    6.189361   2.150569   1.099385   2.095145   3.078072
    23  H    6.920055   5.115357   4.058780   2.645835   2.075485
    24  H    5.444773   4.634730   4.026293   2.622663   2.077273
    25  H    5.898802   1.953690   2.682433   3.945811   5.048093
    26  H    6.185349   3.514776   2.172020   2.825692   2.660418
    27  H    5.565102   2.805192   2.180751   3.505932   3.773108
    28  H    4.506049   2.912633   2.192753   2.854188   2.609865
    29  H    7.055808   6.088293   4.884328   3.934210   2.641918
    30  H    7.058750   6.687788   5.740480   4.487445   3.348239
    31  H    5.645223   5.696401   4.856335   3.917583   2.642251
                   11         12         13         14         15
    11  C    0.000000
    12  O    5.964488   0.000000
    13  C    4.112495   3.001429   0.000000
    14  O    2.665150   4.223854   3.713984   0.000000
    15  C    1.516043   7.015468   4.737059   4.156987   0.000000
    16  H    4.044804   4.017849   4.481611   2.843614   5.179467
    17  H    7.070992   4.836552   5.105061   6.865131   7.377683
    18  H    5.271661   5.749080   5.977657   5.082363   5.882045
    19  H    6.216337   2.531038   3.213081   5.427320   6.835206
    20  H    6.680292   6.065322   6.229981   6.738674   6.956862
    21  H    4.826236   2.026351   3.513882   2.640914   6.122918
    22  H    4.295124   2.601810   2.107140   2.682056   5.416890
    23  H    1.095632   6.381467   4.611787   2.654365   2.150394
    24  H    1.095828   6.036750   4.635210   2.629953   2.149455
    25  H    6.274751   0.972039   3.453691   4.260883   7.425375
    26  H    3.989328   3.946268   1.096019   3.973209   4.454502
    27  H    5.204127   2.672816   1.094707   4.564588   5.807238
    28  H    3.944457   3.502370   1.094756   4.043602   4.341099
    29  H    2.160184   7.201185   4.620412   4.593294   1.095033
    30  H    2.162804   7.980284   5.810750   4.784897   1.093536
    31  H    2.159939   6.901598   4.642022   4.578179   1.095071
                   16         17         18         19         20
    16  H    0.000000
    17  H    4.961737   0.000000
    18  H    2.462618   4.295035   0.000000
    19  H    4.317188   2.466855   4.961446   0.000000
    20  H    4.288411   2.481246   2.480690   4.291012   0.000000
    21  H    2.463475   5.458907   4.706187   3.705824   5.839044
    22  H    4.254771   6.416684   6.401978   4.271391   7.254963
    23  H    4.655493   8.038970   6.136235   6.981033   7.691411
    24  H    3.384284   6.854400   4.445183   6.227766   6.125561
    25  H    4.489780   5.802256   6.448853   3.487371   6.962194
    26  H    5.257194   6.054175   6.783913   4.262808   7.115345
    27  H    5.116882   5.022421   6.559369   2.872302   6.531346
    28  H    4.285469   4.357777   5.363498   2.916399   5.398790
    29  H    5.938167   7.792047   6.786206   7.067627   7.667839
    30  H    5.771407   8.223366   6.306954   7.826732   7.544020
    31  H    5.021637   6.586788   5.336683   6.337757   6.127868
                   21         22         23         24         25
    21  H    0.000000
    22  H    2.496085   0.000000
    23  H    5.146497   4.388104   0.000000
    24  H    4.661842   4.712714   1.792370   0.000000
    25  H    2.149457   2.458220   6.535570   6.390064   0.000000
    26  H    4.330505   2.409783   4.336975   4.735655   4.234969
    27  H    3.807571   2.472442   5.678072   5.693303   3.121757
    28  H    3.900917   3.047143   4.667230   4.373747   4.155876
    29  H    6.528507   5.400948   2.497703   3.063874   7.565090
    30  H    6.927280   6.349075   2.500432   2.498940   8.365020
    31  H    6.159151   5.661507   3.064311   2.496399   7.440361
                   26         27         28         29         30
    26  H    0.000000
    27  H    1.766164   0.000000
    28  H    1.762201   1.774648   0.000000
    29  H    4.102649   5.643885   4.325332   0.000000
    30  H    5.518280   6.887852   5.418958   1.780195   0.000000
    31  H    4.513526   5.657545   4.011790   1.759349   1.780187
                   31
    31  H    0.000000
 Stoichiometry    C12H16O3
 Framework group  C1[X(C12H16O3)]
 Deg. of freedom    87
 Full point group                 C1      NOp   1
 Largest Abelian subgroup         C1      NOp   1
 Largest concise Abelian subgroup C1      NOp   1
                         Standard orientation:                         
 ---------------------------------------------------------------------
 Center     Atomic      Atomic             Coordinates (Angstroms)
 Number     Number       Type             X           Y           Z
 ---------------------------------------------------------------------
      1          6           0       -1.220437   -0.894333   -1.152394
      2          6           0       -3.001305   -1.223645    0.965248
      3          6           0       -1.830091   -2.131897   -0.936267
      4          6           0       -1.489011    0.196560   -0.308996
      5          6           0       -2.391633    0.013868    0.750052
      6          6           0       -2.718862   -2.296518    0.123322
      7          6           0       -0.796807    1.526505   -0.547038
      8          6           0        0.564674    1.680171    0.156102
      9          6           0        1.570097    0.752157   -0.496327
     10          8           0        2.151430   -0.098793    0.387601
     11          6           0        3.080624   -1.021709   -0.192768
     12          8           0       -1.662583    2.594107   -0.138130
     13          6           0        0.491815    1.566343    1.681443
     14          8           0        1.819029    0.780592   -1.697132
     15          6           0        3.603416   -1.921141    0.910000
     16          1           0       -0.534711   -0.787676   -1.991386
     17          1           0       -3.699137   -1.346723    1.789184
     18          1           0       -1.613409   -2.966271   -1.598165
     19          1           0       -2.627438    0.843315    1.414268
     20          1           0       -3.195453   -3.258677    0.290078
     21          1           0       -0.675432    1.645372   -1.631962
     22          1           0        0.935405    2.696231   -0.040944
     23          1           0        3.911374   -0.470940   -0.647650
     24          1           0        2.575853   -1.626218   -0.954749
     25          1           0       -1.355602    3.398082   -0.590068
     26          1           0        1.466473    1.792403    2.128875
     27          1           0       -0.232389    2.274266    2.097086
     28          1           0        0.213781    0.558954    2.007564
     29          1           0        4.092271   -1.329315    1.690937
     30          1           0        4.320310   -2.646416    0.515207
     31          1           0        2.780218   -2.461798    1.388762
 ---------------------------------------------------------------------
 Rotational constants (GHZ):      0.7556711      0.4512624      0.3536471
 Standard basis: 6-31+G(d,p) (6D, 7F)
 There are   365 symmetry adapted basis functions of A   symmetry.
 Integral buffers will be    131072 words long.
 Raffenetti 2 integral format.
 Two-electron integral symmetry is turned on.
   365 basis functions,   592 primitive gaussians,   365 cartesian basis functions
    56 alpha electrons       56 beta electrons
       nuclear repulsion energy      1019.0415349011 Hartrees.
 NAtoms=   31 NActive=   31 NUniq=   31 SFac= 1.00D+00 NAtFMM=   60 NAOKFM=F Big=F
 Nuclear repulsion after empirical dispersion term =     1019.0199145307 Hartrees.
 ------------------------------------------------------------------------------
 Polarizable Continuum Model (PCM)
 =================================
 Model                : C-PCM.
 Atomic radii         : SMD-Coulomb.
 Polarization charges : Total charges.
 Charge compensation  : None.
 Solution method      : Matrix inversion.
 Cavity type          : VdW (van der Waals Surface) (Alpha=1.000).
 Cavity algorithm     : GePol (No added spheres)
                        Default sphere list used, NSphG=   31.
                        Lebedev-Laikov grids with approx.  5.0 points / Ang**2.
                        Smoothing algorithm: Karplus/York (Gamma=1.0000).
                        Polarization charges: spherical gaussians, with
                                              point-specific exponents (IZeta= 3).
                        Self-potential: point-specific (ISelfS= 7).
                        Self-field    : sphere-specific E.n sum rule (ISelfD= 2).
 Solvent              : Chloroform, Eps=   4.711300 Eps(inf)=   2.090627
 ------------------------------------------------------------------------------
 ------------------------------------------------------------------------------
 Atomic radii for non-electrostatic terms: SMD-CDS.
 ------------------------------------------------------------------------------
 Nuclear repulsion after PCM non-electrostatic terms =     1019.0131547189 Hartrees.
 One-electron integrals computed using PRISM.
 NBasis=   365 RedAO= T  NBF=   365
 NBsUse=   365 1.00D-06 NBFU=   365
 Harris functional with IExCor= 4639 diagonalized for initial guess.
 ExpMin= 4.38D-02 ExpMax= 5.48D+03 ExpMxC= 8.25D+02 IAcc=2 IRadAn=         4 AccDes= 0.00D+00
 HarFok:  IExCor= 4639 AccDes= 0.00D+00 IRadAn=         4 IDoV= 1
 ScaDFX=  1.000000  1.000000  1.000000  1.000000
 FoFCou: FMM=F IPFlag=           0 FMFlag=      100000 FMFlg1=           0
         NFxFlg=           0 DoJE=T BraDBF=F KetDBF=T FulRan=T
         Omega=  0.000000  0.000000  1.000000  0.000000  0.000000 ICntrl=     500 IOpCl=  0
         NMat0=    1 NMatS0=    1 NMatT0=    0 NMatD0=    1 NMtDS0=    0 NMtDT0=    0
         I1Cent=           4 NGrid=           0.
 Petite list used in FoFCou.
 Initial guess orbital symmetries:
       Occupied  (A) (A) (A) (A) (A) (A) (A) (A) (A) (A) (A) (A)
                 (A) (A) (A) (A) (A) (A) (A) (A) (A) (A) (A) (A)
                 (A) (A) (A) (A) (A) (A) (A) (A) (A) (A) (A) (A)
                 (A) (A) (A) (A) (A) (A) (A) (A) (A) (A) (A) (A)
                 (A) (A) (A) (A) (A) (A) (A) (A)
       Virtual   (A) (A) (A) (A) (A) (A) (A) (A) (A) (A) (A) (A)
                 (A) (A) (A) (A) (A) (A) (A) (A) (A) (A) (A) (A)
                 (A) (A) (A) (A) (A) (A) (A) (A) (A) (A) (A) (A)
                 (A) (A) (A) (A) (A) (A) (A) (A) (A) (A) (A) (A)
                 (A) (A) (A) (A) (A) (A) (A) (A) (A) (A) (A) (A)
                 (A) (A) (A) (A) (A) (A) (A) (A) (A) (A) (A) (A)
                 (A) (A) (A) (A) (A) (A) (A) (A) (A) (A) (A) (A)
                 (A) (A) (A) (A) (A) (A) (A) (A) (A) (A) (A) (A)
                 (A) (A) (A) (A) (A) (A) (A) (A) (A) (A) (A) (A)
                 (A) (A) (A) (A) (A) (A) (A) (A) (A) (A) (A) (A)
                 (A) (A) (A) (A) (A) (A) (A) (A) (A) (A) (A) (A)
                 (A) (A) (A) (A) (A) (A) (A) (A) (A) (A) (A) (A)
                 (A) (A) (A) (A) (A) (A) (A) (A) (A) (A) (A) (A)
                 (A) (A) (A) (A) (A) (A) (A) (A) (A) (A) (A) (A)
                 (A) (A) (A) (A) (A) (A) (A) (A) (A) (A) (A) (A)
                 (A) (A) (A) (A) (A) (A) (A) (A) (A) (A) (A) (A)
                 (A) (A) (A) (A) (A) (A) (A) (A) (A) (A) (A) (A)
                 (A) (A) (A) (A) (A) (A) (A) (A) (A) (A) (A) (A)
                 (A) (A) (A) (A) (A) (A) (A) (A) (A) (A) (A) (A)
                 (A) (A) (A) (A) (A) (A) (A) (A) (A) (A) (A) (A)
                 (A) (A) (A) (A) (A) (A) (A) (A) (A) (A) (A) (A)
                 (A) (A) (A) (A) (A) (A) (A) (A) (A) (A) (A) (A)
                 (A) (A) (A) (A) (A) (A) (A) (A) (A) (A) (A) (A)
                 (A) (A) (A) (A) (A) (A) (A) (A) (A) (A) (A) (A)
                 (A) (A) (A) (A) (A) (A) (A) (A) (A) (A) (A) (A)
                 (A) (A) (A) (A) (A) (A) (A) (A) (A)
 The electronic state of the initial guess is 1-A.
 Requested convergence on RMS density matrix=1.00D-08 within 128 cycles.
 Requested convergence on MAX density matrix=1.00D-06.
 Requested convergence on             energy=1.00D-06.
 No special actions if energy rises.
 FoFJK:  IHMeth= 1 ICntrl=     0 DoSepK=T KAlg= 1 I1Cent= 0 FoldK=F
 FoFJK:  IHMeth= 1 ICntrl=     0 DoSepK=T KAlg= 1 I1Cent= 0 FoldK=F
 FoFJK:  IHMeth= 1 ICntrl=     0 DoSepK=T KAlg= 1 I1Cent= 0 FoldK=F
 FoFJK:  IHMeth= 1 ICntrl=     0 DoSepK=T KAlg= 1 I1Cent= 0 FoldK=F
 FoFJK:  IHMeth= 1 ICntrl=     0 DoSepK=T KAlg= 1 I1Cent= 0 FoldK=F
 FoFJK:  IHMeth= 1 ICntrl=     0 DoSepK=T KAlg= 1 I1Cent= 0 FoldK=F
 FoFJK:  IHMeth= 1 ICntrl=     0 DoSepK=T KAlg= 1 I1Cent= 0 FoldK=F
 FoFJK:  IHMeth= 1 ICntrl=     0 DoSepK=T KAlg= 1 I1Cent= 0 FoldK=F
 FoFJK:  IHMeth= 1 ICntrl=     0 DoSepK=T KAlg= 1 I1Cent= 0 FoldK=F
 FoFJK:  IHMeth= 1 ICntrl=     0 DoSepK=T KAlg= 1 I1Cent= 0 FoldK=F
 FoFJK:  IHMeth= 1 ICntrl=     0 DoSepK=T KAlg= 1 I1Cent= 0 FoldK=F
 FoFJK:  IHMeth= 1 ICntrl=     0 DoSepK=T KAlg= 1 I1Cent= 0 FoldK=F
 FoFJK:  IHMeth= 1 ICntrl=     0 DoSepK=T KAlg= 1 I1Cent= 0 FoldK=F
 FoFJK:  IHMeth= 1 ICntrl=     0 DoSepK=T KAlg= 1 I1Cent= 0 FoldK=F
 FoFJK:  IHMeth= 1 ICntrl=     0 DoSepK=T KAlg= 1 I1Cent= 0 FoldK=F
 FoFJK:  IHMeth= 1 ICntrl=     0 DoSepK=T KAlg= 1 I1Cent= 0 FoldK=F
 Error on total polarization charges =  0.03833
 SCF Done:  E(RwB97XD) =  -692.444938708     A.U. after   16 cycles
             Convg  =    0.3993D-08             -V/T =  2.0096
 SMD-CDS (non-electrostatic) energy       (kcal/mol) =      -4.24
 (included in total energy above)
 Range of M.O.s used for correlation:     1   365
 NBasis=   365 NAE=    56 NBE=    56 NFC=     0 NFV=     0
 NROrb=    365 NOA=    56 NOB=    56 NVA=   309 NVB=   309

 **** Warning!!: The largest alpha MO coefficient is  0.13888697D+03

 NEqPCM:  Using equilibrium solvation (IEInf=0, Eps=   4.7113, EpsInf=   2.0906)
          Differentiating once with respect to magnetic field using GIAOs.
          Electric field/nuclear overlap derivatives assumed to be zero.
 FoFCou: FMM=F IPFlag=           0 FMFlag=    10101102 FMFlg1=           0
         NFxFlg=    40000000 DoJE=F BraDBF=F KetDBF=T FulRan=T
         Omega=  0.000000  0.000000  1.000000  0.000000  0.000000 ICntrl=    6100 IOpCl=  0
         NMat0=    1 NMatS0=    1 NMatT0=    0 NMatD0=    1 NMtDS0=    0 NMtDT0=    0
         I1Cent=           7 NGrid=        2288.
 Symmetry not used in FoFCou.
 FoFJK:  IHMeth= 1 ICntrl=  6127 DoSepK=T KAlg= 1 I1Cent= 0 FoldK=F
 FoFJK:  IHMeth= 1 ICntrl=     0 DoSepK=T KAlg= 1 I1Cent= 0 FoldK=F
          There are     3 degrees of freedom in the 1st order CPHF.  IDoFFX=0.
      3 vectors produced by pass  0 Test12= 5.77D-13 3.33D-08 XBig12= 1.09D+02 2.47D+00.
 AX will form     3 AO Fock derivatives at one time.
 FoFJK:  IHMeth= 1 ICntrl=     0 DoSepK=T KAlg= 1 I1Cent= 0 FoldK=F
      3 vectors produced by pass  1 Test12= 5.77D-13 3.33D-08 XBig12= 7.26D-01 2.32D-01.
 FoFJK:  IHMeth= 1 ICntrl=     0 DoSepK=T KAlg= 1 I1Cent= 0 FoldK=F
      3 vectors produced by pass  2 Test12= 5.77D-13 3.33D-08 XBig12= 1.29D-02 4.18D-02.
 FoFJK:  IHMeth= 1 ICntrl=     0 DoSepK=T KAlg= 1 I1Cent= 0 FoldK=F
      3 vectors produced by pass  3 Test12= 5.77D-13 3.33D-08 XBig12= 2.66D-04 3.33D-03.
 FoFJK:  IHMeth= 1 ICntrl=     0 DoSepK=T KAlg= 1 I1Cent= 0 FoldK=F
      3 vectors produced by pass  4 Test12= 5.77D-13 3.33D-08 XBig12= 4.21D-06 3.67D-04.
 FoFJK:  IHMeth= 1 ICntrl=     0 DoSepK=T KAlg= 1 I1Cent= 0 FoldK=F
      3 vectors produced by pass  5 Test12= 5.77D-13 3.33D-08 XBig12= 5.72D-08 4.90D-05.
 FoFJK:  IHMeth= 1 ICntrl=     0 DoSepK=T KAlg= 1 I1Cent= 0 FoldK=F
      3 vectors produced by pass  6 Test12= 5.77D-13 3.33D-08 XBig12= 6.66D-10 5.52D-06.
 FoFJK:  IHMeth= 1 ICntrl=     0 DoSepK=T KAlg= 1 I1Cent= 0 FoldK=F
      3 vectors produced by pass  7 Test12= 5.77D-13 3.33D-08 XBig12= 8.33D-12 7.24D-07.
 FoFJK:  IHMeth= 1 ICntrl=     0 DoSepK=T KAlg= 1 I1Cent= 0 FoldK=F
      2 vectors produced by pass  8 Test12= 5.77D-13 3.33D-08 XBig12= 9.51D-14 7.71D-08.
 FoFJK:  IHMeth= 1 ICntrl=     0 DoSepK=T KAlg= 1 I1Cent= 0 FoldK=F
 Inverted reduced A of dimension    26 with in-core refinement.
 Calculating GIAO nuclear magnetic shielding tensors.
 SCF GIAO Magnetic shielding tensor (ppm):
      1  C    Isotropic =    71.8379   Anisotropy =   165.5423
   XX=    95.2747   YX=   -39.6545   ZX=    93.2814
   XY=   -27.3577   YY=    71.7430   ZY=   -13.4649
   XZ=    96.5019   YZ=   -21.7768   ZZ=    48.4958
   Eigenvalues:   -26.3534    59.6676   182.1994
      2  C    Isotropic =    70.5116   Anisotropy =   174.9067
   XX=    95.9783   YX=   -33.7328   ZX=   100.8702
   XY=   -32.5027   YY=    65.2930   ZY=   -11.7882
   XZ=   103.3277   YZ=   -13.3562   ZZ=    50.2635
   Eigenvalues:   -32.7848    57.2035   187.1161
      3  C    Isotropic =    70.5760   Anisotropy =   174.4516
   XX=   128.3726   YX=   -12.1743   ZX=    70.1989
   XY=   -11.6990   YY=    12.9729   ZY=   -63.7247
   XZ=    68.2320   YZ=   -62.0967   ZZ=    70.3825
   Eigenvalues:   -33.1362    57.9871   186.8770
      4  C    Isotropic =    56.7876   Anisotropy =   177.5542
   XX=   106.9960   YX=   -57.1035   ZX=    62.3337
   XY=   -57.6298   YY=    -7.6505   ZY=   -13.9637
   XZ=    72.3576   YZ=   -14.9167   ZZ=    71.0174
   Eigenvalues:   -33.4489    28.6547   175.1571
      5  C    Isotropic =    71.7438   Anisotropy =   184.3060
   XX=   126.0821   YX=   -19.0243   ZX=    76.7918
   XY=   -11.8795   YY=    18.1757   ZY=   -59.8437
   XZ=    76.4983   YZ=   -67.5685   ZZ=    70.9736
   Eigenvalues:   -31.6461    52.2631   194.6145
      6  C    Isotropic =    72.1859   Anisotropy =   176.8003
   XX=   117.4907   YX=   -57.2893   ZX=    66.1245
   XY=   -61.2018   YY=    -2.8859   ZY=   -10.2118
   XZ=    66.6317   YZ=    -7.2210   ZZ=   101.9531
   Eigenvalues:   -29.8730    56.3780   190.0528
      7  C    Isotropic =   121.7498   Anisotropy =    37.0947
   XX=   124.0905   YX=   -14.4256   ZX=    -1.8270
   XY=   -15.6264   YY=   129.4522   ZY=    10.5202
   XZ=    -6.3009   YZ=    14.7695   ZZ=   111.7067
   Eigenvalues:   104.2517   114.5182   146.4797
      8  C    Isotropic =   146.3693   Anisotropy =    31.8475
   XX=   159.1073   YX=   -10.8302   ZX=    -8.4563
   XY=   -13.0330   YY=   145.3739   ZY=    10.3210
   XZ=     3.9889   YZ=    10.0142   ZZ=   134.6268
   Eigenvalues:   127.8030   143.7039   167.6010
      9  C    Isotropic =    20.8881   Anisotropy =   100.0746
   XX=    26.5149   YX=    68.6212   ZX=    -0.9796
   XY=    72.8083   YY=     2.0899   ZY=    15.6960
   XZ=   -23.2416   YZ=    39.6978   ZZ=    34.0595
   Eigenvalues:   -65.9053    40.9651    87.6045
     10  O    Isotropic =   124.4568   Anisotropy =   146.4443
   XX=   146.3364   YX=    63.3360   ZX=    70.3989
   XY=    31.1916   YY=   188.5838   ZY=   -35.8237
   XZ=   148.9151   YZ=  -121.0052   ZZ=    38.4503
   Eigenvalues:   -63.1123   214.3964   222.0864
     11  C    Isotropic =   136.6020   Anisotropy =    58.8374
   XX=   142.0443   YX=   -26.0355   ZX=   -17.4102
   XY=   -27.3960   YY=   141.6639   ZY=    16.5278
   XZ=   -10.1432   YZ=     9.6418   ZZ=   126.0978
   Eigenvalues:   115.0959   118.8832   175.8269
     12  O    Isotropic =   289.8653   Anisotropy =    91.6766
   XX=   284.4036   YX=    26.3490   ZX=    -6.7914
   XY=    -4.8031   YY=   346.0247   ZY=   -17.8398
   XZ=     1.5702   YZ=   -19.2199   ZZ=   239.1677
   Eigenvalues:   236.0327   282.5802   350.9831
     13  C    Isotropic =   186.8623   Anisotropy =     9.0032
   XX=   185.1954   YX=    -0.6312   ZX=    -3.6839
   XY=    -1.3732   YY=   183.2842   ZY=    -0.0936
   XZ=    -1.1234   YZ=    -0.9102   ZZ=   192.1073
   Eigenvalues:   182.6119   185.1105   192.8644
     14  O    Isotropic =   -48.0157   Anisotropy =   558.0528
   XX=    79.7441   YX=   247.6141   ZX=    58.7173
   XY=   251.2059   YY=    40.7150   ZY=    66.1594
   XZ=    26.5488   YZ=   104.8461   ZZ=  -264.5063
   Eigenvalues:  -289.3319  -178.7348   324.0195
     15  C    Isotropic =   182.9619   Anisotropy =    22.8216
   XX=   178.9133   YX=   -10.4938   ZX=     0.3724
   XY=   -11.9007   YY=   183.2903   ZY=    -5.2408
   XZ=     5.4571   YZ=   -10.6159   ZZ=   186.6821
   Eigenvalues:   169.1665   181.5429   198.1763
     16  H    Isotropic =    24.1000   Anisotropy =     8.0093
   XX=    22.7654   YX=     2.9536   ZX=     0.7608
   XY=     2.8870   YY=    26.8118   ZY=     2.7351
   XZ=     0.2994   YZ=     2.8046   ZZ=    22.7228
   Eigenvalues:    20.6468    22.2136    29.4395
     17  H    Isotropic =    23.7404   Anisotropy =     4.8865
   XX=    22.6271   YX=     1.6243   ZX=    -1.6815
   XY=     1.6131   YY=    26.3413   ZY=     1.0394
   XZ=    -1.4550   YZ=     1.1017   ZZ=    22.2530
   Eigenvalues:    20.2745    23.9487    26.9981
     18  H    Isotropic =    23.9101   Anisotropy =     4.9843
   XX=    23.3945   YX=     2.3930   ZX=    -2.0144
   XY=     2.5197   YY=    25.0657   ZY=    -0.1056
   XZ=    -1.9065   YZ=    -0.0412   ZZ=    23.2701
   Eigenvalues:    20.6342    23.8632    27.2330
     19  H    Isotropic =    23.4497   Anisotropy =     9.6499
   XX=    24.9359   YX=     3.2210   ZX=    -4.0267
   XY=     3.7756   YY=    23.8739   ZY=    -1.9083
   XZ=    -3.1150   YZ=    -2.0715   ZZ=    21.5393
   Eigenvalues:    19.2700    21.1962    29.8830
     20  H    Isotropic =    23.7940   Anisotropy =     4.0363
   XX=    23.0728   YX=     0.8507   ZX=    -2.6403
   XY=     0.8058   YY=    24.1565   ZY=     1.4122
   XZ=    -2.5670   YZ=     1.5662   ZZ=    24.1528
   Eigenvalues:    20.2940    24.6032    26.4849
     21  H    Isotropic =    25.9631   Anisotropy =     5.8827
   XX=    23.3091   YX=    -3.0071   ZX=    -1.2110
   XY=    -1.0691   YY=    25.7711   ZY=     1.4984
   XZ=    -2.3795   YZ=     0.2448   ZZ=    28.8091
   Eigenvalues:    21.9549    26.0495    29.8849
     22  H    Isotropic =    28.6718   Anisotropy =     6.1304
   XX=    27.2143   YX=     3.2233   ZX=    -1.1676
   XY=     1.8708   YY=    30.8732   ZY=    -2.4110
   XZ=    -1.2993   YZ=    -0.0667   ZZ=    27.9278
   Eigenvalues:    25.7461    27.5105    32.7587
     23  H    Isotropic =    27.5773   Anisotropy =     7.4355
   XX=    31.2537   YX=    -0.7084   ZX=    -3.5388
   XY=    -1.7300   YY=    25.7426   ZY=    -1.9448
   XZ=    -2.3466   YZ=    -2.7455   ZZ=    25.7357
   Eigenvalues:    22.3871    27.8105    32.5343
     24  H    Isotropic =    27.7544   Anisotropy =     5.5390
   XX=    26.5500   YX=    -2.3212   ZX=     0.6544
   XY=    -2.5291   YY=    28.8339   ZY=     3.4284
   XZ=     2.9405   YZ=     2.4050   ZZ=    27.8794
   Eigenvalues:    22.9571    28.8590    31.4471
     25  H    Isotropic =    29.6066   Anisotropy =    19.4869
   XX=    24.4575   YX=    -0.3898   ZX=    -3.4352
   XY=     1.1355   YY=    39.7047   ZY=    -7.7249
   XZ=    -2.7107   YZ=    -6.3282   ZZ=    24.6575
   Eigenvalues:    20.1337    26.0882    42.5979
     26  H    Isotropic =    30.6034   Anisotropy =    10.2982
   XX=    33.3345   YX=     2.0360   ZX=     4.1284
   XY=     0.8914   YY=    27.1863   ZY=     2.6160
   XZ=     4.5167   YZ=     2.3762   ZZ=    31.2894
   Eigenvalues:    25.9423    28.3990    37.4689
     27  H    Isotropic =    30.1534   Anisotropy =     8.8413
   XX=    29.7833   YX=    -2.8512   ZX=    -1.2441
   XY=    -3.6887   YY=    29.1247   ZY=     3.5251
   XZ=    -1.8014   YZ=     4.1625   ZZ=    31.5522
   Eigenvalues:    25.3881    29.0245    36.0476
     28  H    Isotropic =    30.8726   Anisotropy =     5.2385
   XX=    29.9672   YX=     3.4431   ZX=     0.6356
   XY=     0.8102   YY=    31.8979   ZY=    -3.3675
   XZ=     0.5583   YZ=    -1.7177   ZZ=    30.7526
   Eigenvalues:    27.3547    30.8981    34.3649
     29  H    Isotropic =    30.5233   Anisotropy =     8.7354
   XX=    30.5409   YX=     0.4609   ZX=     4.3787
   XY=     0.3868   YY=    28.7499   ZY=     1.0398
   XZ=     4.7456   YZ=     2.1181   ZZ=    32.2790
   Eigenvalues:    26.5328    28.6901    36.3469
     30  H    Isotropic =    30.5564   Anisotropy =    11.1947
   XX=    31.9520   YX=    -5.7292   ZX=    -1.2192
   XY=    -5.9202   YY=    32.2094   ZY=     0.9132
   XZ=    -0.4214   YZ=     0.5285   ZZ=    27.5079
   Eigenvalues:    26.2488    27.4010    38.0196
     31  H    Isotropic =    30.7014   Anisotropy =     7.1077
   XX=    31.7229   YX=     1.6556   ZX=    -1.3015
   XY=     1.6212   YY=    31.1274   ZY=    -3.8730
   XZ=    -1.6500   YZ=    -3.7940   ZZ=    29.2540
   Eigenvalues:    26.2399    30.4245    35.4399
 End of Minotr Frequency-dependent properties file   721 does not exist.
 End of Minotr Frequency-dependent properties file   722 does not exist.

 **********************************************************************

            Population analysis using the SCF density.

 **********************************************************************

 Orbital symmetries:
       Occupied  (A) (A) (A) (A) (A) (A) (A) (A) (A) (A) (A) (A)
                 (A) (A) (A) (A) (A) (A) (A) (A) (A) (A) (A) (A)
                 (A) (A) (A) (A) (A) (A) (A) (A) (A) (A) (A) (A)
                 (A) (A) (A) (A) (A) (A) (A) (A) (A) (A) (A) (A)
                 (A) (A) (A) (A) (A) (A) (A) (A)
       Virtual   (A) (A) (A) (A) (A) (A) (A) (A) (A) (A) (A) (A)
                 (A) (A) (A) (A) (A) (A) (A) (A) (A) (A) (A) (A)
                 (A) (A) (A) (A) (A) (A) (A) (A) (A) (A) (A) (A)
                 (A) (A) (A) (A) (A) (A) (A) (A) (A) (A) (A) (A)
                 (A) (A) (A) (A) (A) (A) (A) (A) (A) (A) (A) (A)
                 (A) (A) (A) (A) (A) (A) (A) (A) (A) (A) (A) (A)
                 (A) (A) (A) (A) (A) (A) (A) (A) (A) (A) (A) (A)
                 (A) (A) (A) (A) (A) (A) (A) (A) (A) (A) (A) (A)
                 (A) (A) (A) (A) (A) (A) (A) (A) (A) (A) (A) (A)
                 (A) (A) (A) (A) (A) (A) (A) (A) (A) (A) (A) (A)
                 (A) (A) (A) (A) (A) (A) (A) (A) (A) (A) (A) (A)
                 (A) (A) (A) (A) (A) (A) (A) (A) (A) (A) (A) (A)
                 (A) (A) (A) (A) (A) (A) (A) (A) (A) (A) (A) (A)
                 (A) (A) (A) (A) (A) (A) (A) (A) (A) (A) (A) (A)
                 (A) (A) (A) (A) (A) (A) (A) (A) (A) (A) (A) (A)
                 (A) (A) (A) (A) (A) (A) (A) (A) (A) (A) (A) (A)
                 (A) (A) (A) (A) (A) (A) (A) (A) (A) (A) (A) (A)
                 (A) (A) (A) (A) (A) (A) (A) (A) (A) (A) (A) (A)
                 (A) (A) (A) (A) (A) (A) (A) (A) (A) (A) (A) (A)
                 (A) (A) (A) (A) (A) (A) (A) (A) (A) (A) (A) (A)
                 (A) (A) (A) (A) (A) (A) (A) (A) (A) (A) (A) (A)
                 (A) (A) (A) (A) (A) (A) (A) (A) (A) (A) (A) (A)
                 (A) (A) (A) (A) (A) (A) (A) (A) (A) (A) (A) (A)
                 (A) (A) (A) (A) (A) (A) (A) (A) (A) (A) (A) (A)
                 (A) (A) (A) (A) (A) (A) (A) (A) (A) (A) (A) (A)
                 (A) (A) (A) (A) (A) (A) (A) (A) (A)
 The electronic state is 1-A.
 Alpha  occ. eigenvalues --  -19.33011 -19.28314 -19.27475 -10.44086 -10.36239
 Alpha  occ. eigenvalues --  -10.35086 -10.31950 -10.31631 -10.30661 -10.30548
 Alpha  occ. eigenvalues --  -10.30525 -10.30459 -10.30392 -10.28826 -10.28508
 Alpha  occ. eigenvalues --   -1.21249  -1.13071  -1.12437  -0.96157  -0.91235
 Alpha  occ. eigenvalues --   -0.86987  -0.85068  -0.84586  -0.77769  -0.75348
 Alpha  occ. eigenvalues --   -0.71562  -0.69984  -0.67432  -0.65624  -0.60767
 Alpha  occ. eigenvalues --   -0.59974  -0.58990  -0.58045  -0.57114  -0.55857
 Alpha  occ. eigenvalues --   -0.54069  -0.52662  -0.50744  -0.50330  -0.49485
 Alpha  occ. eigenvalues --   -0.48813  -0.47773  -0.47274  -0.46092  -0.44974
 Alpha  occ. eigenvalues --   -0.44524  -0.43856  -0.43388  -0.43053  -0.42033
 Alpha  occ. eigenvalues --   -0.40229  -0.38800  -0.37404  -0.35914  -0.33114
 Alpha  occ. eigenvalues --   -0.32542
 Alpha virt. eigenvalues --    0.05059   0.05306   0.06531   0.06987   0.07789
 Alpha virt. eigenvalues --    0.08192   0.08407   0.09458   0.09975   0.10109
 Alpha virt. eigenvalues --    0.10707   0.11136   0.11689   0.12037   0.12550
 Alpha virt. eigenvalues --    0.13359   0.13951   0.14173   0.14760   0.15465
 Alpha virt. eigenvalues --    0.15867   0.16931   0.17205   0.18114   0.18537
 Alpha virt. eigenvalues --    0.18693   0.18840   0.19694   0.20123   0.20464
 Alpha virt. eigenvalues --    0.21170   0.21814   0.22359   0.22493   0.22704
 Alpha virt. eigenvalues --    0.22973   0.23163   0.24071   0.24329   0.24864
 Alpha virt. eigenvalues --    0.25150   0.25546   0.26215   0.26797   0.27343
 Alpha virt. eigenvalues --    0.27420   0.27886   0.28247   0.28407   0.28779
 Alpha virt. eigenvalues --    0.29138   0.29649   0.30407   0.30760   0.31455
 Alpha virt. eigenvalues --    0.31749   0.32089   0.32229   0.32495   0.33175
 Alpha virt. eigenvalues --    0.33556   0.34213   0.34920   0.35119   0.36109
 Alpha virt. eigenvalues --    0.36500   0.37014   0.37702   0.38159   0.38477
 Alpha virt. eigenvalues --    0.39334   0.39737   0.40530   0.40997   0.41593
 Alpha virt. eigenvalues --    0.42124   0.42823   0.43026   0.44242   0.44330
 Alpha virt. eigenvalues --    0.45005   0.46650   0.46868   0.47264   0.47866
 Alpha virt. eigenvalues --    0.48445   0.50692   0.51499   0.53204   0.54922
 Alpha virt. eigenvalues --    0.55757   0.56820   0.60660   0.65974   0.70247
 Alpha virt. eigenvalues --    0.72861   0.74800   0.75274   0.75761   0.76984
 Alpha virt. eigenvalues --    0.77816   0.78519   0.78940   0.79914   0.81490
 Alpha virt. eigenvalues --    0.81918   0.83598   0.83887   0.84200   0.84620
 Alpha virt. eigenvalues --    0.84729   0.87178   0.87735   0.89443   0.89609
 Alpha virt. eigenvalues --    0.90264   0.92184   0.93583   0.94773   0.96622
 Alpha virt. eigenvalues --    0.98670   0.99927   1.01594   1.01722   1.02336
 Alpha virt. eigenvalues --    1.03274   1.04399   1.05903   1.06313   1.07320
 Alpha virt. eigenvalues --    1.08476   1.09940   1.10468   1.11039   1.12034
 Alpha virt. eigenvalues --    1.13170   1.14649   1.17373   1.18973   1.19801
 Alpha virt. eigenvalues --    1.20555   1.21131   1.22077   1.22447   1.23839
 Alpha virt. eigenvalues --    1.25337   1.26697   1.28803   1.29640   1.31552
 Alpha virt. eigenvalues --    1.31837   1.33468   1.35652   1.36218   1.37284
 Alpha virt. eigenvalues --    1.39420   1.42253   1.42403   1.43371   1.45660
 Alpha virt. eigenvalues --    1.46232   1.47440   1.48095   1.48778   1.50103
 Alpha virt. eigenvalues --    1.51484   1.52217   1.52968   1.54454   1.56242
 Alpha virt. eigenvalues --    1.57023   1.58389   1.60535   1.62173   1.65835
 Alpha virt. eigenvalues --    1.70192   1.71642   1.72315   1.76487   1.78169
 Alpha virt. eigenvalues --    1.81366   1.82132   1.83228   1.86074   1.88815
 Alpha virt. eigenvalues --    1.89477   1.91493   1.92790   1.94577   1.95067
 Alpha virt. eigenvalues --    1.97493   1.99673   1.99982   2.00498   2.01107
 Alpha virt. eigenvalues --    2.02799   2.03556   2.03866   2.05174   2.05867
 Alpha virt. eigenvalues --    2.07325   2.08649   2.09369   2.10466   2.11796
 Alpha virt. eigenvalues --    2.13403   2.13791   2.15572   2.16215   2.17228
 Alpha virt. eigenvalues --    2.19251   2.19653   2.20240   2.20658   2.20782
 Alpha virt. eigenvalues --    2.23000   2.24939   2.27226   2.28583   2.29146
 Alpha virt. eigenvalues --    2.32082   2.36774   2.38494   2.39030   2.40707
 Alpha virt. eigenvalues --    2.41187   2.44188   2.45171   2.46462   2.48259
 Alpha virt. eigenvalues --    2.49081   2.50306   2.51450   2.51513   2.54129
 Alpha virt. eigenvalues --    2.55404   2.56616   2.57436   2.61157   2.62250
 Alpha virt. eigenvalues --    2.63426   2.64747   2.66632   2.67946   2.69064
 Alpha virt. eigenvalues --    2.70205   2.71437   2.73179   2.75855   2.76463
 Alpha virt. eigenvalues --    2.76918   2.78609   2.80200   2.81802   2.82129
 Alpha virt. eigenvalues --    2.84082   2.84545   2.86874   2.87764   2.89073
 Alpha virt. eigenvalues --    2.90166   2.92101   2.94768   2.95518   2.99424
 Alpha virt. eigenvalues --    2.99988   3.00799   3.02348   3.06136   3.07998
 Alpha virt. eigenvalues --    3.14112   3.16501   3.17837   3.20026   3.28405
 Alpha virt. eigenvalues --    3.29121   3.30834   3.36655   3.37480   3.39093
 Alpha virt. eigenvalues --    3.39999   3.44758   3.45352   3.49213   3.52796
 Alpha virt. eigenvalues --    3.53990   3.58395   3.58921   3.61653   3.62771
 Alpha virt. eigenvalues --    3.63437   3.63928   3.65923   3.99770   4.40371
 Alpha virt. eigenvalues --    4.42362   4.44377   4.51213   4.54827   4.57627
 Alpha virt. eigenvalues --    4.58748   4.62815   4.63807   4.70236   4.73100
 Alpha virt. eigenvalues --    4.78301   4.79161   4.94917   5.00216
          Condensed to atoms (all electrons):
              1          2          3          4          5          6
     1  C   16.341153  -0.160494  -0.633296  -3.148493  -8.347031   0.178919
     2  C   -0.160494   6.872166   0.312829   0.165510  -1.029887   0.138185
     3  C   -0.633296   0.312829   6.597771   0.266871  -0.417540   0.138158
     4  C   -3.148493   0.165510   0.266871  13.400537  -2.061040  -0.895036
     5  C   -8.347031  -1.029887  -0.417540  -2.061040  17.759540   0.740260
     6  C    0.178919   0.138185   0.138158  -0.895036   0.740260   5.564788
     7  C    1.807529  -0.545371  -0.409131  -2.212349  -0.887088   0.078324
     8  C   -0.065494   0.240296   0.196385   0.195142  -0.250558  -0.087599
     9  C   -0.645167   0.014736  -0.151969   0.591802   0.487496   0.025624
    10  O    0.164280  -0.006978   0.001329  -0.084049  -0.088562   0.005101
    11  C    0.052217   0.001853   0.020492  -0.028124  -0.026939  -0.005205
    12  O   -0.131649   0.100375  -0.023060   0.041573   0.008732  -0.001350
    13  C    0.080265  -0.068323  -0.020785  -0.210514  -0.019683   0.019872
    14  O    0.027339   0.001731   0.024151  -0.046591  -0.057488  -0.002087
    15  C    0.047010   0.005896   0.008594  -0.024184  -0.028111  -0.003338
    16  H    0.109571   0.000904   0.049455   0.122488   0.031808  -0.005318
    17  H    0.004214   0.268501  -0.004644   0.037290   0.019068   0.002762
    18  H    0.032581  -0.009248   0.248321   0.007235   0.008210   0.039872
    19  H    0.054527  -0.019474  -0.002593   0.088824   0.198074  -0.004564
    20  H   -0.004190   0.029917   0.039976   0.010025  -0.014209   0.264617
    21  H    0.210630   0.012985   0.057658  -0.047051  -0.193118  -0.006034
    22  H    0.007188  -0.002690  -0.001965   0.016440  -0.003542   0.000527
    23  H    0.004284  -0.000117   0.000691  -0.005154  -0.001135   0.000171
    24  H   -0.004021   0.001188   0.001580   0.007144  -0.000291  -0.002158
    25  H    0.012350  -0.011390   0.001427   0.006318   0.002621   0.000768
    26  H   -0.008765  -0.001118  -0.000911  -0.012803   0.008374   0.000166
    27  H   -0.013387   0.008150   0.000056  -0.040463   0.062377   0.001623
    28  H    0.033792  -0.012455  -0.004076   0.007905  -0.037734   0.000117
    29  H    0.000243   0.000048   0.000070  -0.000092  -0.000085  -0.000013
    30  H    0.000106   0.000016  -0.000004  -0.000012   0.000015  -0.000016
    31  H    0.001529  -0.000130   0.001348  -0.002549  -0.001300  -0.000005
              7          8          9         10         11         12
     1  C    1.807529  -0.065494  -0.645167   0.164280   0.052217  -0.131649
     2  C   -0.545371   0.240296   0.014736  -0.006978   0.001853   0.100375
     3  C   -0.409131   0.196385  -0.151969   0.001329   0.020492  -0.023060
     4  C   -2.212349   0.195142   0.591802  -0.084049  -0.028124   0.041573
     5  C   -0.887088  -0.250558   0.487496  -0.088562  -0.026939   0.008732
     6  C    0.078324  -0.087599   0.025624   0.005101  -0.005205  -0.001350
     7  C    8.667461  -0.617080  -0.523202   0.018385  -0.046335   0.016374
     8  C   -0.617080   7.424375  -0.990421  -0.307448   0.100614   0.043927
     9  C   -0.523202  -0.990421   6.882988   0.302110  -0.262689   0.043244
    10  O    0.018385  -0.307448   0.302110   8.451779   0.011901  -0.004867
    11  C   -0.046335   0.100614  -0.262689   0.011901   5.372409  -0.001333
    12  O    0.016374   0.043927   0.043244  -0.004867  -0.001333   8.362411
    13  C    0.275178   0.058644  -0.297580   0.048331  -0.013793  -0.051299
    14  O    0.020869  -0.106971   0.651053  -0.174623  -0.064286  -0.004623
    15  C   -0.013063  -0.037289   0.018666  -0.031687   0.123128  -0.000090
    16  H   -0.001523   0.012774   0.002291  -0.001083  -0.003507   0.000114
    17  H   -0.000785  -0.000353  -0.000481  -0.000001  -0.000002   0.000061
    18  H   -0.000808  -0.000449   0.000982  -0.000069   0.000327   0.000019
    19  H    0.013028  -0.012302  -0.007604   0.000000  -0.000129  -0.000160
    20  H   -0.000081   0.000320  -0.000114   0.000004  -0.000012   0.000001
    21  H    0.213987   0.135736  -0.086801   0.000788   0.003393  -0.045690
    22  H    0.013865   0.277082   0.037890   0.004603  -0.002205  -0.015762
    23  H    0.002897  -0.015965   0.004779  -0.043271   0.401245  -0.000005
    24  H   -0.004461  -0.000103  -0.036815  -0.034789   0.408347   0.000010
    25  H    0.073017  -0.076403   0.014375   0.000115   0.000108   0.232469
    26  H    0.030833  -0.095048   0.011552  -0.001573  -0.003616  -0.000016
    27  H   -0.054758  -0.043962   0.001263   0.000792  -0.000601   0.012400
    28  H    0.052621  -0.103281   0.022345  -0.001016  -0.002205  -0.004708
    29  H   -0.000683  -0.004019  -0.004069  -0.002552  -0.059003   0.000000
    30  H   -0.000043  -0.000272   0.000564   0.007267  -0.060868   0.000000
    31  H    0.001782  -0.005571   0.002760  -0.003508  -0.060732  -0.000001
             13         14         15         16         17         18
     1  C    0.080265   0.027339   0.047010   0.109571   0.004214   0.032581
     2  C   -0.068323   0.001731   0.005896   0.000904   0.268501  -0.009248
     3  C   -0.020785   0.024151   0.008594   0.049455  -0.004644   0.248321
     4  C   -0.210514  -0.046591  -0.024184   0.122488   0.037290   0.007235
     5  C   -0.019683  -0.057488  -0.028111   0.031808   0.019068   0.008210
     6  C    0.019872  -0.002087  -0.003338  -0.005318   0.002762   0.039872
     7  C    0.275178   0.020869  -0.013063  -0.001523  -0.000785  -0.000808
     8  C    0.058644  -0.106971  -0.037289   0.012774  -0.000353  -0.000449
     9  C   -0.297580   0.651053   0.018666   0.002291  -0.000481   0.000982
    10  O    0.048331  -0.174623  -0.031687  -0.001083  -0.000001  -0.000069
    11  C   -0.013793  -0.064286   0.123128  -0.003507  -0.000002   0.000327
    12  O   -0.051299  -0.004623  -0.000090   0.000114   0.000061   0.000019
    13  C    5.564567   0.007768  -0.000109   0.001410   0.000755   0.000053
    14  O    0.007768   8.159696   0.005704  -0.000848   0.000001  -0.000044
    15  C   -0.000109   0.005704   5.304858  -0.001653  -0.000002  -0.000362
    16  H    0.001410  -0.000848  -0.001653   0.511816   0.000011  -0.003937
    17  H    0.000755   0.000001  -0.000002   0.000011   0.497104  -0.000122
    18  H    0.000053  -0.000044  -0.000362  -0.003937  -0.000122   0.498038
    19  H    0.011577   0.000020  -0.000026  -0.000112  -0.003978   0.000011
    20  H   -0.000122   0.000001   0.000048  -0.000126  -0.003836  -0.003904
    21  H   -0.005089   0.013927   0.000308   0.000742   0.000002  -0.000005
    22  H   -0.030637  -0.010325   0.000665  -0.000020   0.000000   0.000000
    23  H    0.001533   0.001576  -0.020689  -0.000003   0.000000   0.000000
    24  H    0.002283   0.005444  -0.014642   0.000059   0.000000  -0.000009
    25  H   -0.005154  -0.000043   0.000000  -0.000002   0.000000   0.000000
    26  H    0.434849  -0.000638   0.000187   0.000001   0.000000   0.000000
    27  H    0.427901  -0.000214   0.000219   0.000000   0.000000   0.000000
    28  H    0.404879  -0.000571   0.000819  -0.000007  -0.000013   0.000000
    29  H    0.001484  -0.000053   0.431316   0.000000   0.000000   0.000000
    30  H   -0.000045   0.000148   0.420329   0.000000   0.000000   0.000000
    31  H    0.001957  -0.000172   0.427020   0.000000   0.000000   0.000000
             19         20         21         22         23         24
     1  C    0.054527  -0.004190   0.210630   0.007188   0.004284  -0.004021
     2  C   -0.019474   0.029917   0.012985  -0.002690  -0.000117   0.001188
     3  C   -0.002593   0.039976   0.057658  -0.001965   0.000691   0.001580
     4  C    0.088824   0.010025  -0.047051   0.016440  -0.005154   0.007144
     5  C    0.198074  -0.014209  -0.193118  -0.003542  -0.001135  -0.000291
     6  C   -0.004564   0.264617  -0.006034   0.000527   0.000171  -0.002158
     7  C    0.013028  -0.000081   0.213987   0.013865   0.002897  -0.004461
     8  C   -0.012302   0.000320   0.135736   0.277082  -0.015965  -0.000103
     9  C   -0.007604  -0.000114  -0.086801   0.037890   0.004779  -0.036815
    10  O    0.000000   0.000004   0.000788   0.004603  -0.043271  -0.034789
    11  C   -0.000129  -0.000012   0.003393  -0.002205   0.401245   0.408347
    12  O   -0.000160   0.000001  -0.045690  -0.015762  -0.000005   0.000010
    13  C    0.011577  -0.000122  -0.005089  -0.030637   0.001533   0.002283
    14  O    0.000020   0.000001   0.013927  -0.010325   0.001576   0.005444
    15  C   -0.000026   0.000048   0.000308   0.000665  -0.020689  -0.014642
    16  H   -0.000112  -0.000126   0.000742  -0.000020  -0.000003   0.000059
    17  H   -0.003978  -0.003836   0.000002   0.000000   0.000000   0.000000
    18  H    0.000011  -0.003904  -0.000005   0.000000   0.000000  -0.000009
    19  H    0.502112  -0.000118  -0.000027  -0.000018   0.000000   0.000000
    20  H   -0.000118   0.500203   0.000000   0.000000   0.000000   0.000000
    21  H   -0.000027   0.000000   0.577314  -0.005601   0.000000   0.000000
    22  H   -0.000018   0.000000  -0.005601   0.510199   0.000037  -0.000014
    23  H    0.000000   0.000000   0.000000   0.000037   0.529254  -0.033464
    24  H    0.000000   0.000000   0.000000  -0.000014  -0.033464   0.531457
    25  H    0.000051   0.000000  -0.008565   0.003443   0.000000   0.000000
    26  H    0.000026   0.000000  -0.000101  -0.003650  -0.000005  -0.000004
    27  H   -0.000457   0.000000   0.000024  -0.002381   0.000000   0.000000
    28  H   -0.000374   0.000000  -0.000130   0.004021  -0.000003  -0.000008
    29  H    0.000000   0.000000   0.000000  -0.000001  -0.005054   0.004022
    30  H    0.000000   0.000000   0.000000   0.000000  -0.001680  -0.001661
    31  H    0.000000   0.000000   0.000000   0.000000   0.003981  -0.005045
             25         26         27         28         29         30
     1  C    0.012350  -0.008765  -0.013387   0.033792   0.000243   0.000106
     2  C   -0.011390  -0.001118   0.008150  -0.012455   0.000048   0.000016
     3  C    0.001427  -0.000911   0.000056  -0.004076   0.000070  -0.000004
     4  C    0.006318  -0.012803  -0.040463   0.007905  -0.000092  -0.000012
     5  C    0.002621   0.008374   0.062377  -0.037734  -0.000085   0.000015
     6  C    0.000768   0.000166   0.001623   0.000117  -0.000013  -0.000016
     7  C    0.073017   0.030833  -0.054758   0.052621  -0.000683  -0.000043
     8  C   -0.076403  -0.095048  -0.043962  -0.103281  -0.004019  -0.000272
     9  C    0.014375   0.011552   0.001263   0.022345  -0.004069   0.000564
    10  O    0.000115  -0.001573   0.000792  -0.001016  -0.002552   0.007267
    11  C    0.000108  -0.003616  -0.000601  -0.002205  -0.059003  -0.060868
    12  O    0.232469  -0.000016   0.012400  -0.004708   0.000000   0.000000
    13  C   -0.005154   0.434849   0.427901   0.404879   0.001484  -0.000045
    14  O   -0.000043  -0.000638  -0.000214  -0.000571  -0.000053   0.000148
    15  C    0.000000   0.000187   0.000219   0.000819   0.431316   0.420329
    16  H   -0.000002   0.000001   0.000000  -0.000007   0.000000   0.000000
    17  H    0.000000   0.000000   0.000000  -0.000013   0.000000   0.000000
    18  H    0.000000   0.000000   0.000000   0.000000   0.000000   0.000000
    19  H    0.000051   0.000026  -0.000457  -0.000374   0.000000   0.000000
    20  H    0.000000   0.000000   0.000000   0.000000   0.000000   0.000000
    21  H   -0.008565  -0.000101   0.000024  -0.000130   0.000000   0.000000
    22  H    0.003443  -0.003650  -0.002381   0.004021  -0.000001   0.000000
    23  H    0.000000  -0.000005   0.000000  -0.000003  -0.005054  -0.001680
    24  H    0.000000  -0.000004   0.000000  -0.000008   0.004022  -0.001661
    25  H    0.352936  -0.000008  -0.000354   0.000057   0.000000   0.000000
    26  H   -0.000008   0.519040  -0.025031  -0.024270  -0.000004   0.000000
    27  H   -0.000354  -0.025031   0.513650  -0.025006   0.000000   0.000000
    28  H    0.000057  -0.024270  -0.025006   0.505870  -0.000005   0.000000
    29  H    0.000000  -0.000004   0.000000  -0.000005   0.513794  -0.022651
    30  H    0.000000   0.000000   0.000000   0.000000  -0.022651   0.500554
    31  H    0.000000  -0.000001   0.000000   0.000003  -0.028228  -0.022504
             31
     1  C    0.001529
     2  C   -0.000130
     3  C    0.001348
     4  C   -0.002549
     5  C   -0.001300
     6  C   -0.000005
     7  C    0.001782
     8  C   -0.005571
     9  C    0.002760
    10  O   -0.003508
    11  C   -0.060732
    12  O   -0.000001
    13  C    0.001957
    14  O   -0.000172
    15  C    0.427020
    16  H    0.000000
    17  H    0.000000
    18  H    0.000000
    19  H    0.000000
    20  H    0.000000
    21  H    0.000000
    22  H    0.000000
    23  H    0.003981
    24  H   -0.005045
    25  H    0.000000
    26  H   -0.000001
    27  H    0.000000
    28  H    0.000003
    29  H   -0.028228
    30  H   -0.022504
    31  H    0.511989
 Mulliken atomic charges:
              1
     1  C   -0.007742
     2  C   -0.307610
     3  C   -0.297185
     4  C   -0.146600
     5  C    0.138764
     6  C   -0.187131
     7  C    0.030610
     8  C    0.135292
     9  C   -0.109610
    10  O   -0.230710
    11  C    0.145551
    12  O   -0.577099
    13  C   -0.620172
    14  O   -0.449850
    15  C   -0.619523
    16  H    0.174697
    17  H    0.184447
    18  H    0.183308
    19  H    0.183689
    20  H    0.181599
    21  H    0.170717
    22  H    0.202851
    23  H    0.176097
    24  H    0.175951
    25  H    0.401863
    26  H    0.172533
    27  H    0.178159
    28  H    0.183433
    29  H    0.175534
    30  H    0.180758
    31  H    0.177376
 Sum of Mulliken atomic charges =   0.00000
 Mulliken charges with hydrogens summed into heavy atoms:
              1
     1  C    0.166955
     2  C   -0.123163
     3  C   -0.113877
     4  C   -0.146600
     5  C    0.322454
     6  C   -0.005532
     7  C    0.201327
     8  C    0.338143
     9  C   -0.109610
    10  O   -0.230710
    11  C    0.497600
    12  O   -0.175236
    13  C   -0.086048
    14  O   -0.449850
    15  C   -0.085854
 Sum of Mulliken charges with hydrogens summed into heavy atoms =   0.00000
 Electronic spatial extent (au):  <R**2>=           3435.5434
 Charge=              0.0000 electrons
 Dipole moment (field-independent basis, Debye):
    X=              1.8196    Y=             -0.4706    Z=              1.1325  Tot=              2.1943
 Quadrupole moment (field-independent basis, Debye-Ang):
   XX=            -88.9048   YY=            -75.9766   ZZ=            -93.3056
   XY=              0.5711   XZ=              1.4350   YZ=              0.7767
 Traceless Quadrupole moment (field-independent basis, Debye-Ang):
   XX=             -2.8424   YY=             10.0857   ZZ=             -7.2433
   XY=              0.5711   XZ=              1.4350   YZ=              0.7767
 Octapole moment (field-independent basis, Debye-Ang**2):
  XXX=             59.8936  YYY=             31.6589  ZZZ=              7.1627  XYY=              4.8628
  XXY=            -29.9276  XXZ=             23.9423  XZZ=            -11.7409  YZZ=              0.5525
  YYZ=            -16.0730  XYZ=             11.9695
 Hexadecapole moment (field-independent basis, Debye-Ang**3):
 XXXX=          -2520.6966 YYYY=          -1189.5340 ZZZZ=           -621.4886 XXXY=            -23.9548
 XXXZ=            -60.9855 YYYX=              2.1284 YYYZ=            -33.4182 ZZZX=              8.6214
 ZZZY=              7.9795 XXYY=           -621.3345 XXZZ=           -543.1140 YYZZ=           -320.0998
 XXYZ=             -9.2997 YYXZ=             14.2000 ZZXY=            -18.5515
 N-N= 1.019013154719D+03 E-N=-3.650068648741D+03  KE= 6.858846783051D+02
 1\1\GINC-COMPUTE-8-6\SP\RwB97XD\6-31+G(d,p)\C12H16O3\ELUCIANO.IQUIR\17
 -May-2022\0\\# wb97xd/6-31+g** scrf=(pcm,solvent=chloroform,smd,dovacu
 um) nmr\\comment\\0,1\C,0,0.256925216,-0.812496341,-1.864573746\C,0,-0
 .59843686,-3.262207351,-0.848889105\C,0,1.031255955,-1.958660098,-2.05
 6072073\C,0,-0.955431861,-0.873688108,-1.157505118\C,0,-1.372861829,-2
 .116465884,-0.656564049\C,0,0.604177067,-3.182574933,-1.546777934\C,0,
 -1.769842076,0.388781665,-0.939629539\C,0,-1.398544437,1.185907704,0.3
 24639742\C,0,-0.025041158,1.800315501,0.140954323\O,0,0.844573836,1.44
 7606329,1.122156749\C,0,2.167582618,1.974488881,0.967091952\O,0,-3.163
 735459,0.054716434,-0.894799741\C,0,-1.57394287,0.400460195,1.62742078
 \O,0,0.253596461,2.53542747,-0.800683071\C,0,3.018410165,1.457266029,2
 .110315479\H,0,0.607694173,0.131677704,-2.278094475\H,0,-0.937907247,-
 4.21670228,-0.455584968\H,0,1.966312186,-1.895833138,-2.606492163\H,0,
 -2.312641744,-2.197206462,-0.113366355\H,0,1.205209095,-4.075093983,-1
 .697995068\H,0,-1.64677179,1.01832977,-1.830945707\H,0,-2.090060938,2.
 036847234,0.404352077\H,0,2.133719734,3.069232176,0.995380131\H,0,2.58
 9647889,1.641657438,0.01214539\H,0,-3.657728197,0.869613716,-1.0865638
 17\H,0,-1.401026266,1.050895985,2.492458218\H,0,-2.589270445,0.0006786
 54,1.714992356\H,0,-0.868466801,-0.433046059,1.705281497\H,0,2.5972370
 16,1.76357477,3.073583662\H,0,4.042327703,1.83402071,2.03635396\H,0,3.
 043040862,0.362476273,2.107410613\\Version=EM64L-G09RevC.01\State=1-A\
 HF=-692.4449387\RMSD=3.993e-09\Dipole=0.4163986,0.2595042,0.710312\Qua
 drupole=4.8646558,-1.2533715,-3.6112843,-4.5790358,-0.4813147,2.482133
 1\PG=C01 [X(C12H16O3)]\\@


 I DO NOT KNOW WHAT I MAY APPEAR TO THE WORLD; BUT TO MYSELF
 I SEEM TO HAVE BEEN ONLY LIKE A BOY PLAYING ON THE SEASHORE,
 AND DIVERTING MYSELF IN NOW AND THEN FINDING A SMOOTHER PEBBLE
 OR A PRETTIER SHELL THAN ORDINARY, WHILST THE GREAT OCEAN OF
 TRUTH LAY ALL UNDISCOVERED BEFORE ME.
                                          -- NEWTON (1642-1726)
 Job cpu time:  0 days  2 hours 17 minutes 43.9 seconds.
 File lengths (MBytes):  RWF=    124 Int=      0 D2E=      0 Chk=      9 Scr=      1
 Normal termination of Gaussian 09 at Tue May 17 20:41:50 2022.
