 Entering Gaussian System, Link 0=g09
 Input=/home/eluciano.iquir/wb9/73b_039.gjc
 Output=/home/eluciano.iquir/wb9/73b_039.log
 Initial command:
 /share/apps/Gaussian09/EM64T.SSE4.2-enabled/g09/l1.exe /tmp/Gau-2774.inp -scrdir=/tmp/
 Entering Link 1 = /share/apps/Gaussian09/EM64T.SSE4.2-enabled/g09/l1.exe PID=      2775.
  
 Copyright (c) 1988,1990,1992,1993,1995,1998,2003,2009,2011,
            Gaussian, Inc.  All Rights Reserved.
  
 This is part of the Gaussian(R) 09 program.  It is based on
 the Gaussian(R) 03 system (copyright 2003, Gaussian, Inc.),
 the Gaussian(R) 98 system (copyright 1998, Gaussian, Inc.),
 the Gaussian(R) 94 system (copyright 1995, Gaussian, Inc.),
 the Gaussian 92(TM) system (copyright 1992, Gaussian, Inc.),
 the Gaussian 90(TM) system (copyright 1990, Gaussian, Inc.),
 the Gaussian 88(TM) system (copyright 1988, Gaussian, Inc.),
 the Gaussian 86(TM) system (copyright 1986, Carnegie Mellon
 University), and the Gaussian 82(TM) system (copyright 1983,
 Carnegie Mellon University). Gaussian is a federally registered
 trademark of Gaussian, Inc.
  
 This software contains proprietary and confidential information,
 including trade secrets, belonging to Gaussian, Inc.
  
 This software is provided under written license and may be
 used, copied, transmitted, or stored only in accord with that
 written license.
  
 The following legend is applicable only to US Government
 contracts under FAR:
  
                    RESTRICTED RIGHTS LEGEND
  
 Use, reproduction and disclosure by the US Government is
 subject to restrictions as set forth in subparagraphs (a)
 and (c) of the Commercial Computer Software - Restricted
 Rights clause in FAR 52.227-19.
  
 Gaussian, Inc.
 340 Quinnipiac St., Bldg. 40, Wallingford CT 06492
  
  
 ---------------------------------------------------------------
 Warning -- This program may not be used in any manner that
 competes with the business of Gaussian, Inc. or will provide
 assistance to any competitor of Gaussian, Inc.  The licensee
 of this program is prohibited from giving any competitor of
 Gaussian, Inc. access to this program.  By using this program,
 the user acknowledges that Gaussian, Inc. is engaged in the
 business of creating and licensing software in the field of
 computational chemistry and represents and warrants to the
 licensee that it is not a competitor of Gaussian, Inc. and that
 it will not use this program in any manner prohibited above.
 ---------------------------------------------------------------
  

 Cite this work as:
 Gaussian 09, Revision C.01,
 M. J. Frisch, G. W. Trucks, H. B. Schlegel, G. E. Scuseria, 
 M. A. Robb, J. R. Cheeseman, G. Scalmani, V. Barone, B. Mennucci, 
 G. A. Petersson, H. Nakatsuji, M. Caricato, X. Li, H. P. Hratchian, 
 A. F. Izmaylov, J. Bloino, G. Zheng, J. L. Sonnenberg, M. Hada, 
 M. Ehara, K. Toyota, R. Fukuda, J. Hasegawa, M. Ishida, T. Nakajima, 
 Y. Honda, O. Kitao, H. Nakai, T. Vreven, J. A. Montgomery, Jr., 
 J. E. Peralta, F. Ogliaro, M. Bearpark, J. J. Heyd, E. Brothers, 
 K. N. Kudin, V. N. Staroverov, T. Keith, R. Kobayashi, J. Normand, 
 K. Raghavachari, A. Rendell, J. C. Burant, S. S. Iyengar, J. Tomasi, 
 M. Cossi, N. Rega, J. M. Millam, M. Klene, J. E. Knox, J. B. Cross, 
 V. Bakken, C. Adamo, J. Jaramillo, R. Gomperts, R. E. Stratmann, 
 O. Yazyev, A. J. Austin, R. Cammi, C. Pomelli, J. W. Ochterski, 
 R. L. Martin, K. Morokuma, V. G. Zakrzewski, G. A. Voth, 
 P. Salvador, J. J. Dannenberg, S. Dapprich, A. D. Daniels, 
 O. Farkas, J. B. Foresman, J. V. Ortiz, J. Cioslowski, 
 and D. J. Fox, Gaussian, Inc., Wallingford CT, 2010.
 
 ******************************************
 Gaussian 09:  EM64L-G09RevC.01 23-Sep-2011
                17-May-2022 
 ******************************************
 %nprocshared=4
 Will use up to    4 processors via shared memory.
 ----------------------------------------------------------------
 # wb97xd/6-31+g** scrf=(pcm,solvent=chloroform,smd,dovacuum) nmr
 ----------------------------------------------------------------
 1/38=1/1;
 2/12=2,17=6,18=5,40=1/2;
 3/5=1,6=6,7=111,11=2,16=1,25=1,30=1,70=32101,72=7,74=-58/1,2,8,3;
 4//1;
 5/5=2,38=5,53=7/2;
 8/6=1,10=90,11=11/1;
 10/13=100,45=16/2;
 6/7=2,8=2,9=2,10=2,28=1/1;
 99/9=1/99;
 -------
 comment
 -------
 Charge =  0 Multiplicity = 1
 Symbolic Z-Matrix:
 6                    -1.92782  -1.97048  -0.21285 
 6                    -3.77343  -0.52046  -1.71895 
 6                    -3.24287  -2.42404  -0.33563 
 6                    -1.5193   -0.78311  -0.84055 
 6                    -2.4596   -0.0654   -1.59663 
 6                    -4.16494  -1.69857  -1.08711 
 6                    -0.09575  -0.28404  -0.67953 
 6                     0.00804   0.96267   0.21954 
 6                     1.42892   1.4818    0.34419 
 8                     2.35912   0.53639   0.03477 
 6                     3.73212   0.93615   0.17589 
 8                     0.38945   0.01832  -1.9925 
 6                    -0.51686   0.71619   1.63499 
 8                     1.69613   2.61328   0.732 
 6                     4.19785   0.70772   1.60147 
 1                    -1.22451  -2.55226   0.37846 
 1                    -4.48865   0.04328  -2.31199 
 1                    -3.54767  -3.34529   0.15393 
 1                    -2.16349   0.85011  -2.10524 
 1                    -5.18739  -2.05346  -1.18467 
 1                     0.52196  -1.10352  -0.29017 
 1                    -0.55973   1.78005  -0.24531 
 1                     3.87895   1.9769   -0.13461 
 1                     4.31721   0.31161  -0.50708 
 1                     1.36037  -0.0418   -1.95055 
 1                    -0.35967   1.59388   2.27208 
 1                    -1.5902    0.50354   1.63489 
 1                     0.00196  -0.12603   2.1064 
 1                     3.62598   1.32086   2.30509 
 1                     5.2585    0.95245   1.70693 
 1                     4.04532  -0.33672   1.89276 
 
                          Input orientation:                          
 ---------------------------------------------------------------------
 Center     Atomic      Atomic             Coordinates (Angstroms)
 Number     Number       Type             X           Y           Z
 ---------------------------------------------------------------------
      1          6           0       -1.927820   -1.970484   -0.212852
      2          6           0       -3.773434   -0.520459   -1.718948
      3          6           0       -3.242865   -2.424043   -0.335630
      4          6           0       -1.519303   -0.783109   -0.840550
      5          6           0       -2.459595   -0.065396   -1.596626
      6          6           0       -4.164940   -1.698567   -1.087113
      7          6           0       -0.095746   -0.284039   -0.679530
      8          6           0        0.008039    0.962670    0.219544
      9          6           0        1.428922    1.481795    0.344188
     10          8           0        2.359117    0.536388    0.034774
     11          6           0        3.732119    0.936149    0.175892
     12          8           0        0.389450    0.018316   -1.992504
     13          6           0       -0.516862    0.716194    1.634991
     14          8           0        1.696129    2.613282    0.731997
     15          6           0        4.197849    0.707716    1.601467
     16          1           0       -1.224506   -2.552256    0.378465
     17          1           0       -4.488649    0.043284   -2.311994
     18          1           0       -3.547668   -3.345292    0.153925
     19          1           0       -2.163495    0.850111   -2.105240
     20          1           0       -5.187395   -2.053465   -1.184674
     21          1           0        0.521958   -1.103525   -0.290171
     22          1           0       -0.559729    1.780051   -0.245315
     23          1           0        3.878947    1.976900   -0.134611
     24          1           0        4.317213    0.311611   -0.507078
     25          1           0        1.360365   -0.041804   -1.950551
     26          1           0       -0.359671    1.593880    2.272079
     27          1           0       -1.590199    0.503538    1.634889
     28          1           0        0.001964   -0.126030    2.106399
     29          1           0        3.625980    1.320855    2.305089
     30          1           0        5.258504    0.952449    1.706927
     31          1           0        4.045322   -0.336720    1.892763
 ---------------------------------------------------------------------
                    Distance matrix (angstroms):
                    1          2          3          4          5
     1  C    0.000000
     2  C    2.788762   0.000000
     3  C    1.396472   2.412199   0.000000
     4  C    1.403834   2.433450   2.432750   0.000000
     5  C    2.413913   1.395786   2.786904   1.403892   0.000000
     6  C    2.417225   1.392994   1.393292   2.810383   2.415585
     7  C    2.533453   3.829057   3.821288   1.517074   2.544928
     8  C    3.540892   4.500774   4.727200   2.550357   3.231813
     9  C    4.847292   5.943910   6.127260   3.901977   4.613147
    10  O    4.972279   6.465343   6.346933   4.189201   5.122851
    11  C    6.374523   7.876894   7.759055   5.618401   6.517840
    12  O    3.534435   4.206509   4.680178   2.369097   2.877636
    13  C    3.552965   4.835647   4.601687   3.062858   3.850772
    14  O    5.919177   6.763401   7.134993   4.934306   5.465149
    15  C    6.927361   8.722094   8.302077   6.393108   7.426107
    16  H    1.087550   3.876129   2.144795   2.168590   3.407477
    17  H    3.875500   1.086757   3.397895   3.415419   2.154210
    18  H    2.156045   3.396808   1.086862   3.415849   3.873764
    19  H    3.404767   2.149323   3.875131   2.163755   1.088356
    20  H    3.402374   2.152867   2.153927   3.897066   3.400442
    21  H    2.599809   4.564182   3.989953   2.138300   3.416752
    22  H    3.992398   4.218038   4.988164   2.800871   2.973418
    23  H    7.021859   8.204015   8.374301   6.103859   6.818034
    24  H    6.655446   8.223110   8.041640   5.947649   6.874182
    25  H    4.189459   5.161264   5.428882   3.173976   3.836394
    26  H    4.619379   5.661494   5.590765   4.084517   4.704228
    27  H    3.106271   4.130776   3.896791   2.790750   3.394441
    28  H    3.536241   5.389109   4.666185   3.380904   4.446948
    29  H    6.929476   8.621754   8.257039   6.387147   7.360659
    30  H    7.992018   9.771489   9.372620   7.445836   8.456863
    31  H    6.540736   8.614590   7.901919   6.215731   7.386705
                    6          7          8          9         10
     6  C    0.000000
     7  C    4.327281   0.000000
     8  C    5.118916   1.540581   0.000000
     9  C    6.592012   2.547701   1.517872   0.000000
    10  O    6.986915   2.685085   2.396544   1.361909   0.000000
    11  C    8.420240   4.107694   3.724430   2.372924   1.436961
    12  O    4.950747   1.432038   2.435249   2.946591   2.873646
    13  C    5.152610   2.556328   1.529628   2.457314   3.296102
    14  O    7.500222   3.687505   2.415942   1.225585   2.288922
    15  C    9.107958   4.962003   4.419187   3.137978   2.421738
    16  H    3.394533   2.745589   3.728154   4.828604   4.743438
    17  H    2.153872   4.697837   5.241580   6.643964   7.255506
    18  H    2.152418   4.688463   5.586224   6.935663   7.069070
    19  H    3.396782   2.755818   3.183214   4.393652   5.013193
    20  H    1.086685   5.413957   6.169395   7.655790   8.071198
    21  H    4.791263   1.097595   2.189311   2.812272   2.483961
    22  H    5.080055   2.159698   1.098438   2.095520   3.185092
    23  H    8.894967   4.605102   4.017215   2.544995   2.100868
    24  H    8.736371   4.456314   4.418239   3.230512   2.044080
    25  H    5.832614   1.947930   2.747193   2.755337   2.296373
    26  H    6.050161   3.508309   2.178655   2.632184   3.676362
    27  H    4.346016   2.865346   2.183660   3.426075   4.261285
    28  H    5.480373   2.792117   2.178423   2.779694   3.207273
    29  H    9.017892   5.033376   4.191335   2.949254   2.715632
    30  H   10.180169   5.990999   5.457087   4.099142   3.372780
    31  H    8.839836   4.875234   4.559356   3.542687   2.656639
                   11         12         13         14         15
    11  C    0.000000
    12  O    4.088739   0.000000
    13  C    4.497910   3.803571   0.000000
    14  O    2.695790   3.982984   3.051503   0.000000
    15  C    1.517020   5.281647   4.714838   3.262784   0.000000
    16  H    6.064498   3.851517   3.572447   5.944567   6.443996
    17  H    8.635265   4.888614   5.639732   7.356782   9.550491
    18  H    8.445502   5.605526   5.279678   7.958403   8.860885
    19  H    6.322122   2.687400   4.088846   5.104448   7.363874
    20  H    9.505085   6.003837   6.118447   8.534345  10.171996
    21  H    3.831790   2.043042   2.845483   4.029660   4.513432
    22  H    4.394263   2.656562   2.160829   2.595825   5.214887
    23  H    1.095962   4.411848   4.903469   2.433247   2.174050
    24  H    1.094911   4.209492   5.302870   3.701767   2.148746
    25  H    3.332171   0.973679   4.117603   3.789233   4.607594
    26  H    4.644282   4.607630   1.095867   2.763575   4.691055
    27  H    5.535602   4.160821   1.094200   4.008265   5.791745
    28  H    4.332336   4.119707   1.095787   3.501858   4.307614
    29  H    2.166275   5.535434   4.240022   2.805229   1.094558
    30  H    2.161987   6.185958   5.780645   4.049614   1.093621
    31  H    2.160078   5.346657   4.689200   3.945706   1.094973
                   16         17         18         19         20
    16  H    0.000000
    17  H    4.962864   0.000000
    18  H    2.465037   4.295189   0.000000
    19  H    4.315853   2.469829   4.961973   0.000000
    20  H    4.289136   2.481018   2.479793   4.292105   0.000000
    21  H    2.365593   5.523505   4.667397   3.784550   5.856554
    22  H    4.427179   4.766962   5.946118   2.626057   6.082231
    23  H    6.842640   8.859826   9.141312   6.454776   9.977225
    24  H    6.300521   8.992937   8.698633   6.696542   9.817855
    25  H    4.290483   5.860789   6.279382   3.638273   6.892496
    26  H    4.639413   6.361330   6.248625   4.792483   6.968442
    27  H    3.324185   4.918407   4.564913   3.799651   5.237176
    28  H    3.221266   6.302100   5.174523   4.835284   6.440156
    29  H    6.499237   9.423207   8.823925   7.293190  10.061812
    30  H    7.488470  10.582310   9.921243   8.344409  11.247830
    31  H    5.913779   9.521189   8.350363   7.479439   9.882352
                   21         22         23         24         25
    21  H    0.000000
    22  H    3.080109   0.000000
    23  H    4.558793   4.444418   0.000000
    24  H    4.056306   5.099941   1.761815   0.000000
    25  H    2.141737   3.148611   3.703520   3.309299   0.000000
    26  H    3.823400   2.532184   4.889248   5.589380   4.844027
    27  H    3.278676   2.495300   5.934095   6.286682   4.675319
    28  H    2.639969   3.078832   4.947266   5.063908   4.279158
    29  H    4.716773   4.922964   2.539000   3.066701   5.010022
    30  H    5.536272   6.192577   2.518718   2.489683   5.437019
    31  H    4.215126   5.500781   3.080708   2.500699   4.697556
                   26         27         28         29         30
    26  H    0.000000
    27  H    1.763252   0.000000
    28  H    1.765311   1.775856   0.000000
    29  H    3.995128   5.322189   3.907230   0.000000
    30  H    5.682845   6.863778   5.380883   1.777261   0.000000
    31  H    4.824423   5.703651   4.054475   1.758811   1.779973
                   31
    31  H    0.000000
 Stoichiometry    C12H16O3
 Framework group  C1[X(C12H16O3)]
 Deg. of freedom    87
 Full point group                 C1      NOp   1
 Largest Abelian subgroup         C1      NOp   1
 Largest concise Abelian subgroup C1      NOp   1
                         Standard orientation:                         
 ---------------------------------------------------------------------
 Center     Atomic      Atomic             Coordinates (Angstroms)
 Number     Number       Type             X           Y           Z
 ---------------------------------------------------------------------
      1          6           0        2.386697    1.187579   -0.637169
      2          6           0        3.902384   -0.934008    0.352149
      3          6           0        3.761675    1.338257   -0.445167
      4          6           0        1.751124   -0.026885   -0.334062
      5          6           0        2.528061   -1.085998    0.161479
      6          6           0        4.518297    0.278432    0.050371
      7          6           0        0.252636   -0.172772   -0.520512
      8          6           0       -0.518445   -0.225750    0.812161
      9          6           0       -2.012533   -0.412715    0.620637
     10          8           0       -2.427788   -0.055067   -0.626137
     11          6           0       -3.840031   -0.156904   -0.871202
     12          8           0        0.041444   -1.383238   -1.255974
     13          6           0       -0.317789    1.030377    1.661657
     14          8           0       -2.758926   -0.794692    1.514533
     15          6           0       -4.537512    1.119294   -0.439707
     16          1           0        1.815231    2.027701   -1.024967
     17          1           0        4.491471   -1.764710    0.731559
     18          1           0        4.243244    2.282815   -0.684270
     19          1           0        2.061211   -2.042278    0.389726
     20          1           0        5.588695    0.395310    0.196897
     21          1           0       -0.104983    0.651818   -1.150492
     22          1           0       -0.185716   -1.107471    1.376453
     23          1           0       -4.268383   -1.037164   -0.378464
     24          1           0       -3.966477   -0.299042   -1.949458
     25          1           0       -0.818883   -1.290547   -1.702399
     26          1           0       -0.937183    0.998312    2.565121
     27          1           0        0.722226    1.135705    1.984998
     28          1           0       -0.599297    1.931368    1.105133
     29          1           0       -4.424066    1.285036    0.636265
     30          1           0       -5.604463    1.077142   -0.676023
     31          1           0       -4.097840    1.986523   -0.943262
 ---------------------------------------------------------------------
 Rotational constants (GHZ):      1.5101165      0.2775789      0.2768112
 Standard basis: 6-31+G(d,p) (6D, 7F)
 There are   365 symmetry adapted basis functions of A   symmetry.
 Integral buffers will be    131072 words long.
 Raffenetti 2 integral format.
 Two-electron integral symmetry is turned on.
   365 basis functions,   592 primitive gaussians,   365 cartesian basis functions
    56 alpha electrons       56 beta electrons
       nuclear repulsion energy       998.4247341396 Hartrees.
 NAtoms=   31 NActive=   31 NUniq=   31 SFac= 1.00D+00 NAtFMM=   60 NAOKFM=F Big=F
 Nuclear repulsion after empirical dispersion term =      998.4037316810 Hartrees.
 ------------------------------------------------------------------------------
 Polarizable Continuum Model (PCM)
 =================================
 Model                : C-PCM.
 Atomic radii         : SMD-Coulomb.
 Polarization charges : Total charges.
 Charge compensation  : None.
 Solution method      : Matrix inversion.
 Cavity type          : VdW (van der Waals Surface) (Alpha=1.000).
 Cavity algorithm     : GePol (No added spheres)
                        Default sphere list used, NSphG=   31.
                        Lebedev-Laikov grids with approx.  5.0 points / Ang**2.
                        Smoothing algorithm: Karplus/York (Gamma=1.0000).
                        Polarization charges: spherical gaussians, with
                                              point-specific exponents (IZeta= 3).
                        Self-potential: point-specific (ISelfS= 7).
                        Self-field    : sphere-specific E.n sum rule (ISelfD= 2).
 Solvent              : Chloroform, Eps=   4.711300 Eps(inf)=   2.090627
 ------------------------------------------------------------------------------
 ------------------------------------------------------------------------------
 Atomic radii for non-electrostatic terms: SMD-CDS.
 ------------------------------------------------------------------------------
 Nuclear repulsion after PCM non-electrostatic terms =      998.3972815390 Hartrees.
 One-electron integrals computed using PRISM.
 NBasis=   365 RedAO= T  NBF=   365
 NBsUse=   365 1.00D-06 NBFU=   365
 Harris functional with IExCor= 4639 diagonalized for initial guess.
 ExpMin= 4.38D-02 ExpMax= 5.48D+03 ExpMxC= 8.25D+02 IAcc=2 IRadAn=         4 AccDes= 0.00D+00
 HarFok:  IExCor= 4639 AccDes= 0.00D+00 IRadAn=         4 IDoV= 1
 ScaDFX=  1.000000  1.000000  1.000000  1.000000
 FoFCou: FMM=F IPFlag=           0 FMFlag=      100000 FMFlg1=           0
         NFxFlg=           0 DoJE=T BraDBF=F KetDBF=T FulRan=T
         Omega=  0.000000  0.000000  1.000000  0.000000  0.000000 ICntrl=     500 IOpCl=  0
         NMat0=    1 NMatS0=    1 NMatT0=    0 NMatD0=    1 NMtDS0=    0 NMtDT0=    0
         I1Cent=           4 NGrid=           0.
 Petite list used in FoFCou.
 Initial guess orbital symmetries:
       Occupied  (A) (A) (A) (A) (A) (A) (A) (A) (A) (A) (A) (A)
                 (A) (A) (A) (A) (A) (A) (A) (A) (A) (A) (A) (A)
                 (A) (A) (A) (A) (A) (A) (A) (A) (A) (A) (A) (A)
                 (A) (A) (A) (A) (A) (A) (A) (A) (A) (A) (A) (A)
                 (A) (A) (A) (A) (A) (A) (A) (A)
       Virtual   (A) (A) (A) (A) (A) (A) (A) (A) (A) (A) (A) (A)
                 (A) (A) (A) (A) (A) (A) (A) (A) (A) (A) (A) (A)
                 (A) (A) (A) (A) (A) (A) (A) (A) (A) (A) (A) (A)
                 (A) (A) (A) (A) (A) (A) (A) (A) (A) (A) (A) (A)
                 (A) (A) (A) (A) (A) (A) (A) (A) (A) (A) (A) (A)
                 (A) (A) (A) (A) (A) (A) (A) (A) (A) (A) (A) (A)
                 (A) (A) (A) (A) (A) (A) (A) (A) (A) (A) (A) (A)
                 (A) (A) (A) (A) (A) (A) (A) (A) (A) (A) (A) (A)
                 (A) (A) (A) (A) (A) (A) (A) (A) (A) (A) (A) (A)
                 (A) (A) (A) (A) (A) (A) (A) (A) (A) (A) (A) (A)
                 (A) (A) (A) (A) (A) (A) (A) (A) (A) (A) (A) (A)
                 (A) (A) (A) (A) (A) (A) (A) (A) (A) (A) (A) (A)
                 (A) (A) (A) (A) (A) (A) (A) (A) (A) (A) (A) (A)
                 (A) (A) (A) (A) (A) (A) (A) (A) (A) (A) (A) (A)
                 (A) (A) (A) (A) (A) (A) (A) (A) (A) (A) (A) (A)
                 (A) (A) (A) (A) (A) (A) (A) (A) (A) (A) (A) (A)
                 (A) (A) (A) (A) (A) (A) (A) (A) (A) (A) (A) (A)
                 (A) (A) (A) (A) (A) (A) (A) (A) (A) (A) (A) (A)
                 (A) (A) (A) (A) (A) (A) (A) (A) (A) (A) (A) (A)
                 (A) (A) (A) (A) (A) (A) (A) (A) (A) (A) (A) (A)
                 (A) (A) (A) (A) (A) (A) (A) (A) (A) (A) (A) (A)
                 (A) (A) (A) (A) (A) (A) (A) (A) (A) (A) (A) (A)
                 (A) (A) (A) (A) (A) (A) (A) (A) (A) (A) (A) (A)
                 (A) (A) (A) (A) (A) (A) (A) (A) (A) (A) (A) (A)
                 (A) (A) (A) (A) (A) (A) (A) (A) (A) (A) (A) (A)
                 (A) (A) (A) (A) (A) (A) (A) (A) (A)
 The electronic state of the initial guess is 1-A.
 Requested convergence on RMS density matrix=1.00D-08 within 128 cycles.
 Requested convergence on MAX density matrix=1.00D-06.
 Requested convergence on             energy=1.00D-06.
 No special actions if energy rises.
 FoFJK:  IHMeth= 1 ICntrl=     0 DoSepK=T KAlg= 1 I1Cent= 0 FoldK=F
 FoFJK:  IHMeth= 1 ICntrl=     0 DoSepK=T KAlg= 1 I1Cent= 0 FoldK=F
 FoFJK:  IHMeth= 1 ICntrl=     0 DoSepK=T KAlg= 1 I1Cent= 0 FoldK=F
 FoFJK:  IHMeth= 1 ICntrl=     0 DoSepK=T KAlg= 1 I1Cent= 0 FoldK=F
 FoFJK:  IHMeth= 1 ICntrl=     0 DoSepK=T KAlg= 1 I1Cent= 0 FoldK=F
 FoFJK:  IHMeth= 1 ICntrl=     0 DoSepK=T KAlg= 1 I1Cent= 0 FoldK=F
 FoFJK:  IHMeth= 1 ICntrl=     0 DoSepK=T KAlg= 1 I1Cent= 0 FoldK=F
 FoFJK:  IHMeth= 1 ICntrl=     0 DoSepK=T KAlg= 1 I1Cent= 0 FoldK=F
 FoFJK:  IHMeth= 1 ICntrl=     0 DoSepK=T KAlg= 1 I1Cent= 0 FoldK=F
 FoFJK:  IHMeth= 1 ICntrl=     0 DoSepK=T KAlg= 1 I1Cent= 0 FoldK=F
 FoFJK:  IHMeth= 1 ICntrl=     0 DoSepK=T KAlg= 1 I1Cent= 0 FoldK=F
 FoFJK:  IHMeth= 1 ICntrl=     0 DoSepK=T KAlg= 1 I1Cent= 0 FoldK=F
 FoFJK:  IHMeth= 1 ICntrl=     0 DoSepK=T KAlg= 1 I1Cent= 0 FoldK=F
 FoFJK:  IHMeth= 1 ICntrl=     0 DoSepK=T KAlg= 1 I1Cent= 0 FoldK=F
 FoFJK:  IHMeth= 1 ICntrl=     0 DoSepK=T KAlg= 1 I1Cent= 0 FoldK=F
 Error on total polarization charges =  0.04015
 SCF Done:  E(RwB97XD) =  -692.445884910     A.U. after   15 cycles
             Convg  =    0.9960D-08             -V/T =  2.0096
 SMD-CDS (non-electrostatic) energy       (kcal/mol) =      -4.05
 (included in total energy above)
 Range of M.O.s used for correlation:     1   365
 NBasis=   365 NAE=    56 NBE=    56 NFC=     0 NFV=     0
 NROrb=    365 NOA=    56 NOB=    56 NVA=   309 NVB=   309

 **** Warning!!: The largest alpha MO coefficient is  0.12674079D+03

 NEqPCM:  Using equilibrium solvation (IEInf=0, Eps=   4.7113, EpsInf=   2.0906)
          Differentiating once with respect to magnetic field using GIAOs.
          Electric field/nuclear overlap derivatives assumed to be zero.
 FoFCou: FMM=F IPFlag=           0 FMFlag=    10101102 FMFlg1=           0
         NFxFlg=    40000000 DoJE=F BraDBF=F KetDBF=T FulRan=T
         Omega=  0.000000  0.000000  1.000000  0.000000  0.000000 ICntrl=    6100 IOpCl=  0
         NMat0=    1 NMatS0=    1 NMatT0=    0 NMatD0=    1 NMtDS0=    0 NMtDT0=    0
         I1Cent=           7 NGrid=        2280.
 Symmetry not used in FoFCou.
 FoFJK:  IHMeth= 1 ICntrl=  6127 DoSepK=T KAlg= 1 I1Cent= 0 FoldK=F
 FoFJK:  IHMeth= 1 ICntrl=     0 DoSepK=T KAlg= 1 I1Cent= 0 FoldK=F
          There are     3 degrees of freedom in the 1st order CPHF.  IDoFFX=0.
      3 vectors produced by pass  0 Test12= 5.77D-13 3.33D-08 XBig12= 1.38D+02 2.48D+00.
 AX will form     3 AO Fock derivatives at one time.
 FoFJK:  IHMeth= 1 ICntrl=     0 DoSepK=T KAlg= 1 I1Cent= 0 FoldK=F
      3 vectors produced by pass  1 Test12= 5.77D-13 3.33D-08 XBig12= 1.11D+00 3.05D-01.
 FoFJK:  IHMeth= 1 ICntrl=     0 DoSepK=T KAlg= 1 I1Cent= 0 FoldK=F
      3 vectors produced by pass  2 Test12= 5.77D-13 3.33D-08 XBig12= 2.21D-02 5.81D-02.
 FoFJK:  IHMeth= 1 ICntrl=     0 DoSepK=T KAlg= 1 I1Cent= 0 FoldK=F
      3 vectors produced by pass  3 Test12= 5.77D-13 3.33D-08 XBig12= 3.68D-04 5.10D-03.
 FoFJK:  IHMeth= 1 ICntrl=     0 DoSepK=T KAlg= 1 I1Cent= 0 FoldK=F
      3 vectors produced by pass  4 Test12= 5.77D-13 3.33D-08 XBig12= 4.63D-06 5.06D-04.
 FoFJK:  IHMeth= 1 ICntrl=     0 DoSepK=T KAlg= 1 I1Cent= 0 FoldK=F
      3 vectors produced by pass  5 Test12= 5.77D-13 3.33D-08 XBig12= 6.11D-08 5.52D-05.
 FoFJK:  IHMeth= 1 ICntrl=     0 DoSepK=T KAlg= 1 I1Cent= 0 FoldK=F
      3 vectors produced by pass  6 Test12= 5.77D-13 3.33D-08 XBig12= 7.93D-10 7.19D-06.
 FoFJK:  IHMeth= 1 ICntrl=     0 DoSepK=T KAlg= 1 I1Cent= 0 FoldK=F
      3 vectors produced by pass  7 Test12= 5.77D-13 3.33D-08 XBig12= 9.71D-12 8.56D-07.
 FoFJK:  IHMeth= 1 ICntrl=     0 DoSepK=T KAlg= 1 I1Cent= 0 FoldK=F
      2 vectors produced by pass  8 Test12= 5.77D-13 3.33D-08 XBig12= 1.12D-13 6.18D-08.
 FoFJK:  IHMeth= 1 ICntrl=     0 DoSepK=T KAlg= 1 I1Cent= 0 FoldK=F
 Inverted reduced A of dimension    26 with in-core refinement.
 Calculating GIAO nuclear magnetic shielding tensors.
 SCF GIAO Magnetic shielding tensor (ppm):
      1  C    Isotropic =    69.7977   Anisotropy =   160.7131
   XX=    40.2090   YX=    29.6056   ZX=   -35.4104
   XY=    34.0619   YY=    18.6529   ZY=    59.2672
   XZ=   -26.8871   YZ=    63.1960   ZZ=   150.5313
   Eigenvalues:   -29.9031    62.3565   176.9398
      2  C    Isotropic =    69.6346   Anisotropy =   176.3989
   XX=    34.6603   YX=    28.5416   ZX=   -36.9473
   XY=    30.2583   YY=    15.6228   ZY=    63.0018
   XZ=   -37.1816   YZ=    65.3712   ZZ=   158.6207
   Eigenvalues:   -34.0576    55.7275   187.2338
      3  C    Isotropic =    70.5219   Anisotropy =   173.5252
   XX=    43.0833   YX=   -41.6961   ZX=   -11.4383
   XY=   -41.7457   YY=     3.0907   ZY=    55.0484
   XZ=   -10.7660   YZ=    55.2857   ZZ=   165.3915
   Eigenvalues:   -32.2680    57.6282   186.2054
      4  C    Isotropic =    53.8149   Anisotropy =   183.7150
   XX=   -29.0321   YX=   -17.6822   ZX=   -26.1411
   XY=   -15.1900   YY=    36.8382   ZY=    48.7391
   XZ=   -32.2467   YZ=    47.6975   ZZ=   153.6386
   Eigenvalues:   -34.9067    20.0598   176.2916
      5  C    Isotropic =    73.4838   Anisotropy =   181.4858
   XX=    42.7437   YX=   -36.2663   ZX=   -14.2430
   XY=   -36.9318   YY=     4.2556   ZY=    55.5849
   XZ=    -9.0192   YZ=    59.6593   ZZ=   173.4522
   Eigenvalues:   -28.0192    53.9963   194.4744
      6  C    Isotropic =    72.4053   Anisotropy =   177.7812
   XX=   -23.2428   YX=   -17.0000   ZX=   -31.6836
   XY=   -17.4086   YY=    68.0636   ZY=    38.5986
   XZ=   -34.7538   YZ=    36.6933   ZZ=   172.3950
   Eigenvalues:   -30.0289    56.3186   190.9261
      7  C    Isotropic =   120.6708   Anisotropy =    33.2408
   XX=   112.4237   YX=     7.2582   ZX=    -4.2075
   XY=     8.0428   YY=   133.3118   ZY=    13.9780
   XZ=    -1.1602   YZ=    15.6477   ZZ=   116.2769
   Eigenvalues:   103.2347   115.9464   142.8313
      8  C    Isotropic =   143.2792   Anisotropy =    32.9003
   XX=   159.8973   YX=    -2.1421   ZX=   -11.0542
   XY=     4.6576   YY=   129.8662   ZY=    -1.5827
   XZ=   -11.7969   YZ=    -2.0221   ZZ=   140.0740
   Eigenvalues:   129.5311   135.0936   165.2127
      9  C    Isotropic =    19.0489   Anisotropy =   101.1899
   XX=    -2.0991   YX=     1.9565   ZX=   -39.9532
   XY=    16.4105   YY=    78.7898   ZY=    28.6507
   XZ=   -74.6085   YZ=    26.4477   ZZ=   -19.5441
   Eigenvalues:   -73.5375    44.1752    86.5088
     10  O    Isotropic =   135.3779   Anisotropy =   171.7539
   XX=     9.8224   YX=   -44.0150   ZX=     3.0088
   XY=   -98.1598   YY=   228.8166   ZY=     7.8578
   XZ=   129.3108   YZ=    29.4940   ZZ=   167.4947
   Eigenvalues:   -34.6095   190.8627   249.8805
     11  C    Isotropic =   137.4676   Anisotropy =    66.7239
   XX=   178.3187   YX=    -0.3302   ZX=    15.1217
   XY=    -6.0059   YY=   124.1722   ZY=    12.5050
   XZ=    17.2128   YZ=    12.0101   ZZ=   109.9118
   Eigenvalues:    99.7315   130.7211   181.9502
     12  O    Isotropic =   284.8991   Anisotropy =    51.4718
   XX=   301.5885   YX=    11.5366   ZX=    20.5699
   XY=     5.7740   YY=   285.9813   ZY=    24.1295
   XZ=    15.1628   YZ=    21.0817   ZZ=   267.1274
   Eigenvalues:   249.8592   285.6245   319.2136
     13  C    Isotropic =   180.5907   Anisotropy =    23.7377
   XX=   177.0677   YX=     4.5320   ZX=    -4.3226
   XY=     6.1472   YY=   186.2358   ZY=    15.6977
   XZ=    -4.7253   YZ=    11.0519   ZZ=   178.4685
   Eigenvalues:   164.6514   180.7047   196.4158
     14  O    Isotropic =   -44.6483   Anisotropy =   540.7675
   XX=  -160.8536   YX=   -67.7292   ZX=     6.9685
   XY=   -58.7889   YY=   258.1223   ZY=   156.7972
   XZ=   -17.9592   YZ=   170.3374   ZZ=  -231.2136
   Eigenvalues:  -282.3483  -167.4600   315.8633
     15  C    Isotropic =   181.4418   Anisotropy =    26.0215
   XX=   190.0572   YX=    -6.2251   ZX=     2.3491
   XY=   -10.6692   YY=   188.8447   ZY=     7.3958
   XZ=    -0.1217   YZ=    10.1101   ZZ=   165.4233
   Eigenvalues:   161.9831   183.5527   198.7894
     16  H    Isotropic =    23.8550   Anisotropy =     8.0513
   XX=    26.9534   YX=     3.2583   ZX=    -0.8062
   XY=     3.2242   YY=    23.6571   ZY=    -1.6026
   XZ=    -0.6809   YZ=    -1.7538   ZZ=    20.9547
   Eigenvalues:    20.0344    22.3082    29.2226
     17  H    Isotropic =    23.6920   Anisotropy =     5.0476
   XX=    26.6054   YX=     1.2003   ZX=     0.4960
   XY=     1.1927   YY=    23.8842   ZY=    -0.9328
   XZ=     0.3176   YZ=    -0.9380   ZZ=    20.5864
   Eigenvalues:    20.2590    23.7599    27.0571
     18  H    Isotropic =    23.8072   Anisotropy =     4.8510
   XX=    26.7331   YX=    -0.4356   ZX=     0.9985
   XY=    -0.2928   YY=    23.6123   ZY=    -1.4179
   XZ=     1.1187   YZ=    -1.3631   ZZ=    21.0762
   Eigenvalues:    20.3541    24.0264    27.0412
     19  H    Isotropic =    23.4556   Anisotropy =     9.9538
   XX=    28.1559   YX=    -3.3008   ZX=     2.2780
   XY=    -2.7536   YY=    22.3807   ZY=    -1.3934
   XZ=     2.2865   YZ=    -0.9608   ZZ=    19.8301
   Eigenvalues:    19.1741    21.1012    30.0914
     20  H    Isotropic =    23.6787   Anisotropy =     4.2384
   XX=    24.4708   YX=     0.0141   ZX=     0.5314
   XY=     0.0346   YY=    25.7608   ZY=    -2.0165
   XZ=     0.5047   YZ=    -2.0645   ZZ=    20.8047
   Eigenvalues:    20.0175    24.5144    26.5043
     21  H    Isotropic =    26.5739   Anisotropy =     4.4039
   XX=    26.6963   YX=     1.4955   ZX=     0.5144
   XY=     1.1245   YY=    28.6377   ZY=    -2.1493
   XZ=     1.7146   YZ=    -1.1044   ZZ=    24.3877
   Eigenvalues:    23.1911    27.0208    29.5098
     22  H    Isotropic =    28.6883   Anisotropy =     4.6063
   XX=    29.2083   YX=    -1.5092   ZX=     0.8139
   XY=    -2.1983   YY=    29.5633   ZY=    -1.9727
   XZ=    -2.7475   YZ=    -3.1630   ZZ=    27.2933
   Eigenvalues:    24.8327    29.4731    31.7592
     23  H    Isotropic =    26.7475   Anisotropy =     6.5416
   XX=    28.9555   YX=     2.6902   ZX=     0.2292
   XY=     2.0901   YY=    28.3342   ZY=    -0.5891
   XZ=     2.0644   YZ=    -0.0458   ZZ=    22.9528
   Eigenvalues:    22.6277    26.5063    31.1086
     24  H    Isotropic =    27.6286   Anisotropy =     7.7224
   XX=    28.3114   YX=    -0.7738   ZX=     3.4565
   XY=    -0.5222   YY=    24.6136   ZY=     4.0182
   XZ=     2.0308   YZ=     2.8183   ZZ=    29.9607
   Eigenvalues:    22.3616    27.7473    32.7769
     25  H    Isotropic =    28.6141   Anisotropy =    18.1399
   XX=    36.4775   YX=    -2.3603   ZX=     7.2719
   XY=    -1.0857   YY=    23.0773   ZY=     4.3011
   XZ=     8.3267   YZ=     3.6799   ZZ=    26.2876
   Eigenvalues:    18.2100    26.9250    40.7074
     26  H    Isotropic =    30.5606   Anisotropy =     9.9836
   XX=    29.5329   YX=     0.7031   ZX=    -3.2096
   XY=    -0.0793   YY=    27.3461   ZY=     3.0786
   XZ=    -4.5037   YZ=     1.5747   ZZ=    34.8028
   Eigenvalues:    25.8715    28.5939    37.2163
     27  H    Isotropic =    31.1049   Anisotropy =     6.6650
   XX=    34.9382   YX=     1.1578   ZX=     2.2362
   XY=     1.4268   YY=    27.3354   ZY=     3.3478
   XZ=    -1.0535   YZ=     3.4289   ZZ=    31.0410
   Eigenvalues:    25.2573    32.5091    35.5482
     28  H    Isotropic =    30.7697   Anisotropy =     7.7314
   XX=    28.3778   YX=    -1.0204   ZX=     0.8723
   XY=    -1.5664   YY=    35.6800   ZY=    -1.2747
   XZ=    -0.7983   YZ=     0.4612   ZZ=    28.2513
   Eigenvalues:    28.1433    28.2418    35.9239
     29  H    Isotropic =    30.2718   Anisotropy =     6.2246
   XX=    28.7094   YX=    -2.3081   ZX=     0.0503
   XY=    -3.0970   YY=    28.7118   ZY=     2.5402
   XZ=    -0.5930   YZ=     1.4432   ZZ=    33.3943
   Eigenvalues:    25.8008    30.5931    34.4215
     30  H    Isotropic =    30.5406   Anisotropy =    11.6568
   XX=    37.6572   YX=    -1.7055   ZX=     1.8180
   XY=    -2.6136   YY=    27.4970   ZY=    -0.3498
   XZ=     1.3612   YZ=    -0.0154   ZZ=    26.4675
   Eigenvalues:    26.2303    27.0798    38.3118
     31  H    Isotropic =    30.4206   Anisotropy =     8.2283
   XX=    28.8949   YX=    -0.2137   ZX=    -0.7574
   XY=     0.4846   YY=    34.5404   ZY=    -4.0135
   XZ=    -0.5557   YZ=    -2.5732   ZZ=    27.8265
   Eigenvalues:    26.3580    28.9977    35.9062
 End of Minotr Frequency-dependent properties file   721 does not exist.
 End of Minotr Frequency-dependent properties file   722 does not exist.

 **********************************************************************

            Population analysis using the SCF density.

 **********************************************************************

 Orbital symmetries:
       Occupied  (A) (A) (A) (A) (A) (A) (A) (A) (A) (A) (A) (A)
                 (A) (A) (A) (A) (A) (A) (A) (A) (A) (A) (A) (A)
                 (A) (A) (A) (A) (A) (A) (A) (A) (A) (A) (A) (A)
                 (A) (A) (A) (A) (A) (A) (A) (A) (A) (A) (A) (A)
                 (A) (A) (A) (A) (A) (A) (A) (A)
       Virtual   (A) (A) (A) (A) (A) (A) (A) (A) (A) (A) (A) (A)
                 (A) (A) (A) (A) (A) (A) (A) (A) (A) (A) (A) (A)
                 (A) (A) (A) (A) (A) (A) (A) (A) (A) (A) (A) (A)
                 (A) (A) (A) (A) (A) (A) (A) (A) (A) (A) (A) (A)
                 (A) (A) (A) (A) (A) (A) (A) (A) (A) (A) (A) (A)
                 (A) (A) (A) (A) (A) (A) (A) (A) (A) (A) (A) (A)
                 (A) (A) (A) (A) (A) (A) (A) (A) (A) (A) (A) (A)
                 (A) (A) (A) (A) (A) (A) (A) (A) (A) (A) (A) (A)
                 (A) (A) (A) (A) (A) (A) (A) (A) (A) (A) (A) (A)
                 (A) (A) (A) (A) (A) (A) (A) (A) (A) (A) (A) (A)
                 (A) (A) (A) (A) (A) (A) (A) (A) (A) (A) (A) (A)
                 (A) (A) (A) (A) (A) (A) (A) (A) (A) (A) (A) (A)
                 (A) (A) (A) (A) (A) (A) (A) (A) (A) (A) (A) (A)
                 (A) (A) (A) (A) (A) (A) (A) (A) (A) (A) (A) (A)
                 (A) (A) (A) (A) (A) (A) (A) (A) (A) (A) (A) (A)
                 (A) (A) (A) (A) (A) (A) (A) (A) (A) (A) (A) (A)
                 (A) (A) (A) (A) (A) (A) (A) (A) (A) (A) (A) (A)
                 (A) (A) (A) (A) (A) (A) (A) (A) (A) (A) (A) (A)
                 (A) (A) (A) (A) (A) (A) (A) (A) (A) (A) (A) (A)
                 (A) (A) (A) (A) (A) (A) (A) (A) (A) (A) (A) (A)
                 (A) (A) (A) (A) (A) (A) (A) (A) (A) (A) (A) (A)
                 (A) (A) (A) (A) (A) (A) (A) (A) (A) (A) (A) (A)
                 (A) (A) (A) (A) (A) (A) (A) (A) (A) (A) (A) (A)
                 (A) (A) (A) (A) (A) (A) (A) (A) (A) (A) (A) (A)
                 (A) (A) (A) (A) (A) (A) (A) (A) (A) (A) (A) (A)
                 (A) (A) (A) (A) (A) (A) (A) (A) (A)
 The electronic state is 1-A.
 Alpha  occ. eigenvalues --  -19.33483 -19.27963 -19.27652 -10.44334 -10.35840
 Alpha  occ. eigenvalues --  -10.35392 -10.31953 -10.31488 -10.30672 -10.30599
 Alpha  occ. eigenvalues --  -10.30578 -10.30526 -10.30452 -10.29355 -10.28876
 Alpha  occ. eigenvalues --   -1.21486  -1.12947  -1.12508  -0.96155  -0.91422
 Alpha  occ. eigenvalues --   -0.86974  -0.85183  -0.84647  -0.77602  -0.76237
 Alpha  occ. eigenvalues --   -0.72025  -0.70131  -0.67255  -0.64999  -0.61727
 Alpha  occ. eigenvalues --   -0.60197  -0.59952  -0.57964  -0.56164  -0.54377
 Alpha  occ. eigenvalues --   -0.53822  -0.52617  -0.51409  -0.50936  -0.50254
 Alpha  occ. eigenvalues --   -0.49016  -0.48689  -0.47235  -0.46492  -0.45512
 Alpha  occ. eigenvalues --   -0.44261  -0.43963  -0.43148  -0.42423  -0.42224
 Alpha  occ. eigenvalues --   -0.41345  -0.39090  -0.37225  -0.35823  -0.33218
 Alpha  occ. eigenvalues --   -0.32611
 Alpha virt. eigenvalues --    0.05116   0.05401   0.06411   0.06807   0.07760
 Alpha virt. eigenvalues --    0.08084   0.08479   0.09443   0.09671   0.10491
 Alpha virt. eigenvalues --    0.10755   0.11262   0.11368   0.12071   0.12830
 Alpha virt. eigenvalues --    0.13075   0.13870   0.14136   0.14311   0.15401
 Alpha virt. eigenvalues --    0.15706   0.16375   0.16872   0.17369   0.17594
 Alpha virt. eigenvalues --    0.18053   0.19264   0.19381   0.19936   0.20154
 Alpha virt. eigenvalues --    0.20320   0.20943   0.21320   0.22069   0.22299
 Alpha virt. eigenvalues --    0.22596   0.23046   0.23748   0.24163   0.24957
 Alpha virt. eigenvalues --    0.25397   0.25651   0.26045   0.26622   0.27104
 Alpha virt. eigenvalues --    0.27516   0.27819   0.28595   0.28800   0.29079
 Alpha virt. eigenvalues --    0.29668   0.30366   0.30610   0.31001   0.31503
 Alpha virt. eigenvalues --    0.31863   0.32426   0.32499   0.33055   0.33214
 Alpha virt. eigenvalues --    0.33498   0.34655   0.35004   0.35485   0.35894
 Alpha virt. eigenvalues --    0.36561   0.37052   0.37787   0.38426   0.38771
 Alpha virt. eigenvalues --    0.39089   0.39987   0.40138   0.40827   0.41099
 Alpha virt. eigenvalues --    0.42356   0.42820   0.43125   0.43741   0.44384
 Alpha virt. eigenvalues --    0.45331   0.46127   0.46564   0.47899   0.48435
 Alpha virt. eigenvalues --    0.48785   0.49757   0.51114   0.52593   0.54630
 Alpha virt. eigenvalues --    0.56134   0.58867   0.60571   0.66605   0.70459
 Alpha virt. eigenvalues --    0.73531   0.73748   0.74972   0.76111   0.76471
 Alpha virt. eigenvalues --    0.77389   0.77527   0.78297   0.79493   0.80960
 Alpha virt. eigenvalues --    0.81540   0.82420   0.83614   0.83838   0.84779
 Alpha virt. eigenvalues --    0.85721   0.86870   0.87462   0.88932   0.89724
 Alpha virt. eigenvalues --    0.90019   0.90889   0.93587   0.93982   0.95421
 Alpha virt. eigenvalues --    0.96221   0.97295   0.98901   0.99949   1.02383
 Alpha virt. eigenvalues --    1.02525   1.04610   1.04949   1.06653   1.07176
 Alpha virt. eigenvalues --    1.08009   1.09999   1.10677   1.11767   1.12944
 Alpha virt. eigenvalues --    1.13473   1.14652   1.17842   1.18119   1.19101
 Alpha virt. eigenvalues --    1.21003   1.21176   1.22340   1.23481   1.24671
 Alpha virt. eigenvalues --    1.25770   1.26522   1.28462   1.29865   1.30415
 Alpha virt. eigenvalues --    1.31832   1.34278   1.34654   1.35494   1.36776
 Alpha virt. eigenvalues --    1.39477   1.40651   1.41778   1.43737   1.44299
 Alpha virt. eigenvalues --    1.45978   1.47006   1.47632   1.48766   1.50341
 Alpha virt. eigenvalues --    1.50958   1.51931   1.52787   1.55373   1.55826
 Alpha virt. eigenvalues --    1.59354   1.60422   1.61098   1.64191   1.66756
 Alpha virt. eigenvalues --    1.68238   1.72178   1.73384   1.74311   1.74957
 Alpha virt. eigenvalues --    1.77092   1.79670   1.83781   1.85152   1.87726
 Alpha virt. eigenvalues --    1.89300   1.91076   1.92862   1.93569   1.95714
 Alpha virt. eigenvalues --    1.95851   1.97038   1.99104   1.99787   2.00468
 Alpha virt. eigenvalues --    2.01255   2.02508   2.04055   2.04765   2.05446
 Alpha virt. eigenvalues --    2.06970   2.07805   2.09386   2.10257   2.11354
 Alpha virt. eigenvalues --    2.11785   2.13830   2.15290   2.15829   2.18111
 Alpha virt. eigenvalues --    2.18702   2.20547   2.21053   2.21696   2.22493
 Alpha virt. eigenvalues --    2.24297   2.25691   2.26992   2.29647   2.30864
 Alpha virt. eigenvalues --    2.32654   2.36294   2.38655   2.38853   2.40430
 Alpha virt. eigenvalues --    2.42385   2.43440   2.44241   2.46922   2.48253
 Alpha virt. eigenvalues --    2.49292   2.50738   2.50953   2.53300   2.54416
 Alpha virt. eigenvalues --    2.55797   2.56265   2.57046   2.60764   2.63062
 Alpha virt. eigenvalues --    2.64162   2.65079   2.65467   2.67152   2.68766
 Alpha virt. eigenvalues --    2.68976   2.69904   2.72675   2.74061   2.74920
 Alpha virt. eigenvalues --    2.76573   2.78436   2.81383   2.82060   2.82192
 Alpha virt. eigenvalues --    2.83657   2.85260   2.87147   2.88746   2.90193
 Alpha virt. eigenvalues --    2.91231   2.91845   2.95025   2.96012   2.97198
 Alpha virt. eigenvalues --    2.98911   3.00362   3.02515   3.06102   3.09731
 Alpha virt. eigenvalues --    3.12885   3.15038   3.16692   3.20185   3.27135
 Alpha virt. eigenvalues --    3.28418   3.31336   3.36778   3.37159   3.38472
 Alpha virt. eigenvalues --    3.38685   3.43541   3.45048   3.48858   3.51765
 Alpha virt. eigenvalues --    3.54194   3.58335   3.59300   3.61074   3.62473
 Alpha virt. eigenvalues --    3.64913   3.65904   3.69218   3.99934   4.39065
 Alpha virt. eigenvalues --    4.41268   4.42526   4.47030   4.52586   4.55263
 Alpha virt. eigenvalues --    4.59099   4.59946   4.62284   4.66137   4.70907
 Alpha virt. eigenvalues --    4.77660   4.84361   4.95848   4.97827
          Condensed to atoms (all electrons):
              1          2          3          4          5          6
     1  C   15.344150  -0.696432  -1.657304  -4.919727  -6.389424   0.234575
     2  C   -0.696432   6.684734   0.387007   0.156753  -0.330507   0.200167
     3  C   -1.657304   0.387007   6.879453   0.866946   0.069969   0.302295
     4  C   -4.919727   0.156753   0.866946  15.213488   0.273754  -0.701713
     5  C   -6.389424  -0.330507   0.069969   0.273754  14.306168   0.438604
     6  C    0.234575   0.200167   0.302295  -0.701713   0.438604   5.352438
     7  C    4.695693  -0.550567  -0.982352  -5.995508  -3.272054   0.049117
     8  C   -0.899925   0.092276   0.085044   1.090275   0.800337  -0.039936
     9  C    0.204911   0.042930  -0.009058  -0.658859  -0.234917  -0.010553
    10  O   -0.038871   0.005822   0.002157   0.058270   0.041755  -0.000770
    11  C    0.007882   0.000512   0.003132  -0.024490  -0.011979  -0.000468
    12  O   -0.045071   0.068762  -0.025112   0.113514  -0.051980  -0.005812
    13  C   -0.024210  -0.053255   0.011697   0.237055   0.101451   0.031482
    14  O   -0.005883   0.000832  -0.000383  -0.008887   0.011279   0.000163
    15  C   -0.005782   0.000300  -0.000923  -0.012500   0.005387   0.000009
    16  H    0.242539  -0.001009   0.026048   0.029867   0.004904  -0.005716
    17  H    0.009769   0.266389  -0.006363   0.028051   0.016982   0.009001
    18  H    0.053411  -0.002067   0.256160   0.007967  -0.006371   0.017539
    19  H    0.043472  -0.036349  -0.005816   0.039291   0.201682  -0.014143
    20  H   -0.005075   0.021116   0.028750   0.004762  -0.006608   0.282854
    21  H    0.126924   0.003671   0.064079  -0.052684  -0.135643  -0.004939
    22  H    0.049316  -0.013232   0.004636   0.014724  -0.086754  -0.002512
    23  H    0.000162  -0.000005   0.000005  -0.001101  -0.000174  -0.000002
    24  H   -0.000089   0.000002  -0.000013   0.002431  -0.000027   0.000001
    25  H    0.002326  -0.008229  -0.000080   0.028042   0.017891   0.001031
    26  H    0.006618  -0.000673  -0.001578  -0.012368  -0.009424   0.000066
    27  H   -0.001825  -0.006154  -0.003604   0.049270   0.027456   0.005918
    28  H    0.038999  -0.003574   0.004636  -0.060803  -0.010357   0.001158
    29  H   -0.000209   0.000005  -0.000012   0.001107   0.000104   0.000000
    30  H    0.000037   0.000000   0.000001   0.000147  -0.000018   0.000000
    31  H   -0.000041   0.000006  -0.000016  -0.000557   0.000029  -0.000001
              7          8          9         10         11         12
     1  C    4.695693  -0.899925   0.204911  -0.038871   0.007882  -0.045071
     2  C   -0.550567   0.092276   0.042930   0.005822   0.000512   0.068762
     3  C   -0.982352   0.085044  -0.009058   0.002157   0.003132  -0.025112
     4  C   -5.995508   1.090275  -0.658859   0.058270  -0.024490   0.113514
     5  C   -3.272054   0.800337  -0.234917   0.041755  -0.011979  -0.051980
     6  C    0.049117  -0.039936  -0.010553  -0.000770  -0.000468  -0.005812
     7  C   13.498595  -2.081090   0.777709  -0.043878   0.011959   0.040360
     8  C   -2.081090   8.587868  -1.076124  -0.262430  -0.111779  -0.052213
     9  C    0.777709  -1.076124   6.163792   0.324666   0.024478  -0.060354
    10  O   -0.043878  -0.262430   0.324666   8.513716   0.020565   0.029643
    11  C    0.011959  -0.111779   0.024478   0.020565   5.198557  -0.003822
    12  O    0.040360  -0.052213  -0.060354   0.029643  -0.003822   8.313237
    13  C   -0.316548  -0.081356  -0.368309  -0.072544  -0.000747   0.051847
    14  O    0.073584  -0.077067   0.494903  -0.132231   0.005139  -0.004349
    15  C    0.006139  -0.044870   0.027191  -0.046901   0.264123   0.001215
    16  H    0.021892  -0.005586  -0.000791  -0.000103   0.000073  -0.000180
    17  H    0.002936  -0.000499   0.000257   0.000000   0.000000  -0.000019
    18  H    0.000100  -0.000364   0.000074   0.000000   0.000000   0.000010
    19  H    0.084826  -0.009022   0.020262   0.000032   0.000117   0.000485
    20  H    0.001004  -0.000263  -0.000068   0.000000   0.000000  -0.000001
    21  H    0.274905   0.023343   0.027197   0.005949   0.008032  -0.044734
    22  H    0.014301   0.328422   0.023086   0.008426   0.003268  -0.001952
    23  H   -0.005698   0.021051  -0.006832  -0.040094   0.402344  -0.000299
    24  H    0.000934  -0.002693   0.006929  -0.064089   0.425978   0.000024
    25  H    0.023991  -0.034117  -0.011796   0.002874  -0.008221   0.231786
    26  H    0.049435  -0.137191   0.013472   0.000588   0.000466  -0.000432
    27  H   -0.065654  -0.055522  -0.036794  -0.000941  -0.000317  -0.000149
    28  H    0.013355  -0.074489   0.042355   0.004270   0.003139  -0.000061
    29  H   -0.001191  -0.003155   0.000674  -0.006098  -0.043472   0.000003
    30  H    0.000351   0.004307   0.002947   0.007792  -0.049978  -0.000002
    31  H   -0.002604   0.008525   0.004180  -0.005326  -0.044721   0.000007
             13         14         15         16         17         18
     1  C   -0.024210  -0.005883  -0.005782   0.242539   0.009769   0.053411
     2  C   -0.053255   0.000832   0.000300  -0.001009   0.266389  -0.002067
     3  C    0.011697  -0.000383  -0.000923   0.026048  -0.006363   0.256160
     4  C    0.237055  -0.008887  -0.012500   0.029867   0.028051   0.007967
     5  C    0.101451   0.011279   0.005387   0.004904   0.016982  -0.006371
     6  C    0.031482   0.000163   0.000009  -0.005716   0.009001   0.017539
     7  C   -0.316548   0.073584   0.006139   0.021892   0.002936   0.000100
     8  C   -0.081356  -0.077067  -0.044870  -0.005586  -0.000499  -0.000364
     9  C   -0.368309   0.494903   0.027191  -0.000791   0.000257   0.000074
    10  O   -0.072544  -0.132231  -0.046901  -0.000103   0.000000   0.000000
    11  C   -0.000747   0.005139   0.264123   0.000073   0.000000   0.000000
    12  O    0.051847  -0.004349   0.001215  -0.000180  -0.000019   0.000010
    13  C    5.890800  -0.051557  -0.010248   0.004939  -0.000064   0.000051
    14  O   -0.051557   8.235883  -0.041384   0.000008   0.000000   0.000000
    15  C   -0.010248  -0.041384   5.205821   0.000021   0.000000   0.000000
    16  H    0.004939   0.000008   0.000021   0.509977   0.000011  -0.003904
    17  H   -0.000064   0.000000   0.000000   0.000011   0.496528  -0.000122
    18  H    0.000051   0.000000   0.000000  -0.003904  -0.000122   0.497649
    19  H   -0.005692   0.000029  -0.000011  -0.000110  -0.004000   0.000011
    20  H    0.000007   0.000000   0.000000  -0.000121  -0.003828  -0.003876
    21  H   -0.023657  -0.001443  -0.001406   0.001960   0.000002  -0.000006
    22  H   -0.029688  -0.006458  -0.000348  -0.000009   0.000002   0.000000
    23  H   -0.002152  -0.000454  -0.034232   0.000000   0.000000   0.000000
    24  H    0.000714   0.000417  -0.041302   0.000000   0.000000   0.000000
    25  H    0.001184   0.000541   0.001520   0.000000   0.000000   0.000000
    26  H    0.446955   0.004193  -0.000781   0.000007   0.000000   0.000000
    27  H    0.451393   0.000310  -0.000215  -0.000112  -0.000002  -0.000004
    28  H    0.392247  -0.000876   0.000482  -0.000169   0.000000   0.000000
    29  H    0.000036   0.001550   0.413955   0.000000   0.000000   0.000000
    30  H    0.000127  -0.000194   0.398534   0.000000   0.000000   0.000000
    31  H   -0.000882  -0.000492   0.404157   0.000000   0.000000   0.000000
             19         20         21         22         23         24
     1  C    0.043472  -0.005075   0.126924   0.049316   0.000162  -0.000089
     2  C   -0.036349   0.021116   0.003671  -0.013232  -0.000005   0.000002
     3  C   -0.005816   0.028750   0.064079   0.004636   0.000005  -0.000013
     4  C    0.039291   0.004762  -0.052684   0.014724  -0.001101   0.002431
     5  C    0.201682  -0.006608  -0.135643  -0.086754  -0.000174  -0.000027
     6  C   -0.014143   0.282854  -0.004939  -0.002512  -0.000002   0.000001
     7  C    0.084826   0.001004   0.274905   0.014301  -0.005698   0.000934
     8  C   -0.009022  -0.000263   0.023343   0.328422   0.021051  -0.002693
     9  C    0.020262  -0.000068   0.027197   0.023086  -0.006832   0.006929
    10  O    0.000032   0.000000   0.005949   0.008426  -0.040094  -0.064089
    11  C    0.000117   0.000000   0.008032   0.003268   0.402344   0.425978
    12  O    0.000485  -0.000001  -0.044734  -0.001952  -0.000299   0.000024
    13  C   -0.005692   0.000007  -0.023657  -0.029688  -0.002152   0.000714
    14  O    0.000029   0.000000  -0.001443  -0.006458  -0.000454   0.000417
    15  C   -0.000011   0.000000  -0.001406  -0.000348  -0.034232  -0.041302
    16  H   -0.000110  -0.000121   0.001960  -0.000009   0.000000   0.000000
    17  H   -0.004000  -0.003828   0.000002   0.000002   0.000000   0.000000
    18  H    0.000011  -0.003876  -0.000006   0.000000   0.000000   0.000000
    19  H    0.503517  -0.000118  -0.000032  -0.000100   0.000000   0.000000
    20  H   -0.000118   0.499641   0.000000   0.000000   0.000000   0.000000
    21  H   -0.000032   0.000000   0.568786   0.003337  -0.000003   0.000014
    22  H   -0.000100   0.000000   0.003337   0.483919   0.000002   0.000005
    23  H    0.000000   0.000000  -0.000003   0.000002   0.516431  -0.030908
    24  H    0.000000   0.000000   0.000014   0.000005  -0.030908   0.528791
    25  H    0.000025   0.000000  -0.009085  -0.000040   0.000083   0.000018
    26  H    0.000003   0.000000  -0.000083  -0.002232  -0.000001   0.000000
    27  H   -0.000001   0.000000  -0.000082  -0.004333   0.000000   0.000000
    28  H   -0.000001   0.000000   0.002103   0.003776  -0.000001   0.000001
    29  H    0.000000   0.000000   0.000001   0.000001  -0.004683   0.003960
    30  H    0.000000   0.000000   0.000000   0.000000  -0.000968  -0.001129
    31  H    0.000000   0.000000  -0.000001   0.000000   0.003783  -0.005016
             25         26         27         28         29         30
     1  C    0.002326   0.006618  -0.001825   0.038999  -0.000209   0.000037
     2  C   -0.008229  -0.000673  -0.006154  -0.003574   0.000005   0.000000
     3  C   -0.000080  -0.001578  -0.003604   0.004636  -0.000012   0.000001
     4  C    0.028042  -0.012368   0.049270  -0.060803   0.001107   0.000147
     5  C    0.017891  -0.009424   0.027456  -0.010357   0.000104  -0.000018
     6  C    0.001031   0.000066   0.005918   0.001158   0.000000   0.000000
     7  C    0.023991   0.049435  -0.065654   0.013355  -0.001191   0.000351
     8  C   -0.034117  -0.137191  -0.055522  -0.074489  -0.003155   0.004307
     9  C   -0.011796   0.013472  -0.036794   0.042355   0.000674   0.002947
    10  O    0.002874   0.000588  -0.000941   0.004270  -0.006098   0.007792
    11  C   -0.008221   0.000466  -0.000317   0.003139  -0.043472  -0.049978
    12  O    0.231786  -0.000432  -0.000149  -0.000061   0.000003  -0.000002
    13  C    0.001184   0.446955   0.451393   0.392247   0.000036   0.000127
    14  O    0.000541   0.004193   0.000310  -0.000876   0.001550  -0.000194
    15  C    0.001520  -0.000781  -0.000215   0.000482   0.413955   0.398534
    16  H    0.000000   0.000007  -0.000112  -0.000169   0.000000   0.000000
    17  H    0.000000   0.000000  -0.000002   0.000000   0.000000   0.000000
    18  H    0.000000   0.000000  -0.000004   0.000000   0.000000   0.000000
    19  H    0.000025   0.000003  -0.000001  -0.000001   0.000000   0.000000
    20  H    0.000000   0.000000   0.000000   0.000000   0.000000   0.000000
    21  H   -0.009085  -0.000083  -0.000082   0.002103   0.000001   0.000000
    22  H   -0.000040  -0.002232  -0.004333   0.003776   0.000001   0.000000
    23  H    0.000083  -0.000001   0.000000  -0.000001  -0.004683  -0.000968
    24  H    0.000018   0.000000   0.000000   0.000001   0.003960  -0.001129
    25  H    0.356560  -0.000002   0.000001   0.000020   0.000000   0.000000
    26  H   -0.000002   0.505923  -0.023111  -0.025124  -0.000010   0.000000
    27  H    0.000001  -0.023111   0.499659  -0.024581   0.000000   0.000000
    28  H    0.000020  -0.025124  -0.024581   0.511754   0.000006   0.000000
    29  H    0.000000  -0.000010   0.000000   0.000006   0.507586  -0.021422
    30  H    0.000000   0.000000   0.000000   0.000000  -0.021422   0.502753
    31  H   -0.000001  -0.000001   0.000000  -0.000016  -0.029043  -0.022285
             31
     1  C   -0.000041
     2  C    0.000006
     3  C   -0.000016
     4  C   -0.000557
     5  C    0.000029
     6  C   -0.000001
     7  C   -0.002604
     8  C    0.008525
     9  C    0.004180
    10  O   -0.005326
    11  C   -0.044721
    12  O    0.000007
    13  C   -0.000882
    14  O   -0.000492
    15  C    0.404157
    16  H    0.000000
    17  H    0.000000
    18  H    0.000000
    19  H    0.000000
    20  H    0.000000
    21  H   -0.000001
    22  H    0.000000
    23  H    0.003783
    24  H   -0.005016
    25  H   -0.000001
    26  H   -0.000001
    27  H    0.000000
    28  H   -0.000016
    29  H   -0.029043
    30  H   -0.022285
    31  H    0.516837
 Mulliken atomic charges:
              1
     1  C   -0.370914
     2  C   -0.229232
     3  C   -0.299399
     4  C    0.233482
     5  C    0.228486
     6  C   -0.139853
     7  C   -0.324042
     8  C    0.008243
     9  C    0.272443
    10  O   -0.312249
    11  C   -0.079771
    12  O   -0.554348
    13  C   -0.581079
    14  O   -0.497175
    15  C   -0.487951
    16  H    0.175560
    17  H    0.184968
    18  H    0.183745
    19  H    0.181642
    20  H    0.181823
    21  H    0.163493
    22  H    0.210437
    23  H    0.183747
    24  H    0.175047
    25  H    0.403675
    26  H    0.185287
    27  H    0.189393
    28  H    0.181751
    29  H    0.180308
    30  H    0.179003
    31  H    0.173480
 Sum of Mulliken atomic charges =   0.00000
 Mulliken charges with hydrogens summed into heavy atoms:
              1
     1  C   -0.195354
     2  C   -0.044264
     3  C   -0.115654
     4  C    0.233482
     5  C    0.410128
     6  C    0.041971
     7  C   -0.160550
     8  C    0.218681
     9  C    0.272443
    10  O   -0.312249
    11  C    0.279022
    12  O   -0.150673
    13  C   -0.024648
    14  O   -0.497175
    15  C    0.044841
 Sum of Mulliken charges with hydrogens summed into heavy atoms =   0.00000
 Electronic spatial extent (au):  <R**2>=           4176.0608
 Charge=              0.0000 electrons
 Dipole moment (field-independent basis, Debye):
    X=             -0.8939    Y=              2.7147    Z=             -1.6686  Tot=              3.3095
 Quadrupole moment (field-independent basis, Debye-Ang):
   XX=            -78.1206   YY=            -88.4024   ZZ=            -94.6616
   XY=             -1.1951   XZ=             14.2983   YZ=             -1.4310
 Traceless Quadrupole moment (field-independent basis, Debye-Ang):
   XX=              8.9409   YY=             -1.3409   ZZ=             -7.6001
   XY=             -1.1951   XZ=             14.2983   YZ=             -1.4310
 Octapole moment (field-independent basis, Debye-Ang**2):
  XXX=            -24.7387  YYY=              1.5969  ZZZ=            -12.2123  XYY=              1.5131
  XXY=              9.2807  XXZ=            -32.0159  XZZ=            -17.0560  YZZ=              3.8988
  YYZ=             -1.5661  XYZ=            -21.4833
 Hexadecapole moment (field-independent basis, Debye-Ang**3):
 XXXX=          -3993.1517 YYYY=           -560.1704 ZZZZ=           -541.2346 XXXY=             -3.0685
 XXXZ=            190.8658 YYYX=             14.6706 YYYZ=            -20.2691 ZZZX=             47.6222
 ZZZY=             16.9055 XXYY=           -805.2053 XXZZ=           -907.2251 YYZZ=           -188.9867
 XXYZ=             -5.0910 YYXZ=             11.7541 ZZXY=             -5.4904
 N-N= 9.983972815390D+02 E-N=-3.608426352718D+03  KE= 6.858884921700D+02
 1\1\GINC-COMPUTE-9-6\SP\RwB97XD\6-31+G(d,p)\C12H16O3\ELUCIANO.IQUIR\17
 -May-2022\0\\# wb97xd/6-31+g** scrf=(pcm,solvent=chloroform,smd,dovacu
 um) nmr\\comment\\0,1\C,0,-1.927820289,-1.970484098,-0.212851509\C,0,-
 3.773434355,-0.520459382,-1.718948475\C,0,-3.242865061,-2.424042672,-0
 .335630171\C,0,-1.519302926,-0.78310917,-0.840549832\C,0,-2.459595427,
 -0.065396369,-1.596626311\C,0,-4.164940243,-1.698567144,-1.087112875\C
 ,0,-0.095745562,-0.284039169,-0.679530209\C,0,0.008039269,0.962670483,
 0.219544085\C,0,1.428921879,1.481795105,0.344188083\O,0,2.359117379,0.
 536388287,0.03477361\C,0,3.732118789,0.936148696,0.175891507\O,0,0.389
 450405,0.018316033,-1.992503732\C,0,-0.516862432,0.716193706,1.6349909
 17\O,0,1.696128744,2.613282217,0.731997415\C,0,4.197848695,0.70771634,
 1.601466778\H,0,-1.224506006,-2.552255631,0.378464931\H,0,-4.48864873,
 0.043284034,-2.311993533\H,0,-3.547667785,-3.345292168,0.153925226\H,0
 ,-2.163494745,0.850111024,-2.105240464\H,0,-5.187394682,-2.053464649,-
 1.184674426\H,0,0.521957557,-1.103524705,-0.290171481\H,0,-0.559729057
 ,1.780051396,-0.245314875\H,0,3.878947022,1.976899634,-0.134611272\H,0
 ,4.317212504,0.31161134,-0.507078085\H,0,1.360365344,-0.041804341,-1.9
 50551162\H,0,-0.359671336,1.593879991,2.272079062\H,0,-1.590199224,0.5
 0353787,1.634888911\H,0,0.00196434,-0.126030466,2.106399067\H,0,3.6259
 79873,1.320855027,2.305088729\H,0,5.258504207,0.952448807,1.706926984\
 H,0,4.045321856,-0.336720025,1.892763105\\Version=EM64L-G09RevC.01\Sta
 te=1-A\HF=-692.4458849\RMSD=9.960e-09\Dipole=0.6297492,-0.9896016,0.56
 51905\Quadrupole=12.7209578,-7.1610734,-5.5598843,-1.8847812,-0.267398
 ,-5.2773837\PG=C01 [X(C12H16O3)]\\@


 BULLDOZER: SOMEONE WHO SLEEPS THROUGH SPEECHES.
 Job cpu time:  0 days  0 hours 24 minutes  7.0 seconds.
 File lengths (MBytes):  RWF=    124 Int=      0 D2E=      0 Chk=      9 Scr=      1
 Normal termination of Gaussian 09 at Tue May 17 17:02:52 2022.
