 Entering Gaussian System, Link 0=g09
 Input=/home/eluciano.iquir/wb9/73b_007.gjc
 Output=/home/eluciano.iquir/wb9/73b_007.log
 Initial command:
 /share/apps/Gaussian09/EM64T.SSE4.2-enabled/g09/l1.exe /tmp/Gau-60951.inp -scrdir=/tmp/
 Entering Link 1 = /share/apps/Gaussian09/EM64T.SSE4.2-enabled/g09/l1.exe PID=     60952.
  
 Copyright (c) 1988,1990,1992,1993,1995,1998,2003,2009,2011,
            Gaussian, Inc.  All Rights Reserved.
  
 This is part of the Gaussian(R) 09 program.  It is based on
 the Gaussian(R) 03 system (copyright 2003, Gaussian, Inc.),
 the Gaussian(R) 98 system (copyright 1998, Gaussian, Inc.),
 the Gaussian(R) 94 system (copyright 1995, Gaussian, Inc.),
 the Gaussian 92(TM) system (copyright 1992, Gaussian, Inc.),
 the Gaussian 90(TM) system (copyright 1990, Gaussian, Inc.),
 the Gaussian 88(TM) system (copyright 1988, Gaussian, Inc.),
 the Gaussian 86(TM) system (copyright 1986, Carnegie Mellon
 University), and the Gaussian 82(TM) system (copyright 1983,
 Carnegie Mellon University). Gaussian is a federally registered
 trademark of Gaussian, Inc.
  
 This software contains proprietary and confidential information,
 including trade secrets, belonging to Gaussian, Inc.
  
 This software is provided under written license and may be
 used, copied, transmitted, or stored only in accord with that
 written license.
  
 The following legend is applicable only to US Government
 contracts under FAR:
  
                    RESTRICTED RIGHTS LEGEND
  
 Use, reproduction and disclosure by the US Government is
 subject to restrictions as set forth in subparagraphs (a)
 and (c) of the Commercial Computer Software - Restricted
 Rights clause in FAR 52.227-19.
  
 Gaussian, Inc.
 340 Quinnipiac St., Bldg. 40, Wallingford CT 06492
  
  
 ---------------------------------------------------------------
 Warning -- This program may not be used in any manner that
 competes with the business of Gaussian, Inc. or will provide
 assistance to any competitor of Gaussian, Inc.  The licensee
 of this program is prohibited from giving any competitor of
 Gaussian, Inc. access to this program.  By using this program,
 the user acknowledges that Gaussian, Inc. is engaged in the
 business of creating and licensing software in the field of
 computational chemistry and represents and warrants to the
 licensee that it is not a competitor of Gaussian, Inc. and that
 it will not use this program in any manner prohibited above.
 ---------------------------------------------------------------
  

 Cite this work as:
 Gaussian 09, Revision C.01,
 M. J. Frisch, G. W. Trucks, H. B. Schlegel, G. E. Scuseria, 
 M. A. Robb, J. R. Cheeseman, G. Scalmani, V. Barone, B. Mennucci, 
 G. A. Petersson, H. Nakatsuji, M. Caricato, X. Li, H. P. Hratchian, 
 A. F. Izmaylov, J. Bloino, G. Zheng, J. L. Sonnenberg, M. Hada, 
 M. Ehara, K. Toyota, R. Fukuda, J. Hasegawa, M. Ishida, T. Nakajima, 
 Y. Honda, O. Kitao, H. Nakai, T. Vreven, J. A. Montgomery, Jr., 
 J. E. Peralta, F. Ogliaro, M. Bearpark, J. J. Heyd, E. Brothers, 
 K. N. Kudin, V. N. Staroverov, T. Keith, R. Kobayashi, J. Normand, 
 K. Raghavachari, A. Rendell, J. C. Burant, S. S. Iyengar, J. Tomasi, 
 M. Cossi, N. Rega, J. M. Millam, M. Klene, J. E. Knox, J. B. Cross, 
 V. Bakken, C. Adamo, J. Jaramillo, R. Gomperts, R. E. Stratmann, 
 O. Yazyev, A. J. Austin, R. Cammi, C. Pomelli, J. W. Ochterski, 
 R. L. Martin, K. Morokuma, V. G. Zakrzewski, G. A. Voth, 
 P. Salvador, J. J. Dannenberg, S. Dapprich, A. D. Daniels, 
 O. Farkas, J. B. Foresman, J. V. Ortiz, J. Cioslowski, 
 and D. J. Fox, Gaussian, Inc., Wallingford CT, 2010.
 
 ******************************************
 Gaussian 09:  EM64L-G09RevC.01 23-Sep-2011
                17-May-2022 
 ******************************************
 %nprocshared=4
 Will use up to    4 processors via shared memory.
 ----------------------------------------------------------------
 # wb97xd/6-31+g** scrf=(pcm,solvent=chloroform,smd,dovacuum) nmr
 ----------------------------------------------------------------
 1/38=1/1;
 2/12=2,17=6,18=5,40=1/2;
 3/5=1,6=6,7=111,11=2,16=1,25=1,30=1,70=32101,72=7,74=-58/1,2,8,3;
 4//1;
 5/5=2,38=5,53=7/2;
 8/6=1,10=90,11=11/1;
 10/13=100,45=16/2;
 6/7=2,8=2,9=2,10=2,28=1/1;
 99/9=1/99;
 -------
 comment
 -------
 Charge =  0 Multiplicity = 1
 Symbolic Z-Matrix:
 6                     0.547    -1.39399  -0.97138 
 6                     0.4214   -3.49041   0.86123 
 6                     1.49073  -2.42181  -1.01734 
 6                    -0.47315  -1.4002   -0.00697 
 6                    -0.52276  -2.46341   0.90843 
 6                     1.42757  -3.46921  -0.10142 
 6                    -1.48662  -0.27125   0.03015 
 6                    -1.1927    0.86243   1.02687 
 6                     0.09937   1.57376   0.67729 
 8                     0.03113   2.0879   -0.58541 
 6                     1.20501   2.80114  -0.99446 
 8                    -2.79596  -0.79761   0.28517 
 6                    -1.19689   0.42534   2.49379 
 8                     1.05697   1.71016   1.42663 
 6                     1.00077   3.26416  -2.42359 
 1                     0.61684  -0.58611  -1.6972 
 1                     0.37372  -4.30477   1.57971 
 1                     2.27786  -2.40376  -1.76685 
 1                    -1.29784  -2.49509   1.67234 
 1                     2.16467  -4.26721  -0.13537 
 1                    -1.55251   0.15102  -0.98066 
 1                    -1.99429   1.60953   0.93962 
 1                     2.07794   2.14077  -0.94197 
 1                     1.3556    3.66774  -0.34124 
 1                    -2.86319  -1.6364   -0.2047 
 1                    -1.10504   1.29806   3.15068 
 1                    -2.12739  -0.08812   2.7552 
 1                    -0.35644  -0.23615   2.72696 
 1                     0.8263    2.40843  -3.08429 
 1                     1.87331   3.81643  -2.78344 
 1                     0.11862   3.90865  -2.49777 
 
                          Input orientation:                          
 ---------------------------------------------------------------------
 Center     Atomic      Atomic             Coordinates (Angstroms)
 Number     Number       Type             X           Y           Z
 ---------------------------------------------------------------------
      1          6           0        0.546996   -1.393994   -0.971384
      2          6           0        0.421401   -3.490413    0.861228
      3          6           0        1.490730   -2.421814   -1.017343
      4          6           0       -0.473152   -1.400201   -0.006967
      5          6           0       -0.522757   -2.463410    0.908434
      6          6           0        1.427571   -3.469212   -0.101421
      7          6           0       -1.486621   -0.271251    0.030149
      8          6           0       -1.192704    0.862433    1.026871
      9          6           0        0.099369    1.573755    0.677292
     10          8           0        0.031127    2.087899   -0.585411
     11          6           0        1.205011    2.801135   -0.994464
     12          8           0       -2.795963   -0.797608    0.285174
     13          6           0       -1.196890    0.425344    2.493788
     14          8           0        1.056969    1.710160    1.426625
     15          6           0        1.000770    3.264157   -2.423593
     16          1           0        0.616839   -0.586112   -1.697203
     17          1           0        0.373721   -4.304773    1.579705
     18          1           0        2.277863   -2.403756   -1.766846
     19          1           0       -1.297844   -2.495087    1.672339
     20          1           0        2.164666   -4.267211   -0.135369
     21          1           0       -1.552511    0.151019   -0.980664
     22          1           0       -1.994291    1.609534    0.939622
     23          1           0        2.077939    2.140767   -0.941973
     24          1           0        1.355596    3.667735   -0.341235
     25          1           0       -2.863195   -1.636403   -0.204698
     26          1           0       -1.105036    1.298060    3.150685
     27          1           0       -2.127392   -0.088116    2.755203
     28          1           0       -0.356440   -0.236147    2.726958
     29          1           0        0.826304    2.408429   -3.084289
     30          1           0        1.873307    3.816431   -2.783439
     31          1           0        0.118615    3.908650   -2.497775
 ---------------------------------------------------------------------
                    Distance matrix (angstroms):
                    1          2          3          4          5
     1  C    0.000000
     2  C    2.787331   0.000000
     3  C    1.396123   2.411307   0.000000
     4  C    1.403866   2.433717   2.433390   0.000000
     5  C    2.412828   1.395851   2.786482   1.403864   0.000000
     6  C    2.416356   1.392667   1.392820   2.811135   2.415622
     7  C    2.529667   3.833307   3.819264   1.517572   2.550682
     8  C    3.480092   4.645432   4.708068   2.589611   3.394714
     9  C    3.424330   5.077730   4.557658   3.104900   4.091353
    10  O    3.540999   5.776041   4.759675   3.571517   4.822113
    11  C    4.246484   6.606151   5.230808   4.630616   5.858468
    12  O    3.620772   4.234911   4.765536   2.417419   2.886315
    13  C    4.284687   4.540625   5.259054   3.179652   3.363436
    14  O    3.955540   5.269686   4.820201   3.751107   4.492521
    15  C    4.900326   7.533256   5.877743   5.456076   6.799159
    16  H    1.088285   3.875401   2.143757   2.169728   3.407678
    17  H    3.874366   1.087044   3.396749   3.416323   2.155202
    18  H    2.155987   3.396182   1.087041   3.416487   3.873520
    19  H    3.406628   2.145782   3.875036   2.167709   1.088721
    20  H    3.401640   2.153043   2.153500   3.897989   3.400804
    21  H    2.606738   4.533092   3.985239   2.125884   3.385900
    22  H    4.373930   5.643685   5.676869   3.502627   4.330734
    23  H    3.852167   6.140509   4.600830   4.463268   5.602328
    24  H    5.164497   7.318315   6.128457   5.398151   6.533057
    25  H    3.503708   3.919454   4.498213   2.409812   2.720414
    26  H    5.193054   5.522780   6.160188   4.201268   4.417623
    27  H    4.769184   4.653935   5.724427   3.476732   3.409902
    28  H    3.979263   3.830957   4.712639   2.973716   2.880172
    29  H    4.358991   7.108262   5.295750   5.065980   6.441786
    30  H    5.673727   8.293468   6.494702   6.358295   7.668602
    31  H    5.534565   8.131465   6.644482   5.893913   7.253741
                    6          7          8          9         10
     6  C    0.000000
     7  C    4.328601   0.000000
     8  C    5.186717   1.537881   0.000000
     9  C    5.272764   2.517579   1.515796   0.000000
    10  O    5.750286   2.871944   2.366217   1.365072   0.000000
    11  C    6.337533   4.211208   3.686923   2.350250   1.433191
    12  O    5.012502   1.434039   2.424106   3.762987   4.132373
    13  C    5.365676   2.576568   1.530656   2.509739   3.708582
    14  O    5.412779   3.513685   2.437104   1.223562   2.289832
    15  C    7.135328   4.970621   4.741868   3.644924   2.388033
    16  H    3.393534   2.739969   3.576773   3.251312   2.954568
    17  H    2.152893   4.704391   5.427645   5.953714   6.758058
    18  H    2.152169   4.684881   5.524281   5.151722   5.159319
    19  H    3.394560   2.770897   3.420618   4.415631   5.278955
    20  H    1.086859   5.415440   6.239871   6.248421   6.718776
    21  H    4.770748   1.097450   2.160038   2.738924   2.532911
    22  H    6.211809   2.149935   1.099233   2.110334   2.580093
    23  H    5.709762   4.412362   4.025866   2.618829   2.078310
    24  H    7.141338   4.871523   4.029302   2.645800   2.075988
    25  H    4.666961   1.952882   3.248304   4.456434   4.732067
    26  H    6.302156   3.513699   2.169802   2.764827   3.984109
    27  H    5.677137   2.805360   2.182732   3.469581   4.533646
    28  H    4.651359   2.924263   2.190094   2.772118   4.064872
    29  H    6.618586   4.714873   4.834059   3.921046   2.641862
    30  H    7.776407   5.992874   5.713580   4.489222   3.348549
    31  H    7.866939   5.141863   4.839641   3.941212   2.641954
                   11         12         13         14         15
    11  C    0.000000
    12  O    5.531385   0.000000
    13  C    4.856070   2.988415   0.000000
    14  O    2.659665   4.736761   2.805257   0.000000
    15  C    1.516085   6.184702   6.088448   4.152378   0.000000
    16  H    3.509022   3.952438   4.677292   3.901908   3.936956
    17  H    7.603376   4.901318   5.067186   6.055549   8.585353
    18  H    5.370147   5.703877   6.183099   5.349125   5.847010
    19  H    6.436311   2.655189   3.035439   4.825933   7.431634
    20  H    7.184741   6.068183   6.342918   6.276606   7.956892
    21  H    3.824557   2.012066   3.503360   3.877544   4.277023
    22  H    3.923791   2.620174   2.110352   3.091519   4.797852
    23  H    1.095831   5.821930   5.046943   2.614969   2.148836
    24  H    1.095618   6.129203   5.006560   2.654545   2.150579
    25  H    6.071719   0.973690   3.782750   5.406328   6.623383
    26  H    4.977731   3.932202   1.096167   2.795795   6.274753
    27  H    5.789015   2.655450   1.094447   3.890896   6.916868
    28  H    5.050960   3.496973   1.094666   2.734356   6.373564
    29  H    2.159862   5.895148   6.256267   4.570463   1.095093
    30  H    2.162840   7.246228   6.983889   4.777806   1.093534
    31  H    2.160275   6.195840   6.227332   4.595082   1.095021
                   16         17         18         19         20
    16  H    0.000000
    17  H    4.962426   0.000000
    18  H    2.463266   4.294069   0.000000
    19  H    4.320187   2.465294   4.962058   0.000000
    20  H    4.287841   2.479995   2.479313   4.289197   0.000000
    21  H    2.400598   5.488163   4.670838   3.755683   5.835468
    22  H    4.311810   6.402828   6.456219   4.227272   7.279331
    23  H    3.184503   7.127988   4.623102   6.302515   6.459127
    24  H    4.525443   8.259236   6.304438   7.005399   7.978744
    25  H    3.929544   4.558719   5.427671   2.590546   5.674975
    26  H    5.478775   6.003868   7.023499   4.075616   7.243020
    27  H    5.253830   5.041583   6.724388   2.766632   6.651467
    28  H    4.543451   4.289876   5.642017   2.664821   5.549628
    29  H    3.306835   8.186864   5.196133   7.154158   7.419670
    30  H    4.705424   9.340222   6.315683   8.351373   8.511312
    31  H    4.592606   9.173398   6.711414   7.772005   8.752827
                   21         22         23         24         25
    21  H    0.000000
    22  H    2.451516   0.000000
    23  H    4.140141   4.517264   0.000000
    24  H    4.607955   4.135038   1.792846   0.000000
    25  H    2.348380   3.549727   6.263018   6.778696   0.000000
    26  H    4.310913   2.403454   5.252745   4.885036   4.791741
    27  H    3.787397   2.489190   6.026761   5.985446   3.420470
    28  H    3.914963   3.046910   5.003696   5.252159   4.103552
    29  H    3.896139   4.978538   2.495546   3.064367   6.185879
    30  H    5.331180   5.804300   2.498144   2.500899   7.669273
    31  H    4.383387   4.643921   3.063475   2.497764   6.700522
                   26         27         28         29         30
    26  H    0.000000
    27  H    1.767230   0.000000
    28  H    1.758900   1.777352   0.000000
    29  H    6.621018   7.004050   6.493323   0.000000
    30  H    7.101165   7.869412   7.194417   1.780224   0.000000
    31  H    6.341734   6.972264   6.686019   1.759399   1.780183
                   31
    31  H    0.000000
 Stoichiometry    C12H16O3
 Framework group  C1[X(C12H16O3)]
 Deg. of freedom    87
 Full point group                 C1      NOp   1
 Largest Abelian subgroup         C1      NOp   1
 Largest concise Abelian subgroup C1      NOp   1
                         Standard orientation:                         
 ---------------------------------------------------------------------
 Center     Atomic      Atomic             Coordinates (Angstroms)
 Number     Number       Type             X           Y           Z
 ---------------------------------------------------------------------
      1          6           0        0.988027   -1.408847    0.501085
      2          6           0        3.434270   -0.587902   -0.553030
      3          6           0        1.884577   -2.352026   -0.004652
      4          6           0        1.302614   -0.040765    0.486037
      5          6           0        2.538825    0.356216   -0.047838
      6          6           0        3.106862   -1.941362   -0.531263
      7          6           0        0.312700    0.969673    1.035681
      8          6           0       -0.600699    1.646635    0.000064
      9          6           0       -1.493165    0.631185   -0.685505
     10          8           0       -2.259987   -0.023945    0.234392
     11          6           0       -3.155725   -0.991092   -0.328027
     12          8           0        1.006665    1.976845    1.784336
     13          6           0        0.142649    2.503594   -1.027538
     14          8           0       -1.556159    0.445940   -1.893321
     15          6           0       -3.895787   -1.665648    0.810302
     16          1           0        0.038996   -1.753558    0.907139
     17          1           0        4.385843   -0.265547   -0.968072
     18          1           0        1.627791   -3.408206    0.009615
     19          1           0        2.810793    1.409946   -0.079470
     20          1           0        3.802894   -2.675724   -0.928145
     21          1           0       -0.310440    0.455790    1.778659
     22          1           0       -1.267326    2.338627    0.533982
     23          1           0       -2.587826   -1.738818   -0.893041
     24          1           0       -3.870319   -0.489788   -0.990168
     25          1           0        1.721601    1.526376    2.268089
     26          1           0       -0.571376    3.051519   -1.653261
     27          1           0        0.788625    3.240874   -0.540766
     28          1           0        0.754015    1.896254   -1.702567
     29          1           0       -3.191050   -2.151965    1.492997
     30          1           0       -4.595189   -2.415803    0.430932
     31          1           0       -4.452077   -0.928671    1.398925
 ---------------------------------------------------------------------
 Rotational constants (GHZ):      0.8004903      0.4245211      0.3483421
 Standard basis: 6-31+G(d,p) (6D, 7F)
 There are   365 symmetry adapted basis functions of A   symmetry.
 Integral buffers will be    131072 words long.
 Raffenetti 2 integral format.
 Two-electron integral symmetry is turned on.
   365 basis functions,   592 primitive gaussians,   365 cartesian basis functions
    56 alpha electrons       56 beta electrons
       nuclear repulsion energy      1017.1368493344 Hartrees.
 NAtoms=   31 NActive=   31 NUniq=   31 SFac= 1.00D+00 NAtFMM=   60 NAOKFM=F Big=F
 Nuclear repulsion after empirical dispersion term =     1017.1151037023 Hartrees.
 ------------------------------------------------------------------------------
 Polarizable Continuum Model (PCM)
 =================================
 Model                : C-PCM.
 Atomic radii         : SMD-Coulomb.
 Polarization charges : Total charges.
 Charge compensation  : None.
 Solution method      : Matrix inversion.
 Cavity type          : VdW (van der Waals Surface) (Alpha=1.000).
 Cavity algorithm     : GePol (No added spheres)
                        Default sphere list used, NSphG=   31.
                        Lebedev-Laikov grids with approx.  5.0 points / Ang**2.
                        Smoothing algorithm: Karplus/York (Gamma=1.0000).
                        Polarization charges: spherical gaussians, with
                                              point-specific exponents (IZeta= 3).
                        Self-potential: point-specific (ISelfS= 7).
                        Self-field    : sphere-specific E.n sum rule (ISelfD= 2).
 Solvent              : Chloroform, Eps=   4.711300 Eps(inf)=   2.090627
 ------------------------------------------------------------------------------
 ------------------------------------------------------------------------------
 Atomic radii for non-electrostatic terms: SMD-CDS.
 ------------------------------------------------------------------------------
 Nuclear repulsion after PCM non-electrostatic terms =     1017.1085291414 Hartrees.
 One-electron integrals computed using PRISM.
 NBasis=   365 RedAO= T  NBF=   365
 NBsUse=   365 1.00D-06 NBFU=   365
 Harris functional with IExCor= 4639 diagonalized for initial guess.
 ExpMin= 4.38D-02 ExpMax= 5.48D+03 ExpMxC= 8.25D+02 IAcc=2 IRadAn=         4 AccDes= 0.00D+00
 HarFok:  IExCor= 4639 AccDes= 0.00D+00 IRadAn=         4 IDoV= 1
 ScaDFX=  1.000000  1.000000  1.000000  1.000000
 FoFCou: FMM=F IPFlag=           0 FMFlag=      100000 FMFlg1=           0
         NFxFlg=           0 DoJE=T BraDBF=F KetDBF=T FulRan=T
         Omega=  0.000000  0.000000  1.000000  0.000000  0.000000 ICntrl=     500 IOpCl=  0
         NMat0=    1 NMatS0=    1 NMatT0=    0 NMatD0=    1 NMtDS0=    0 NMtDT0=    0
         I1Cent=           4 NGrid=           0.
 Petite list used in FoFCou.
 Initial guess orbital symmetries:
       Occupied  (A) (A) (A) (A) (A) (A) (A) (A) (A) (A) (A) (A)
                 (A) (A) (A) (A) (A) (A) (A) (A) (A) (A) (A) (A)
                 (A) (A) (A) (A) (A) (A) (A) (A) (A) (A) (A) (A)
                 (A) (A) (A) (A) (A) (A) (A) (A) (A) (A) (A) (A)
                 (A) (A) (A) (A) (A) (A) (A) (A)
       Virtual   (A) (A) (A) (A) (A) (A) (A) (A) (A) (A) (A) (A)
                 (A) (A) (A) (A) (A) (A) (A) (A) (A) (A) (A) (A)
                 (A) (A) (A) (A) (A) (A) (A) (A) (A) (A) (A) (A)
                 (A) (A) (A) (A) (A) (A) (A) (A) (A) (A) (A) (A)
                 (A) (A) (A) (A) (A) (A) (A) (A) (A) (A) (A) (A)
                 (A) (A) (A) (A) (A) (A) (A) (A) (A) (A) (A) (A)
                 (A) (A) (A) (A) (A) (A) (A) (A) (A) (A) (A) (A)
                 (A) (A) (A) (A) (A) (A) (A) (A) (A) (A) (A) (A)
                 (A) (A) (A) (A) (A) (A) (A) (A) (A) (A) (A) (A)
                 (A) (A) (A) (A) (A) (A) (A) (A) (A) (A) (A) (A)
                 (A) (A) (A) (A) (A) (A) (A) (A) (A) (A) (A) (A)
                 (A) (A) (A) (A) (A) (A) (A) (A) (A) (A) (A) (A)
                 (A) (A) (A) (A) (A) (A) (A) (A) (A) (A) (A) (A)
                 (A) (A) (A) (A) (A) (A) (A) (A) (A) (A) (A) (A)
                 (A) (A) (A) (A) (A) (A) (A) (A) (A) (A) (A) (A)
                 (A) (A) (A) (A) (A) (A) (A) (A) (A) (A) (A) (A)
                 (A) (A) (A) (A) (A) (A) (A) (A) (A) (A) (A) (A)
                 (A) (A) (A) (A) (A) (A) (A) (A) (A) (A) (A) (A)
                 (A) (A) (A) (A) (A) (A) (A) (A) (A) (A) (A) (A)
                 (A) (A) (A) (A) (A) (A) (A) (A) (A) (A) (A) (A)
                 (A) (A) (A) (A) (A) (A) (A) (A) (A) (A) (A) (A)
                 (A) (A) (A) (A) (A) (A) (A) (A) (A) (A) (A) (A)
                 (A) (A) (A) (A) (A) (A) (A) (A) (A) (A) (A) (A)
                 (A) (A) (A) (A) (A) (A) (A) (A) (A) (A) (A) (A)
                 (A) (A) (A) (A) (A) (A) (A) (A) (A) (A) (A) (A)
                 (A) (A) (A) (A) (A) (A) (A) (A) (A)
 The electronic state of the initial guess is 1-A.
 Requested convergence on RMS density matrix=1.00D-08 within 128 cycles.
 Requested convergence on MAX density matrix=1.00D-06.
 Requested convergence on             energy=1.00D-06.
 No special actions if energy rises.
 FoFJK:  IHMeth= 1 ICntrl=     0 DoSepK=T KAlg= 1 I1Cent= 0 FoldK=F
 FoFJK:  IHMeth= 1 ICntrl=     0 DoSepK=T KAlg= 1 I1Cent= 0 FoldK=F
 FoFJK:  IHMeth= 1 ICntrl=     0 DoSepK=T KAlg= 1 I1Cent= 0 FoldK=F
 FoFJK:  IHMeth= 1 ICntrl=     0 DoSepK=T KAlg= 1 I1Cent= 0 FoldK=F
 FoFJK:  IHMeth= 1 ICntrl=     0 DoSepK=T KAlg= 1 I1Cent= 0 FoldK=F
 FoFJK:  IHMeth= 1 ICntrl=     0 DoSepK=T KAlg= 1 I1Cent= 0 FoldK=F
 FoFJK:  IHMeth= 1 ICntrl=     0 DoSepK=T KAlg= 1 I1Cent= 0 FoldK=F
 FoFJK:  IHMeth= 1 ICntrl=     0 DoSepK=T KAlg= 1 I1Cent= 0 FoldK=F
 FoFJK:  IHMeth= 1 ICntrl=     0 DoSepK=T KAlg= 1 I1Cent= 0 FoldK=F
 FoFJK:  IHMeth= 1 ICntrl=     0 DoSepK=T KAlg= 1 I1Cent= 0 FoldK=F
 FoFJK:  IHMeth= 1 ICntrl=     0 DoSepK=T KAlg= 1 I1Cent= 0 FoldK=F
 FoFJK:  IHMeth= 1 ICntrl=     0 DoSepK=T KAlg= 1 I1Cent= 0 FoldK=F
 FoFJK:  IHMeth= 1 ICntrl=     0 DoSepK=T KAlg= 1 I1Cent= 0 FoldK=F
 FoFJK:  IHMeth= 1 ICntrl=     0 DoSepK=T KAlg= 1 I1Cent= 0 FoldK=F
 FoFJK:  IHMeth= 1 ICntrl=     0 DoSepK=T KAlg= 1 I1Cent= 0 FoldK=F
 FoFJK:  IHMeth= 1 ICntrl=     0 DoSepK=T KAlg= 1 I1Cent= 0 FoldK=F
 Error on total polarization charges =  0.03859
 SCF Done:  E(RwB97XD) =  -692.445023839     A.U. after   16 cycles
             Convg  =    0.3196D-08             -V/T =  2.0096
 SMD-CDS (non-electrostatic) energy       (kcal/mol) =      -4.13
 (included in total energy above)
 Range of M.O.s used for correlation:     1   365
 NBasis=   365 NAE=    56 NBE=    56 NFC=     0 NFV=     0
 NROrb=    365 NOA=    56 NOB=    56 NVA=   309 NVB=   309

 **** Warning!!: The largest alpha MO coefficient is  0.12353901D+03

 NEqPCM:  Using equilibrium solvation (IEInf=0, Eps=   4.7113, EpsInf=   2.0906)
          Differentiating once with respect to magnetic field using GIAOs.
          Electric field/nuclear overlap derivatives assumed to be zero.
 FoFCou: FMM=F IPFlag=           0 FMFlag=    10101102 FMFlg1=           0
         NFxFlg=    40000000 DoJE=F BraDBF=F KetDBF=T FulRan=T
         Omega=  0.000000  0.000000  1.000000  0.000000  0.000000 ICntrl=    6100 IOpCl=  0
         NMat0=    1 NMatS0=    1 NMatT0=    0 NMatD0=    1 NMtDS0=    0 NMtDT0=    0
         I1Cent=           7 NGrid=        2290.
 Symmetry not used in FoFCou.
 FoFJK:  IHMeth= 1 ICntrl=  6127 DoSepK=T KAlg= 1 I1Cent= 0 FoldK=F
 FoFJK:  IHMeth= 1 ICntrl=     0 DoSepK=T KAlg= 1 I1Cent= 0 FoldK=F
          There are     3 degrees of freedom in the 1st order CPHF.  IDoFFX=0.
      3 vectors produced by pass  0 Test12= 5.77D-13 3.33D-08 XBig12= 1.60D+02 1.91D+00.
 AX will form     3 AO Fock derivatives at one time.
 FoFJK:  IHMeth= 1 ICntrl=     0 DoSepK=T KAlg= 1 I1Cent= 0 FoldK=F
      3 vectors produced by pass  1 Test12= 5.77D-13 3.33D-08 XBig12= 1.17D+00 3.20D-01.
 FoFJK:  IHMeth= 1 ICntrl=     0 DoSepK=T KAlg= 1 I1Cent= 0 FoldK=F
      3 vectors produced by pass  2 Test12= 5.77D-13 3.33D-08 XBig12= 2.36D-02 6.22D-02.
 FoFJK:  IHMeth= 1 ICntrl=     0 DoSepK=T KAlg= 1 I1Cent= 0 FoldK=F
      3 vectors produced by pass  3 Test12= 5.77D-13 3.33D-08 XBig12= 4.16D-04 4.69D-03.
 FoFJK:  IHMeth= 1 ICntrl=     0 DoSepK=T KAlg= 1 I1Cent= 0 FoldK=F
      3 vectors produced by pass  4 Test12= 5.77D-13 3.33D-08 XBig12= 6.86D-06 8.08D-04.
 FoFJK:  IHMeth= 1 ICntrl=     0 DoSepK=T KAlg= 1 I1Cent= 0 FoldK=F
      3 vectors produced by pass  5 Test12= 5.77D-13 3.33D-08 XBig12= 1.49D-07 1.59D-04.
 FoFJK:  IHMeth= 1 ICntrl=     0 DoSepK=T KAlg= 1 I1Cent= 0 FoldK=F
      3 vectors produced by pass  6 Test12= 5.77D-13 3.33D-08 XBig12= 3.25D-09 2.06D-05.
 FoFJK:  IHMeth= 1 ICntrl=     0 DoSepK=T KAlg= 1 I1Cent= 0 FoldK=F
      3 vectors produced by pass  7 Test12= 5.77D-13 3.33D-08 XBig12= 4.49D-11 1.66D-06.
 FoFJK:  IHMeth= 1 ICntrl=     0 DoSepK=T KAlg= 1 I1Cent= 0 FoldK=F
      3 vectors produced by pass  8 Test12= 5.77D-13 3.33D-08 XBig12= 4.75D-13 1.93D-07.
 FoFJK:  IHMeth= 1 ICntrl=     0 DoSepK=T KAlg= 1 I1Cent= 0 FoldK=F
 Inverted reduced A of dimension    27 with in-core refinement.
 Calculating GIAO nuclear magnetic shielding tensors.
 SCF GIAO Magnetic shielding tensor (ppm):
      1  C    Isotropic =    71.1186   Anisotropy =   163.7800
   XX=    12.9775   YX=   -24.1426   ZX=    74.6007
   XY=   -29.6714   YY=    50.8293   ZY=     1.4747
   XZ=    68.5291   YZ=    12.9187   ZZ=   149.5490
   Eigenvalues:   -27.3803    60.4308   180.3053
      2  C    Isotropic =    70.2634   Anisotropy =   176.4422
   XX=    13.0648   YX=   -26.7841   ZX=    79.3369
   XY=   -29.3084   YY=    48.7539   ZY=    -0.3890
   XZ=    83.4659   YZ=     3.0832   ZZ=   148.9713
   Eigenvalues:   -33.2938    56.1923   187.8915
      3  C    Isotropic =    70.0627   Anisotropy =   174.4165
   XX=    74.3382   YX=   -26.6419   ZX=    49.8817
   XY=   -24.7824   YY=   -27.1759   ZY=    -9.2741
   XZ=    47.1887   YZ=   -11.9760   ZZ=   163.0259
   Eigenvalues:   -33.3221    57.1698   186.3404
      4  C    Isotropic =    55.3256   Anisotropy =   180.1321
   XX=    33.5855   YX=    23.0125   ZX=    70.8874
   XY=    16.3990   YY=    -2.5517   ZY=   -18.6665
   XZ=    80.3508   YZ=   -12.6851   ZZ=   134.9431
   Eigenvalues:   -29.5602    20.1234   175.4137
      5  C    Isotropic =    71.0770   Anisotropy =   180.5379
   XX=    68.1061   YX=   -24.0438   ZX=    55.0086
   XY=   -29.5055   YY=   -23.9245   ZY=   -12.3930
   XZ=    46.1642   YZ=    -2.6854   ZZ=   169.0494
   Eigenvalues:   -31.3446    53.1399   191.4356
      6  C    Isotropic =    71.1070   Anisotropy =   177.0564
   XX=    45.5365   YX=    30.2982   ZX=    69.8956
   XY=    31.8941   YY=    16.7615   ZY=   -31.7615
   XZ=    73.9242   YZ=   -36.8047   ZZ=   151.0228
   Eigenvalues:   -31.0464    55.2227   189.1445
      7  C    Isotropic =   122.4101   Anisotropy =    39.2097
   XX=   115.2159   YX=    12.4312   ZX=     7.0794
   XY=    13.3477   YY=   135.9444   ZY=    16.3390
   XZ=     5.3016   YZ=     9.7786   ZZ=   116.0699
   Eigenvalues:   109.0357   109.6446   148.5499
      8  C    Isotropic =   151.5829   Anisotropy =    27.5872
   XX=   155.3920   YX=    12.2377   ZX=     4.1010
   XY=    10.7136   YY=   157.1255   ZY=    -3.5713
   XZ=    17.5667   YZ=     3.8625   ZZ=   142.2312
   Eigenvalues:   134.5295   150.2448   169.9743
      9  C    Isotropic =    20.7005   Anisotropy =    95.1837
   XX=    11.1112   YX=   -70.9836   ZX=    14.1961
   XY=   -68.3564   YY=    16.4298   ZY=     8.2813
   XZ=    39.1236   YZ=    28.3122   ZZ=    34.5605
   Eigenvalues:   -66.0782    44.0234    84.1563
     10  O    Isotropic =   129.6628   Anisotropy =   171.5970
   XX=   180.8415   YX=   -37.2149   ZX=   -51.2461
   XY=   -38.7331   YY=   160.7007   ZY=   -54.5124
   XZ=  -149.4781   YZ=  -161.0885   ZZ=    47.4461
   Eigenvalues:   -63.5194   208.4470   244.0608
     11  C    Isotropic =   136.3396   Anisotropy =    58.0837
   XX=   140.5916   YX=    27.1648   ZX=    16.3085
   XY=    26.0774   YY=   142.4993   ZY=    16.6636
   XZ=     9.6215   YZ=     9.4088   ZZ=   125.9278
   Eigenvalues:   114.8907   119.0660   175.0621
     12  O    Isotropic =   278.8190   Anisotropy =    74.5222
   XX=   292.9770   YX=   -34.9976   ZX=    35.9560
   XY=   -32.8325   YY=   267.3811   ZY=    19.2862
   XZ=    45.5179   YZ=    32.9318   ZZ=   276.0988
   Eigenvalues:   211.4393   296.5172   328.5005
     13  C    Isotropic =   187.0257   Anisotropy =    10.9738
   XX=   187.9293   YX=     4.0137   ZX=    -4.2370
   XY=     4.1119   YY=   186.9738   ZY=    -4.2617
   XZ=    -2.0815   YZ=    -2.9936   ZZ=   186.1741
   Eigenvalues:   182.8400   183.8956   194.3416
     14  O    Isotropic =   -55.8706   Anisotropy =   576.9921
   XX=    61.4588   YX=  -260.2361   ZX=    51.9861
   XY=  -253.5874   YY=    76.8355   ZY=     6.8000
   XZ=    64.8766   YZ=    -6.6625   ZZ=  -305.9060
   Eigenvalues:  -321.6313  -174.7712   328.7909
     15  C    Isotropic =   182.3073   Anisotropy =    22.8910
   XX=   180.6417   YX=    11.7656   ZX=    -3.9831
   XY=    11.3400   YY=   179.5279   ZY=    -2.6121
   XZ=    -8.5292   YZ=    -7.4326   ZZ=   186.7523
   Eigenvalues:   168.4887   180.8652   197.5679
     16  H    Isotropic =    23.9349   Anisotropy =     7.5482
   XX=    24.0026   YX=    -2.6403   ZX=    -0.1962
   XY=    -2.1531   YY=    27.8100   ZY=    -0.3231
   XZ=    -0.8296   YZ=    -0.1519   ZZ=    19.9921
   Eigenvalues:    19.8842    22.9534    28.9671
     17  H    Isotropic =    23.6893   Anisotropy =     5.0582
   XX=    24.1405   YX=    -1.0529   ZX=    -1.6027
   XY=    -1.1990   YY=    26.1519   ZY=     1.0691
   XZ=    -1.4515   YZ=     0.9843   ZZ=    20.7755
   Eigenvalues:    20.1312    23.8752    27.0614
     18  H    Isotropic =    23.8930   Anisotropy =     5.3155
   XX=    25.7559   YX=    -1.2613   ZX=    -2.3106
   XY=    -1.2770   YY=    24.4943   ZY=     0.4436
   XZ=    -2.4354   YZ=     0.5649   ZZ=    21.4287
   Eigenvalues:    20.3804    23.8619    27.4366
     19  H    Isotropic =    23.3530   Anisotropy =     9.5729
   XX=    28.3229   YX=    -1.5872   ZX=    -3.2186
   XY=    -2.3344   YY=    21.1887   ZY=     0.9447
   XZ=    -2.2350   YZ=     1.0405   ZZ=    20.5475
   Eigenvalues:    19.5738    20.7503    29.7350
     20  H    Isotropic =    23.7980   Anisotropy =     4.1065
   XX=    24.9399   YX=     0.9441   ZX=    -1.8289
   XY=     0.9506   YY=    25.5184   ZY=    -0.1419
   XZ=    -1.6464   YZ=    -0.3924   ZZ=    20.9357
   Eigenvalues:    20.2855    24.5728    26.5357
     21  H    Isotropic =    25.8908   Anisotropy =     7.3633
   XX=    25.9510   YX=     4.0923   ZX=    -0.5752
   XY=     4.4279   YY=    26.6744   ZY=    -1.1201
   XZ=    -1.7366   YZ=     0.2567   ZZ=    25.0472
   Eigenvalues:    21.9322    24.9406    30.7997
     22  H    Isotropic =    28.2655   Anisotropy =     6.4479
   XX=    29.9171   YX=    -1.6277   ZX=    -3.6429
   XY=    -1.6978   YY=    28.6594   ZY=     1.6988
   XZ=    -2.8101   YZ=    -0.5002   ZZ=    26.2199
   Eigenvalues:    24.3246    27.9077    32.5640
     23  H    Isotropic =    27.5431   Anisotropy =     5.7615
   XX=    26.7907   YX=     2.1551   ZX=    -1.8106
   XY=     1.4792   YY=    29.5143   ZY=     3.2370
   XZ=    -1.4592   YZ=     2.5970   ZZ=    26.3243
   Eigenvalues:    23.0953    28.1499    31.3841
     24  H    Isotropic =    27.5231   Anisotropy =     7.4156
   XX=    30.2837   YX=     1.6559   ZX=     3.3413
   XY=     2.0836   YY=    24.8897   ZY=    -1.6679
   XZ=     3.2750   YZ=    -2.8198   ZZ=    27.3959
   Eigenvalues:    22.1478    27.9547    32.4669
     25  H    Isotropic =    29.9555   Anisotropy =    15.0826
   XX=    32.7907   YX=    -3.0736   ZX=     9.3468
   XY=    -2.7916   YY=    27.0737   ZY=    -0.6550
   XZ=     6.9673   YZ=     1.1798   ZZ=    30.0022
   Eigenvalues:    22.1800    27.6760    40.0106
     26  H    Isotropic =    30.6503   Anisotropy =    11.0815
   XX=    29.7901   YX=    -2.9611   ZX=     2.4127
   XY=    -1.9607   YY=    31.7261   ZY=    -5.1627
   XZ=     3.2825   YZ=    -5.2910   ZZ=    30.4347
   Eigenvalues:    25.7219    28.1910    38.0379
     27  H    Isotropic =    30.1080   Anisotropy =     8.9407
   XX=    29.2108   YX=     4.1551   ZX=     1.7569
   XY=     4.8620   YY=    33.0398   ZY=    -0.0295
   XZ=     1.6520   YZ=    -0.8132   ZZ=    28.0734
   Eigenvalues:    25.2478    29.0077    36.0685
     28  H    Isotropic =    30.6656   Anisotropy =     6.7141
   XX=    31.0621   YX=    -3.3923   ZX=    -3.6242
   XY=    -1.9882   YY=    28.8281   ZY=     0.7890
   XZ=    -2.6800   YZ=    -1.6468   ZZ=    32.1067
   Eigenvalues:    26.1613    30.6939    35.1417
     29  H    Isotropic =    30.1863   Anisotropy =     7.3581
   XX=    30.1677   YX=    -0.9819   ZX=     1.1075
   XY=    -0.9879   YY=    29.6751   ZY=    -4.1185
   XZ=     2.3697   YZ=    -4.0482   ZZ=    30.7161
   Eigenvalues:    26.0334    29.4337    35.0917
     30  H    Isotropic =    30.3402   Anisotropy =    11.0135
   XX=    31.9694   YX=     5.7341   ZX=     0.6961
   XY=     5.7125   YY=    31.7292   ZY=     0.9857
   XZ=     0.6623   YZ=     0.6607   ZZ=    27.3220
   Eigenvalues:    26.1133    27.2248    37.6826
     31  H    Isotropic =    30.2457   Anisotropy =     8.5830
   XX=    31.2102   YX=    -1.7142   ZX=    -4.3950
   XY=    -1.7179   YY=    29.4270   ZY=     1.5043
   XZ=    -4.0828   YZ=     2.4756   ZZ=    30.0998
   Eigenvalues:    26.3229    28.4465    35.9677
 End of Minotr Frequency-dependent properties file   721 does not exist.
 End of Minotr Frequency-dependent properties file   722 does not exist.

 **********************************************************************

            Population analysis using the SCF density.

 **********************************************************************

 Orbital symmetries:
       Occupied  (A) (A) (A) (A) (A) (A) (A) (A) (A) (A) (A) (A)
                 (A) (A) (A) (A) (A) (A) (A) (A) (A) (A) (A) (A)
                 (A) (A) (A) (A) (A) (A) (A) (A) (A) (A) (A) (A)
                 (A) (A) (A) (A) (A) (A) (A) (A) (A) (A) (A) (A)
                 (A) (A) (A) (A) (A) (A) (A) (A)
       Virtual   (A) (A) (A) (A) (A) (A) (A) (A) (A) (A) (A) (A)
                 (A) (A) (A) (A) (A) (A) (A) (A) (A) (A) (A) (A)
                 (A) (A) (A) (A) (A) (A) (A) (A) (A) (A) (A) (A)
                 (A) (A) (A) (A) (A) (A) (A) (A) (A) (A) (A) (A)
                 (A) (A) (A) (A) (A) (A) (A) (A) (A) (A) (A) (A)
                 (A) (A) (A) (A) (A) (A) (A) (A) (A) (A) (A) (A)
                 (A) (A) (A) (A) (A) (A) (A) (A) (A) (A) (A) (A)
                 (A) (A) (A) (A) (A) (A) (A) (A) (A) (A) (A) (A)
                 (A) (A) (A) (A) (A) (A) (A) (A) (A) (A) (A) (A)
                 (A) (A) (A) (A) (A) (A) (A) (A) (A) (A) (A) (A)
                 (A) (A) (A) (A) (A) (A) (A) (A) (A) (A) (A) (A)
                 (A) (A) (A) (A) (A) (A) (A) (A) (A) (A) (A) (A)
                 (A) (A) (A) (A) (A) (A) (A) (A) (A) (A) (A) (A)
                 (A) (A) (A) (A) (A) (A) (A) (A) (A) (A) (A) (A)
                 (A) (A) (A) (A) (A) (A) (A) (A) (A) (A) (A) (A)
                 (A) (A) (A) (A) (A) (A) (A) (A) (A) (A) (A) (A)
                 (A) (A) (A) (A) (A) (A) (A) (A) (A) (A) (A) (A)
                 (A) (A) (A) (A) (A) (A) (A) (A) (A) (A) (A) (A)
                 (A) (A) (A) (A) (A) (A) (A) (A) (A) (A) (A) (A)
                 (A) (A) (A) (A) (A) (A) (A) (A) (A) (A) (A) (A)
                 (A) (A) (A) (A) (A) (A) (A) (A) (A) (A) (A) (A)
                 (A) (A) (A) (A) (A) (A) (A) (A) (A) (A) (A) (A)
                 (A) (A) (A) (A) (A) (A) (A) (A) (A) (A) (A) (A)
                 (A) (A) (A) (A) (A) (A) (A) (A) (A) (A) (A) (A)
                 (A) (A) (A) (A) (A) (A) (A) (A) (A) (A) (A) (A)
                 (A) (A) (A) (A) (A) (A) (A) (A) (A)
 The electronic state is 1-A.
 Alpha  occ. eigenvalues --  -19.32817 -19.28223 -19.27792 -10.44143 -10.36181
 Alpha  occ. eigenvalues --  -10.35071 -10.32092 -10.31713 -10.30910 -10.30843
 Alpha  occ. eigenvalues --  -10.30777 -10.30762 -10.30645 -10.28885 -10.28374
 Alpha  occ. eigenvalues --   -1.21118  -1.12973  -1.12573  -0.96358  -0.91391
 Alpha  occ. eigenvalues --   -0.86807  -0.85371  -0.84855  -0.78032  -0.75462
 Alpha  occ. eigenvalues --   -0.70539  -0.70158  -0.68223  -0.65063  -0.62639
 Alpha  occ. eigenvalues --   -0.59141  -0.58911  -0.58049  -0.56264  -0.55561
 Alpha  occ. eigenvalues --   -0.54624  -0.53163  -0.51211  -0.50494  -0.49830
 Alpha  occ. eigenvalues --   -0.49167  -0.48036  -0.46831  -0.45720  -0.44692
 Alpha  occ. eigenvalues --   -0.44455  -0.43934  -0.43582  -0.43248  -0.42311
 Alpha  occ. eigenvalues --   -0.40267  -0.38944  -0.37027  -0.36564  -0.33421
 Alpha  occ. eigenvalues --   -0.32607
 Alpha virt. eigenvalues --    0.04828   0.05026   0.06557   0.06854   0.07933
 Alpha virt. eigenvalues --    0.08102   0.08350   0.09468   0.09710   0.10128
 Alpha virt. eigenvalues --    0.10894   0.11194   0.11899   0.12155   0.12362
 Alpha virt. eigenvalues --    0.13592   0.14006   0.14344   0.14867   0.15019
 Alpha virt. eigenvalues --    0.15812   0.16495   0.16909   0.17809   0.18316
 Alpha virt. eigenvalues --    0.18685   0.18878   0.19577   0.20116   0.20293
 Alpha virt. eigenvalues --    0.20759   0.21266   0.21569   0.22440   0.22919
 Alpha virt. eigenvalues --    0.23200   0.23704   0.23825   0.24390   0.25156
 Alpha virt. eigenvalues --    0.25495   0.25741   0.25979   0.26909   0.27122
 Alpha virt. eigenvalues --    0.27400   0.27638   0.28246   0.28571   0.29005
 Alpha virt. eigenvalues --    0.29045   0.30006   0.30483   0.30586   0.31249
 Alpha virt. eigenvalues --    0.31551   0.32378   0.33029   0.33201   0.33844
 Alpha virt. eigenvalues --    0.34012   0.34373   0.34735   0.35366   0.36506
 Alpha virt. eigenvalues --    0.36766   0.37507   0.37754   0.38185   0.38722
 Alpha virt. eigenvalues --    0.39126   0.40103   0.40378   0.41095   0.41619
 Alpha virt. eigenvalues --    0.42340   0.42897   0.43745   0.44109   0.44628
 Alpha virt. eigenvalues --    0.44913   0.45157   0.46149   0.47521   0.47878
 Alpha virt. eigenvalues --    0.48797   0.49572   0.50643   0.51253   0.53414
 Alpha virt. eigenvalues --    0.55845   0.56163   0.60089   0.66413   0.70147
 Alpha virt. eigenvalues --    0.72569   0.74281   0.75887   0.76293   0.76500
 Alpha virt. eigenvalues --    0.77339   0.77934   0.79391   0.80197   0.81192
 Alpha virt. eigenvalues --    0.82247   0.82357   0.83324   0.83766   0.84219
 Alpha virt. eigenvalues --    0.85259   0.86070   0.87656   0.89218   0.90150
 Alpha virt. eigenvalues --    0.90894   0.91864   0.92334   0.95541   0.97260
 Alpha virt. eigenvalues --    0.98223   0.99259   1.00206   1.02009   1.02334
 Alpha virt. eigenvalues --    1.03326   1.04042   1.05333   1.06266   1.07484
 Alpha virt. eigenvalues --    1.08110   1.09287   1.10511   1.11225   1.12941
 Alpha virt. eigenvalues --    1.13740   1.16664   1.16708   1.18880   1.20276
 Alpha virt. eigenvalues --    1.20713   1.21201   1.22129   1.22736   1.24288
 Alpha virt. eigenvalues --    1.24561   1.26789   1.27138   1.28370   1.31190
 Alpha virt. eigenvalues --    1.33559   1.34964   1.35583   1.36038   1.38431
 Alpha virt. eigenvalues --    1.38825   1.40783   1.41536   1.43613   1.44330
 Alpha virt. eigenvalues --    1.46996   1.47503   1.48618   1.49285   1.50527
 Alpha virt. eigenvalues --    1.51005   1.51481   1.52215   1.53552   1.54515
 Alpha virt. eigenvalues --    1.55809   1.57601   1.58231   1.61733   1.63449
 Alpha virt. eigenvalues --    1.68534   1.71313   1.73307   1.76613   1.78676
 Alpha virt. eigenvalues --    1.81076   1.82836   1.86270   1.86667   1.89220
 Alpha virt. eigenvalues --    1.89784   1.91219   1.92346   1.92901   1.95394
 Alpha virt. eigenvalues --    1.97048   1.98192   1.99243   2.01049   2.02123
 Alpha virt. eigenvalues --    2.02177   2.03451   2.04799   2.05539   2.05877
 Alpha virt. eigenvalues --    2.06477   2.08345   2.09186   2.10447   2.10711
 Alpha virt. eigenvalues --    2.11835   2.13793   2.15603   2.17547   2.18050
 Alpha virt. eigenvalues --    2.18616   2.20061   2.20688   2.21089   2.21800
 Alpha virt. eigenvalues --    2.24508   2.25889   2.26762   2.27588   2.28752
 Alpha virt. eigenvalues --    2.33657   2.33737   2.37081   2.38766   2.39104
 Alpha virt. eigenvalues --    2.42261   2.42571   2.44575   2.47161   2.48288
 Alpha virt. eigenvalues --    2.49272   2.50780   2.52164   2.53848   2.55626
 Alpha virt. eigenvalues --    2.56339   2.56547   2.57685   2.59782   2.60642
 Alpha virt. eigenvalues --    2.63375   2.64454   2.66461   2.68060   2.68774
 Alpha virt. eigenvalues --    2.69334   2.70748   2.71746   2.73157   2.74519
 Alpha virt. eigenvalues --    2.76223   2.78797   2.80623   2.81834   2.83763
 Alpha virt. eigenvalues --    2.84556   2.84979   2.86419   2.87994   2.89247
 Alpha virt. eigenvalues --    2.90541   2.92135   2.95557   2.96236   2.97324
 Alpha virt. eigenvalues --    2.98233   2.99606   3.03519   3.03846   3.11742
 Alpha virt. eigenvalues --    3.13029   3.16669   3.17558   3.19626   3.27818
 Alpha virt. eigenvalues --    3.29803   3.32427   3.36903   3.37225   3.38844
 Alpha virt. eigenvalues --    3.39635   3.44466   3.45442   3.50003   3.52239
 Alpha virt. eigenvalues --    3.53710   3.57410   3.59152   3.60907   3.62873
 Alpha virt. eigenvalues --    3.63913   3.64776   3.66992   3.99546   4.39617
 Alpha virt. eigenvalues --    4.41442   4.43262   4.48579   4.53764   4.56061
 Alpha virt. eigenvalues --    4.59179   4.61721   4.64173   4.70145   4.75804
 Alpha virt. eigenvalues --    4.78350   4.81198   4.93396   4.97978
          Condensed to atoms (all electrons):
              1          2          3          4          5          6
     1  C   17.582654  -0.562249  -0.426790  -4.188482  -8.344288   0.147676
     2  C   -0.562249   7.614720   0.172159  -0.132060  -0.553041   0.626826
     3  C   -0.426790   0.172159   6.626818  -0.221933  -0.247952   0.463765
     4  C   -4.188482  -0.132060  -0.221933  16.008432  -1.555230  -1.032461
     5  C   -8.344288  -0.553041  -0.247952  -1.555230  16.581888   0.099773
     6  C    0.147676   0.626826   0.463765  -1.032461   0.099773   5.573619
     7  C    1.817214  -1.554398  -0.496598  -3.287963  -0.455885  -0.029347
     8  C   -0.371418   0.249022   0.196085   0.022548   0.474134   0.008191
     9  C   -0.269260   0.089413  -0.177562   0.488111  -0.077509  -0.024766
    10  O    0.151915   0.003695   0.007497  -0.111331  -0.050907   0.003000
    11  C    0.107895   0.015574   0.022985  -0.039725  -0.025679   0.001060
    12  O   -0.147047   0.148272  -0.003054  -0.160609   0.245489   0.017738
    13  C   -0.032293  -0.077507  -0.000322   0.037394  -0.063558  -0.011588
    14  O   -0.007217   0.005837   0.002177   0.030449  -0.027111  -0.000032
    15  C    0.010553   0.000096  -0.009771  -0.006764  -0.004378  -0.001090
    16  H    0.113461   0.011324   0.051737   0.160314   0.016682  -0.015584
    17  H    0.007716   0.268507  -0.005819   0.036785   0.016821   0.008619
    18  H    0.011124  -0.007706   0.263479   0.025805   0.007802   0.028508
    19  H    0.051098  -0.042401  -0.000601   0.114075   0.219621  -0.007073
    20  H   -0.006888   0.033043   0.037313   0.009777  -0.012368   0.263519
    21  H    0.189329   0.020152   0.061046  -0.022090  -0.076623   0.002799
    22  H    0.002552   0.002446  -0.001270   0.046753  -0.013922  -0.000317
    23  H    0.009307   0.000556   0.006614  -0.009162  -0.003098   0.000542
    24  H   -0.003486   0.000010  -0.001068   0.003196   0.000554  -0.000052
    25  H    0.022362  -0.008428  -0.001996   0.006499  -0.042020   0.000393
    26  H   -0.006503  -0.002030  -0.001170  -0.021749   0.015056   0.000529
    27  H   -0.014165   0.007179   0.000775  -0.034275   0.052481   0.000557
    28  H    0.037883   0.013730  -0.003427   0.043652  -0.079168   0.000262
    29  H   -0.003717   0.000088  -0.002889   0.005928   0.000087  -0.000342
    30  H   -0.000085   0.000001  -0.000477   0.000697   0.000048  -0.000033
    31  H    0.001284  -0.000006   0.000510  -0.001453  -0.000069   0.000040
              7          8          9         10         11         12
     1  C    1.817214  -0.371418  -0.269260   0.151915   0.107895  -0.147047
     2  C   -1.554398   0.249022   0.089413   0.003695   0.015574   0.148272
     3  C   -0.496598   0.196085  -0.177562   0.007497   0.022985  -0.003054
     4  C   -3.287963   0.022548   0.488111  -0.111331  -0.039725  -0.160609
     5  C   -0.455885   0.474134  -0.077509  -0.050907  -0.025679   0.245489
     6  C   -0.029347   0.008191  -0.024766   0.003000   0.001060   0.017738
     7  C   10.928165  -0.944362  -0.163210  -0.053696  -0.123304  -0.042866
     8  C   -0.944362   7.939555  -1.340610  -0.364878   0.031466  -0.022787
     9  C   -0.163210  -1.340610   6.756658   0.360219  -0.192675   0.074527
    10  O   -0.053696  -0.364878   0.360219   8.519308   0.024590  -0.001222
    11  C   -0.123304   0.031466  -0.192675   0.024590   5.393888   0.000460
    12  O   -0.042866  -0.022787   0.074527  -0.001222   0.000460   8.307537
    13  C    0.177035  -0.057964  -0.033925   0.032423  -0.015718  -0.057932
    14  O   -0.002697  -0.093295   0.617803  -0.163150  -0.060554  -0.001739
    15  C    0.009970  -0.061289   0.072516  -0.022381   0.103497   0.000704
    16  H   -0.033916   0.012580   0.004084   0.000195  -0.001640   0.000145
    17  H   -0.006399   0.000110  -0.000363   0.000002   0.000004   0.000153
    18  H   -0.002048  -0.000703   0.001093  -0.000026  -0.000337   0.000025
    19  H   -0.011703  -0.010450  -0.002787   0.000000  -0.000030   0.003740
    20  H    0.001847   0.000182  -0.000080   0.000000   0.000025  -0.000004
    21  H    0.034950   0.163114  -0.105033   0.018567   0.009857  -0.040443
    22  H   -0.028498   0.298806   0.027626   0.000152  -0.000063  -0.005996
    23  H   -0.005227  -0.006090  -0.028707  -0.036498   0.407180  -0.000011
    24  H    0.000188  -0.012179   0.006851  -0.042406   0.400869   0.000009
    25  H    0.037409   0.004820  -0.002614   0.000289   0.000146   0.236456
    26  H    0.032851  -0.113204   0.039170  -0.000830   0.001241   0.000261
    27  H   -0.052040  -0.017087  -0.012992  -0.000049  -0.000329   0.009106
    28  H    0.028626  -0.104000   0.019809   0.000393   0.000449  -0.004632
    29  H    0.000967  -0.006463   0.006371  -0.002561  -0.062684   0.000003
    30  H   -0.000168   0.000426   0.001633   0.007346  -0.060908   0.000000
    31  H   -0.000506  -0.002634  -0.004670  -0.002623  -0.058326   0.000001
             13         14         15         16         17         18
     1  C   -0.032293  -0.007217   0.010553   0.113461   0.007716   0.011124
     2  C   -0.077507   0.005837   0.000096   0.011324   0.268507  -0.007706
     3  C   -0.000322   0.002177  -0.009771   0.051737  -0.005819   0.263479
     4  C    0.037394   0.030449  -0.006764   0.160314   0.036785   0.025805
     5  C   -0.063558  -0.027111  -0.004378   0.016682   0.016821   0.007802
     6  C   -0.011588  -0.000032  -0.001090  -0.015584   0.008619   0.028508
     7  C    0.177035  -0.002697   0.009970  -0.033916  -0.006399  -0.002048
     8  C   -0.057964  -0.093295  -0.061289   0.012580   0.000110  -0.000703
     9  C   -0.033925   0.617803   0.072516   0.004084  -0.000363   0.001093
    10  O    0.032423  -0.163150  -0.022381   0.000195   0.000002  -0.000026
    11  C   -0.015718  -0.060554   0.103497  -0.001640   0.000004  -0.000337
    12  O   -0.057932  -0.001739   0.000704   0.000145   0.000153   0.000025
    13  C    5.448748  -0.010172   0.000598   0.000329   0.000527   0.000034
    14  O   -0.010172   8.144454   0.011488  -0.000505   0.000000  -0.000042
    15  C    0.000598   0.011488   5.311739  -0.003798  -0.000001  -0.000169
    16  H    0.000329  -0.000505  -0.003798   0.511661   0.000011  -0.004064
    17  H    0.000527   0.000000  -0.000001   0.000011   0.495466  -0.000121
    18  H    0.000034  -0.000042  -0.000169  -0.004064  -0.000121   0.496552
    19  H    0.005612  -0.000007  -0.000006  -0.000115  -0.004053   0.000011
    20  H    0.000001   0.000004   0.000006  -0.000124  -0.003856  -0.003905
    21  H   -0.016045  -0.000046  -0.002443   0.001327   0.000002  -0.000002
    22  H   -0.033262   0.002752  -0.000472  -0.000012   0.000000   0.000000
    23  H    0.001169   0.003721  -0.011377   0.000075   0.000000  -0.000004
    24  H    0.001103   0.001594  -0.024283   0.000004   0.000000   0.000000
    25  H   -0.001141   0.000027  -0.000068   0.000041  -0.000001   0.000000
    26  H    0.418562  -0.001156   0.000046   0.000000   0.000000   0.000000
    27  H    0.421291   0.001508  -0.000061   0.000000   0.000000   0.000000
    28  H    0.403575  -0.000333  -0.000013  -0.000003  -0.000015   0.000000
    29  H    0.000029  -0.000202   0.427101   0.000172   0.000000   0.000000
    30  H    0.000044   0.000125   0.418163   0.000000   0.000000   0.000000
    31  H    0.000146  -0.000035   0.431820   0.000001   0.000000   0.000000
             19         20         21         22         23         24
     1  C    0.051098  -0.006888   0.189329   0.002552   0.009307  -0.003486
     2  C   -0.042401   0.033043   0.020152   0.002446   0.000556   0.000010
     3  C   -0.000601   0.037313   0.061046  -0.001270   0.006614  -0.001068
     4  C    0.114075   0.009777  -0.022090   0.046753  -0.009162   0.003196
     5  C    0.219621  -0.012368  -0.076623  -0.013922  -0.003098   0.000554
     6  C   -0.007073   0.263519   0.002799  -0.000317   0.000542  -0.000052
     7  C   -0.011703   0.001847   0.034950  -0.028498  -0.005227   0.000188
     8  C   -0.010450   0.000182   0.163114   0.298806  -0.006090  -0.012179
     9  C   -0.002787  -0.000080  -0.105033   0.027626  -0.028707   0.006851
    10  O    0.000000   0.000000   0.018567   0.000152  -0.036498  -0.042406
    11  C   -0.000030   0.000025   0.009857  -0.000063   0.407180   0.400869
    12  O    0.003740  -0.000004  -0.040443  -0.005996  -0.000011   0.000009
    13  C    0.005612   0.000001  -0.016045  -0.033262   0.001169   0.001103
    14  O   -0.000007   0.000004  -0.000046   0.002752   0.003721   0.001594
    15  C   -0.000006   0.000006  -0.002443  -0.000472  -0.011377  -0.024283
    16  H   -0.000115  -0.000124   0.001327  -0.000012   0.000075   0.000004
    17  H   -0.004053  -0.003856   0.000002   0.000000   0.000000   0.000000
    18  H    0.000011  -0.003905  -0.000002   0.000000  -0.000004   0.000000
    19  H    0.500057  -0.000119  -0.000048  -0.000017   0.000000   0.000000
    20  H   -0.000119   0.498106   0.000000   0.000000   0.000000   0.000000
    21  H   -0.000048   0.000000   0.610872  -0.005692   0.000047  -0.000016
    22  H   -0.000017   0.000000  -0.005692   0.500662  -0.000018   0.000051
    23  H    0.000000   0.000000   0.000047  -0.000018   0.532157  -0.033638
    24  H    0.000000   0.000000  -0.000016   0.000051  -0.033638   0.528337
    25  H   -0.000902   0.000000  -0.004438   0.000074   0.000000   0.000000
    26  H    0.000055   0.000000  -0.000098  -0.003964   0.000001  -0.000002
    27  H   -0.000354   0.000000   0.000048  -0.002092   0.000000   0.000000
    28  H   -0.000599   0.000000  -0.000113   0.003989  -0.000003   0.000001
    29  H    0.000000   0.000000  -0.000031   0.000004  -0.005242   0.004007
    30  H    0.000000   0.000000   0.000000   0.000000  -0.001655  -0.001653
    31  H    0.000000   0.000000   0.000005  -0.000006   0.004020  -0.005057
             25         26         27         28         29         30
     1  C    0.022362  -0.006503  -0.014165   0.037883  -0.003717  -0.000085
     2  C   -0.008428  -0.002030   0.007179   0.013730   0.000088   0.000001
     3  C   -0.001996  -0.001170   0.000775  -0.003427  -0.002889  -0.000477
     4  C    0.006499  -0.021749  -0.034275   0.043652   0.005928   0.000697
     5  C   -0.042020   0.015056   0.052481  -0.079168   0.000087   0.000048
     6  C    0.000393   0.000529   0.000557   0.000262  -0.000342  -0.000033
     7  C    0.037409   0.032851  -0.052040   0.028626   0.000967  -0.000168
     8  C    0.004820  -0.113204  -0.017087  -0.104000  -0.006463   0.000426
     9  C   -0.002614   0.039170  -0.012992   0.019809   0.006371   0.001633
    10  O    0.000289  -0.000830  -0.000049   0.000393  -0.002561   0.007346
    11  C    0.000146   0.001241  -0.000329   0.000449  -0.062684  -0.060908
    12  O    0.236456   0.000261   0.009106  -0.004632   0.000003   0.000000
    13  C   -0.001141   0.418562   0.421291   0.403575   0.000029   0.000044
    14  O    0.000027  -0.001156   0.001508  -0.000333  -0.000202   0.000125
    15  C   -0.000068   0.000046  -0.000061  -0.000013   0.427101   0.418163
    16  H    0.000041   0.000000   0.000000  -0.000003   0.000172   0.000000
    17  H   -0.000001   0.000000   0.000000  -0.000015   0.000000   0.000000
    18  H    0.000000   0.000000   0.000000   0.000000   0.000000   0.000000
    19  H   -0.000902   0.000055  -0.000354  -0.000599   0.000000   0.000000
    20  H    0.000000   0.000000   0.000000   0.000000   0.000000   0.000000
    21  H   -0.004438  -0.000098   0.000048  -0.000113  -0.000031   0.000000
    22  H    0.000074  -0.003964  -0.002092   0.003989   0.000004   0.000000
    23  H    0.000000   0.000001   0.000000  -0.000003  -0.005242  -0.001655
    24  H    0.000000  -0.000002   0.000000   0.000001   0.004007  -0.001653
    25  H    0.361188   0.000002  -0.000150   0.000004   0.000000   0.000000
    26  H    0.000002   0.517622  -0.024699  -0.023754   0.000000   0.000000
    27  H   -0.000150  -0.024699   0.512165  -0.025599   0.000000   0.000000
    28  H    0.000004  -0.023754  -0.025599   0.506223   0.000000   0.000000
    29  H    0.000000   0.000000   0.000000   0.000000   0.516549  -0.022614
    30  H    0.000000   0.000000   0.000000   0.000000  -0.022614   0.500606
    31  H    0.000000   0.000000   0.000000   0.000000  -0.028644  -0.022579
             31
     1  C    0.001284
     2  C   -0.000006
     3  C    0.000510
     4  C   -0.001453
     5  C   -0.000069
     6  C    0.000040
     7  C   -0.000506
     8  C   -0.002634
     9  C   -0.004670
    10  O   -0.002623
    11  C   -0.058326
    12  O    0.000001
    13  C    0.000146
    14  O   -0.000035
    15  C    0.431820
    16  H    0.000001
    17  H    0.000000
    18  H    0.000000
    19  H    0.000000
    20  H    0.000000
    21  H    0.000005
    22  H   -0.000006
    23  H    0.004020
    24  H   -0.005057
    25  H    0.000000
    26  H    0.000000
    27  H    0.000000
    28  H    0.000000
    29  H   -0.028644
    30  H   -0.022579
    31  H    0.512384
 Mulliken atomic charges:
              1
     1  C    0.119865
     2  C   -0.342824
     3  C   -0.310260
     4  C   -0.215129
     5  C   -0.097630
     6  C   -0.124733
     7  C    0.225609
     8  C    0.128374
     9  C   -0.129120
    10  O   -0.277033
    11  C    0.120789
    12  O   -0.556284
    13  C   -0.537192
    14  O   -0.453644
    15  C   -0.649934
    16  H    0.175620
    17  H    0.185905
    18  H    0.184693
    19  H    0.186996
    20  H    0.183521
    21  H    0.161045
    22  H    0.209733
    23  H    0.175343
    24  H    0.177064
    25  H    0.392048
    26  H    0.173763
    27  H    0.178782
    28  H    0.183064
    29  H    0.174084
    30  H    0.181082
    31  H    0.176401
 Sum of Mulliken atomic charges =   0.00000
 Mulliken charges with hydrogens summed into heavy atoms:
              1
     1  C    0.295485
     2  C   -0.156919
     3  C   -0.125566
     4  C   -0.215129
     5  C    0.089367
     6  C    0.058788
     7  C    0.386653
     8  C    0.338108
     9  C   -0.129120
    10  O   -0.277033
    11  C    0.473196
    12  O   -0.164237
    13  C   -0.001584
    14  O   -0.453644
    15  C   -0.118366
 Sum of Mulliken charges with hydrogens summed into heavy atoms =   0.00000
 Electronic spatial extent (au):  <R**2>=           3498.6259
 Charge=              0.0000 electrons
 Dipole moment (field-independent basis, Debye):
    X=             -0.0661    Y=             -2.3145    Z=              2.0211  Tot=              3.0735
 Quadrupole moment (field-independent basis, Debye-Ang):
   XX=            -75.6095   YY=            -85.5533   ZZ=            -98.5362
   XY=              2.5135   XZ=             -3.9333   YZ=             -1.5654
 Traceless Quadrupole moment (field-independent basis, Debye-Ang):
   XX=             10.9568   YY=              1.0130   ZZ=            -11.9699
   XY=              2.5135   XZ=             -3.9333   YZ=             -1.5654
 Octapole moment (field-independent basis, Debye-Ang**2):
  XXX=            -22.1980  YYY=            -19.2647  ZZZ=             26.0295  XYY=            -11.4311
  XXY=            -10.0748  XXZ=             -7.3487  XZZ=              8.2554  YZZ=             -1.6707
  YYZ=            -14.1039  XYZ=              3.8496
 Hexadecapole moment (field-independent basis, Debye-Ang**3):
 XXXX=          -2528.3677 YYYY=          -1285.7950 ZZZZ=           -593.3738 XXXY=             61.1675
 XXXZ=            -35.3454 YYYX=            -27.1077 YYYZ=            -15.1752 ZZZX=             11.7492
 ZZZY=             12.4196 XXYY=           -624.4748 XXZZ=           -566.4958 YYZZ=           -343.0857
 XXYZ=             40.3515 YYXZ=            -12.8663 ZZXY=             19.8597
 N-N= 1.017108529141D+03 E-N=-3.645974264759D+03  KE= 6.858847212232D+02
 1\1\GINC-COMPUTE-8-6\SP\RwB97XD\6-31+G(d,p)\C12H16O3\ELUCIANO.IQUIR\17
 -May-2022\0\\# wb97xd/6-31+g** scrf=(pcm,solvent=chloroform,smd,dovacu
 um) nmr\\comment\\0,1\C,0,0.546995763,-1.393994283,-0.97138364\C,0,0.4
 21400744,-3.490413463,0.861228123\C,0,1.490729753,-2.42181371,-1.01734
 3455\C,0,-0.473152097,-1.400200787,-0.006967131\C,0,-0.522757386,-2.46
 3410022,0.908434174\C,0,1.427571326,-3.469212378,-0.10142118\C,0,-1.48
 6620597,-0.271251,0.030149457\C,0,-1.192704364,0.862432687,1.026870698
 \C,0,0.099368942,1.573755104,0.677292206\O,0,0.031127142,2.087898569,-
 0.585411177\C,0,1.205011386,2.801135397,-0.994463878\O,0,-2.795963324,
 -0.797607703,0.285173595\C,0,-1.19688993,0.425344423,2.49378765\O,0,1.
 056969294,1.710160144,1.42662529\C,0,1.000770329,3.264157311,-2.423592
 529\H,0,0.616839318,-0.58611231,-1.697202902\H,0,0.373720985,-4.304772
 646,1.57970524\H,0,2.277863388,-2.403755658,-1.766845617\H,0,-1.297844
 165,-2.495087235,1.672339469\H,0,2.164665872,-4.267211306,-0.135369421
 \H,0,-1.552511157,0.151018817,-0.980663524\H,0,-1.994291316,1.60953372
 1,0.939621598\H,0,2.07793949,2.140767241,-0.941972968\H,0,1.355596361,
 3.667735358,-0.34123536\H,0,-2.86319453,-1.636402675,-0.204698105\H,0,
 -1.105035514,1.298059741,3.150684553\H,0,-2.127391899,-0.088116025,2.7
 55203441\H,0,-0.356440234,-0.236146883,2.72695773\H,0,0.826303991,2.40
 8428534,-3.084288619\H,0,1.873307254,3.816431222,-2.783439209\H,0,0.11
 8615176,3.908649817,-2.497774509\\Version=EM64L-G09RevC.01\State=1-A\H
 F=-692.4450238\RMSD=3.196e-09\Dipole=0.1306553,-0.249091,-1.1760306\Qu
 adrupole=-4.8517751,6.3540243,-1.5022492,-0.4953,-5.2292878,-5.0778551
 \PG=C01 [X(C12H16O3)]\\@


 QED = W**5 (WHICH WAS WHAT WE WANTED)
 Job cpu time:  0 days  2 hours 22 minutes  4.9 seconds.
 File lengths (MBytes):  RWF=    124 Int=      0 D2E=      0 Chk=      9 Scr=      1
 Normal termination of Gaussian 09 at Tue May 17 16:02:30 2022.
