 Entering Gaussian System, Link 0=g09
 Input=/home/eluciano.iquir/wb9/73b_015.gjc
 Output=/home/eluciano.iquir/wb9/73b_015.log
 Initial command:
 /share/apps/Gaussian09/EM64T.SSE4.2-enabled/g09/l1.exe /tmp/Gau-11434.inp -scrdir=/tmp/
 Entering Link 1 = /share/apps/Gaussian09/EM64T.SSE4.2-enabled/g09/l1.exe PID=     11435.
  
 Copyright (c) 1988,1990,1992,1993,1995,1998,2003,2009,2011,
            Gaussian, Inc.  All Rights Reserved.
  
 This is part of the Gaussian(R) 09 program.  It is based on
 the Gaussian(R) 03 system (copyright 2003, Gaussian, Inc.),
 the Gaussian(R) 98 system (copyright 1998, Gaussian, Inc.),
 the Gaussian(R) 94 system (copyright 1995, Gaussian, Inc.),
 the Gaussian 92(TM) system (copyright 1992, Gaussian, Inc.),
 the Gaussian 90(TM) system (copyright 1990, Gaussian, Inc.),
 the Gaussian 88(TM) system (copyright 1988, Gaussian, Inc.),
 the Gaussian 86(TM) system (copyright 1986, Carnegie Mellon
 University), and the Gaussian 82(TM) system (copyright 1983,
 Carnegie Mellon University). Gaussian is a federally registered
 trademark of Gaussian, Inc.
  
 This software contains proprietary and confidential information,
 including trade secrets, belonging to Gaussian, Inc.
  
 This software is provided under written license and may be
 used, copied, transmitted, or stored only in accord with that
 written license.
  
 The following legend is applicable only to US Government
 contracts under FAR:
  
                    RESTRICTED RIGHTS LEGEND
  
 Use, reproduction and disclosure by the US Government is
 subject to restrictions as set forth in subparagraphs (a)
 and (c) of the Commercial Computer Software - Restricted
 Rights clause in FAR 52.227-19.
  
 Gaussian, Inc.
 340 Quinnipiac St., Bldg. 40, Wallingford CT 06492
  
  
 ---------------------------------------------------------------
 Warning -- This program may not be used in any manner that
 competes with the business of Gaussian, Inc. or will provide
 assistance to any competitor of Gaussian, Inc.  The licensee
 of this program is prohibited from giving any competitor of
 Gaussian, Inc. access to this program.  By using this program,
 the user acknowledges that Gaussian, Inc. is engaged in the
 business of creating and licensing software in the field of
 computational chemistry and represents and warrants to the
 licensee that it is not a competitor of Gaussian, Inc. and that
 it will not use this program in any manner prohibited above.
 ---------------------------------------------------------------
  

 Cite this work as:
 Gaussian 09, Revision C.01,
 M. J. Frisch, G. W. Trucks, H. B. Schlegel, G. E. Scuseria, 
 M. A. Robb, J. R. Cheeseman, G. Scalmani, V. Barone, B. Mennucci, 
 G. A. Petersson, H. Nakatsuji, M. Caricato, X. Li, H. P. Hratchian, 
 A. F. Izmaylov, J. Bloino, G. Zheng, J. L. Sonnenberg, M. Hada, 
 M. Ehara, K. Toyota, R. Fukuda, J. Hasegawa, M. Ishida, T. Nakajima, 
 Y. Honda, O. Kitao, H. Nakai, T. Vreven, J. A. Montgomery, Jr., 
 J. E. Peralta, F. Ogliaro, M. Bearpark, J. J. Heyd, E. Brothers, 
 K. N. Kudin, V. N. Staroverov, T. Keith, R. Kobayashi, J. Normand, 
 K. Raghavachari, A. Rendell, J. C. Burant, S. S. Iyengar, J. Tomasi, 
 M. Cossi, N. Rega, J. M. Millam, M. Klene, J. E. Knox, J. B. Cross, 
 V. Bakken, C. Adamo, J. Jaramillo, R. Gomperts, R. E. Stratmann, 
 O. Yazyev, A. J. Austin, R. Cammi, C. Pomelli, J. W. Ochterski, 
 R. L. Martin, K. Morokuma, V. G. Zakrzewski, G. A. Voth, 
 P. Salvador, J. J. Dannenberg, S. Dapprich, A. D. Daniels, 
 O. Farkas, J. B. Foresman, J. V. Ortiz, J. Cioslowski, 
 and D. J. Fox, Gaussian, Inc., Wallingford CT, 2010.
 
 ******************************************
 Gaussian 09:  EM64L-G09RevC.01 23-Sep-2011
                17-May-2022 
 ******************************************
 %nprocshared=4
 Will use up to    4 processors via shared memory.
 ----------------------------------------------------------------
 # wb97xd/6-31+g** scrf=(pcm,solvent=chloroform,smd,dovacuum) nmr
 ----------------------------------------------------------------
 1/38=1/1;
 2/12=2,17=6,18=5,40=1/2;
 3/5=1,6=6,7=111,11=2,16=1,25=1,30=1,70=32101,72=7,74=-58/1,2,8,3;
 4//1;
 5/5=2,38=5,53=7/2;
 8/6=1,10=90,11=11/1;
 10/13=100,45=16/2;
 6/7=2,8=2,9=2,10=2,28=1/1;
 99/9=1/99;
 -------
 comment
 -------
 Charge =  0 Multiplicity = 1
 Symbolic Z-Matrix:
 6                    -1.99264  -0.38332  -1.2989 
 6                     0.19056  -0.58806  -3.01519 
 6                    -2.0457    0.19237  -2.56988 
 6                    -0.84519  -1.06959  -0.86597 
 6                     0.24478  -1.16474  -1.74423 
 6                    -0.95326   0.091    -3.42709 
 6                    -0.8079   -1.6525    0.53734 
 6                    -0.64632  -0.58144   1.63238 
 6                     0.66545   0.14497   1.44314 
 8                     0.47927   1.49155   1.48101 
 6                     1.65074   2.29072   1.26241 
 8                     0.16576  -2.69217   0.6541 
 6                    -0.6779   -1.17538   3.03813 
 8                     1.74038  -0.4238    1.28803 
 6                     1.88437   2.47957  -0.22509 
 1                    -2.85909  -0.29419  -0.64673 
 1                     1.04338  -0.67283  -3.68385 
 1                    -2.94101   0.71797  -2.89166 
 1                     1.15053  -1.69035  -1.4498 
 1                    -0.99415   0.53661  -4.41737 
 1                    -1.77033  -2.15698   0.69349 
 1                    -1.46468   0.14478   1.5436 
 1                     2.52729   1.8548    1.75522 
 1                     1.46703   3.26241   1.73234 
 1                     1.03577  -2.2648    0.78664 
 1                    -0.59473  -0.38469   3.79207 
 1                    -1.61627  -1.71164   3.21244 
 1                     0.15106  -1.87149   3.20618 
 1                     2.08346   1.52208  -0.71651 
 1                     2.73373   3.14516  -0.4027 
 1                     0.99557   2.90398  -0.70352 
 
                          Input orientation:                          
 ---------------------------------------------------------------------
 Center     Atomic      Atomic             Coordinates (Angstroms)
 Number     Number       Type             X           Y           Z
 ---------------------------------------------------------------------
      1          6           0       -1.992637   -0.383324   -1.298898
      2          6           0        0.190562   -0.588065   -3.015191
      3          6           0       -2.045696    0.192366   -2.569880
      4          6           0       -0.845186   -1.069586   -0.865972
      5          6           0        0.244785   -1.164745   -1.744232
      6          6           0       -0.953256    0.091000   -3.427093
      7          6           0       -0.807901   -1.652496    0.537336
      8          6           0       -0.646321   -0.581439    1.632377
      9          6           0        0.665452    0.144974    1.443143
     10          8           0        0.479271    1.491550    1.481005
     11          6           0        1.650741    2.290722    1.262410
     12          8           0        0.165764   -2.692165    0.654099
     13          6           0       -0.677899   -1.175380    3.038129
     14          8           0        1.740376   -0.423799    1.288029
     15          6           0        1.884368    2.479572   -0.225095
     16          1           0       -2.859087   -0.294191   -0.646734
     17          1           0        1.043378   -0.672833   -3.683850
     18          1           0       -2.941009    0.717965   -2.891655
     19          1           0        1.150529   -1.690355   -1.449802
     20          1           0       -0.994145    0.536613   -4.417366
     21          1           0       -1.770327   -2.156980    0.693489
     22          1           0       -1.464680    0.144781    1.543600
     23          1           0        2.527288    1.854798    1.755216
     24          1           0        1.467032    3.262413    1.732338
     25          1           0        1.035766   -2.264803    0.786638
     26          1           0       -0.594728   -0.384691    3.792069
     27          1           0       -1.616269   -1.711639    3.212439
     28          1           0        0.151060   -1.871490    3.206183
     29          1           0        2.083463    1.522083   -0.716512
     30          1           0        2.733734    3.145163   -0.402700
     31          1           0        0.995570    2.903980   -0.703523
 ---------------------------------------------------------------------
                    Distance matrix (angstroms):
                    1          2          3          4          5
     1  C    0.000000
     2  C    2.784590   0.000000
     3  C    1.396292   2.410026   0.000000
     4  C    1.405356   2.433882   2.436607   0.000000
     5  C    2.411431   1.396723   2.787427   1.403009   0.000000
     6  C    2.415473   1.392520   1.392305   2.813890   2.417481
     7  C    2.527084   3.840624   3.819744   1.520016   2.559610
     8  C    3.231747   4.722320   4.496219   2.553347   3.540594
     9  C    3.855299   4.543084   4.843235   3.014829   3.471554
    10  O    4.165735   4.962251   4.947020   3.717782   4.184859
    11  C    5.194711   5.358862   5.723040   4.695884   4.791332
    12  O    3.715325   4.229840   4.858510   2.442417   2.844512
    13  C    4.600618   6.143439   5.932230   3.909115   4.870568
    14  O    4.541940   4.576747   5.440356   3.426645   3.461272
    15  C    4.937651   4.479287   5.116124   4.523020   4.275167
    16  H    1.088116   3.872507   2.144022   2.169124   3.405347
    17  H    3.871589   1.087007   3.395862   3.415336   2.154494
    18  H    2.156183   3.395248   1.086912   3.419241   3.874333
    19  H    3.407432   2.141733   3.874928   2.170043   1.087808
    20  H    3.401193   2.152795   2.153479   3.900573   3.402236
    21  H    2.676729   4.478938   4.030488   2.114292   3.314769
    22  H    2.938950   4.905045   4.154583   2.768483   3.930263
    23  H    5.896315   5.846764   6.510170   5.176507   5.154959
    24  H    5.869336   6.244565   6.346142   5.555518   5.760222
    25  H    4.130454   4.240251   5.176804   2.774462   2.870729
    26  H    5.279403   6.855424   6.550778   4.714781   5.653663
    27  H    4.717863   6.581067   6.102856   4.200028   5.322707
    28  H    5.206326   6.352499   6.515224   4.268255   5.001489
    29  H    4.536998   3.649620   4.717317   3.913575   3.414087
    30  H    5.965901   5.218220   6.021514   5.548639   5.154598
    31  H    4.482212   4.264531   4.481678   4.382237   4.266295
                    6          7          8          9         10
     6  C    0.000000
     7  C    4.333313   0.000000
     8  C    5.113181   1.540256   0.000000
     9  C    5.132477   2.494425   1.511368   0.000000
    10  O    5.301235   3.525954   2.363716   1.359913   0.000000
    11  C    5.797501   4.703150   3.696306   2.368057   1.434853
    12  O    5.065011   1.429185   2.464077   2.986911   4.276159
    13  C    6.593832   2.549216   1.526401   2.468179   3.297907
    14  O    5.454636   2.926936   2.416557   1.225979   2.301345
    15  C    4.900018   4.990350   4.384561   3.117550   2.421004
    16  H    3.392780   2.730271   3.189544   4.121023   4.342900
    17  H    2.153117   4.712259   5.579041   5.205544   5.628365
    18  H    2.151961   4.682651   5.236498   5.667923   5.605078
    19  H    3.392464   2.790268   3.736066   3.460182   4.377754
    20  H    1.086685   5.419959   6.162014   6.103541   6.154156
    21  H    4.764474   1.097794   2.151100   3.434239   4.358055
    22  H    4.997222   2.161974   1.097719   2.132500   2.365724
    23  H    6.487025   4.990774   4.002766   2.547022   2.097978
    24  H    6.521915   5.546141   4.387647   3.231809   2.043232
    25  H    5.221258   1.958616   2.525550   2.524907   3.860313
    26  H    7.243695   3.499437   2.169249   2.717730   3.164613
    27  H    6.911763   2.795198   2.171347   3.432736   4.201139
    28  H    7.005086   2.844347   2.185615   2.727460   3.793942
    29  H    4.314732   4.473262   4.170588   2.927677   2.720927
    30  H    5.662929   6.036918   5.427142   4.084857   3.371258
    31  H    4.373627   5.055069   4.505595   3.511306   2.652110
                   11         12         13         14         15
    11  C    0.000000
    12  O    5.234918   0.000000
    13  C    4.537577   2.948898   0.000000
    14  O    2.716121   2.833153   3.078275   0.000000
    15  C    1.517536   5.520276   5.529241   3.277170   0.000000
    16  H    5.537613   4.073349   4.371760   4.991510   5.511071
    17  H    5.798019   4.864741   6.957035   5.026669   4.754777
    18  H    6.388582   5.818368   6.623349   6.378774   5.787751
    19  H    4.843065   2.529780   4.873384   3.073728   4.407574
    20  H    6.506318   6.122921   7.656065   6.399339   5.443901
    21  H    5.639985   2.009085   2.766636   3.960105   5.974797
    22  H    3.793413   3.390844   2.143703   3.265116   4.449231
    23  H    1.096002   5.240623   4.593590   2.455504   2.173780
    24  H    1.094882   6.189742   5.099002   3.722941   2.149082
    25  H    4.621402   0.978319   3.031946   2.034002   4.924715
    26  H    4.312673   3.968582   1.095689   3.424100   5.521551
    27  H    5.522216   3.268360   1.094759   4.077861   6.452701
    28  H    4.832319   2.680832   1.095438   2.881154   5.806011
    29  H    2.166606   4.828668   5.385049   2.814667   1.094493
    30  H    2.162298   6.464185   6.491967   4.072200   1.093608
    31  H    2.161071   5.817952   5.782875   3.949068   1.094979
                   16         17         18         19         20
    16  H    0.000000
    17  H    4.959504   0.000000
    18  H    2.463908   4.293860   0.000000
    19  H    4.321019   2.457193   4.961816   0.000000
    20  H    4.287879   2.480385   2.480113   4.285493   0.000000
    21  H    2.539996   5.411166   4.742264   3.652784   5.829129
    22  H    2.633369   5.855346   4.709520   4.378070   5.992333
    23  H    6.276986   6.178539   7.265540   4.973501   7.227646
    24  H    6.084794   6.708258   6.876507   5.895430   7.162837
    25  H    4.594317   4.745491   6.183970   2.311888   6.249010
    26  H    4.983822   7.658706   7.168895   5.676962   8.270620
    27  H    4.294994   7.464023   6.702080   5.421450   7.978446
    28  H    5.137493   7.050217   7.310937   4.765495   8.076445
    29  H    5.266168   3.834648   5.533821   3.424593   4.913161
    30  H    6.570263   5.310399   6.654990   5.194727   6.067879
    31  H    5.008983   4.655988   5.006319   4.657130   4.832807
                   21         22         23         24         25
    21  H    0.000000
    22  H    2.472694   0.000000
    23  H    5.974205   4.347959   0.000000
    24  H    6.397619   4.283712   1.762398   0.000000
    25  H    2.809708   3.554056   4.487081   5.624096   0.000000
    26  H    3.758224   2.468353   4.348686   4.668481   3.902045
    27  H    2.562650   2.500859   5.657918   6.036443   3.636453
    28  H    3.175983   3.072482   4.651557   5.500996   2.606070
    29  H    5.511380   4.426555   2.533203   3.066855   4.206855
    30  H    7.042792   5.515166   2.522749   2.485291   5.793561
    31  H    5.934236   4.326150   3.080965   2.506825   5.379453
                   26         27         28         29         30
    26  H    0.000000
    27  H    1.772092   0.000000
    28  H    1.763529   1.774555   0.000000
    29  H    5.579946   6.291394   5.535165   0.000000
    30  H    6.413627   7.455218   6.697839   1.776434   0.000000
    31  H    5.792647   6.592451   6.229295   1.758784   1.780415
                   31
    31  H    0.000000
 Stoichiometry    C12H16O3
 Framework group  C1[X(C12H16O3)]
 Deg. of freedom    87
 Full point group                 C1      NOp   1
 Largest Abelian subgroup         C1      NOp   1
 Largest concise Abelian subgroup C1      NOp   1
                         Standard orientation:                         
 ---------------------------------------------------------------------
 Center     Atomic      Atomic             Coordinates (Angstroms)
 Number     Number       Type             X           Y           Z
 ---------------------------------------------------------------------
      1          6           0        1.920497   -0.702204   -1.214321
      2          6           0        2.760488    0.650447    1.070125
      3          6           0        3.030291    0.143279   -1.270433
      4          6           0        1.212333   -0.883081   -0.013983
      5          6           0        1.650446   -0.195322    1.127717
      6          6           0        3.448981    0.820540   -0.128273
      7          6           0       -0.013050   -1.782308    0.002612
      8          6           0       -1.236385   -1.149274   -0.686668
      9          6           0       -1.631958    0.115013    0.040887
     10          8           0       -1.795091    1.142688   -0.834690
     11          6           0       -2.124242    2.412563   -0.253414
     12          8           0       -0.316514   -2.240970    1.321743
     13          6           0       -2.437992   -2.089947   -0.720934
     14          8           0       -1.788157    0.179071    1.255186
     15          6           0       -0.860399    3.132393    0.179551
     16          1           0        1.612765   -1.223582   -2.118457
     17          1           0        3.087666    1.174285    1.964627
     18          1           0        3.569469    0.271269   -2.205464
     19          1           0        1.132825   -0.310182    2.077561
     20          1           0        4.313928    1.477049   -0.170068
     21          1           0        0.257076   -2.691418   -0.550292
     22          1           0       -0.968678   -0.889896   -1.719163
     23          1           0       -2.827677    2.298519    0.579290
     24          1           0       -2.633275    2.996086   -1.027463
     25          1           0       -0.809375   -1.526883    1.773713
     26          1           0       -3.277980   -1.622465   -1.246684
     27          1           0       -2.188593   -3.020148   -1.241533
     28          1           0       -2.787032   -2.343602    0.285950
     29          1           0       -0.339027    2.574342    0.963556
     30          1           0       -1.093820    4.130899    0.559656
     31          1           0       -0.164236    3.226819   -0.660341
 ---------------------------------------------------------------------
 Rotational constants (GHZ):      0.7426070      0.5112545      0.3824097
 Standard basis: 6-31+G(d,p) (6D, 7F)
 There are   365 symmetry adapted basis functions of A   symmetry.
 Integral buffers will be    131072 words long.
 Raffenetti 2 integral format.
 Two-electron integral symmetry is turned on.
   365 basis functions,   592 primitive gaussians,   365 cartesian basis functions
    56 alpha electrons       56 beta electrons
       nuclear repulsion energy      1034.4946370381 Hartrees.
 NAtoms=   31 NActive=   31 NUniq=   31 SFac= 1.00D+00 NAtFMM=   60 NAOKFM=F Big=F
 Nuclear repulsion after empirical dispersion term =     1034.4724923364 Hartrees.
 ------------------------------------------------------------------------------
 Polarizable Continuum Model (PCM)
 =================================
 Model                : C-PCM.
 Atomic radii         : SMD-Coulomb.
 Polarization charges : Total charges.
 Charge compensation  : None.
 Solution method      : Matrix inversion.
 Cavity type          : VdW (van der Waals Surface) (Alpha=1.000).
 Cavity algorithm     : GePol (No added spheres)
                        Default sphere list used, NSphG=   31.
                        Lebedev-Laikov grids with approx.  5.0 points / Ang**2.
                        Smoothing algorithm: Karplus/York (Gamma=1.0000).
                        Polarization charges: spherical gaussians, with
                                              point-specific exponents (IZeta= 3).
                        Self-potential: point-specific (ISelfS= 7).
                        Self-field    : sphere-specific E.n sum rule (ISelfD= 2).
 Solvent              : Chloroform, Eps=   4.711300 Eps(inf)=   2.090627
 ------------------------------------------------------------------------------
 ------------------------------------------------------------------------------
 Atomic radii for non-electrostatic terms: SMD-CDS.
 ------------------------------------------------------------------------------
 Nuclear repulsion after PCM non-electrostatic terms =     1034.4659316973 Hartrees.
 One-electron integrals computed using PRISM.
 NBasis=   365 RedAO= T  NBF=   365
 NBsUse=   365 1.00D-06 NBFU=   365
 Harris functional with IExCor= 4639 diagonalized for initial guess.
 ExpMin= 4.38D-02 ExpMax= 5.48D+03 ExpMxC= 8.25D+02 IAcc=2 IRadAn=         4 AccDes= 0.00D+00
 HarFok:  IExCor= 4639 AccDes= 0.00D+00 IRadAn=         4 IDoV= 1
 ScaDFX=  1.000000  1.000000  1.000000  1.000000
 FoFCou: FMM=F IPFlag=           0 FMFlag=      100000 FMFlg1=           0
         NFxFlg=           0 DoJE=T BraDBF=F KetDBF=T FulRan=T
         Omega=  0.000000  0.000000  1.000000  0.000000  0.000000 ICntrl=     500 IOpCl=  0
         NMat0=    1 NMatS0=    1 NMatT0=    0 NMatD0=    1 NMtDS0=    0 NMtDT0=    0
         I1Cent=           4 NGrid=           0.
 Petite list used in FoFCou.
 Initial guess orbital symmetries:
       Occupied  (A) (A) (A) (A) (A) (A) (A) (A) (A) (A) (A) (A)
                 (A) (A) (A) (A) (A) (A) (A) (A) (A) (A) (A) (A)
                 (A) (A) (A) (A) (A) (A) (A) (A) (A) (A) (A) (A)
                 (A) (A) (A) (A) (A) (A) (A) (A) (A) (A) (A) (A)
                 (A) (A) (A) (A) (A) (A) (A) (A)
       Virtual   (A) (A) (A) (A) (A) (A) (A) (A) (A) (A) (A) (A)
                 (A) (A) (A) (A) (A) (A) (A) (A) (A) (A) (A) (A)
                 (A) (A) (A) (A) (A) (A) (A) (A) (A) (A) (A) (A)
                 (A) (A) (A) (A) (A) (A) (A) (A) (A) (A) (A) (A)
                 (A) (A) (A) (A) (A) (A) (A) (A) (A) (A) (A) (A)
                 (A) (A) (A) (A) (A) (A) (A) (A) (A) (A) (A) (A)
                 (A) (A) (A) (A) (A) (A) (A) (A) (A) (A) (A) (A)
                 (A) (A) (A) (A) (A) (A) (A) (A) (A) (A) (A) (A)
                 (A) (A) (A) (A) (A) (A) (A) (A) (A) (A) (A) (A)
                 (A) (A) (A) (A) (A) (A) (A) (A) (A) (A) (A) (A)
                 (A) (A) (A) (A) (A) (A) (A) (A) (A) (A) (A) (A)
                 (A) (A) (A) (A) (A) (A) (A) (A) (A) (A) (A) (A)
                 (A) (A) (A) (A) (A) (A) (A) (A) (A) (A) (A) (A)
                 (A) (A) (A) (A) (A) (A) (A) (A) (A) (A) (A) (A)
                 (A) (A) (A) (A) (A) (A) (A) (A) (A) (A) (A) (A)
                 (A) (A) (A) (A) (A) (A) (A) (A) (A) (A) (A) (A)
                 (A) (A) (A) (A) (A) (A) (A) (A) (A) (A) (A) (A)
                 (A) (A) (A) (A) (A) (A) (A) (A) (A) (A) (A) (A)
                 (A) (A) (A) (A) (A) (A) (A) (A) (A) (A) (A) (A)
                 (A) (A) (A) (A) (A) (A) (A) (A) (A) (A) (A) (A)
                 (A) (A) (A) (A) (A) (A) (A) (A) (A) (A) (A) (A)
                 (A) (A) (A) (A) (A) (A) (A) (A) (A) (A) (A) (A)
                 (A) (A) (A) (A) (A) (A) (A) (A) (A) (A) (A) (A)
                 (A) (A) (A) (A) (A) (A) (A) (A) (A) (A) (A) (A)
                 (A) (A) (A) (A) (A) (A) (A) (A) (A) (A) (A) (A)
                 (A) (A) (A) (A) (A) (A) (A) (A) (A)
 The electronic state of the initial guess is 1-A.
 Requested convergence on RMS density matrix=1.00D-08 within 128 cycles.
 Requested convergence on MAX density matrix=1.00D-06.
 Requested convergence on             energy=1.00D-06.
 No special actions if energy rises.
 FoFJK:  IHMeth= 1 ICntrl=     0 DoSepK=T KAlg= 1 I1Cent= 0 FoldK=F
 FoFJK:  IHMeth= 1 ICntrl=     0 DoSepK=T KAlg= 1 I1Cent= 0 FoldK=F
 FoFJK:  IHMeth= 1 ICntrl=     0 DoSepK=T KAlg= 1 I1Cent= 0 FoldK=F
 FoFJK:  IHMeth= 1 ICntrl=     0 DoSepK=T KAlg= 1 I1Cent= 0 FoldK=F
 FoFJK:  IHMeth= 1 ICntrl=     0 DoSepK=T KAlg= 1 I1Cent= 0 FoldK=F
 FoFJK:  IHMeth= 1 ICntrl=     0 DoSepK=T KAlg= 1 I1Cent= 0 FoldK=F
 FoFJK:  IHMeth= 1 ICntrl=     0 DoSepK=T KAlg= 1 I1Cent= 0 FoldK=F
 FoFJK:  IHMeth= 1 ICntrl=     0 DoSepK=T KAlg= 1 I1Cent= 0 FoldK=F
 FoFJK:  IHMeth= 1 ICntrl=     0 DoSepK=T KAlg= 1 I1Cent= 0 FoldK=F
 FoFJK:  IHMeth= 1 ICntrl=     0 DoSepK=T KAlg= 1 I1Cent= 0 FoldK=F
 FoFJK:  IHMeth= 1 ICntrl=     0 DoSepK=T KAlg= 1 I1Cent= 0 FoldK=F
 FoFJK:  IHMeth= 1 ICntrl=     0 DoSepK=T KAlg= 1 I1Cent= 0 FoldK=F
 FoFJK:  IHMeth= 1 ICntrl=     0 DoSepK=T KAlg= 1 I1Cent= 0 FoldK=F
 FoFJK:  IHMeth= 1 ICntrl=     0 DoSepK=T KAlg= 1 I1Cent= 0 FoldK=F
 FoFJK:  IHMeth= 1 ICntrl=     0 DoSepK=T KAlg= 1 I1Cent= 0 FoldK=F
 Error on total polarization charges =  0.03871
 SCF Done:  E(RwB97XD) =  -692.449093834     A.U. after   15 cycles
             Convg  =    0.8035D-08             -V/T =  2.0095
 SMD-CDS (non-electrostatic) energy       (kcal/mol) =      -4.12
 (included in total energy above)
 Range of M.O.s used for correlation:     1   365
 NBasis=   365 NAE=    56 NBE=    56 NFC=     0 NFV=     0
 NROrb=    365 NOA=    56 NOB=    56 NVA=   309 NVB=   309

 **** Warning!!: The largest alpha MO coefficient is  0.14873099D+03

 NEqPCM:  Using equilibrium solvation (IEInf=0, Eps=   4.7113, EpsInf=   2.0906)
          Differentiating once with respect to magnetic field using GIAOs.
          Electric field/nuclear overlap derivatives assumed to be zero.
 FoFCou: FMM=F IPFlag=           0 FMFlag=    10101102 FMFlg1=           0
         NFxFlg=    40000000 DoJE=F BraDBF=F KetDBF=T FulRan=T
         Omega=  0.000000  0.000000  1.000000  0.000000  0.000000 ICntrl=    6100 IOpCl=  0
         NMat0=    1 NMatS0=    1 NMatT0=    0 NMatD0=    1 NMtDS0=    0 NMtDT0=    0
         I1Cent=           7 NGrid=        2264.
 Symmetry not used in FoFCou.
 FoFJK:  IHMeth= 1 ICntrl=  6127 DoSepK=T KAlg= 1 I1Cent= 0 FoldK=F
 FoFJK:  IHMeth= 1 ICntrl=     0 DoSepK=T KAlg= 1 I1Cent= 0 FoldK=F
          There are     3 degrees of freedom in the 1st order CPHF.  IDoFFX=0.
      3 vectors produced by pass  0 Test12= 5.77D-13 3.33D-08 XBig12= 1.35D+02 2.92D+00.
 AX will form     3 AO Fock derivatives at one time.
 FoFJK:  IHMeth= 1 ICntrl=     0 DoSepK=T KAlg= 1 I1Cent= 0 FoldK=F
      3 vectors produced by pass  1 Test12= 5.77D-13 3.33D-08 XBig12= 9.34D-01 2.58D-01.
 FoFJK:  IHMeth= 1 ICntrl=     0 DoSepK=T KAlg= 1 I1Cent= 0 FoldK=F
      3 vectors produced by pass  2 Test12= 5.77D-13 3.33D-08 XBig12= 1.88D-02 4.90D-02.
 FoFJK:  IHMeth= 1 ICntrl=     0 DoSepK=T KAlg= 1 I1Cent= 0 FoldK=F
      3 vectors produced by pass  3 Test12= 5.77D-13 3.33D-08 XBig12= 2.86D-04 5.00D-03.
 FoFJK:  IHMeth= 1 ICntrl=     0 DoSepK=T KAlg= 1 I1Cent= 0 FoldK=F
      3 vectors produced by pass  4 Test12= 5.77D-13 3.33D-08 XBig12= 4.09D-06 5.31D-04.
 FoFJK:  IHMeth= 1 ICntrl=     0 DoSepK=T KAlg= 1 I1Cent= 0 FoldK=F
      3 vectors produced by pass  5 Test12= 5.77D-13 3.33D-08 XBig12= 6.26D-08 4.77D-05.
 FoFJK:  IHMeth= 1 ICntrl=     0 DoSepK=T KAlg= 1 I1Cent= 0 FoldK=F
      3 vectors produced by pass  6 Test12= 5.77D-13 3.33D-08 XBig12= 7.90D-10 6.82D-06.
 FoFJK:  IHMeth= 1 ICntrl=     0 DoSepK=T KAlg= 1 I1Cent= 0 FoldK=F
      3 vectors produced by pass  7 Test12= 5.77D-13 3.33D-08 XBig12= 1.05D-11 8.73D-07.
 FoFJK:  IHMeth= 1 ICntrl=     0 DoSepK=T KAlg= 1 I1Cent= 0 FoldK=F
      3 vectors produced by pass  8 Test12= 5.77D-13 3.33D-08 XBig12= 1.22D-13 9.53D-08.
 FoFJK:  IHMeth= 1 ICntrl=     0 DoSepK=T KAlg= 1 I1Cent= 0 FoldK=F
 Inverted reduced A of dimension    27 with in-core refinement.
 Calculating GIAO nuclear magnetic shielding tensors.
 SCF GIAO Magnetic shielding tensor (ppm):
      1  C    Isotropic =    72.0067   Anisotropy =   169.2239
   XX=    91.0988   YX=   -71.9561   ZX=     0.8269
   XY=   -64.5589   YY=   117.6813   ZY=   -56.7778
   XZ=    -7.9260   YZ=   -59.6224   ZZ=     7.2401
   Eigenvalues:   -27.2504    58.4480   184.8226
      2  C    Isotropic =    69.9765   Anisotropy =   176.5223
   XX=    95.6462   YX=   -73.5633   ZX=    -3.0439
   XY=   -73.2830   YY=   111.1032   ZY=   -61.3679
   XZ=    -4.2307   YZ=   -59.5295   ZZ=     3.1801
   Eigenvalues:   -34.4447    56.7161   187.6580
      3  C    Isotropic =    70.4869   Anisotropy =   174.6346
   XX=    82.0399   YX=   -65.2644   ZX=    55.2820
   XY=   -64.1791   YY=   132.2963   ZY=   -13.1918
   XZ=    56.5000   YZ=   -14.7158   ZZ=    -2.8755
   Eigenvalues:   -32.5534    57.1041   186.9100
      4  C    Isotropic =    52.1491   Anisotropy =   181.9800
   XX=    39.5802   YX=   -91.1877   ZX=    30.4688
   XY=   -94.7085   YY=    89.1936   ZY=   -37.0950
   XZ=    24.2930   YZ=   -30.1265   ZZ=    27.6736
   Eigenvalues:   -31.8455    14.8238   173.4692
      5  C    Isotropic =    72.8640   Anisotropy =   181.5444
   XX=    82.1928   YX=   -72.6645   ZX=    52.9549
   XY=   -61.4942   YY=   139.8383   ZY=   -16.9097
   XZ=    49.0654   YZ=   -19.7409   ZZ=    -3.4391
   Eigenvalues:   -28.2555    52.9539   193.8936
      6  C    Isotropic =    72.9957   Anisotropy =   175.5944
   XX=    52.7115   YX=  -100.4001   ZX=    20.0016
   XY=  -105.0117   YY=   101.8194   ZY=   -22.5229
   XZ=    21.8777   YZ=   -20.9954   ZZ=    64.4563
   Eigenvalues:   -28.4335    57.3621   190.0586
      7  C    Isotropic =   120.9431   Anisotropy =    38.7552
   XX=   115.1889   YX=     8.7152   ZX=   -14.7644
   XY=     6.3207   YY=   107.2791   ZY=   -13.4493
   XZ=    -1.7690   YZ=    -7.9519   ZZ=   140.3613
   Eigenvalues:   101.9298   114.1197   146.7799
      8  C    Isotropic =   148.2107   Anisotropy =    12.7122
   XX=   152.9256   YX=     1.1297   ZX=    -2.8021
   XY=   -11.0964   YY=   148.8424   ZY=    -4.4984
   XZ=    -1.4703   YZ=     6.7378   ZZ=   142.8641
   Eigenvalues:   142.4266   145.5200   156.6855
      9  C    Isotropic =    16.9600   Anisotropy =   108.8338
   XX=    81.3537   YX=    32.3236   ZX=    -5.7607
   XY=    34.8943   YY=   -51.1647   ZY=    11.8620
   XZ=    -2.6383   YZ=    47.4381   ZZ=    20.6910
   Eigenvalues:   -69.1053    30.4694    89.5158
     10  O    Isotropic =   121.7233   Anisotropy =   149.8539
   XX=   202.1095   YX=    49.2118   ZX=    30.6284
   XY=    28.0070   YY=   143.4891   ZY=   -30.6733
   XZ=    58.0607   YZ=  -171.4513   ZZ=    19.5713
   Eigenvalues:   -50.1734   193.7174   221.6259
     11  C    Isotropic =   138.1387   Anisotropy =    65.5526
   XX=   133.3674   YX=    -9.1593   ZX=     4.0730
   XY=   -12.5833   YY=   170.0360   ZY=    28.4174
   XZ=     1.1268   YZ=    24.2109   ZZ=   111.0126
   Eigenvalues:    99.7648   132.8108   181.8404
     12  O    Isotropic =   307.4325   Anisotropy =    31.2393
   XX=   308.2166   YX=    -9.5629   ZX=    -0.6328
   XY=   -18.5157   YY=   318.1735   ZY=     1.3214
   XZ=     0.6487   YZ=     4.3866   ZZ=   295.9074
   Eigenvalues:   294.9325   299.1064   328.2587
     13  C    Isotropic =   179.5998   Anisotropy =    29.3993
   XX=   186.3692   YX=    13.1401   ZX=     3.6534
   XY=    13.0351   YY=   183.4173   ZY=     5.9342
   XZ=     0.8854   YZ=     6.4577   ZZ=   169.0131
   Eigenvalues:   166.2005   173.3997   199.1993
     14  O    Isotropic =   -25.4304   Anisotropy =   531.0691
   XX=   291.7559   YX=   120.5938   ZX=    81.2146
   XY=    94.7322   YY=  -137.7746   ZY=    83.6296
   XZ=    43.7825   YZ=    75.8894   ZZ=  -230.2724
   Eigenvalues:  -276.2222  -128.6845   328.6157
     15  C    Isotropic =   181.7150   Anisotropy =    24.8897
   XX=   191.2680   YX=     7.9216   ZX=     4.5128
   XY=     1.6001   YY=   188.0339   ZY=    11.0658
   XZ=     4.8892   YZ=    11.3434   ZZ=   165.8430
   Eigenvalues:   160.9540   185.8828   198.3081
     16  H    Isotropic =    23.8438   Anisotropy =     8.2023
   XX=    26.3946   YX=     2.1627   ZX=    -3.9060
   XY=     2.3283   YY=    21.6673   ZY=    -0.1088
   XZ=    -3.2434   YZ=    -0.2714   ZZ=    23.4695
   Eigenvalues:    20.0501    22.1693    29.3120
     17  H    Isotropic =    23.7751   Anisotropy =     4.9288
   XX=    25.3260   YX=     2.5386   ZX=    -0.9017
   XY=     2.6708   YY=    22.0417   ZY=    -0.1646
   XZ=    -1.0415   YZ=    -0.2872   ZZ=    23.9575
   Eigenvalues:    20.5819    23.6824    27.0609
     18  H    Isotropic =    23.7676   Anisotropy =     4.4556
   XX=    24.6570   YX=     2.6699   ZX=    -0.1919
   XY=     2.7015   YY=    22.7738   ZY=     1.4418
   XZ=    -0.1937   YZ=     1.4375   ZZ=    23.8719
   Eigenvalues:    20.3849    24.1798    26.7380
     19  H    Isotropic =    23.7754   Anisotropy =     9.2206
   XX=    25.5868   YX=     3.8160   ZX=     3.4241
   XY=     4.1008   YY=    23.0754   ZY=     1.3155
   XZ=     2.4579   YZ=     1.5647   ZZ=    22.6641
   Eigenvalues:    19.9564    21.4474    29.9225
     20  H    Isotropic =    23.8408   Anisotropy =     3.8930
   XX=    23.8425   YX=     1.6317   ZX=    -0.8490
   XY=     1.6000   YY=    21.6150   ZY=     1.1943
   XZ=    -0.7501   YZ=     1.1816   ZZ=    26.0649
   Eigenvalues:    20.4077    24.6786    26.4361
     21  H    Isotropic =    26.7723   Anisotropy =     6.5709
   XX=    25.5704   YX=    -1.7002   ZX=    -2.9503
   XY=     0.6851   YY=    27.3595   ZY=     2.1890
   XZ=    -3.7839   YZ=     2.2984   ZZ=    27.3871
   Eigenvalues:    22.7598    26.4042    31.1529
     22  H    Isotropic =    28.6426   Anisotropy =     4.8353
   XX=    28.4591   YX=     2.3150   ZX=    -1.3778
   XY=    -0.2732   YY=    26.7723   ZY=    -1.7178
   XZ=    -0.5331   YZ=    -1.8652   ZZ=    30.6964
   Eigenvalues:    25.9144    28.1473    31.8661
     23  H    Isotropic =    27.1725   Anisotropy =     6.9567
   XX=    29.2423   YX=    -1.2652   ZX=    -3.3107
   XY=    -2.5007   YY=    27.9157   ZY=     2.5892
   XZ=    -2.1066   YZ=     0.2348   ZZ=    24.3593
   Eigenvalues:    23.0872    26.6198    31.8103
     24  H    Isotropic =    28.1062   Anisotropy =     9.1730
   XX=    28.6675   YX=    -3.2510   ZX=     4.7717
   XY=    -3.3328   YY=    29.8814   ZY=    -1.8503
   XZ=     3.4237   YZ=    -0.4947   ZZ=    25.7697
   Eigenvalues:    22.7210    27.3761    34.2215
     25  H    Isotropic =    27.0038   Anisotropy =    18.0395
   XX=    23.4325   YX=    -7.6629   ZX=    -5.4678
   XY=    -7.6779   YY=    28.8443   ZY=     5.1200
   XZ=    -5.0774   YZ=     4.4728   ZZ=    28.7345
   Eigenvalues:    17.7142    24.2670    39.0301
     26  H    Isotropic =    30.3906   Anisotropy =     9.7636
   XX=    34.6139   YX=     0.0386   ZX=     4.9491
   XY=    -0.0518   YY=    28.4856   ZY=    -0.4641
   XZ=     4.0175   YZ=    -0.5780   ZZ=    28.0723
   Eigenvalues:    25.7164    28.5557    36.8997
     27  H    Isotropic =    30.2970   Anisotropy =    10.5335
   XX=    27.8055   YX=     2.1975   ZX=     0.6557
   XY=     0.6865   YY=    34.2433   ZY=     4.7626
   XZ=     0.6228   YZ=     4.8620   ZZ=    28.8422
   Eigenvalues:    26.0046    27.5670    37.3193
     28  H    Isotropic =    29.8998   Anisotropy =     6.9743
   XX=    30.4413   YX=     3.9750   ZX=    -2.3707
   XY=     2.5185   YY=    27.5981   ZY=    -2.1658
   XZ=    -1.2584   YZ=    -1.0177   ZZ=    31.6600
   Eigenvalues:    25.4541    29.6960    34.5493
     29  H    Isotropic =    31.0182   Anisotropy =     6.9592
   XX=    31.5836   YX=    -1.4855   ZX=     3.7368
   XY=    -1.9385   YY=    31.9636   ZY=    -0.4409
   XZ=     3.7501   YZ=    -2.0922   ZZ=    29.5074
   Eigenvalues:    26.6606    30.7363    35.6577
     30  H    Isotropic =    31.0069   Anisotropy =    11.8136
   XX=    27.8867   YX=    -0.0542   ZX=    -0.0160
   XY=    -1.0278   YY=    37.6018   ZY=     3.9633
   XZ=     0.1145   YZ=     3.5877   ZZ=    27.5322
   Eigenvalues:    26.2447    27.8934    38.8827
     31  H    Isotropic =    31.3070   Anisotropy =     6.4329
   XX=    32.8875   YX=     0.7203   ZX=    -4.2317
   XY=     0.7718   YY=    30.8639   ZY=    -1.5292
   XZ=    -2.3438   YZ=    -1.7554   ZZ=    30.1696
   Eigenvalues:    27.6583    30.6670    35.5955
 End of Minotr Frequency-dependent properties file   721 does not exist.
 End of Minotr Frequency-dependent properties file   722 does not exist.

 **********************************************************************

            Population analysis using the SCF density.

 **********************************************************************

 Orbital symmetries:
       Occupied  (A) (A) (A) (A) (A) (A) (A) (A) (A) (A) (A) (A)
                 (A) (A) (A) (A) (A) (A) (A) (A) (A) (A) (A) (A)
                 (A) (A) (A) (A) (A) (A) (A) (A) (A) (A) (A) (A)
                 (A) (A) (A) (A) (A) (A) (A) (A) (A) (A) (A) (A)
                 (A) (A) (A) (A) (A) (A) (A) (A)
       Virtual   (A) (A) (A) (A) (A) (A) (A) (A) (A) (A) (A) (A)
                 (A) (A) (A) (A) (A) (A) (A) (A) (A) (A) (A) (A)
                 (A) (A) (A) (A) (A) (A) (A) (A) (A) (A) (A) (A)
                 (A) (A) (A) (A) (A) (A) (A) (A) (A) (A) (A) (A)
                 (A) (A) (A) (A) (A) (A) (A) (A) (A) (A) (A) (A)
                 (A) (A) (A) (A) (A) (A) (A) (A) (A) (A) (A) (A)
                 (A) (A) (A) (A) (A) (A) (A) (A) (A) (A) (A) (A)
                 (A) (A) (A) (A) (A) (A) (A) (A) (A) (A) (A) (A)
                 (A) (A) (A) (A) (A) (A) (A) (A) (A) (A) (A) (A)
                 (A) (A) (A) (A) (A) (A) (A) (A) (A) (A) (A) (A)
                 (A) (A) (A) (A) (A) (A) (A) (A) (A) (A) (A) (A)
                 (A) (A) (A) (A) (A) (A) (A) (A) (A) (A) (A) (A)
                 (A) (A) (A) (A) (A) (A) (A) (A) (A) (A) (A) (A)
                 (A) (A) (A) (A) (A) (A) (A) (A) (A) (A) (A) (A)
                 (A) (A) (A) (A) (A) (A) (A) (A) (A) (A) (A) (A)
                 (A) (A) (A) (A) (A) (A) (A) (A) (A) (A) (A) (A)
                 (A) (A) (A) (A) (A) (A) (A) (A) (A) (A) (A) (A)
                 (A) (A) (A) (A) (A) (A) (A) (A) (A) (A) (A) (A)
                 (A) (A) (A) (A) (A) (A) (A) (A) (A) (A) (A) (A)
                 (A) (A) (A) (A) (A) (A) (A) (A) (A) (A) (A) (A)
                 (A) (A) (A) (A) (A) (A) (A) (A) (A) (A) (A) (A)
                 (A) (A) (A) (A) (A) (A) (A) (A) (A) (A) (A) (A)
                 (A) (A) (A) (A) (A) (A) (A) (A) (A) (A) (A) (A)
                 (A) (A) (A) (A) (A) (A) (A) (A) (A) (A) (A) (A)
                 (A) (A) (A) (A) (A) (A) (A) (A) (A) (A) (A) (A)
                 (A) (A) (A) (A) (A) (A) (A) (A) (A)
 The electronic state is 1-A.
 Alpha  occ. eigenvalues --  -19.33498 -19.28608 -19.27561 -10.44771 -10.36068
 Alpha  occ. eigenvalues --  -10.35246 -10.32133 -10.31435 -10.30660 -10.30586
 Alpha  occ. eigenvalues --  -10.30530 -10.30463 -10.30352 -10.29315 -10.28741
 Alpha  occ. eigenvalues --   -1.21725  -1.13855  -1.12083  -0.96106  -0.91553
 Alpha  occ. eigenvalues --   -0.86827  -0.85404  -0.84589  -0.77875  -0.76705
 Alpha  occ. eigenvalues --   -0.71280  -0.69922  -0.67991  -0.65390  -0.61377
 Alpha  occ. eigenvalues --   -0.60818  -0.59268  -0.56835  -0.55832  -0.55195
 Alpha  occ. eigenvalues --   -0.54700  -0.53167  -0.52197  -0.50427  -0.50188
 Alpha  occ. eigenvalues --   -0.49426  -0.47503  -0.46669  -0.46518  -0.46192
 Alpha  occ. eigenvalues --   -0.45059  -0.44767  -0.42764  -0.42206  -0.42034
 Alpha  occ. eigenvalues --   -0.41377  -0.39424  -0.37044  -0.36388  -0.33153
 Alpha  occ. eigenvalues --   -0.32337
 Alpha virt. eigenvalues --    0.05006   0.05584   0.06184   0.06781   0.07344
 Alpha virt. eigenvalues --    0.08267   0.08819   0.09495   0.09725   0.10123
 Alpha virt. eigenvalues --    0.10633   0.10980   0.11826   0.12262   0.13008
 Alpha virt. eigenvalues --    0.13311   0.13608   0.14369   0.14663   0.15410
 Alpha virt. eigenvalues --    0.16055   0.16169   0.16724   0.17549   0.18051
 Alpha virt. eigenvalues --    0.18560   0.19260   0.19739   0.19783   0.20079
 Alpha virt. eigenvalues --    0.20896   0.21441   0.21829   0.22316   0.23027
 Alpha virt. eigenvalues --    0.23426   0.23925   0.24043   0.24346   0.24810
 Alpha virt. eigenvalues --    0.25362   0.25618   0.26014   0.26390   0.26591
 Alpha virt. eigenvalues --    0.27561   0.27900   0.28473   0.28864   0.29068
 Alpha virt. eigenvalues --    0.29635   0.30394   0.30620   0.30928   0.31150
 Alpha virt. eigenvalues --    0.31504   0.32178   0.32841   0.32961   0.33557
 Alpha virt. eigenvalues --    0.33818   0.34457   0.35070   0.35542   0.36049
 Alpha virt. eigenvalues --    0.36737   0.37002   0.37309   0.38159   0.39068
 Alpha virt. eigenvalues --    0.39675   0.39960   0.40117   0.41381   0.42231
 Alpha virt. eigenvalues --    0.42806   0.43031   0.43656   0.44821   0.44866
 Alpha virt. eigenvalues --    0.45848   0.46721   0.47166   0.48223   0.48404
 Alpha virt. eigenvalues --    0.49250   0.49685   0.51768   0.52554   0.53369
 Alpha virt. eigenvalues --    0.55421   0.58923   0.61532   0.66012   0.70613
 Alpha virt. eigenvalues --    0.73318   0.73710   0.75309   0.75812   0.76075
 Alpha virt. eigenvalues --    0.77894   0.78587   0.79339   0.80581   0.81182
 Alpha virt. eigenvalues --    0.82009   0.82596   0.83022   0.84092   0.84514
 Alpha virt. eigenvalues --    0.84825   0.86135   0.87041   0.87850   0.88756
 Alpha virt. eigenvalues --    0.90640   0.92944   0.93793   0.95032   0.96658
 Alpha virt. eigenvalues --    0.98495   0.99134   0.99835   1.00139   1.02448
 Alpha virt. eigenvalues --    1.03447   1.05362   1.06072   1.06553   1.07273
 Alpha virt. eigenvalues --    1.08517   1.10176   1.10746   1.11212   1.13378
 Alpha virt. eigenvalues --    1.13893   1.15424   1.17788   1.19081   1.19476
 Alpha virt. eigenvalues --    1.20639   1.22282   1.22589   1.23860   1.26132
 Alpha virt. eigenvalues --    1.26172   1.27298   1.27688   1.29258   1.31195
 Alpha virt. eigenvalues --    1.33284   1.33915   1.34340   1.36787   1.38239
 Alpha virt. eigenvalues --    1.39070   1.40372   1.42388   1.43637   1.45415
 Alpha virt. eigenvalues --    1.45527   1.46094   1.47801   1.49103   1.50451
 Alpha virt. eigenvalues --    1.50698   1.52874   1.53533   1.55694   1.58361
 Alpha virt. eigenvalues --    1.58571   1.60677   1.61437   1.62598   1.64454
 Alpha virt. eigenvalues --    1.67795   1.70462   1.71423   1.73349   1.75266
 Alpha virt. eigenvalues --    1.76508   1.82966   1.85543   1.86522   1.87886
 Alpha virt. eigenvalues --    1.90578   1.91334   1.92077   1.94504   1.95069
 Alpha virt. eigenvalues --    1.96557   1.97568   1.98683   1.99589   2.01019
 Alpha virt. eigenvalues --    2.02299   2.02657   2.04647   2.05610   2.07099
 Alpha virt. eigenvalues --    2.07426   2.08649   2.10521   2.11255   2.11607
 Alpha virt. eigenvalues --    2.12562   2.13607   2.15169   2.17376   2.18101
 Alpha virt. eigenvalues --    2.19350   2.20509   2.21072   2.21800   2.22677
 Alpha virt. eigenvalues --    2.25306   2.26707   2.28092   2.28242   2.29552
 Alpha virt. eigenvalues --    2.31485   2.35779   2.37042   2.38976   2.39210
 Alpha virt. eigenvalues --    2.41305   2.42349   2.44629   2.47746   2.48423
 Alpha virt. eigenvalues --    2.49459   2.50191   2.50716   2.51662   2.54916
 Alpha virt. eigenvalues --    2.55650   2.56677   2.57132   2.59280   2.59922
 Alpha virt. eigenvalues --    2.62517   2.63233   2.66911   2.68333   2.68604
 Alpha virt. eigenvalues --    2.69962   2.71711   2.72548   2.73519   2.74709
 Alpha virt. eigenvalues --    2.76366   2.77171   2.79627   2.81379   2.83349
 Alpha virt. eigenvalues --    2.83637   2.85649   2.86385   2.89125   2.89273
 Alpha virt. eigenvalues --    2.91939   2.92600   2.93081   2.96180   2.97632
 Alpha virt. eigenvalues --    2.98863   3.00426   3.03996   3.06312   3.11965
 Alpha virt. eigenvalues --    3.12235   3.15001   3.15785   3.19832   3.25506
 Alpha virt. eigenvalues --    3.28440   3.29947   3.36574   3.37653   3.38316
 Alpha virt. eigenvalues --    3.39208   3.43067   3.45393   3.50701   3.52271
 Alpha virt. eigenvalues --    3.54293   3.56677   3.58808   3.59572   3.62728
 Alpha virt. eigenvalues --    3.64894   3.66387   3.72551   3.99396   4.41577
 Alpha virt. eigenvalues --    4.43151   4.45147   4.52438   4.52911   4.56981
 Alpha virt. eigenvalues --    4.59279   4.62409   4.63289   4.67894   4.72535
 Alpha virt. eigenvalues --    4.78228   4.83955   4.95729   4.97827
          Condensed to atoms (all electrons):
              1          2          3          4          5          6
     1  C   19.473568  -0.806151  -1.135747  -7.471024  -7.950123   1.035301
     2  C   -0.806151   8.459815   0.081702  -0.270365  -1.956483   0.594120
     3  C   -1.135747   0.081702   6.343519   0.626785   0.133119   0.223830
     4  C   -7.471024  -0.270365   0.626785  17.837164   0.190627  -1.192713
     5  C   -7.950123  -1.956483   0.133119   0.190627  17.053593  -0.501819
     6  C    1.035301   0.594120   0.223830  -1.192713  -0.501819   5.593361
     7  C    4.027296  -0.474871  -0.494440  -4.842225  -1.673157   0.183857
     8  C   -1.065167   0.043739   0.065258   1.033526   0.619068  -0.047880
     9  C   -0.019461  -0.009977   0.056511   0.257546  -0.024283   0.003379
    10  O   -0.077454   0.016236   0.002000   0.055350   0.025543  -0.006151
    11  C   -0.017998  -0.012750   0.001656   0.013067   0.028682  -0.005328
    12  O   -0.079242   0.136741  -0.007520   0.032806  -0.168393   0.000221
    13  C    0.002308   0.097892  -0.052555  -0.357696  -0.034144  -0.002953
    14  O    0.028196  -0.016895   0.001054   0.070796  -0.067351  -0.001614
    15  C   -0.011749   0.014634   0.002902  -0.030256   0.016299   0.003078
    16  H    0.136206   0.001195   0.031622   0.085762   0.039002  -0.011173
    17  H    0.004081   0.256960  -0.007616   0.024970   0.027271   0.019194
    18  H    0.016082   0.002018   0.272729   0.029739  -0.002626   0.011339
    19  H    0.007832   0.047078   0.005331   0.140770   0.131089  -0.014053
    20  H    0.000300   0.016303   0.017850  -0.000214   0.007642   0.283425
    21  H    0.053671   0.025947   0.028370   0.062918  -0.068888  -0.001867
    22  H   -0.019657  -0.005483  -0.003617   0.007561   0.000399  -0.000966
    23  H   -0.000047   0.000482   0.000332   0.005167  -0.002986  -0.000245
    24  H   -0.001977   0.000736  -0.000037   0.000677   0.000489  -0.000060
    25  H   -0.029737   0.025350   0.004065  -0.064295   0.036195  -0.001963
    26  H   -0.003541  -0.000228  -0.000051  -0.003097   0.000411   0.000007
    27  H    0.010965   0.000549   0.001453  -0.003974  -0.003089   0.000006
    28  H   -0.000670  -0.000162  -0.000017  -0.003092  -0.001907  -0.000070
    29  H   -0.008541   0.013418   0.001365   0.000388  -0.006248  -0.000892
    30  H    0.000155  -0.000108   0.000032  -0.000030  -0.000399   0.000009
    31  H    0.004627   0.000521   0.000846  -0.000222  -0.003614  -0.000111
              7          8          9         10         11         12
     1  C    4.027296  -1.065167  -0.019461  -0.077454  -0.017998  -0.079242
     2  C   -0.474871   0.043739  -0.009977   0.016236  -0.012750   0.136741
     3  C   -0.494440   0.065258   0.056511   0.002000   0.001656  -0.007520
     4  C   -4.842225   1.033526   0.257546   0.055350   0.013067   0.032806
     5  C   -1.673157   0.619068  -0.024283   0.025543   0.028682  -0.168393
     6  C    0.183857  -0.047880   0.003379  -0.006151  -0.005328   0.000221
     7  C    9.993188  -1.548958  -0.057250  -0.033539  -0.014836   0.293325
     8  C   -1.548958   8.648943  -0.997055  -0.190882  -0.010685   0.067197
     9  C   -0.057250  -0.997055   6.237250   0.315939  -0.116723  -0.077488
    10  O   -0.033539  -0.190882   0.315939   8.337954   0.068336  -0.000623
    11  C   -0.014836  -0.010685  -0.116723   0.068336   5.131362  -0.001389
    12  O    0.293325   0.067197  -0.077488  -0.000623  -0.001389   8.156872
    13  C    0.497713  -0.725717  -0.191317  -0.012980  -0.010237  -0.059716
    14  O    0.023303  -0.125209   0.639687  -0.152069   0.003635  -0.022218
    15  C   -0.003585   0.012969  -0.061852  -0.036958   0.291769   0.000140
    16  H    0.013994   0.007581   0.000184  -0.000334  -0.000024   0.000549
    17  H    0.000883  -0.000259   0.000218  -0.000016   0.000009   0.000069
    18  H   -0.003609   0.000473   0.000457  -0.000022  -0.000109   0.000020
    19  H   -0.013942  -0.000800   0.004742  -0.000420  -0.003395   0.010674
    20  H    0.001807  -0.000369  -0.000277   0.000008   0.000117  -0.000006
    21  H    0.261363  -0.054102   0.025105  -0.000334   0.000589  -0.054854
    22  H   -0.003567   0.356544  -0.017233  -0.004434  -0.000821   0.008875
    23  H   -0.004804   0.010597  -0.003775  -0.035799   0.401945   0.000001
    24  H   -0.001149  -0.002196   0.016739  -0.058431   0.414298   0.000002
    25  H    0.034518  -0.065612   0.044053   0.000619   0.001605   0.255475
    26  H    0.031735  -0.166828   0.037400   0.003054   0.000528  -0.000290
    27  H   -0.004904  -0.087577   0.004252   0.000066   0.000261  -0.001635
    28  H   -0.008807  -0.038408  -0.024062   0.000226  -0.000520   0.005175
    29  H   -0.001997   0.001895  -0.000163  -0.006876  -0.043557   0.000023
    30  H   -0.000056   0.000878   0.010220   0.006428  -0.049018   0.000000
    31  H   -0.001051   0.003106  -0.000853  -0.002761  -0.035327  -0.000012
             13         14         15         16         17         18
     1  C    0.002308   0.028196  -0.011749   0.136206   0.004081   0.016082
     2  C    0.097892  -0.016895   0.014634   0.001195   0.256960   0.002018
     3  C   -0.052555   0.001054   0.002902   0.031622  -0.007616   0.272729
     4  C   -0.357696   0.070796  -0.030256   0.085762   0.024970   0.029739
     5  C   -0.034144  -0.067351   0.016299   0.039002   0.027271  -0.002626
     6  C   -0.002953  -0.001614   0.003078  -0.011173   0.019194   0.011339
     7  C    0.497713   0.023303  -0.003585   0.013994   0.000883  -0.003609
     8  C   -0.725717  -0.125209   0.012969   0.007581  -0.000259   0.000473
     9  C   -0.191317   0.639687  -0.061852   0.000184   0.000218   0.000457
    10  O   -0.012980  -0.152069  -0.036958  -0.000334  -0.000016  -0.000022
    11  C   -0.010237   0.003635   0.291769  -0.000024   0.000009  -0.000109
    12  O   -0.059716  -0.022218   0.000140   0.000549   0.000069   0.000020
    13  C    6.216421  -0.066239  -0.001588   0.012668   0.000073   0.000138
    14  O   -0.066239   8.128666  -0.024942  -0.000040  -0.000022   0.000001
    15  C   -0.001588  -0.024942   5.185785   0.000030   0.000448   0.000133
    16  H    0.012668  -0.000040   0.000030   0.512566   0.000012  -0.003869
    17  H    0.000073  -0.000022   0.000448   0.000012   0.500598  -0.000124
    18  H    0.000138   0.000001   0.000133  -0.003869  -0.000124   0.497707
    19  H    0.001693   0.000721   0.001088  -0.000109  -0.004233   0.000012
    20  H   -0.000032   0.000000   0.000049  -0.000124  -0.003750  -0.003832
    21  H   -0.010390   0.000443  -0.000171   0.001128   0.000002  -0.000001
    22  H   -0.031918   0.008601  -0.000702  -0.000147   0.000000   0.000000
    23  H   -0.000821   0.000935  -0.038814   0.000000   0.000000   0.000000
    24  H    0.000536   0.000018  -0.036816   0.000000   0.000000   0.000000
    25  H   -0.006618   0.027936   0.000239  -0.000010  -0.000002   0.000000
    26  H    0.461244  -0.001545   0.000477   0.000002   0.000000   0.000000
    27  H    0.442407   0.000052   0.000031   0.000002   0.000000   0.000000
    28  H    0.424912   0.005132  -0.000172   0.000000   0.000000   0.000000
    29  H   -0.000517   0.001779   0.412630   0.000000  -0.000011   0.000000
    30  H    0.000313  -0.000460   0.396098   0.000000   0.000000   0.000000
    31  H    0.000124  -0.000511   0.398144   0.000000  -0.000001   0.000000
             19         20         21         22         23         24
     1  C    0.007832   0.000300   0.053671  -0.019657  -0.000047  -0.001977
     2  C    0.047078   0.016303   0.025947  -0.005483   0.000482   0.000736
     3  C    0.005331   0.017850   0.028370  -0.003617   0.000332  -0.000037
     4  C    0.140770  -0.000214   0.062918   0.007561   0.005167   0.000677
     5  C    0.131089   0.007642  -0.068888   0.000399  -0.002986   0.000489
     6  C   -0.014053   0.283425  -0.001867  -0.000966  -0.000245  -0.000060
     7  C   -0.013942   0.001807   0.261363  -0.003567  -0.004804  -0.001149
     8  C   -0.000800  -0.000369  -0.054102   0.356544   0.010597  -0.002196
     9  C    0.004742  -0.000277   0.025105  -0.017233  -0.003775   0.016739
    10  O   -0.000420   0.000008  -0.000334  -0.004434  -0.035799  -0.058431
    11  C   -0.003395   0.000117   0.000589  -0.000821   0.401945   0.414298
    12  O    0.010674  -0.000006  -0.054854   0.008875   0.000001   0.000002
    13  C    0.001693  -0.000032  -0.010390  -0.031918  -0.000821   0.000536
    14  O    0.000721   0.000000   0.000443   0.008601   0.000935   0.000018
    15  C    0.001088   0.000049  -0.000171  -0.000702  -0.038814  -0.036816
    16  H   -0.000109  -0.000124   0.001128  -0.000147   0.000000   0.000000
    17  H   -0.004233  -0.003750   0.000002   0.000000   0.000000   0.000000
    18  H    0.000012  -0.003832  -0.000001   0.000000   0.000000   0.000000
    19  H    0.519926  -0.000127   0.000061  -0.000001   0.000001   0.000000
    20  H   -0.000127   0.500518   0.000000   0.000000   0.000000   0.000000
    21  H    0.000061   0.000000   0.557156  -0.002519   0.000000   0.000000
    22  H   -0.000001   0.000000  -0.002519   0.511969  -0.000013  -0.000024
    23  H    0.000001   0.000000   0.000000  -0.000013   0.519393  -0.031054
    24  H    0.000000   0.000000   0.000000  -0.000024  -0.031054   0.523646
    25  H   -0.000861   0.000000   0.005913  -0.000047   0.000000   0.000000
    26  H    0.000000   0.000000   0.000024  -0.003884   0.000000  -0.000001
    27  H    0.000000   0.000000   0.003988  -0.003327   0.000000   0.000000
    28  H   -0.000001   0.000000  -0.000040   0.003863  -0.000004   0.000000
    29  H    0.000065  -0.000001   0.000000  -0.000008  -0.004997   0.003880
    30  H    0.000001   0.000000   0.000000   0.000000  -0.000930  -0.001271
    31  H   -0.000002  -0.000001   0.000000  -0.000011   0.003753  -0.004967
             25         26         27         28         29         30
     1  C   -0.029737  -0.003541   0.010965  -0.000670  -0.008541   0.000155
     2  C    0.025350  -0.000228   0.000549  -0.000162   0.013418  -0.000108
     3  C    0.004065  -0.000051   0.001453  -0.000017   0.001365   0.000032
     4  C   -0.064295  -0.003097  -0.003974  -0.003092   0.000388  -0.000030
     5  C    0.036195   0.000411  -0.003089  -0.001907  -0.006248  -0.000399
     6  C   -0.001963   0.000007   0.000006  -0.000070  -0.000892   0.000009
     7  C    0.034518   0.031735  -0.004904  -0.008807  -0.001997  -0.000056
     8  C   -0.065612  -0.166828  -0.087577  -0.038408   0.001895   0.000878
     9  C    0.044053   0.037400   0.004252  -0.024062  -0.000163   0.010220
    10  O    0.000619   0.003054   0.000066   0.000226  -0.006876   0.006428
    11  C    0.001605   0.000528   0.000261  -0.000520  -0.043557  -0.049018
    12  O    0.255475  -0.000290  -0.001635   0.005175   0.000023   0.000000
    13  C   -0.006618   0.461244   0.442407   0.424912  -0.000517   0.000313
    14  O    0.027936  -0.001545   0.000052   0.005132   0.001779  -0.000460
    15  C    0.000239   0.000477   0.000031  -0.000172   0.412630   0.396098
    16  H   -0.000010   0.000002   0.000002   0.000000   0.000000   0.000000
    17  H   -0.000002   0.000000   0.000000   0.000000  -0.000011   0.000000
    18  H    0.000000   0.000000   0.000000   0.000000   0.000000   0.000000
    19  H   -0.000861   0.000000   0.000000  -0.000001   0.000065   0.000001
    20  H    0.000000   0.000000   0.000000   0.000000  -0.000001   0.000000
    21  H    0.005913   0.000024   0.003988  -0.000040   0.000000   0.000000
    22  H   -0.000047  -0.003884  -0.003327   0.003863  -0.000008   0.000000
    23  H    0.000000   0.000000   0.000000  -0.000004  -0.004997  -0.000930
    24  H    0.000000  -0.000001   0.000000   0.000000   0.003880  -0.001271
    25  H    0.342723   0.000013   0.000206  -0.000177  -0.000002   0.000000
    26  H    0.000013   0.515095  -0.022856  -0.026459   0.000000   0.000000
    27  H    0.000206  -0.022856   0.506377  -0.022855   0.000000   0.000000
    28  H   -0.000177  -0.026459  -0.022855   0.499189   0.000000   0.000000
    29  H   -0.000002   0.000000   0.000000   0.000000   0.508449  -0.022483
    30  H    0.000000   0.000000   0.000000   0.000000  -0.022483   0.505331
    31  H    0.000000   0.000000   0.000000   0.000000  -0.028890  -0.022995
             31
     1  C    0.004627
     2  C    0.000521
     3  C    0.000846
     4  C   -0.000222
     5  C   -0.003614
     6  C   -0.000111
     7  C   -0.001051
     8  C    0.003106
     9  C   -0.000853
    10  O   -0.002761
    11  C   -0.035327
    12  O   -0.000012
    13  C    0.000124
    14  O   -0.000511
    15  C    0.398144
    16  H    0.000000
    17  H   -0.000001
    18  H    0.000000
    19  H   -0.000002
    20  H   -0.000001
    21  H    0.000000
    22  H   -0.000011
    23  H    0.003753
    24  H   -0.004967
    25  H    0.000000
    26  H    0.000000
    27  H    0.000000
    28  H    0.000000
    29  H   -0.028890
    30  H   -0.022995
    31  H    0.514105
 Mulliken atomic charges:
              1
     1  C   -0.102303
     2  C   -0.281961
     3  C   -0.200733
     4  C   -0.236419
     5  C    0.156081
     6  C   -0.161267
     7  C   -0.176235
     8  C    0.255932
     9  C   -0.051914
    10  O   -0.211676
    11  C   -0.035144
    12  O   -0.494778
    13  C   -0.593005
    14  O   -0.461837
    15  C   -0.489340
    16  H    0.173326
    17  H    0.181244
    18  H    0.183346
    19  H    0.166859
    20  H    0.180716
    21  H    0.166488
    22  H    0.200570
    23  H    0.181682
    24  H    0.176962
    25  H    0.390413
    26  H    0.178789
    27  H    0.179600
    28  H    0.188925
    29  H    0.181291
    30  H    0.178283
    31  H    0.176104
 Sum of Mulliken atomic charges =   0.00000
 Mulliken charges with hydrogens summed into heavy atoms:
              1
     1  C    0.071023
     2  C   -0.100717
     3  C   -0.017387
     4  C   -0.236419
     5  C    0.322940
     6  C    0.019449
     7  C   -0.009747
     8  C    0.456501
     9  C   -0.051914
    10  O   -0.211676
    11  C    0.323500
    12  O   -0.104365
    13  C   -0.045692
    14  O   -0.461837
    15  C    0.046339
 Sum of Mulliken charges with hydrogens summed into heavy atoms =   0.00000
 Electronic spatial extent (au):  <R**2>=           3214.4997
 Charge=              0.0000 electrons
 Dipole moment (field-independent basis, Debye):
    X=             -0.7441    Y=              2.7827    Z=             -3.1851  Tot=              4.2944
 Quadrupole moment (field-independent basis, Debye-Ang):
   XX=            -85.0710   YY=            -87.5540   ZZ=            -88.8201
   XY=              1.4509   XZ=              1.4184   YZ=              7.9024
 Traceless Quadrupole moment (field-independent basis, Debye-Ang):
   XX=              2.0774   YY=             -0.4057   ZZ=             -1.6717
   XY=              1.4509   XZ=              1.4184   YZ=              7.9024
 Octapole moment (field-independent basis, Debye-Ang**2):
  XXX=            -21.6245  YYY=             39.6844  ZZZ=             -0.0276  XYY=            -25.7470
  XXY=             26.2555  XXZ=            -11.5485  XZZ=              7.5462  YZZ=              1.3937
  YYZ=            -17.4553  XYZ=              3.8179
 Hexadecapole moment (field-independent basis, Debye-Ang**3):
 XXXX=          -2209.2444 YYYY=          -1449.5410 ZZZZ=           -529.5645 XXXY=             58.6648
 XXXZ=            -14.6386 YYYX=            -60.4425 YYYZ=             44.2541 ZZZX=            -10.1252
 ZZZY=              3.7039 XXYY=           -582.9298 XXZZ=           -452.8347 YYZZ=           -352.0626
 XXYZ=              2.1477 YYXZ=              8.0895 ZZXY=             11.3434
 N-N= 1.034465931697D+03 E-N=-3.680747046169D+03  KE= 6.859206922813D+02
 1\1\GINC-COMPUTE-8-6\SP\RwB97XD\6-31+G(d,p)\C12H16O3\ELUCIANO.IQUIR\17
 -May-2022\0\\# wb97xd/6-31+g** scrf=(pcm,solvent=chloroform,smd,dovacu
 um) nmr\\comment\\0,1\C,0,-1.992637368,-0.383324485,-1.298897592\C,0,0
 .190562119,-0.588064634,-3.015191144\C,0,-2.04569637,0.192366328,-2.56
 9879568\C,0,-0.845185713,-1.069586029,-0.865971592\C,0,0.244784955,-1.
 164744735,-1.744232285\C,0,-0.953256377,0.090999603,-3.4270925\C,0,-0.
 807900553,-1.652496301,0.537336158\C,0,-0.646320784,-0.581438904,1.632
 377324\C,0,0.665452483,0.144974012,1.443142979\O,0,0.479270952,1.49155
 0102,1.481005047\C,0,1.650741337,2.290721923,1.262409617\O,0,0.1657644
 45,-2.692165223,0.654099162\C,0,-0.677898705,-1.175380056,3.038128677\
 O,0,1.740376418,-0.423799077,1.288029425\C,0,1.884368001,2.479571658,-
 0.225094938\H,0,-2.859086943,-0.294191318,-0.646733994\H,0,1.043378348
 ,-0.672832899,-3.683849535\H,0,-2.941008644,0.717965118,-2.891655098\H
 ,0,1.150528779,-1.690354521,-1.449802014\H,0,-0.994145177,0.536613292,
 -4.417365913\H,0,-1.770326876,-2.156980307,0.69348882\H,0,-1.464679752
 ,0.144780672,1.543600222\H,0,2.527287757,1.854798217,1.755216194\H,0,1
 .46703158,3.262413345,1.732337837\H,0,1.035766017,-2.264802767,0.78663
 7968\H,0,-0.594728447,-0.384690624,3.792069393\H,0,-1.616269213,-1.711
 63895,3.21243907\H,0,0.151060414,-1.87148973,3.206183368\H,0,2.0834633
 45,1.522083041,-0.71651172\H,0,2.733734049,3.14516283,-0.40269989\H,0,
 0.995569922,2.90398042,-0.703523478\\Version=EM64L-G09RevC.01\State=1-
 A\HF=-692.4490938\RMSD=8.035e-09\Dipole=-0.4173319,1.6218028,0.2240191
 \Quadrupole=2.7258031,-5.8369222,3.111119,2.7598942,-2.3498377,-0.2767
 173\PG=C01 [X(C12H16O3)]\\@


 WE ARE REACHING THE STAGE WHERE THE PROBLEMS WE MUST SOLVE ARE 
 GOING TO BECOME INSOLUBLE WITHOUT COMPUTERS.
 I DO NOT FEAR COMPUTERS.  I FEAR THE LACK OF THEM.

                                   -- ISSAC ASIMOV
 Job cpu time:  0 days  1 hours 49 minutes 45.1 seconds.
 File lengths (MBytes):  RWF=    123 Int=      0 D2E=      0 Chk=      9 Scr=      1
 Normal termination of Gaussian 09 at Tue May 17 19:39:10 2022.
