 Entering Gaussian System, Link 0=g09
 Input=/home/eluciano.iquir/wb9/73b_027.gjc
 Output=/home/eluciano.iquir/wb9/73b_027.log
 Initial command:
 /share/apps/Gaussian09/EM64T.SSE4.2-enabled/g09/l1.exe /tmp/Gau-30501.inp -scrdir=/tmp/
 Entering Link 1 = /share/apps/Gaussian09/EM64T.SSE4.2-enabled/g09/l1.exe PID=     30502.
  
 Copyright (c) 1988,1990,1992,1993,1995,1998,2003,2009,2011,
            Gaussian, Inc.  All Rights Reserved.
  
 This is part of the Gaussian(R) 09 program.  It is based on
 the Gaussian(R) 03 system (copyright 2003, Gaussian, Inc.),
 the Gaussian(R) 98 system (copyright 1998, Gaussian, Inc.),
 the Gaussian(R) 94 system (copyright 1995, Gaussian, Inc.),
 the Gaussian 92(TM) system (copyright 1992, Gaussian, Inc.),
 the Gaussian 90(TM) system (copyright 1990, Gaussian, Inc.),
 the Gaussian 88(TM) system (copyright 1988, Gaussian, Inc.),
 the Gaussian 86(TM) system (copyright 1986, Carnegie Mellon
 University), and the Gaussian 82(TM) system (copyright 1983,
 Carnegie Mellon University). Gaussian is a federally registered
 trademark of Gaussian, Inc.
  
 This software contains proprietary and confidential information,
 including trade secrets, belonging to Gaussian, Inc.
  
 This software is provided under written license and may be
 used, copied, transmitted, or stored only in accord with that
 written license.
  
 The following legend is applicable only to US Government
 contracts under FAR:
  
                    RESTRICTED RIGHTS LEGEND
  
 Use, reproduction and disclosure by the US Government is
 subject to restrictions as set forth in subparagraphs (a)
 and (c) of the Commercial Computer Software - Restricted
 Rights clause in FAR 52.227-19.
  
 Gaussian, Inc.
 340 Quinnipiac St., Bldg. 40, Wallingford CT 06492
  
  
 ---------------------------------------------------------------
 Warning -- This program may not be used in any manner that
 competes with the business of Gaussian, Inc. or will provide
 assistance to any competitor of Gaussian, Inc.  The licensee
 of this program is prohibited from giving any competitor of
 Gaussian, Inc. access to this program.  By using this program,
 the user acknowledges that Gaussian, Inc. is engaged in the
 business of creating and licensing software in the field of
 computational chemistry and represents and warrants to the
 licensee that it is not a competitor of Gaussian, Inc. and that
 it will not use this program in any manner prohibited above.
 ---------------------------------------------------------------
  

 Cite this work as:
 Gaussian 09, Revision C.01,
 M. J. Frisch, G. W. Trucks, H. B. Schlegel, G. E. Scuseria, 
 M. A. Robb, J. R. Cheeseman, G. Scalmani, V. Barone, B. Mennucci, 
 G. A. Petersson, H. Nakatsuji, M. Caricato, X. Li, H. P. Hratchian, 
 A. F. Izmaylov, J. Bloino, G. Zheng, J. L. Sonnenberg, M. Hada, 
 M. Ehara, K. Toyota, R. Fukuda, J. Hasegawa, M. Ishida, T. Nakajima, 
 Y. Honda, O. Kitao, H. Nakai, T. Vreven, J. A. Montgomery, Jr., 
 J. E. Peralta, F. Ogliaro, M. Bearpark, J. J. Heyd, E. Brothers, 
 K. N. Kudin, V. N. Staroverov, T. Keith, R. Kobayashi, J. Normand, 
 K. Raghavachari, A. Rendell, J. C. Burant, S. S. Iyengar, J. Tomasi, 
 M. Cossi, N. Rega, J. M. Millam, M. Klene, J. E. Knox, J. B. Cross, 
 V. Bakken, C. Adamo, J. Jaramillo, R. Gomperts, R. E. Stratmann, 
 O. Yazyev, A. J. Austin, R. Cammi, C. Pomelli, J. W. Ochterski, 
 R. L. Martin, K. Morokuma, V. G. Zakrzewski, G. A. Voth, 
 P. Salvador, J. J. Dannenberg, S. Dapprich, A. D. Daniels, 
 O. Farkas, J. B. Foresman, J. V. Ortiz, J. Cioslowski, 
 and D. J. Fox, Gaussian, Inc., Wallingford CT, 2010.
 
 ******************************************
 Gaussian 09:  EM64L-G09RevC.01 23-Sep-2011
                17-May-2022 
 ******************************************
 %nprocshared=4
 Will use up to    4 processors via shared memory.
 ----------------------------------------------------------------
 # wb97xd/6-31+g** scrf=(pcm,solvent=chloroform,smd,dovacuum) nmr
 ----------------------------------------------------------------
 1/38=1/1;
 2/12=2,17=6,18=5,40=1/2;
 3/5=1,6=6,7=111,11=2,16=1,25=1,30=1,70=32101,72=7,74=-58/1,2,8,3;
 4//1;
 5/5=2,38=5,53=7/2;
 8/6=1,10=90,11=11/1;
 10/13=100,45=16/2;
 6/7=2,8=2,9=2,10=2,28=1/1;
 99/9=1/99;
 -------
 comment
 -------
 Charge =  0 Multiplicity = 1
 Symbolic Z-Matrix:
 6                     0.65718  -1.3338   -0.82417 
 6                    -0.00511  -3.56311   0.71034 
 6                     1.54901  -2.40362  -0.72134 
 6                    -0.57756  -1.36017  -0.15667 
 6                    -0.89626  -2.4931    0.60865 
 6                     1.21822  -3.51711   0.04687 
 6                    -1.52418  -0.17976  -0.26334 
 6                    -1.31309   0.92735   0.78399 
 6                    -0.02422   1.68345   0.53025 
 8                    -0.0965    2.33489  -0.66794 
 6                     1.02461   3.17176  -0.99411 
 8                    -2.8772   -0.65005  -0.18189 
 6                    -1.3927    0.44284   2.23353 
 8                     0.92445   1.74579   1.29885 
 6                     2.11184   2.36104  -1.67319 
 1                     0.93625  -0.47941  -1.43541 
 1                    -0.26859  -4.43165   1.30792 
 1                     2.50274  -2.36734  -1.24122 
 1                    -1.84941  -2.54723   1.13145 
 1                     1.91218  -4.34931   0.12727 
 1                    -1.42141   0.23205  -1.27562 
 1                    -2.12466   1.6614    0.67619 
 1                     1.40496   3.69021  -0.10648 
 1                     0.65723   3.94093  -1.68137 
 1                    -3.44866   0.05502  -0.52916 
 1                    -1.34564   1.29384   2.92269 
 1                    -2.33136  -0.08703   2.42397 
 1                    -0.5603   -0.22039   2.49056 
 1                     2.50619   1.592    -1.00176 
 1                     2.93784   3.00598  -1.986 
 1                     1.71413   1.84454  -2.55285 
 
                          Input orientation:                          
 ---------------------------------------------------------------------
 Center     Atomic      Atomic             Coordinates (Angstroms)
 Number     Number       Type             X           Y           Z
 ---------------------------------------------------------------------
      1          6           0        0.657178   -1.333800   -0.824172
      2          6           0       -0.005109   -3.563105    0.710344
      3          6           0        1.549014   -2.403624   -0.721340
      4          6           0       -0.577560   -1.360171   -0.156673
      5          6           0       -0.896257   -2.493097    0.608652
      6          6           0        1.218219   -3.517113    0.046875
      7          6           0       -1.524178   -0.179755   -0.263338
      8          6           0       -1.313091    0.927354    0.783992
      9          6           0       -0.024217    1.683446    0.530249
     10          8           0       -0.096500    2.334895   -0.667941
     11          6           0        1.024615    3.171763   -0.994113
     12          8           0       -2.877200   -0.650053   -0.181888
     13          6           0       -1.392704    0.442835    2.233526
     14          8           0        0.924449    1.745790    1.298852
     15          6           0        2.111840    2.361040   -1.673191
     16          1           0        0.936253   -0.479412   -1.435410
     17          1           0       -0.268585   -4.431649    1.307924
     18          1           0        2.502739   -2.367342   -1.241220
     19          1           0       -1.849413   -2.547232    1.131451
     20          1           0        1.912183   -4.349314    0.127267
     21          1           0       -1.421409    0.232047   -1.275616
     22          1           0       -2.124657    1.661395    0.676192
     23          1           0        1.404963    3.690209   -0.106484
     24          1           0        0.657228    3.940932   -1.681372
     25          1           0       -3.448661    0.055017   -0.529164
     26          1           0       -1.345643    1.293843    2.922687
     27          1           0       -2.331363   -0.087029    2.423965
     28          1           0       -0.560297   -0.220390    2.490560
     29          1           0        2.506193    1.591996   -1.001762
     30          1           0        2.937843    3.005983   -1.985999
     31          1           0        1.714126    1.844540   -2.552855
 ---------------------------------------------------------------------
                    Distance matrix (angstroms):
                    1          2          3          4          5
     1  C    0.000000
     2  C    2.786246   0.000000
     3  C    1.396592   2.410272   0.000000
     4  C    1.403862   2.435639   2.435150   0.000000
     5  C    2.410418   1.396211   2.785002   1.403856   0.000000
     6  C    2.416681   1.392421   1.392637   2.814010   2.415618
     7  C    2.530745   3.834408   3.820977   1.516854   2.550726
     8  C    3.403082   4.677656   4.642530   2.580432   3.450215
     9  C    3.376762   5.249675   4.554741   3.168857   4.267330
    10  O    3.748567   6.057592   5.016385   3.761160   5.057549
    11  C    4.523714   7.023101   5.606633   4.879210   6.192676
    12  O    3.656757   4.186987   4.791387   2.406917   2.818847
    13  C    4.087538   4.504782   5.048492   3.102958   3.392104
    14  O    3.750005   5.421696   4.657134   3.744540   4.664709
    15  C    4.060630   6.727422   4.891300   4.835298   6.149642
    16  H    1.086955   3.872929   2.141952   2.168532   3.404587
    17  H    3.872924   1.086688   3.396243   3.416795   2.154283
    18  H    2.155976   3.395254   1.086822   3.417436   3.871823
    19  H    3.402922   2.147274   3.873340   2.164715   1.088465
    20  H    3.402000   2.152699   2.153541   3.900566   3.400678
    21  H    2.641250   4.511443   4.009662   2.121149   3.354498
    22  H    4.354411   5.638178   5.654497   3.495288   4.332820
    23  H    5.129807   7.434116   6.126467   5.425795   6.636287
    24  H    5.343930   7.903769   6.478451   5.652530   7.003874
    25  H    4.344394   5.146381   5.573024   3.222535   3.781835
    26  H    4.995473   5.502858   5.943840   4.137174   4.460675
    27  H    4.586525   4.520073   5.506077   3.369928   3.338271
    28  H    3.702617   3.827682   4.419503   2.882229   2.969788
    29  H    3.465642   5.984398   4.118229   4.351896   5.555006
    30  H    5.038352   7.686621   5.726435   5.896422   7.188353
    31  H    3.769261   6.545751   4.629104   4.611256   5.968611
                    6          7          8          9         10
     6  C    0.000000
     7  C    4.330696   0.000000
     8  C    5.167607   1.538554   0.000000
     9  C    5.368715   2.520155   1.515670   0.000000
    10  O    6.040318   2.919835   2.359952   1.365749   0.000000
    11  C    6.772163   4.273529   3.696471   2.374619   1.436535
    12  O    5.004480   1.434741   2.422307   3.753913   4.108339
    13  C    5.222983   2.576671   1.530440   2.512573   3.698452
    14  O    5.417739   3.484816   2.437520   1.222540   2.292957
    15  C    6.189496   4.654456   4.452343   3.142773   2.426515
    16  H    3.391798   2.741764   3.458943   3.076406   3.094497
    17  H    2.153418   4.703613   5.484926   6.169187   7.051224
    18  H    2.152011   4.685920   5.432961   5.092395   5.403306
    19  H    3.395194   2.766977   3.532863   4.646656   5.490508
    20  H    1.086558   5.417229   6.219076   6.348719   7.024657
    21  H    4.772087   1.097656   2.176504   2.705522   2.558637
    22  H    6.195789   2.152470   1.099580   2.105619   2.524622
    23  H    7.211371   4.856037   3.976698   2.544619   2.099166
    24  H    7.676195   4.873337   4.363694   3.232936   2.043160
    25  H    5.905227   1.956889   2.654432   3.937125   4.056364
    26  H    6.163521   3.514844   2.170113   2.760745   3.941669
    27  H    5.478647   2.807444   2.180680   3.470398   4.518873
    28  H    4.472482   2.917991   2.190066   2.784743   4.089097
    29  H    5.372291   4.464109   4.268208   2.959459   2.727150
    30  H    7.045599   5.746836   5.483063   4.105412   3.375629
    31  H    5.979284   4.452670   4.597806   3.543066   2.659269
                   11         12         13         14         15
    11  C    0.000000
    12  O    5.521788   0.000000
    13  C    4.869100   3.038479   0.000000
    14  O    2.702059   4.731299   2.817890   0.000000
    15  C    1.516733   6.015080   5.587824   3.259060   0.000000
    16  H    3.678809   4.017818   4.442485   3.525316   3.083296
    17  H    8.048827   4.829584   5.087335   6.291595   7.790641
    18  H    5.738257   5.745869   5.928358   5.085354   4.764137
    19  H    6.744254   2.525964   3.219263   5.113939   6.902802
    20  H    7.655839   6.059563   6.190582   6.284785   6.950566
    21  H    3.834607   2.023281   3.515584   3.797678   4.144216
    22  H    3.871568   2.577870   2.108538   3.113178   4.894590
    23  H    1.096055   6.097579   4.883444   2.446759   2.172772
    24  H    1.094951   5.984795   5.636073   3.711036   2.147562
    25  H    5.471789   0.971747   3.465518   5.032340   6.127456
    26  H    4.948336   3.970237   1.096072   2.827439   5.849376
    27  H    5.793580   2.721287   1.094579   3.901976   6.520873
    28  H    5.114841   3.562951   1.094913   2.736879   5.580405
    29  H    2.165825   5.888964   5.195100   2.796139   1.094422
    30  H    2.161426   7.101840   6.567173   4.053651   1.093655
    31  H    2.160237   5.738009   5.875935   3.933063   1.094878
                   16         17         18         19         20
    16  H    0.000000
    17  H    4.959606   0.000000
    18  H    2.460867   4.294151   0.000000
    19  H    4.315622   2.466006   4.960156   0.000000
    20  H    4.286087   2.481226   2.479864   4.290162   0.000000
    21  H    2.467849   5.454699   4.707116   3.701561   5.836933
    22  H    4.290815   6.400724   6.428062   4.242118   7.261269
    23  H    4.401304   8.412246   6.259925   7.143467   8.058898
    24  H    4.435966   8.938295   6.587410   7.502766   8.577544
    25  H    4.509365   5.798098   6.464828   3.476627   6.969052
    26  H    5.229197   6.045558   6.749255   4.268041   7.090348
    27  H    5.072086   4.937238   6.480891   2.820544   6.438135
    28  H    4.209513   4.383882   5.283727   2.987170   5.361560
    29  H    2.635051   7.022702   3.966574   6.376137   6.076736
    30  H    4.056783   8.743539   5.442117   7.967089   7.721287
    31  H    2.693422   7.630682   4.481322   6.749858   6.751749
                   21         22         23         24         25
    21  H    0.000000
    22  H    2.519355   0.000000
    23  H    4.616723   4.145707   0.000000
    24  H    4.270971   4.300381   1.761318   0.000000
    25  H    2.167552   2.405477   6.078729   5.769423   0.000000
    26  H    4.331155   2.405972   4.741759   5.675907   4.227606
    27  H    3.823182   2.480811   5.884796   6.481507   3.160617
    28  H    3.889768   3.046353   5.089172   6.016974   4.187747
    29  H    4.165395   4.925964   2.533126   3.065622   6.168140
    30  H    5.215596   5.875720   2.520012   2.483572   7.184567
    31  H    3.750074   5.019615   3.080066   2.504271   5.826842
                   26         27         28         29         30
    26  H    0.000000
    27  H    1.768382   0.000000
    28  H    1.759661   1.777328   0.000000
    29  H    5.506981   6.160900   4.988429   0.000000
    30  H    6.736087   7.535186   6.533456   1.776064   0.000000
    31  H    6.296587   6.698184   5.905334   1.759840   1.779820
                   31
    31  H    0.000000
 Stoichiometry    C12H16O3
 Framework group  C1[X(C12H16O3)]
 Deg. of freedom    87
 Full point group                 C1      NOp   1
 Largest Abelian subgroup         C1      NOp   1
 Largest concise Abelian subgroup C1      NOp   1
                         Standard orientation:                         
 ---------------------------------------------------------------------
 Center     Atomic      Atomic             Coordinates (Angstroms)
 Number     Number       Type             X           Y           Z
 ---------------------------------------------------------------------
      1          6           0        0.995967    1.295570   -0.496573
      2          6           0        3.498482    0.507149    0.440962
      3          6           0        1.913079    2.252886   -0.057347
      4          6           0        1.314402   -0.071414   -0.468650
      5          6           0        2.581243   -0.450101    0.003073
      6          6           0        3.163281    1.858322    0.412494
      7          6           0        0.297477   -1.097915   -0.930174
      8          6           0       -0.668047   -1.600003    0.157401
      9          6           0       -1.648798   -0.517531    0.561922
     10          8           0       -2.444692   -0.192254   -0.499218
     11          6           0       -3.487876    0.758284   -0.231115
     12          8           0        0.984719   -2.220459   -1.501203
     13          6           0        0.024972   -2.202624    1.381664
     14          8           0       -1.751531   -0.035823    1.680854
     15          6           0       -2.966751    2.174577   -0.382843
     16          1           0        0.029531    1.629944   -0.864906
     17          1           0        4.474301    0.195328    0.803503
     18          1           0        1.650960    3.307341   -0.081852
     19          1           0        2.861127   -1.501636    0.029445
     20          1           0        3.876712    2.603020    0.754619
     21          1           0       -0.265763   -0.650995   -1.759555
     22          1           0       -1.270719   -2.415339   -0.268145
     23          1           0       -3.928279    0.596050    0.759370
     24          1           0       -4.278612    0.577642   -0.966656
     25          1           0        0.337767   -2.714996   -2.031466
     26          1           0       -0.715345   -2.638770    2.062163
     27          1           0        0.719740   -2.997735    1.093220
     28          1           0        0.576459   -1.448910    1.953165
     29          1           0       -2.182706    2.385715    0.350952
     30          1           0       -3.773396    2.900701   -0.248129
     31          1           0       -2.524334    2.317727   -1.374071
 ---------------------------------------------------------------------
 Rotational constants (GHZ):      0.8289385      0.4430342      0.3518176
 Standard basis: 6-31+G(d,p) (6D, 7F)
 There are   365 symmetry adapted basis functions of A   symmetry.
 Integral buffers will be    131072 words long.
 Raffenetti 2 integral format.
 Two-electron integral symmetry is turned on.
   365 basis functions,   592 primitive gaussians,   365 cartesian basis functions
    56 alpha electrons       56 beta electrons
       nuclear repulsion energy      1022.9908820208 Hartrees.
 NAtoms=   31 NActive=   31 NUniq=   31 SFac= 1.00D+00 NAtFMM=   60 NAOKFM=F Big=F
 Nuclear repulsion after empirical dispersion term =     1022.9683575853 Hartrees.
 ------------------------------------------------------------------------------
 Polarizable Continuum Model (PCM)
 =================================
 Model                : C-PCM.
 Atomic radii         : SMD-Coulomb.
 Polarization charges : Total charges.
 Charge compensation  : None.
 Solution method      : Matrix inversion.
 Cavity type          : VdW (van der Waals Surface) (Alpha=1.000).
 Cavity algorithm     : GePol (No added spheres)
                        Default sphere list used, NSphG=   31.
                        Lebedev-Laikov grids with approx.  5.0 points / Ang**2.
                        Smoothing algorithm: Karplus/York (Gamma=1.0000).
                        Polarization charges: spherical gaussians, with
                                              point-specific exponents (IZeta= 3).
                        Self-potential: point-specific (ISelfS= 7).
                        Self-field    : sphere-specific E.n sum rule (ISelfD= 2).
 Solvent              : Chloroform, Eps=   4.711300 Eps(inf)=   2.090627
 ------------------------------------------------------------------------------
 ------------------------------------------------------------------------------
 Atomic radii for non-electrostatic terms: SMD-CDS.
 ------------------------------------------------------------------------------
 Nuclear repulsion after PCM non-electrostatic terms =     1022.9618969857 Hartrees.
 One-electron integrals computed using PRISM.
 NBasis=   365 RedAO= T  NBF=   365
 NBsUse=   365 1.00D-06 NBFU=   365
 Harris functional with IExCor= 4639 diagonalized for initial guess.
 ExpMin= 4.38D-02 ExpMax= 5.48D+03 ExpMxC= 8.25D+02 IAcc=2 IRadAn=         4 AccDes= 0.00D+00
 HarFok:  IExCor= 4639 AccDes= 0.00D+00 IRadAn=         4 IDoV= 1
 ScaDFX=  1.000000  1.000000  1.000000  1.000000
 FoFCou: FMM=F IPFlag=           0 FMFlag=      100000 FMFlg1=           0
         NFxFlg=           0 DoJE=T BraDBF=F KetDBF=T FulRan=T
         Omega=  0.000000  0.000000  1.000000  0.000000  0.000000 ICntrl=     500 IOpCl=  0
         NMat0=    1 NMatS0=    1 NMatT0=    0 NMatD0=    1 NMtDS0=    0 NMtDT0=    0
         I1Cent=           4 NGrid=           0.
 Petite list used in FoFCou.
 Initial guess orbital symmetries:
       Occupied  (A) (A) (A) (A) (A) (A) (A) (A) (A) (A) (A) (A)
                 (A) (A) (A) (A) (A) (A) (A) (A) (A) (A) (A) (A)
                 (A) (A) (A) (A) (A) (A) (A) (A) (A) (A) (A) (A)
                 (A) (A) (A) (A) (A) (A) (A) (A) (A) (A) (A) (A)
                 (A) (A) (A) (A) (A) (A) (A) (A)
       Virtual   (A) (A) (A) (A) (A) (A) (A) (A) (A) (A) (A) (A)
                 (A) (A) (A) (A) (A) (A) (A) (A) (A) (A) (A) (A)
                 (A) (A) (A) (A) (A) (A) (A) (A) (A) (A) (A) (A)
                 (A) (A) (A) (A) (A) (A) (A) (A) (A) (A) (A) (A)
                 (A) (A) (A) (A) (A) (A) (A) (A) (A) (A) (A) (A)
                 (A) (A) (A) (A) (A) (A) (A) (A) (A) (A) (A) (A)
                 (A) (A) (A) (A) (A) (A) (A) (A) (A) (A) (A) (A)
                 (A) (A) (A) (A) (A) (A) (A) (A) (A) (A) (A) (A)
                 (A) (A) (A) (A) (A) (A) (A) (A) (A) (A) (A) (A)
                 (A) (A) (A) (A) (A) (A) (A) (A) (A) (A) (A) (A)
                 (A) (A) (A) (A) (A) (A) (A) (A) (A) (A) (A) (A)
                 (A) (A) (A) (A) (A) (A) (A) (A) (A) (A) (A) (A)
                 (A) (A) (A) (A) (A) (A) (A) (A) (A) (A) (A) (A)
                 (A) (A) (A) (A) (A) (A) (A) (A) (A) (A) (A) (A)
                 (A) (A) (A) (A) (A) (A) (A) (A) (A) (A) (A) (A)
                 (A) (A) (A) (A) (A) (A) (A) (A) (A) (A) (A) (A)
                 (A) (A) (A) (A) (A) (A) (A) (A) (A) (A) (A) (A)
                 (A) (A) (A) (A) (A) (A) (A) (A) (A) (A) (A) (A)
                 (A) (A) (A) (A) (A) (A) (A) (A) (A) (A) (A) (A)
                 (A) (A) (A) (A) (A) (A) (A) (A) (A) (A) (A) (A)
                 (A) (A) (A) (A) (A) (A) (A) (A) (A) (A) (A) (A)
                 (A) (A) (A) (A) (A) (A) (A) (A) (A) (A) (A) (A)
                 (A) (A) (A) (A) (A) (A) (A) (A) (A) (A) (A) (A)
                 (A) (A) (A) (A) (A) (A) (A) (A) (A) (A) (A) (A)
                 (A) (A) (A) (A) (A) (A) (A) (A) (A) (A) (A) (A)
                 (A) (A) (A) (A) (A) (A) (A) (A) (A)
 The electronic state of the initial guess is 1-A.
 Requested convergence on RMS density matrix=1.00D-08 within 128 cycles.
 Requested convergence on MAX density matrix=1.00D-06.
 Requested convergence on             energy=1.00D-06.
 No special actions if energy rises.
 FoFJK:  IHMeth= 1 ICntrl=     0 DoSepK=T KAlg= 1 I1Cent= 0 FoldK=F
 FoFJK:  IHMeth= 1 ICntrl=     0 DoSepK=T KAlg= 1 I1Cent= 0 FoldK=F
 FoFJK:  IHMeth= 1 ICntrl=     0 DoSepK=T KAlg= 1 I1Cent= 0 FoldK=F
 FoFJK:  IHMeth= 1 ICntrl=     0 DoSepK=T KAlg= 1 I1Cent= 0 FoldK=F
 FoFJK:  IHMeth= 1 ICntrl=     0 DoSepK=T KAlg= 1 I1Cent= 0 FoldK=F
 FoFJK:  IHMeth= 1 ICntrl=     0 DoSepK=T KAlg= 1 I1Cent= 0 FoldK=F
 FoFJK:  IHMeth= 1 ICntrl=     0 DoSepK=T KAlg= 1 I1Cent= 0 FoldK=F
 FoFJK:  IHMeth= 1 ICntrl=     0 DoSepK=T KAlg= 1 I1Cent= 0 FoldK=F
 FoFJK:  IHMeth= 1 ICntrl=     0 DoSepK=T KAlg= 1 I1Cent= 0 FoldK=F
 FoFJK:  IHMeth= 1 ICntrl=     0 DoSepK=T KAlg= 1 I1Cent= 0 FoldK=F
 FoFJK:  IHMeth= 1 ICntrl=     0 DoSepK=T KAlg= 1 I1Cent= 0 FoldK=F
 FoFJK:  IHMeth= 1 ICntrl=     0 DoSepK=T KAlg= 1 I1Cent= 0 FoldK=F
 FoFJK:  IHMeth= 1 ICntrl=     0 DoSepK=T KAlg= 1 I1Cent= 0 FoldK=F
 FoFJK:  IHMeth= 1 ICntrl=     0 DoSepK=T KAlg= 1 I1Cent= 0 FoldK=F
 FoFJK:  IHMeth= 1 ICntrl=     0 DoSepK=T KAlg= 1 I1Cent= 0 FoldK=F
 FoFJK:  IHMeth= 1 ICntrl=     0 DoSepK=T KAlg= 1 I1Cent= 0 FoldK=F
 Error on total polarization charges =  0.03764
 SCF Done:  E(RwB97XD) =  -692.444602974     A.U. after   16 cycles
             Convg  =    0.3600D-08             -V/T =  2.0096
 SMD-CDS (non-electrostatic) energy       (kcal/mol) =      -4.05
 (included in total energy above)
 Range of M.O.s used for correlation:     1   365
 NBasis=   365 NAE=    56 NBE=    56 NFC=     0 NFV=     0
 NROrb=    365 NOA=    56 NOB=    56 NVA=   309 NVB=   309

 **** Warning!!: The largest alpha MO coefficient is  0.12192666D+03

 NEqPCM:  Using equilibrium solvation (IEInf=0, Eps=   4.7113, EpsInf=   2.0906)
          Differentiating once with respect to magnetic field using GIAOs.
          Electric field/nuclear overlap derivatives assumed to be zero.
 FoFCou: FMM=F IPFlag=           0 FMFlag=    10101102 FMFlg1=           0
         NFxFlg=    40000000 DoJE=F BraDBF=F KetDBF=T FulRan=T
         Omega=  0.000000  0.000000  1.000000  0.000000  0.000000 ICntrl=    6100 IOpCl=  0
         NMat0=    1 NMatS0=    1 NMatT0=    0 NMatD0=    1 NMtDS0=    0 NMtDT0=    0
         I1Cent=           7 NGrid=        2310.
 Symmetry not used in FoFCou.
 FoFJK:  IHMeth= 1 ICntrl=  6127 DoSepK=T KAlg= 1 I1Cent= 0 FoldK=F
 FoFJK:  IHMeth= 1 ICntrl=     0 DoSepK=T KAlg= 1 I1Cent= 0 FoldK=F
          There are     3 degrees of freedom in the 1st order CPHF.  IDoFFX=0.
      3 vectors produced by pass  0 Test12= 5.77D-13 3.33D-08 XBig12= 1.22D+02 1.85D+00.
 AX will form     3 AO Fock derivatives at one time.
 FoFJK:  IHMeth= 1 ICntrl=     0 DoSepK=T KAlg= 1 I1Cent= 0 FoldK=F
      3 vectors produced by pass  1 Test12= 5.77D-13 3.33D-08 XBig12= 1.00D+00 2.83D-01.
 FoFJK:  IHMeth= 1 ICntrl=     0 DoSepK=T KAlg= 1 I1Cent= 0 FoldK=F
      3 vectors produced by pass  2 Test12= 5.77D-13 3.33D-08 XBig12= 2.03D-02 5.67D-02.
 FoFJK:  IHMeth= 1 ICntrl=     0 DoSepK=T KAlg= 1 I1Cent= 0 FoldK=F
      3 vectors produced by pass  3 Test12= 5.77D-13 3.33D-08 XBig12= 3.63D-04 4.61D-03.
 FoFJK:  IHMeth= 1 ICntrl=     0 DoSepK=T KAlg= 1 I1Cent= 0 FoldK=F
      3 vectors produced by pass  4 Test12= 5.77D-13 3.33D-08 XBig12= 5.38D-06 4.37D-04.
 FoFJK:  IHMeth= 1 ICntrl=     0 DoSepK=T KAlg= 1 I1Cent= 0 FoldK=F
      3 vectors produced by pass  5 Test12= 5.77D-13 3.33D-08 XBig12= 1.10D-07 9.23D-05.
 FoFJK:  IHMeth= 1 ICntrl=     0 DoSepK=T KAlg= 1 I1Cent= 0 FoldK=F
      3 vectors produced by pass  6 Test12= 5.77D-13 3.33D-08 XBig12= 2.18D-09 1.18D-05.
 FoFJK:  IHMeth= 1 ICntrl=     0 DoSepK=T KAlg= 1 I1Cent= 0 FoldK=F
      3 vectors produced by pass  7 Test12= 5.77D-13 3.33D-08 XBig12= 2.82D-11 1.16D-06.
 FoFJK:  IHMeth= 1 ICntrl=     0 DoSepK=T KAlg= 1 I1Cent= 0 FoldK=F
      1 vectors produced by pass  8 Test12= 5.77D-13 3.33D-08 XBig12= 3.14D-13 1.12D-07.
 FoFJK:  IHMeth= 1 ICntrl=     0 DoSepK=T KAlg= 1 I1Cent= 0 FoldK=F
 Inverted reduced A of dimension    25 with in-core refinement.
 Calculating GIAO nuclear magnetic shielding tensors.
 SCF GIAO Magnetic shielding tensor (ppm):
      1  C    Isotropic =    71.9690   Anisotropy =   165.7970
   XX=     8.2552   YX=    21.2643   ZX=   -68.5693
   XY=    28.6441   YY=    50.2746   ZY=     1.4846
   XZ=   -63.6624   YZ=    13.1463   ZZ=   157.3772
   Eigenvalues:   -25.6874    59.0941   182.5004
      2  C    Isotropic =    70.7135   Anisotropy =   175.2299
   XX=     3.9741   YX=    25.2981   ZX=   -71.1950
   XY=    27.5535   YY=    50.0710   ZY=    -0.5167
   XZ=   -74.1462   YZ=     2.5436   ZZ=   158.0955
   Eigenvalues:   -32.4528    57.0598   187.5334
      3  C    Isotropic =    70.9155   Anisotropy =   173.5036
   XX=    71.0454   YX=    24.3111   ZX=   -44.9256
   XY=    24.2078   YY=   -26.6930   ZY=    -6.4667
   XZ=   -43.3393   YZ=    -8.3219   ZZ=   168.3940
   Eigenvalues:   -32.4285    58.5904   186.5846
      4  C    Isotropic =    57.3443   Anisotropy =   176.1036
   XX=    27.3496   YX=   -28.8254   ZX=   -62.6404
   XY=   -25.6135   YY=     0.1386   ZY=   -19.1557
   XZ=   -70.3269   YZ=   -17.4570   ZZ=   144.5448
   Eigenvalues:   -33.7090    30.9953   174.7467
      5  C    Isotropic =    71.0516   Anisotropy =   183.2041
   XX=    61.9544   YX=    25.7621   ZX=   -49.8495
   XY=    27.0646   YY=   -23.8750   ZY=    -9.9371
   XZ=   -44.7052   YZ=    -1.2829   ZZ=   175.0753
   Eigenvalues:   -31.6548    51.6218   193.1877
      6  C    Isotropic =    71.8251   Anisotropy =   176.4298
   XX=    38.5682   YX=   -33.8857   ZX=   -62.9459
   XY=   -35.1792   YY=    15.9697   ZY=   -27.6208
   XZ=   -65.2106   YZ=   -30.9766   ZZ=   160.9373
   Eigenvalues:   -30.1650    56.1953   189.4449
      7  C    Isotropic =   122.6988   Anisotropy =    37.6204
   XX=   117.6072   YX=   -10.9899   ZX=   -11.0033
   XY=   -12.7441   YY=   138.1289   ZY=    11.6429
   XZ=    -8.3079   YZ=     6.1456   ZZ=   112.3603
   Eigenvalues:   104.9772   115.3401   147.7790
      8  C    Isotropic =   146.8007   Anisotropy =    28.2441
   XX=   150.6349   YX=   -11.4959   ZX=    -3.8756
   XY=   -10.6569   YY=   152.3254   ZY=    -3.7350
   XZ=   -19.8113   YZ=     5.8839   ZZ=   137.4417
   Eigenvalues:   129.3482   145.4237   165.6301
      9  C    Isotropic =    21.2549   Anisotropy =    96.1700
   XX=     2.1815   YX=    59.8963   ZX=   -36.9882
   XY=    54.0066   YY=    35.9432   ZY=     1.6940
   XZ=   -59.7745   YZ=    28.2401   ZZ=    25.6401
   Eigenvalues:   -65.7992    44.1958    85.3683
     10  O    Isotropic =   130.5517   Anisotropy =   154.6316
   XX=   152.2834   YX=    63.6274   ZX=    19.4368
   XY=    98.7777   YY=   139.9520   ZY=   -54.3575
   XZ=   133.4947   YZ=  -154.4278   ZZ=    99.4198
   Eigenvalues:   -48.0091   206.0248   233.6395
     11  C    Isotropic =   136.8703   Anisotropy =    66.3677
   XX=   156.5528   YX=   -23.7815   ZX=    -8.7280
   XY=   -26.1450   YY=   153.8089   ZY=     6.4545
   XZ=    -7.2403   YZ=     1.9373   ZZ=   100.2492
   Eigenvalues:    99.1271   130.3683   181.1154
     12  O    Isotropic =   286.6049   Anisotropy =    90.9954
   XX=   288.8436   YX=    44.4020   ZX=    11.1730
   XY=    22.2641   YY=   300.8673   ZY=    51.2209
   XZ=    -9.5663   YZ=    39.7920   ZZ=   270.1039
   Eigenvalues:   230.5268   282.0195   347.2685
     13  C    Isotropic =   186.0351   Anisotropy =    10.2964
   XX=   186.8651   YX=    -2.2702   ZX=     3.8939
   XY=    -3.0409   YY=   184.5484   ZY=    -5.0313
   XZ=     2.6286   YZ=    -3.3988   ZZ=   186.6917
   Eigenvalues:   181.2684   183.9375   192.8993
     14  O    Isotropic =   -49.3705   Anisotropy =   580.1206
   XX=    26.4615   YX=   235.4931   ZX=  -128.0133
   XY=   224.1633   YY=    99.9670   ZY=   -95.7353
   XZ=  -120.1835   YZ=  -110.5286   ZZ=  -274.5401
   Eigenvalues:  -320.5542  -164.9339   337.3765
     15  C    Isotropic =   180.9262   Anisotropy =    23.1864
   XX=   182.5073   YX=     3.1399   ZX=    -5.9631
   XY=    -1.1537   YY=   196.1744   ZY=    -2.0402
   XZ=    -5.1641   YZ=    -1.2415   ZZ=   164.0968
   Eigenvalues:   162.4947   183.9000   196.3838
     16  H    Isotropic =    24.0456   Anisotropy =     7.0210
   XX=    25.0819   YX=     2.1053   ZX=     0.0356
   XY=     1.8419   YY=    27.6484   ZY=    -0.4652
   XZ=     0.5580   YZ=    -0.4376   ZZ=    19.4066
   Eigenvalues:    19.3510    24.0596    28.7263
     17  H    Isotropic =    23.7092   Anisotropy =     4.9635
   XX=    24.3304   YX=     1.1045   ZX=     1.3886
   XY=     1.1530   YY=    26.2136   ZY=     0.8521
   XZ=     1.1970   YZ=     0.8345   ZZ=    20.5835
   Eigenvalues:    20.1420    23.9673    27.0182
     18  H    Isotropic =    23.8941   Anisotropy =     5.6770
   XX=    26.2632   YX=     1.2975   ZX=     2.1376
   XY=     1.5521   YY=    24.3804   ZY=     0.3662
   XZ=     2.1162   YZ=     0.4203   ZZ=    21.0386
   Eigenvalues:    20.2792    23.7243    27.6787
     19  H    Isotropic =    23.4298   Anisotropy =     9.8060
   XX=    28.7408   YX=     1.5399   ZX=     2.8405
   XY=     2.2173   YY=    21.4630   ZY=     0.8227
   XZ=     2.3157   YZ=     1.2986   ZZ=    20.0856
   Eigenvalues:    19.2242    21.0981    29.9672
     20  H    Isotropic =    23.8157   Anisotropy =     4.1073
   XX=    25.2254   YX=    -0.9476   ZX=     1.6310
   XY=    -0.9071   YY=    25.4465   ZY=    -0.1386
   XZ=     1.5267   YZ=    -0.3374   ZZ=    20.7754
   Eigenvalues:    20.2715    24.6218    26.5540
     21  H    Isotropic =    26.0030   Anisotropy =     6.8780
   XX=    25.3860   YX=    -3.9024   ZX=     0.6044
   XY=    -3.4992   YY=    27.3726   ZY=    -1.4026
   XZ=     2.7008   YZ=     0.4035   ZZ=    25.2504
   Eigenvalues:    22.1875    25.2332    30.5883
     22  H    Isotropic =    28.6984   Anisotropy =     5.6984
   XX=    29.9642   YX=     1.7566   ZX=     2.8907
   XY=     1.6823   YY=    29.3852   ZY=     1.8808
   XZ=     2.3329   YZ=    -0.5484   ZZ=    26.7460
   Eigenvalues:    25.2689    28.3290    32.4974
     23  H    Isotropic =    26.8900   Anisotropy =     6.8729
   XX=    29.6744   YX=    -1.3724   ZX=    -3.9468
   XY=    -0.9005   YY=    25.7574   ZY=    -0.5796
   XZ=    -2.6553   YZ=    -1.7427   ZZ=    25.2383
   Eigenvalues:    22.6826    26.5156    31.4719
     24  H    Isotropic =    27.6694   Anisotropy =     8.5281
   XX=    31.9335   YX=     0.2653   ZX=     4.7118
   XY=     0.0014   YY=    27.2147   ZY=     0.9119
   XZ=     2.5229   YZ=     1.0677   ZZ=    23.8599
   Eigenvalues:    22.3185    27.3348    33.3548
     25  H    Isotropic =    29.7153   Anisotropy =    18.9189
   XX=    29.4522   YX=     2.6026   ZX=     5.2579
   XY=     4.8208   YY=    30.5260   ZY=     9.5743
   XZ=     5.4318   YZ=     9.0165   ZZ=    29.1679
   Eigenvalues:    20.2541    26.5640    42.3279
     26  H    Isotropic =    30.7997   Anisotropy =    11.0953
   XX=    30.1608   YX=     2.6145   ZX=    -2.9604
   XY=     1.5801   YY=    30.0737   ZY=    -4.9736
   XZ=    -3.7097   YZ=    -5.1530   ZZ=    32.1646
   Eigenvalues:    25.8674    28.3351    38.1966
     27  H    Isotropic =    30.2459   Anisotropy =     8.8961
   XX=    29.8297   YX=    -4.2952   ZX=    -0.6874
   XY=    -4.9860   YY=    32.6145   ZY=    -1.0191
   XZ=    -0.6518   YZ=    -2.2596   ZZ=    28.2936
   Eigenvalues:    25.5233    29.0378    36.1767
     28  H    Isotropic =    30.9594   Anisotropy =     5.8137
   XX=    30.6350   YX=     3.7932   ZX=     2.7103
   XY=     2.5314   YY=    29.5445   ZY=     1.7254
   XZ=     1.2055   YZ=    -0.8992   ZZ=    32.6987
   Eigenvalues:    26.7185    31.3245    34.8352
     29  H    Isotropic =    30.0734   Anisotropy =     6.0199
   XX=    30.9320   YX=     1.3516   ZX=     4.2726
   XY=     1.1076   YY=    31.2637   ZY=     1.5714
   XZ=     2.2439   YZ=     0.9171   ZZ=    28.0244
   Eigenvalues:    25.8822    30.2513    34.0866
     30  H    Isotropic =    30.4804   Anisotropy =    11.6302
   XX=    31.0714   YX=    -4.8031   ZX=    -0.4722
   XY=    -5.6338   YY=    34.3702   ZY=     0.4343
   XZ=    -0.7631   YZ=     0.3991   ZZ=    25.9996
   Eigenvalues:    25.9120    27.2952    38.2339
     31  H    Isotropic =    30.2587   Anisotropy =     6.8775
   XX=    28.6829   YX=     0.2020   ZX=    -2.5848
   XY=     0.6249   YY=    29.9773   ZY=    -3.5096
   XZ=    -1.8327   YZ=    -2.3150   ZZ=    32.1160
   Eigenvalues:    27.0884    28.8440    34.8437
 End of Minotr Frequency-dependent properties file   721 does not exist.
 End of Minotr Frequency-dependent properties file   722 does not exist.

 **********************************************************************

            Population analysis using the SCF density.

 **********************************************************************

 Orbital symmetries:
       Occupied  (A) (A) (A) (A) (A) (A) (A) (A) (A) (A) (A) (A)
                 (A) (A) (A) (A) (A) (A) (A) (A) (A) (A) (A) (A)
                 (A) (A) (A) (A) (A) (A) (A) (A) (A) (A) (A) (A)
                 (A) (A) (A) (A) (A) (A) (A) (A) (A) (A) (A) (A)
                 (A) (A) (A) (A) (A) (A) (A) (A)
       Virtual   (A) (A) (A) (A) (A) (A) (A) (A) (A) (A) (A) (A)
                 (A) (A) (A) (A) (A) (A) (A) (A) (A) (A) (A) (A)
                 (A) (A) (A) (A) (A) (A) (A) (A) (A) (A) (A) (A)
                 (A) (A) (A) (A) (A) (A) (A) (A) (A) (A) (A) (A)
                 (A) (A) (A) (A) (A) (A) (A) (A) (A) (A) (A) (A)
                 (A) (A) (A) (A) (A) (A) (A) (A) (A) (A) (A) (A)
                 (A) (A) (A) (A) (A) (A) (A) (A) (A) (A) (A) (A)
                 (A) (A) (A) (A) (A) (A) (A) (A) (A) (A) (A) (A)
                 (A) (A) (A) (A) (A) (A) (A) (A) (A) (A) (A) (A)
                 (A) (A) (A) (A) (A) (A) (A) (A) (A) (A) (A) (A)
                 (A) (A) (A) (A) (A) (A) (A) (A) (A) (A) (A) (A)
                 (A) (A) (A) (A) (A) (A) (A) (A) (A) (A) (A) (A)
                 (A) (A) (A) (A) (A) (A) (A) (A) (A) (A) (A) (A)
                 (A) (A) (A) (A) (A) (A) (A) (A) (A) (A) (A) (A)
                 (A) (A) (A) (A) (A) (A) (A) (A) (A) (A) (A) (A)
                 (A) (A) (A) (A) (A) (A) (A) (A) (A) (A) (A) (A)
                 (A) (A) (A) (A) (A) (A) (A) (A) (A) (A) (A) (A)
                 (A) (A) (A) (A) (A) (A) (A) (A) (A) (A) (A) (A)
                 (A) (A) (A) (A) (A) (A) (A) (A) (A) (A) (A) (A)
                 (A) (A) (A) (A) (A) (A) (A) (A) (A) (A) (A) (A)
                 (A) (A) (A) (A) (A) (A) (A) (A) (A) (A) (A) (A)
                 (A) (A) (A) (A) (A) (A) (A) (A) (A) (A) (A) (A)
                 (A) (A) (A) (A) (A) (A) (A) (A) (A) (A) (A) (A)
                 (A) (A) (A) (A) (A) (A) (A) (A) (A) (A) (A) (A)
                 (A) (A) (A) (A) (A) (A) (A) (A) (A) (A) (A) (A)
                 (A) (A) (A) (A) (A) (A) (A) (A) (A)
 The electronic state is 1-A.
 Alpha  occ. eigenvalues --  -19.32772 -19.28352 -19.27734 -10.44118 -10.36359
 Alpha  occ. eigenvalues --  -10.35131 -10.31964 -10.31650 -10.30688 -10.30545
 Alpha  occ. eigenvalues --  -10.30499 -10.30438 -10.30369 -10.28733 -10.28451
 Alpha  occ. eigenvalues --   -1.20965  -1.13077  -1.12559  -0.96169  -0.91266
 Alpha  occ. eigenvalues --   -0.86696  -0.85139  -0.84584  -0.78036  -0.76101
 Alpha  occ. eigenvalues --   -0.71184  -0.70007  -0.67494  -0.64356  -0.61297
 Alpha  occ. eigenvalues --   -0.60193  -0.59198  -0.58430  -0.56586  -0.54746
 Alpha  occ. eigenvalues --   -0.53674  -0.52888  -0.52573  -0.50346  -0.50204
 Alpha  occ. eigenvalues --   -0.48768  -0.47183  -0.46481  -0.45994  -0.45223
 Alpha  occ. eigenvalues --   -0.44770  -0.44048  -0.43690  -0.42144  -0.42065
 Alpha  occ. eigenvalues --   -0.40561  -0.38629  -0.37737  -0.35869  -0.33093
 Alpha  occ. eigenvalues --   -0.32539
 Alpha virt. eigenvalues --    0.05066   0.05317   0.06524   0.06723   0.07804
 Alpha virt. eigenvalues --    0.08161   0.08306   0.09303   0.09821   0.10472
 Alpha virt. eigenvalues --    0.11115   0.11444   0.11585   0.11915   0.13304
 Alpha virt. eigenvalues --    0.13599   0.13858   0.14333   0.14524   0.15209
 Alpha virt. eigenvalues --    0.15617   0.16764   0.17387   0.18048   0.18373
 Alpha virt. eigenvalues --    0.18504   0.19025   0.19279   0.19992   0.20070
 Alpha virt. eigenvalues --    0.21031   0.21336   0.21793   0.22127   0.22590
 Alpha virt. eigenvalues --    0.23243   0.23795   0.24037   0.24567   0.24814
 Alpha virt. eigenvalues --    0.25102   0.25668   0.26163   0.26987   0.27379
 Alpha virt. eigenvalues --    0.27544   0.28001   0.28495   0.29058   0.29236
 Alpha virt. eigenvalues --    0.29532   0.30103   0.30429   0.30814   0.31014
 Alpha virt. eigenvalues --    0.31946   0.32254   0.33087   0.33692   0.34015
 Alpha virt. eigenvalues --    0.34247   0.34760   0.35560   0.35987   0.36271
 Alpha virt. eigenvalues --    0.37154   0.37486   0.38071   0.38198   0.38732
 Alpha virt. eigenvalues --    0.39561   0.39828   0.40259   0.40915   0.41064
 Alpha virt. eigenvalues --    0.42227   0.42584   0.43879   0.44011   0.45169
 Alpha virt. eigenvalues --    0.45341   0.46074   0.46778   0.47347   0.48274
 Alpha virt. eigenvalues --    0.49276   0.51445   0.51614   0.52824   0.53992
 Alpha virt. eigenvalues --    0.55331   0.56323   0.61173   0.66025   0.70153
 Alpha virt. eigenvalues --    0.72975   0.74052   0.75683   0.76957   0.77263
 Alpha virt. eigenvalues --    0.77692   0.78143   0.78822   0.79962   0.80713
 Alpha virt. eigenvalues --    0.81573   0.82511   0.83106   0.84039   0.84663
 Alpha virt. eigenvalues --    0.86005   0.86302   0.88479   0.88880   0.89282
 Alpha virt. eigenvalues --    0.90368   0.92107   0.92773   0.94442   0.96650
 Alpha virt. eigenvalues --    0.98182   0.98932   1.01181   1.01503   1.01970
 Alpha virt. eigenvalues --    1.03336   1.04982   1.05972   1.06992   1.08168
 Alpha virt. eigenvalues --    1.09210   1.10024   1.11211   1.12247   1.12606
 Alpha virt. eigenvalues --    1.13914   1.15019   1.15757   1.18768   1.19804
 Alpha virt. eigenvalues --    1.20388   1.21531   1.22645   1.22906   1.24859
 Alpha virt. eigenvalues --    1.25912   1.28176   1.28835   1.30367   1.31668
 Alpha virt. eigenvalues --    1.33374   1.33976   1.35907   1.36738   1.38028
 Alpha virt. eigenvalues --    1.39415   1.41164   1.42404   1.42869   1.43975
 Alpha virt. eigenvalues --    1.45280   1.46704   1.48279   1.49100   1.50003
 Alpha virt. eigenvalues --    1.50156   1.51644   1.52991   1.53990   1.56691
 Alpha virt. eigenvalues --    1.57323   1.59000   1.61915   1.63677   1.66847
 Alpha virt. eigenvalues --    1.68207   1.70982   1.72164   1.73997   1.75879
 Alpha virt. eigenvalues --    1.79500   1.82173   1.85294   1.85981   1.87520
 Alpha virt. eigenvalues --    1.89792   1.92286   1.93405   1.94737   1.95424
 Alpha virt. eigenvalues --    1.97615   1.99062   2.00177   2.00957   2.01288
 Alpha virt. eigenvalues --    2.01619   2.02233   2.03850   2.05412   2.06168
 Alpha virt. eigenvalues --    2.07432   2.08478   2.10451   2.10775   2.10965
 Alpha virt. eigenvalues --    2.12134   2.14378   2.16211   2.16605   2.18609
 Alpha virt. eigenvalues --    2.19320   2.20644   2.21873   2.22285   2.23420
 Alpha virt. eigenvalues --    2.24638   2.25801   2.26946   2.27779   2.30631
 Alpha virt. eigenvalues --    2.33117   2.36068   2.38157   2.39296   2.41579
 Alpha virt. eigenvalues --    2.41877   2.42441   2.45985   2.47075   2.48334
 Alpha virt. eigenvalues --    2.49518   2.50634   2.51602   2.51960   2.52933
 Alpha virt. eigenvalues --    2.55740   2.56826   2.57212   2.58049   2.62901
 Alpha virt. eigenvalues --    2.63233   2.64603   2.66270   2.68377   2.69027
 Alpha virt. eigenvalues --    2.71024   2.71761   2.73561   2.75460   2.75928
 Alpha virt. eigenvalues --    2.77874   2.78361   2.79018   2.80771   2.83067
 Alpha virt. eigenvalues --    2.83215   2.85469   2.86628   2.87699   2.89969
 Alpha virt. eigenvalues --    2.91588   2.92345   2.94629   2.95450   2.96731
 Alpha virt. eigenvalues --    2.97994   2.99837   3.02991   3.06094   3.09774
 Alpha virt. eigenvalues --    3.11135   3.17148   3.19683   3.21230   3.28486
 Alpha virt. eigenvalues --    3.29745   3.30329   3.36845   3.37459   3.39318
 Alpha virt. eigenvalues --    3.39937   3.43650   3.45407   3.51723   3.52817
 Alpha virt. eigenvalues --    3.54007   3.58103   3.60057   3.60846   3.63297
 Alpha virt. eigenvalues --    3.63615   3.65061   3.66531   3.99874   4.39717
 Alpha virt. eigenvalues --    4.41280   4.44016   4.50194   4.53959   4.56501
 Alpha virt. eigenvalues --    4.59224   4.62164   4.63487   4.70366   4.74300
 Alpha virt. eigenvalues --    4.80569   4.83821   4.93935   4.99155
          Condensed to atoms (all electrons):
              1          2          3          4          5          6
     1  C   17.861614   0.188723  -0.889895  -3.510849  -9.360722   0.216922
     2  C    0.188723   6.801999   0.317148   0.013040  -1.234127   0.165823
     3  C   -0.889895   0.317148   7.561455  -0.185354  -0.794041   0.107302
     4  C   -3.510849   0.013040  -0.185354  14.486488  -2.007023  -1.003146
     5  C   -9.360722  -1.234127  -0.794041  -2.007023  19.084135   0.777945
     6  C    0.216922   0.165823   0.107302  -1.003146   0.777945   5.586986
     7  C    1.709875  -0.483378  -0.222819  -2.223337  -0.903719   0.065381
     8  C   -0.444329   0.272118   0.254960   0.241052   0.055584  -0.090075
     9  C   -0.467024  -0.023707  -0.301464   0.519732   0.429450   0.034673
    10  O    0.180535   0.006495   0.059933  -0.179266  -0.102813  -0.002370
    11  C    0.022426   0.003056   0.031291  -0.011700  -0.022564  -0.000845
    12  O   -0.102730   0.104212  -0.018929   0.069003  -0.058762  -0.003006
    13  C    0.126490  -0.076707  -0.020121  -0.162400  -0.036953   0.020159
    14  O    0.060132  -0.003411  -0.018138  -0.029425  -0.028980   0.005689
    15  C    0.025127   0.001449  -0.020315  -0.007037   0.002007  -0.000569
    16  H    0.139128   0.001968   0.059585   0.096289   0.018515  -0.010315
    17  H    0.004587   0.271339  -0.002337   0.040043   0.011233   0.002616
    18  H    0.043074  -0.008573   0.240798   0.010554   0.006604   0.034318
    19  H    0.056637  -0.025701  -0.004423   0.083502   0.202640  -0.004527
    20  H   -0.011158   0.032111   0.042621   0.013918  -0.012741   0.261169
    21  H    0.238065   0.014988   0.061120  -0.045998  -0.213298  -0.007159
    22  H    0.012131  -0.002575  -0.001059   0.023111  -0.005981   0.000432
    23  H   -0.003498  -0.000008  -0.001023   0.004454   0.000796  -0.000050
    24  H    0.000762   0.000035   0.000868  -0.001196  -0.000125  -0.000012
    25  H    0.004382  -0.011988   0.001931  -0.000410   0.009850   0.000679
    26  H   -0.010674  -0.000878  -0.001756  -0.012758   0.012658   0.000370
    27  H   -0.011543   0.006470   0.000158  -0.034053   0.057788   0.001504
    28  H    0.040323  -0.008073  -0.003281   0.008380  -0.035382   0.000345
    29  H   -0.001623   0.000707   0.009861  -0.005017  -0.001809  -0.000622
    30  H   -0.000805   0.000023   0.000758   0.000106   0.000052  -0.000086
    31  H   -0.005966  -0.000096  -0.012329   0.017743   0.001943  -0.000544
              7          8          9         10         11         12
     1  C    1.709875  -0.444329  -0.467024   0.180535   0.022426  -0.102730
     2  C   -0.483378   0.272118  -0.023707   0.006495   0.003056   0.104212
     3  C   -0.222819   0.254960  -0.301464   0.059933   0.031291  -0.018929
     4  C   -2.223337   0.241052   0.519732  -0.179266  -0.011700   0.069003
     5  C   -0.903719   0.055584   0.429450  -0.102813  -0.022564  -0.058762
     6  C    0.065381  -0.090075   0.034673  -0.002370  -0.000845  -0.003006
     7  C    8.489787  -0.715723  -0.375967   0.016762  -0.027495   0.011816
     8  C   -0.715723   7.571636  -0.962831  -0.293039   0.022936   0.080635
     9  C   -0.375967  -0.962831   6.569939   0.304881  -0.157592   0.023282
    10  O    0.016762  -0.293039   0.304881   8.443464   0.059258  -0.004823
    11  C   -0.027495   0.022936  -0.157592   0.059258   5.120706  -0.001179
    12  O    0.011816   0.080635   0.023282  -0.004823  -0.001179   8.342455
    13  C    0.175288  -0.072578  -0.083239   0.031113  -0.017168  -0.045740
    14  O    0.006819  -0.124323   0.645512  -0.158539   0.002110  -0.002160
    15  C   -0.000264  -0.025916  -0.014048  -0.042473   0.295190   0.000463
    16  H   -0.003660   0.001869   0.013719   0.001401  -0.004027   0.000369
    17  H   -0.000739  -0.000531  -0.000396   0.000001  -0.000002   0.000057
    18  H   -0.001218  -0.001028   0.001942  -0.000038  -0.000360   0.000019
    19  H    0.020596  -0.014423  -0.005180  -0.000012  -0.000034  -0.000617
    20  H    0.000285   0.000333  -0.000172   0.000001   0.000012   0.000001
    21  H    0.196588   0.124741  -0.083484   0.018501   0.007441  -0.043725
    22  H   -0.012997   0.300299   0.033983  -0.003914   0.000084  -0.018949
    23  H   -0.001864   0.003695   0.007316  -0.036253   0.395935   0.000001
    24  H    0.001336  -0.002919   0.011578  -0.060025   0.423745   0.000014
    25  H    0.087971  -0.074919   0.004042  -0.000608  -0.000232   0.230477
    26  H    0.028701  -0.117728   0.038738  -0.000801   0.000081   0.000043
    27  H   -0.058461  -0.019923  -0.005097  -0.000100  -0.000074   0.010820
    28  H    0.030282  -0.093366   0.017066   0.000037   0.000088  -0.004100
    29  H   -0.001710  -0.000576  -0.000969  -0.004935  -0.039283   0.000010
    30  H    0.000203   0.001937   0.004476   0.007043  -0.047055   0.000000
    31  H   -0.001572  -0.003005   0.017314  -0.004961  -0.046969  -0.000006
             13         14         15         16         17         18
     1  C    0.126490   0.060132   0.025127   0.139128   0.004587   0.043074
     2  C   -0.076707  -0.003411   0.001449   0.001968   0.271339  -0.008573
     3  C   -0.020121  -0.018138  -0.020315   0.059585  -0.002337   0.240798
     4  C   -0.162400  -0.029425  -0.007037   0.096289   0.040043   0.010554
     5  C   -0.036953  -0.028980   0.002007   0.018515   0.011233   0.006604
     6  C    0.020159   0.005689  -0.000569  -0.010315   0.002616   0.034318
     7  C    0.175288   0.006819  -0.000264  -0.003660  -0.000739  -0.001218
     8  C   -0.072578  -0.124323  -0.025916   0.001869  -0.000531  -0.001028
     9  C   -0.083239   0.645512  -0.014048   0.013719  -0.000396   0.001942
    10  O    0.031113  -0.158539  -0.042473   0.001401   0.000001  -0.000038
    11  C   -0.017168   0.002110   0.295190  -0.004027  -0.000002  -0.000360
    12  O   -0.045740  -0.002160   0.000463   0.000369   0.000057   0.000019
    13  C    5.524188  -0.003246  -0.000110   0.000530   0.000637   0.000068
    14  O   -0.003246   8.116371  -0.029345  -0.001285   0.000002  -0.000070
    15  C   -0.000110  -0.029345   5.170201  -0.002002  -0.000001   0.000278
    16  H    0.000530  -0.001285  -0.002002   0.523886   0.000012  -0.004381
    17  H    0.000637   0.000002  -0.000001   0.000012   0.496694  -0.000123
    18  H    0.000068  -0.000070   0.000278  -0.004381  -0.000123   0.497866
    19  H    0.010842   0.000004   0.000013  -0.000116  -0.003974   0.000011
    20  H   -0.000056   0.000002  -0.000004  -0.000127  -0.003813  -0.003876
    21  H   -0.004844   0.000520  -0.002509   0.000888   0.000002  -0.000005
    22  H   -0.035968   0.002837   0.000090  -0.000020   0.000000   0.000000
    23  H   -0.001656  -0.000422  -0.034658   0.000006   0.000000   0.000000
    24  H   -0.000209   0.000444  -0.042972   0.000006   0.000000   0.000000
    25  H   -0.001322   0.000042   0.000028  -0.000003   0.000000   0.000000
    26  H    0.427285  -0.002220   0.000057   0.000001   0.000000   0.000000
    27  H    0.412605   0.001425  -0.000029  -0.000001   0.000000   0.000000
    28  H    0.404718  -0.000126   0.000085  -0.000002  -0.000012  -0.000001
    29  H    0.000287   0.000665   0.408123   0.000189   0.000000  -0.000005
    30  H   -0.000111  -0.000067   0.396848   0.000028   0.000000   0.000000
    31  H   -0.000659  -0.001132   0.402781   0.000030   0.000000   0.000002
             19         20         21         22         23         24
     1  C    0.056637  -0.011158   0.238065   0.012131  -0.003498   0.000762
     2  C   -0.025701   0.032111   0.014988  -0.002575  -0.000008   0.000035
     3  C   -0.004423   0.042621   0.061120  -0.001059  -0.001023   0.000868
     4  C    0.083502   0.013918  -0.045998   0.023111   0.004454  -0.001196
     5  C    0.202640  -0.012741  -0.213298  -0.005981   0.000796  -0.000125
     6  C   -0.004527   0.261169  -0.007159   0.000432  -0.000050  -0.000012
     7  C    0.020596   0.000285   0.196588  -0.012997  -0.001864   0.001336
     8  C   -0.014423   0.000333   0.124741   0.300299   0.003695  -0.002919
     9  C   -0.005180  -0.000172  -0.083484   0.033983   0.007316   0.011578
    10  O   -0.000012   0.000001   0.018501  -0.003914  -0.036253  -0.060025
    11  C   -0.000034   0.000012   0.007441   0.000084   0.395935   0.423745
    12  O   -0.000617   0.000001  -0.043725  -0.018949   0.000001   0.000014
    13  C    0.010842  -0.000056  -0.004844  -0.035968  -0.001656  -0.000209
    14  O    0.000004   0.000002   0.000520   0.002837  -0.000422   0.000444
    15  C    0.000013  -0.000004  -0.002509   0.000090  -0.034658  -0.042972
    16  H   -0.000116  -0.000127   0.000888  -0.000020   0.000006   0.000006
    17  H   -0.003974  -0.003813   0.000002   0.000000   0.000000   0.000000
    18  H    0.000011  -0.003876  -0.000005   0.000000   0.000000   0.000000
    19  H    0.501710  -0.000119  -0.000020  -0.000022   0.000000   0.000000
    20  H   -0.000119   0.499660   0.000000   0.000000   0.000000   0.000000
    21  H   -0.000020   0.000000   0.584749  -0.004862  -0.000011  -0.000003
    22  H   -0.000022   0.000000  -0.004862   0.512163   0.000010   0.000001
    23  H    0.000000   0.000000  -0.000011   0.000010   0.521577  -0.031451
    24  H    0.000000   0.000000  -0.000003   0.000001  -0.031451   0.529601
    25  H    0.000059   0.000000  -0.008292   0.003835   0.000000   0.000000
    26  H    0.000023   0.000000  -0.000100  -0.003758  -0.000003   0.000000
    27  H   -0.000531   0.000000   0.000027  -0.002307   0.000000   0.000000
    28  H   -0.000336   0.000000  -0.000105   0.003994   0.000000   0.000000
    29  H    0.000000   0.000000   0.000026  -0.000003  -0.005061   0.003968
    30  H    0.000000   0.000000  -0.000001   0.000000  -0.000918  -0.001245
    31  H    0.000000   0.000000  -0.000037   0.000001   0.003816  -0.005009
             25         26         27         28         29         30
     1  C    0.004382  -0.010674  -0.011543   0.040323  -0.001623  -0.000805
     2  C   -0.011988  -0.000878   0.006470  -0.008073   0.000707   0.000023
     3  C    0.001931  -0.001756   0.000158  -0.003281   0.009861   0.000758
     4  C   -0.000410  -0.012758  -0.034053   0.008380  -0.005017   0.000106
     5  C    0.009850   0.012658   0.057788  -0.035382  -0.001809   0.000052
     6  C    0.000679   0.000370   0.001504   0.000345  -0.000622  -0.000086
     7  C    0.087971   0.028701  -0.058461   0.030282  -0.001710   0.000203
     8  C   -0.074919  -0.117728  -0.019923  -0.093366  -0.000576   0.001937
     9  C    0.004042   0.038738  -0.005097   0.017066  -0.000969   0.004476
    10  O   -0.000608  -0.000801  -0.000100   0.000037  -0.004935   0.007043
    11  C   -0.000232   0.000081  -0.000074   0.000088  -0.039283  -0.047055
    12  O    0.230477   0.000043   0.010820  -0.004100   0.000010   0.000000
    13  C   -0.001322   0.427285   0.412605   0.404718   0.000287  -0.000111
    14  O    0.000042  -0.002220   0.001425  -0.000126   0.000665  -0.000067
    15  C    0.000028   0.000057  -0.000029   0.000085   0.408123   0.396848
    16  H   -0.000003   0.000001  -0.000001  -0.000002   0.000189   0.000028
    17  H    0.000000   0.000000   0.000000  -0.000012   0.000000   0.000000
    18  H    0.000000   0.000000   0.000000  -0.000001  -0.000005   0.000000
    19  H    0.000059   0.000023  -0.000531  -0.000336   0.000000   0.000000
    20  H    0.000000   0.000000   0.000000   0.000000   0.000000   0.000000
    21  H   -0.008292  -0.000100   0.000027  -0.000105   0.000026  -0.000001
    22  H    0.003835  -0.003758  -0.002307   0.003994  -0.000003   0.000000
    23  H    0.000000  -0.000003   0.000000   0.000000  -0.005061  -0.000918
    24  H    0.000000   0.000000   0.000000   0.000000   0.003968  -0.001245
    25  H    0.356271  -0.000006  -0.000263   0.000046   0.000000   0.000000
    26  H   -0.000006   0.518788  -0.024934  -0.023936   0.000000   0.000000
    27  H   -0.000263  -0.024934   0.514194  -0.024886   0.000000   0.000000
    28  H    0.000046  -0.023936  -0.024886   0.503135   0.000000   0.000000
    29  H    0.000000   0.000000   0.000000   0.000000   0.508757  -0.021961
    30  H    0.000000   0.000000   0.000000   0.000000  -0.021961   0.505877
    31  H    0.000000   0.000000   0.000000   0.000000  -0.029964  -0.023114
             31
     1  C   -0.005966
     2  C   -0.000096
     3  C   -0.012329
     4  C    0.017743
     5  C    0.001943
     6  C   -0.000544
     7  C   -0.001572
     8  C   -0.003005
     9  C    0.017314
    10  O   -0.004961
    11  C   -0.046969
    12  O   -0.000006
    13  C   -0.000659
    14  O   -0.001132
    15  C    0.402781
    16  H    0.000030
    17  H    0.000000
    18  H    0.000002
    19  H    0.000000
    20  H    0.000000
    21  H   -0.000037
    22  H    0.000001
    23  H    0.003816
    24  H   -0.005009
    25  H    0.000000
    26  H    0.000000
    27  H    0.000000
    28  H    0.000000
    29  H   -0.029964
    30  H   -0.023114
    31  H    0.519909
 Mulliken atomic charges:
              1
     1  C   -0.110115
     2  C   -0.322481
     3  C   -0.252505
     4  C   -0.208446
     5  C    0.147838
     6  C   -0.158985
     7  C    0.193232
     8  C    0.125437
     9  C   -0.196473
    10  O   -0.234454
    11  C   -0.007780
    12  O   -0.568950
    13  C   -0.571124
    14  O   -0.439681
    15  C   -0.480487
    16  H    0.167518
    17  H    0.184704
    18  H    0.184144
    19  H    0.183999
    20  H    0.181955
    21  H    0.166797
    22  H    0.199441
    23  H    0.179272
    24  H    0.172809
    25  H    0.398432
    26  H    0.172807
    27  H    0.177213
    28  H    0.185105
    29  H    0.180945
    30  H    0.178013
    31  H    0.171823
 Sum of Mulliken atomic charges =   0.00000
 Mulliken charges with hydrogens summed into heavy atoms:
              1
     1  C    0.057404
     2  C   -0.137777
     3  C   -0.068362
     4  C   -0.208446
     5  C    0.331837
     6  C    0.022970
     7  C    0.360028
     8  C    0.324878
     9  C   -0.196473
    10  O   -0.234454
    11  C    0.344300
    12  O   -0.170519
    13  C   -0.035999
    14  O   -0.439681
    15  C    0.050294
 Sum of Mulliken charges with hydrogens summed into heavy atoms =   0.00000
 Electronic spatial extent (au):  <R**2>=           3399.2025
 Charge=              0.0000 electrons
 Dipole moment (field-independent basis, Debye):
    X=             -2.5903    Y=             -0.0306    Z=             -2.3466  Tot=              3.4953
 Quadrupole moment (field-independent basis, Debye-Ang):
   XX=            -80.5551   YY=            -79.4768   ZZ=            -96.5574
   XY=              2.0967   XZ=             10.4283   YZ=              0.5122
 Traceless Quadrupole moment (field-independent basis, Debye-Ang):
   XX=              4.9747   YY=              6.0529   ZZ=            -11.0276
   XY=              2.0967   XZ=             10.4283   YZ=              0.5122
 Octapole moment (field-independent basis, Debye-Ang**2):
  XXX=            -39.5282  YYY=             -8.3199  ZZZ=            -22.7051  XYY=            -16.3747
  XXY=             18.3685  XXZ=             11.7631  XZZ=             -9.4760  YZZ=            -15.1210
  YYZ=             -6.5730  XYZ=              0.6179
 Hexadecapole moment (field-independent basis, Debye-Ang**3):
 XXXX=          -2398.6061 YYYY=          -1238.8484 ZZZZ=           -512.7440 XXXY=            -45.8346
 XXXZ=             87.4056 YYYX=             37.0639 YYYZ=             48.3828 ZZZX=             23.6360
 ZZZY=             34.1739 XXYY=           -631.3166 XXZZ=           -576.8890 YYZZ=           -285.7890
 XXYZ=              2.3088 YYXZ=             24.1534 ZZXY=              2.4063
 N-N= 1.022961896986D+03 E-N=-3.657908983931D+03  KE= 6.858797293841D+02
 1\1\GINC-COMPUTE-9-6\SP\RwB97XD\6-31+G(d,p)\C12H16O3\ELUCIANO.IQUIR\17
 -May-2022\0\\# wb97xd/6-31+g** scrf=(pcm,solvent=chloroform,smd,dovacu
 um) nmr\\comment\\0,1\C,0,0.657178468,-1.33379961,-0.824171947\C,0,-0.
 005108662,-3.5631051,0.710343652\C,0,1.549013924,-2.403623829,-0.72134
 0483\C,0,-0.577559559,-1.360171209,-0.156673493\C,0,-0.896256827,-2.49
 3096838,0.608652495\C,0,1.218219148,-3.517112802,0.046874574\C,0,-1.52
 4178347,-0.179755221,-0.263338066\C,0,-1.31309091,0.927354429,0.783991
 97\C,0,-0.024217242,1.68344551,0.530249123\O,0,-0.096499554,2.3348946,
 -0.66794069\C,0,1.024614534,3.171763018,-0.994113093\O,0,-2.877199731,
 -0.650052558,-0.181887558\C,0,-1.392704122,0.442835203,2.233526079\O,0
 ,0.924448956,1.745790334,1.298852187\C,0,2.111840017,2.361040031,-1.67
 3191259\H,0,0.936253324,-0.479412426,-1.43540997\H,0,-0.26858513,-4.43
 1648674,1.307924435\H,0,2.502738753,-2.367342171,-1.241219612\H,0,-1.8
 49412715,-2.547232176,1.13145143\H,0,1.912183373,-4.349314028,0.127267
 44\H,0,-1.421409062,0.232046678,-1.275615749\H,0,-2.124656945,1.661395
 284,0.676191909\H,0,1.404962904,3.690208901,-0.106484201\H,0,0.6572276
 98,3.940931793,-1.681371653\H,0,-3.448661022,0.055016927,-0.529163656\
 H,0,-1.345642765,1.293843398,2.922687266\H,0,-2.33136292,-0.087028747,
 2.423965157\H,0,-0.560297367,-0.220390328,2.490559896\H,0,2.506193338,
 1.591996252,-1.001762343\H,0,2.937842744,3.00598317,-1.985998948\H,0,1
 .714125698,1.844540189,-2.552854893\\Version=EM64L-G09RevC.01\State=1-
 A\HF=-692.444603\RMSD=3.600e-09\Dipole=-0.2689502,0.9469657,-0.9602242
 \Quadrupole=0.5726948,3.4825795,-4.0552743,-5.2678948,-5.1993198,-6.63
 53171\PG=C01 [X(C12H16O3)]\\@


 SOME THINGS ARE EASY, THEY ARE ONLY HARD TO DO.
            -- A. EINSTEIN TO J. O. HIRSCHFELDER
 THE ONLY TROUBLE WITH A SURE THING IS THE UNCERTAINTY.
     -- FROM A TEABAG (BELONGING TO W.H.?)
 Job cpu time:  0 days  0 hours 26 minutes  0.4 seconds.
 File lengths (MBytes):  RWF=    125 Int=      0 D2E=      0 Chk=      9 Scr=      1
 Normal termination of Gaussian 09 at Tue May 17 15:45:00 2022.
