 Entering Gaussian System, Link 0=g09
 Input=/home/eluciano.iquir/wb9/73b_033.gjc
 Output=/home/eluciano.iquir/wb9/73b_033.log
 Initial command:
 /share/apps/Gaussian09/EM64T.SSE4.2-enabled/g09/l1.exe /tmp/Gau-440.inp -scrdir=/tmp/
 Entering Link 1 = /share/apps/Gaussian09/EM64T.SSE4.2-enabled/g09/l1.exe PID=       441.
  
 Copyright (c) 1988,1990,1992,1993,1995,1998,2003,2009,2011,
            Gaussian, Inc.  All Rights Reserved.
  
 This is part of the Gaussian(R) 09 program.  It is based on
 the Gaussian(R) 03 system (copyright 2003, Gaussian, Inc.),
 the Gaussian(R) 98 system (copyright 1998, Gaussian, Inc.),
 the Gaussian(R) 94 system (copyright 1995, Gaussian, Inc.),
 the Gaussian 92(TM) system (copyright 1992, Gaussian, Inc.),
 the Gaussian 90(TM) system (copyright 1990, Gaussian, Inc.),
 the Gaussian 88(TM) system (copyright 1988, Gaussian, Inc.),
 the Gaussian 86(TM) system (copyright 1986, Carnegie Mellon
 University), and the Gaussian 82(TM) system (copyright 1983,
 Carnegie Mellon University). Gaussian is a federally registered
 trademark of Gaussian, Inc.
  
 This software contains proprietary and confidential information,
 including trade secrets, belonging to Gaussian, Inc.
  
 This software is provided under written license and may be
 used, copied, transmitted, or stored only in accord with that
 written license.
  
 The following legend is applicable only to US Government
 contracts under FAR:
  
                    RESTRICTED RIGHTS LEGEND
  
 Use, reproduction and disclosure by the US Government is
 subject to restrictions as set forth in subparagraphs (a)
 and (c) of the Commercial Computer Software - Restricted
 Rights clause in FAR 52.227-19.
  
 Gaussian, Inc.
 340 Quinnipiac St., Bldg. 40, Wallingford CT 06492
  
  
 ---------------------------------------------------------------
 Warning -- This program may not be used in any manner that
 competes with the business of Gaussian, Inc. or will provide
 assistance to any competitor of Gaussian, Inc.  The licensee
 of this program is prohibited from giving any competitor of
 Gaussian, Inc. access to this program.  By using this program,
 the user acknowledges that Gaussian, Inc. is engaged in the
 business of creating and licensing software in the field of
 computational chemistry and represents and warrants to the
 licensee that it is not a competitor of Gaussian, Inc. and that
 it will not use this program in any manner prohibited above.
 ---------------------------------------------------------------
  

 Cite this work as:
 Gaussian 09, Revision C.01,
 M. J. Frisch, G. W. Trucks, H. B. Schlegel, G. E. Scuseria, 
 M. A. Robb, J. R. Cheeseman, G. Scalmani, V. Barone, B. Mennucci, 
 G. A. Petersson, H. Nakatsuji, M. Caricato, X. Li, H. P. Hratchian, 
 A. F. Izmaylov, J. Bloino, G. Zheng, J. L. Sonnenberg, M. Hada, 
 M. Ehara, K. Toyota, R. Fukuda, J. Hasegawa, M. Ishida, T. Nakajima, 
 Y. Honda, O. Kitao, H. Nakai, T. Vreven, J. A. Montgomery, Jr., 
 J. E. Peralta, F. Ogliaro, M. Bearpark, J. J. Heyd, E. Brothers, 
 K. N. Kudin, V. N. Staroverov, T. Keith, R. Kobayashi, J. Normand, 
 K. Raghavachari, A. Rendell, J. C. Burant, S. S. Iyengar, J. Tomasi, 
 M. Cossi, N. Rega, J. M. Millam, M. Klene, J. E. Knox, J. B. Cross, 
 V. Bakken, C. Adamo, J. Jaramillo, R. Gomperts, R. E. Stratmann, 
 O. Yazyev, A. J. Austin, R. Cammi, C. Pomelli, J. W. Ochterski, 
 R. L. Martin, K. Morokuma, V. G. Zakrzewski, G. A. Voth, 
 P. Salvador, J. J. Dannenberg, S. Dapprich, A. D. Daniels, 
 O. Farkas, J. B. Foresman, J. V. Ortiz, J. Cioslowski, 
 and D. J. Fox, Gaussian, Inc., Wallingford CT, 2010.
 
 ******************************************
 Gaussian 09:  EM64L-G09RevC.01 23-Sep-2011
                17-May-2022 
 ******************************************
 %nprocshared=4
 Will use up to    4 processors via shared memory.
 ----------------------------------------------------------------
 # wb97xd/6-31+g** scrf=(pcm,solvent=chloroform,smd,dovacuum) nmr
 ----------------------------------------------------------------
 1/38=1/1;
 2/12=2,17=6,18=5,40=1/2;
 3/5=1,6=6,7=111,11=2,16=1,25=1,30=1,70=32101,72=7,74=-58/1,2,8,3;
 4//1;
 5/5=2,38=5,53=7/2;
 8/6=1,10=90,11=11/1;
 10/13=100,45=16/2;
 6/7=2,8=2,9=2,10=2,28=1/1;
 99/9=1/99;
 -------
 comment
 -------
 Charge =  0 Multiplicity = 1
 Symbolic Z-Matrix:
 6                    -1.66198  -2.10907   0.49959 
 6                    -3.86716  -1.07569  -0.85936 
 6                    -2.90319  -2.74197   0.59428 
 6                    -1.50842  -0.94822  -0.27472 
 6                    -2.62742  -0.44148  -0.95447 
 6                    -4.00494  -2.22452  -0.0837 
 6                    -0.16274  -0.25218  -0.35017 
 6                    -0.12984   1.09088   0.40597 
 6                     1.21819   1.78751   0.32289 
 8                     2.19712   0.98581  -0.18027 
 6                     3.49067   1.60228  -0.24903 
 8                     0.1133   -0.039    -1.73948 
 6                    -0.47745   0.9372    1.88862 
 8                     1.40225   2.93983   0.69866 
 6                     4.45954   0.59622  -0.83873 
 1                    -0.81524  -2.53011   1.03671 
 1                    -4.72307  -0.67465  -1.39564 
 1                    -3.01008  -3.64079   1.19592 
 1                    -2.53038   0.44803  -1.57393 
 1                    -4.96987  -2.71916  -0.01203 
 1                     0.60933  -0.93415   0.02893 
 1                    -0.84093   1.78019  -0.069 
 1                     3.81794   1.88653   0.75724 
 1                     3.44379   2.49019  -0.88933 
 1                     1.07732   0.0804   -1.81333 
 1                    -0.37991   1.89122   2.41884 
 1                    -1.50748   0.59523   2.02785 
 1                     0.19322   0.22197   2.37787 
 1                     4.50066  -0.307    -0.22098 
 1                     5.46498   1.01975  -0.9131 
 1                     4.1318    0.28476  -1.83611 
 
                          Input orientation:                          
 ---------------------------------------------------------------------
 Center     Atomic      Atomic             Coordinates (Angstroms)
 Number     Number       Type             X           Y           Z
 ---------------------------------------------------------------------
      1          6           0       -1.661980   -2.109066    0.499592
      2          6           0       -3.867155   -1.075694   -0.859358
      3          6           0       -2.903187   -2.741970    0.594281
      4          6           0       -1.508418   -0.948220   -0.274718
      5          6           0       -2.627417   -0.441484   -0.954467
      6          6           0       -4.004943   -2.224525   -0.083700
      7          6           0       -0.162741   -0.252180   -0.350171
      8          6           0       -0.129842    1.090878    0.405966
      9          6           0        1.218193    1.787512    0.322892
     10          8           0        2.197122    0.985807   -0.180275
     11          6           0        3.490666    1.602277   -0.249026
     12          8           0        0.113296   -0.038996   -1.739483
     13          6           0       -0.477452    0.937198    1.888619
     14          8           0        1.402246    2.939835    0.698663
     15          6           0        4.459543    0.596222   -0.838731
     16          1           0       -0.815238   -2.530108    1.036707
     17          1           0       -4.723073   -0.674651   -1.395637
     18          1           0       -3.010081   -3.640791    1.195915
     19          1           0       -2.530376    0.448034   -1.573927
     20          1           0       -4.969867   -2.719162   -0.012035
     21          1           0        0.609330   -0.934146    0.028930
     22          1           0       -0.840934    1.780185   -0.068998
     23          1           0        3.817937    1.886529    0.757243
     24          1           0        3.443787    2.490188   -0.889326
     25          1           0        1.077322    0.080402   -1.813335
     26          1           0       -0.379913    1.891220    2.418843
     27          1           0       -1.507482    0.595230    2.027847
     28          1           0        0.193224    0.221966    2.377873
     29          1           0        4.500656   -0.307001   -0.220980
     30          1           0        5.464976    1.019748   -0.913100
     31          1           0        4.131801    0.284764   -1.836107
 ---------------------------------------------------------------------
                    Distance matrix (angstroms):
                    1          2          3          4          5
     1  C    0.000000
     2  C    2.788799   0.000000
     3  C    1.396470   2.412214   0.000000
     4  C    1.403817   2.433453   2.432710   0.000000
     5  C    2.413956   1.395786   2.786917   1.403922   0.000000
     6  C    2.417237   1.392998   1.393296   2.810352   2.415584
     7  C    2.533346   3.828855   3.821137   1.516908   2.544727
     8  C    3.549064   4.501399   4.734726   2.553767   3.230603
     9  C    4.848705   5.954530   6.129896   3.908423   4.624800
    10  O    4.993308   6.440993   6.364700   4.180957   5.090452
    11  C    6.394081   7.853762   7.775925   5.612178   6.488879
    12  O    3.528491   4.206347   4.674579   2.366892   2.879193
    13  C    3.551370   4.805538   4.593014   3.049216   3.821812
    14  O    5.909358   6.805769   7.129555   4.953423   5.514013
    15  C    6.825155   8.492917   8.210167   6.190313   7.163465
    16  H    1.087539   3.876156   2.144798   2.168572   3.407509
    17  H    3.875529   1.086750   3.397877   3.415451   2.154245
    18  H    2.156020   3.396828   1.086862   3.415801   3.873776
    19  H    3.404755   2.149264   3.875080   2.163763   1.088297
    20  H    3.402366   2.152885   2.153905   3.897033   3.400451
    21  H    2.600156   4.565962   3.990692   2.139452   3.418525
    22  H    4.015432   4.235414   5.014251   2.816390   2.985196
    23  H    6.786800   8.393379   8.162295   6.121340   7.063440
    24  H    7.010784   8.134267   8.358268   6.060093   6.742289
    25  H    4.200855   5.166671   5.441218   3.179852   3.838634
    26  H    4.618388   5.631167   5.582328   4.073231   4.676751
    27  H    3.110089   4.086074   3.891016   2.772011   3.350108
    28  H    3.521851   5.352594   4.642615   3.361719   4.415956
    29  H    6.461018   8.427258   7.836493   6.043428   7.166974
    30  H    7.910669   9.564646   9.297789   7.273834   8.223365
    31  H    6.689829   8.172404   8.034859   5.980824   6.855053
                    6          7          8          9         10
     6  C    0.000000
     7  C    4.327085   0.000000
     8  C    5.123288   1.541633   0.000000
     9  C    6.598704   2.553495   1.519670   0.000000
    10  O    6.984351   2.670286   2.401973   1.361693   0.000000
    11  C    8.417595   4.098369   3.714650   2.350646   1.434580
    12  O    4.947529   1.432421   2.436941   2.968218   2.797084
    13  C    5.131250   2.554573   1.530591   2.459623   3.381719
    14  O    7.518005   3.706508   2.419009   1.225939   2.285297
    15  C    8.954005   4.724827   4.780837   3.643473   2.388282
    16  H    3.394542   2.745567   3.738869   4.825579   4.787172
    17  H    2.153833   4.697670   5.240290   6.656893   7.219648
    18  H    2.152434   4.688327   5.595399   6.935917   7.100301
    19  H    3.396718   2.755645   3.177388   4.409523   4.957893
    20  H    1.086683   5.413760   6.173895   7.662530   8.069748
    21  H    4.792627   1.097674   2.188436   2.804380   2.500214
    22  H    5.103810   2.160906   1.098357   2.096099   3.142165
    23  H    8.877240   4.652552   4.042451   2.637638   2.077807
    24  H    8.852182   4.562710   4.050515   2.629923   2.078483
    25  H    5.842409   1.946591   2.720956   2.738162   2.177291
    26  H    6.028509   3.508385   2.180540   2.637747   3.770450
    27  H    4.318212   2.860315   2.184962   3.428952   4.330409
    28  H    5.446950   2.791729   2.178943   2.779288   3.338140
    29  H    8.720147   4.665509   4.877360   3.931584   2.641833
    30  H   10.044530   5.797059   5.748651   4.489132   3.349188
    31  H    8.693334   4.575960   4.882449   3.925384   2.641255
                   11         12         13         14         15
    11  C    0.000000
    12  O    4.040033   0.000000
    13  C    4.556075   3.803295   0.000000
    14  O    2.654933   4.059480   2.993295   0.000000
    15  C    1.516121   4.483829   5.650541   4.147670   0.000000
    16  H    6.104959   3.843832   3.586371   5.912003   6.412060
    17  H    8.600269   4.890067   5.604435   7.414185   9.286856
    18  H    8.475691   5.598658   5.277502   7.938547   8.825381
    19  H    6.272208   2.693253   4.054998   5.180662   7.030039
    20  H    9.503243   6.000493   6.096166   8.551793  10.029405
    21  H    3.848740   2.043190   2.853325   4.010609   4.233084
    22  H    4.338988   2.647734   2.162177   2.639308   5.485373
    23  H    1.095666   4.864736   4.542202   2.635991   2.150276
    24  H    1.095704   4.267518   5.050235   2.625220   2.149751
    25  H    3.253828   0.974195   4.105591   3.819956   3.557435
    26  H    4.709819   4.610928   1.095815   2.689741   5.975713
    27  H    5.583886   4.149932   1.094207   3.966160   6.619869
    28  H    4.436100   4.126391   1.095779   3.415888   5.356126
    29  H    2.160142   4.650441   5.547973   4.581248   1.095043
    30  H    2.162923   5.517638   6.570304   4.773917   1.093527
    31  H    2.160028   4.032684   5.961918   4.574377   1.095071
                   16         17         18         19         20
    16  H    0.000000
    17  H    4.962881   0.000000
    18  H    2.465016   4.295168   0.000000
    19  H    4.315836   2.469844   4.961918   0.000000
    20  H    4.289120   2.480985   2.479779   4.292057   0.000000
    21  H    2.364763   5.525509   4.667753   3.786467   5.857935
    22  H    4.449930   4.780920   5.974294   2.625577   6.107001
    23  H    6.407112   9.172970   8.795768   6.914095   9.951366
    24  H    6.859466   8.773264   9.142732   6.350567   9.934614
    25  H    4.303404   5.864227   6.293626   3.634275   6.902951
    26  H    4.652735   6.324317   6.246317   4.759149   6.944960
    27  H    3.351014   4.865476   4.570972   3.747100   5.209071
    28  H    3.223295   6.262050   5.155490   4.804771   6.404639
    29  H    5.897687   9.305491   8.338641   7.199720   9.775121
    30  H    7.472905  10.339254   9.899251   8.042960  11.121031
    31  H    6.375717   8.917583   8.695380   6.669333   9.756597
                   21         22         23         24         25
    21  H    0.000000
    22  H    3.079034   0.000000
    23  H    4.333798   4.732764   0.000000
    24  H    4.539098   4.419941   1.793204   0.000000
    25  H    2.154591   3.100271   4.169045   3.501574   0.000000
    26  H    3.830533   2.532631   4.514740   5.091505   4.828449
    27  H    3.288701   2.499033   5.625120   6.051102   4.658427
    28  H    2.650901   3.079725   4.305317   5.136690   4.285778
    29  H    3.949454   5.736901   2.496919   3.063973   3.795378
    30  H    5.318122   6.407439   2.500819   2.499593   4.576495
    31  H    4.167962   5.485167   3.064250   2.496729   3.061392
                   26         27         28         29         30
    26  H    0.000000
    27  H    1.761783   0.000000
    28  H    1.765381   1.776019   0.000000
    29  H    5.968316   6.478347   5.058441   0.000000
    30  H    6.784102   7.579219   6.265647   1.780227   0.000000
    31  H    6.406314   6.843102   5.768359   1.759226   1.780309
                   31
    31  H    0.000000
 Stoichiometry    C12H16O3
 Framework group  C1[X(C12H16O3)]
 Deg. of freedom    87
 Full point group                 C1      NOp   1
 Largest Abelian subgroup         C1      NOp   1
 Largest concise Abelian subgroup C1      NOp   1
                         Standard orientation:                         
 ---------------------------------------------------------------------
 Center     Atomic      Atomic             Coordinates (Angstroms)
 Number     Number       Type             X           Y           Z
 ---------------------------------------------------------------------
      1          6           0       -2.374997   -0.668649    1.159118
      2          6           0       -3.833409    0.112042   -1.086089
      3          6           0       -3.768825   -0.604625    1.216300
      4          6           0       -1.691906   -0.339896   -0.022411
      5          6           0       -2.440267    0.049266   -1.144688
      6          6           0       -4.496954   -0.213174    0.094752
      7          6           0       -0.176375   -0.386349   -0.067344
      8          6           0        0.472926    1.010400   -0.131613
      9          6           0        1.990879    0.959054   -0.182393
     10          8           0        2.487083   -0.279273    0.090619
     11          6           0        3.919349   -0.359668    0.077446
     12          8           0        0.178090   -1.145215   -1.229371
     13          6           0        0.082152    1.893382    1.055968
     14          8           0        2.687960    1.940033   -0.416243
     15          6           0        4.312072   -1.792019    0.382013
     16          1           0       -1.826420   -0.976994    2.046095
     17          1           0       -4.399432    0.409890   -1.964684
     18          1           0       -4.287125   -0.862450    2.136170
     19          1           0       -1.934882    0.293694   -2.077014
     20          1           0       -5.581730   -0.166418    0.138962
     21          1           0        0.185741   -0.946922    0.804159
     22          1           0        0.168928    1.497575   -1.067900
     23          1           0        4.333500    0.308700    0.840497
     24          1           0        4.296829   -0.074575   -0.910885
     25          1           0        1.087157   -1.463557   -1.083380
     26          1           0        0.609042    2.853723    1.025275
     27          1           0       -0.989577    2.114013    1.058843
     28          1           0        0.338198    1.410986    2.005950
     29          1           0        3.922529   -2.099126    1.358260
     30          1           0        5.399555   -1.906827    0.383262
     31          1           0        3.884751   -2.474654   -0.360003
 ---------------------------------------------------------------------
 Rotational constants (GHZ):      1.3471673      0.2887767      0.2729104
 Standard basis: 6-31+G(d,p) (6D, 7F)
 There are   365 symmetry adapted basis functions of A   symmetry.
 Integral buffers will be    131072 words long.
 Raffenetti 2 integral format.
 Two-electron integral symmetry is turned on.
   365 basis functions,   592 primitive gaussians,   365 cartesian basis functions
    56 alpha electrons       56 beta electrons
       nuclear repulsion energy       996.2687841943 Hartrees.
 NAtoms=   31 NActive=   31 NUniq=   31 SFac= 1.00D+00 NAtFMM=   60 NAOKFM=F Big=F
 Nuclear repulsion after empirical dispersion term =      996.2480605700 Hartrees.
 ------------------------------------------------------------------------------
 Polarizable Continuum Model (PCM)
 =================================
 Model                : C-PCM.
 Atomic radii         : SMD-Coulomb.
 Polarization charges : Total charges.
 Charge compensation  : None.
 Solution method      : Matrix inversion.
 Cavity type          : VdW (van der Waals Surface) (Alpha=1.000).
 Cavity algorithm     : GePol (No added spheres)
                        Default sphere list used, NSphG=   31.
                        Lebedev-Laikov grids with approx.  5.0 points / Ang**2.
                        Smoothing algorithm: Karplus/York (Gamma=1.0000).
                        Polarization charges: spherical gaussians, with
                                              point-specific exponents (IZeta= 3).
                        Self-potential: point-specific (ISelfS= 7).
                        Self-field    : sphere-specific E.n sum rule (ISelfD= 2).
 Solvent              : Chloroform, Eps=   4.711300 Eps(inf)=   2.090627
 ------------------------------------------------------------------------------
 ------------------------------------------------------------------------------
 Atomic radii for non-electrostatic terms: SMD-CDS.
 ------------------------------------------------------------------------------
 Nuclear repulsion after PCM non-electrostatic terms =      996.2415330511 Hartrees.
 One-electron integrals computed using PRISM.
 NBasis=   365 RedAO= T  NBF=   365
 NBsUse=   365 1.00D-06 NBFU=   365
 Harris functional with IExCor= 4639 diagonalized for initial guess.
 ExpMin= 4.38D-02 ExpMax= 5.48D+03 ExpMxC= 8.25D+02 IAcc=2 IRadAn=         4 AccDes= 0.00D+00
 HarFok:  IExCor= 4639 AccDes= 0.00D+00 IRadAn=         4 IDoV= 1
 ScaDFX=  1.000000  1.000000  1.000000  1.000000
 FoFCou: FMM=F IPFlag=           0 FMFlag=      100000 FMFlg1=           0
         NFxFlg=           0 DoJE=T BraDBF=F KetDBF=T FulRan=T
         Omega=  0.000000  0.000000  1.000000  0.000000  0.000000 ICntrl=     500 IOpCl=  0
         NMat0=    1 NMatS0=    1 NMatT0=    0 NMatD0=    1 NMtDS0=    0 NMtDT0=    0
         I1Cent=           4 NGrid=           0.
 Petite list used in FoFCou.
 Initial guess orbital symmetries:
       Occupied  (A) (A) (A) (A) (A) (A) (A) (A) (A) (A) (A) (A)
                 (A) (A) (A) (A) (A) (A) (A) (A) (A) (A) (A) (A)
                 (A) (A) (A) (A) (A) (A) (A) (A) (A) (A) (A) (A)
                 (A) (A) (A) (A) (A) (A) (A) (A) (A) (A) (A) (A)
                 (A) (A) (A) (A) (A) (A) (A) (A)
       Virtual   (A) (A) (A) (A) (A) (A) (A) (A) (A) (A) (A) (A)
                 (A) (A) (A) (A) (A) (A) (A) (A) (A) (A) (A) (A)
                 (A) (A) (A) (A) (A) (A) (A) (A) (A) (A) (A) (A)
                 (A) (A) (A) (A) (A) (A) (A) (A) (A) (A) (A) (A)
                 (A) (A) (A) (A) (A) (A) (A) (A) (A) (A) (A) (A)
                 (A) (A) (A) (A) (A) (A) (A) (A) (A) (A) (A) (A)
                 (A) (A) (A) (A) (A) (A) (A) (A) (A) (A) (A) (A)
                 (A) (A) (A) (A) (A) (A) (A) (A) (A) (A) (A) (A)
                 (A) (A) (A) (A) (A) (A) (A) (A) (A) (A) (A) (A)
                 (A) (A) (A) (A) (A) (A) (A) (A) (A) (A) (A) (A)
                 (A) (A) (A) (A) (A) (A) (A) (A) (A) (A) (A) (A)
                 (A) (A) (A) (A) (A) (A) (A) (A) (A) (A) (A) (A)
                 (A) (A) (A) (A) (A) (A) (A) (A) (A) (A) (A) (A)
                 (A) (A) (A) (A) (A) (A) (A) (A) (A) (A) (A) (A)
                 (A) (A) (A) (A) (A) (A) (A) (A) (A) (A) (A) (A)
                 (A) (A) (A) (A) (A) (A) (A) (A) (A) (A) (A) (A)
                 (A) (A) (A) (A) (A) (A) (A) (A) (A) (A) (A) (A)
                 (A) (A) (A) (A) (A) (A) (A) (A) (A) (A) (A) (A)
                 (A) (A) (A) (A) (A) (A) (A) (A) (A) (A) (A) (A)
                 (A) (A) (A) (A) (A) (A) (A) (A) (A) (A) (A) (A)
                 (A) (A) (A) (A) (A) (A) (A) (A) (A) (A) (A) (A)
                 (A) (A) (A) (A) (A) (A) (A) (A) (A) (A) (A) (A)
                 (A) (A) (A) (A) (A) (A) (A) (A) (A) (A) (A) (A)
                 (A) (A) (A) (A) (A) (A) (A) (A) (A) (A) (A) (A)
                 (A) (A) (A) (A) (A) (A) (A) (A) (A) (A) (A) (A)
                 (A) (A) (A) (A) (A) (A) (A) (A) (A)
 The electronic state of the initial guess is 1-A.
 Requested convergence on RMS density matrix=1.00D-08 within 128 cycles.
 Requested convergence on MAX density matrix=1.00D-06.
 Requested convergence on             energy=1.00D-06.
 No special actions if energy rises.
 FoFJK:  IHMeth= 1 ICntrl=     0 DoSepK=T KAlg= 1 I1Cent= 0 FoldK=F
 FoFJK:  IHMeth= 1 ICntrl=     0 DoSepK=T KAlg= 1 I1Cent= 0 FoldK=F
 FoFJK:  IHMeth= 1 ICntrl=     0 DoSepK=T KAlg= 1 I1Cent= 0 FoldK=F
 FoFJK:  IHMeth= 1 ICntrl=     0 DoSepK=T KAlg= 1 I1Cent= 0 FoldK=F
 FoFJK:  IHMeth= 1 ICntrl=     0 DoSepK=T KAlg= 1 I1Cent= 0 FoldK=F
 FoFJK:  IHMeth= 1 ICntrl=     0 DoSepK=T KAlg= 1 I1Cent= 0 FoldK=F
 FoFJK:  IHMeth= 1 ICntrl=     0 DoSepK=T KAlg= 1 I1Cent= 0 FoldK=F
 FoFJK:  IHMeth= 1 ICntrl=     0 DoSepK=T KAlg= 1 I1Cent= 0 FoldK=F
 FoFJK:  IHMeth= 1 ICntrl=     0 DoSepK=T KAlg= 1 I1Cent= 0 FoldK=F
 FoFJK:  IHMeth= 1 ICntrl=     0 DoSepK=T KAlg= 1 I1Cent= 0 FoldK=F
 FoFJK:  IHMeth= 1 ICntrl=     0 DoSepK=T KAlg= 1 I1Cent= 0 FoldK=F
 FoFJK:  IHMeth= 1 ICntrl=     0 DoSepK=T KAlg= 1 I1Cent= 0 FoldK=F
 FoFJK:  IHMeth= 1 ICntrl=     0 DoSepK=T KAlg= 1 I1Cent= 0 FoldK=F
 FoFJK:  IHMeth= 1 ICntrl=     0 DoSepK=T KAlg= 1 I1Cent= 0 FoldK=F
 FoFJK:  IHMeth= 1 ICntrl=     0 DoSepK=T KAlg= 1 I1Cent= 0 FoldK=F
 FoFJK:  IHMeth= 1 ICntrl=     0 DoSepK=T KAlg= 1 I1Cent= 0 FoldK=F
 Error on total polarization charges =  0.04035
 SCF Done:  E(RwB97XD) =  -692.446399232     A.U. after   16 cycles
             Convg  =    0.2783D-08             -V/T =  2.0096
 SMD-CDS (non-electrostatic) energy       (kcal/mol) =      -4.10
 (included in total energy above)
 Range of M.O.s used for correlation:     1   365
 NBasis=   365 NAE=    56 NBE=    56 NFC=     0 NFV=     0
 NROrb=    365 NOA=    56 NOB=    56 NVA=   309 NVB=   309

 **** Warning!!: The largest alpha MO coefficient is  0.15514103D+03

 NEqPCM:  Using equilibrium solvation (IEInf=0, Eps=   4.7113, EpsInf=   2.0906)
          Differentiating once with respect to magnetic field using GIAOs.
          Electric field/nuclear overlap derivatives assumed to be zero.
 FoFCou: FMM=F IPFlag=           0 FMFlag=    10101102 FMFlg1=           0
         NFxFlg=    40000000 DoJE=F BraDBF=F KetDBF=T FulRan=T
         Omega=  0.000000  0.000000  1.000000  0.000000  0.000000 ICntrl=    6100 IOpCl=  0
         NMat0=    1 NMatS0=    1 NMatT0=    0 NMatD0=    1 NMtDS0=    0 NMtDT0=    0
         I1Cent=           7 NGrid=        2291.
 Symmetry not used in FoFCou.
 FoFJK:  IHMeth= 1 ICntrl=  6127 DoSepK=T KAlg= 1 I1Cent= 0 FoldK=F
 FoFJK:  IHMeth= 1 ICntrl=     0 DoSepK=T KAlg= 1 I1Cent= 0 FoldK=F
          There are     3 degrees of freedom in the 1st order CPHF.  IDoFFX=0.
      3 vectors produced by pass  0 Test12= 5.77D-13 3.33D-08 XBig12= 1.42D+02 1.69D+00.
 AX will form     3 AO Fock derivatives at one time.
 FoFJK:  IHMeth= 1 ICntrl=     0 DoSepK=T KAlg= 1 I1Cent= 0 FoldK=F
      3 vectors produced by pass  1 Test12= 5.77D-13 3.33D-08 XBig12= 1.30D+00 3.07D-01.
 FoFJK:  IHMeth= 1 ICntrl=     0 DoSepK=T KAlg= 1 I1Cent= 0 FoldK=F
      3 vectors produced by pass  2 Test12= 5.77D-13 3.33D-08 XBig12= 2.80D-02 5.73D-02.
 FoFJK:  IHMeth= 1 ICntrl=     0 DoSepK=T KAlg= 1 I1Cent= 0 FoldK=F
      3 vectors produced by pass  3 Test12= 5.77D-13 3.33D-08 XBig12= 4.60D-04 4.52D-03.
 FoFJK:  IHMeth= 1 ICntrl=     0 DoSepK=T KAlg= 1 I1Cent= 0 FoldK=F
      3 vectors produced by pass  4 Test12= 5.77D-13 3.33D-08 XBig12= 5.60D-06 4.03D-04.
 FoFJK:  IHMeth= 1 ICntrl=     0 DoSepK=T KAlg= 1 I1Cent= 0 FoldK=F
      3 vectors produced by pass  5 Test12= 5.77D-13 3.33D-08 XBig12= 6.85D-08 5.39D-05.
 FoFJK:  IHMeth= 1 ICntrl=     0 DoSepK=T KAlg= 1 I1Cent= 0 FoldK=F
      3 vectors produced by pass  6 Test12= 5.77D-13 3.33D-08 XBig12= 7.46D-10 5.78D-06.
 FoFJK:  IHMeth= 1 ICntrl=     0 DoSepK=T KAlg= 1 I1Cent= 0 FoldK=F
      3 vectors produced by pass  7 Test12= 5.77D-13 3.33D-08 XBig12= 8.99D-12 7.58D-07.
 FoFJK:  IHMeth= 1 ICntrl=     0 DoSepK=T KAlg= 1 I1Cent= 0 FoldK=F
      2 vectors produced by pass  8 Test12= 5.77D-13 3.33D-08 XBig12= 1.11D-13 6.01D-08.
 FoFJK:  IHMeth= 1 ICntrl=     0 DoSepK=T KAlg= 1 I1Cent= 0 FoldK=F
 Inverted reduced A of dimension    26 with in-core refinement.
 Calculating GIAO nuclear magnetic shielding tensors.
 SCF GIAO Magnetic shielding tensor (ppm):
      1  C    Isotropic =    69.5368   Anisotropy =   160.4560
   XX=    39.9045   YX=    19.9457   ZX=   -34.7189
   XY=    11.5712   YY=   157.9638   ZY=    57.5676
   XZ=   -38.0792   YZ=    53.0132   ZZ=    10.7421
   Eigenvalues:   -30.0497    62.1526   176.5074
      2  C    Isotropic =    69.7910   Anisotropy =   177.0732
   XX=    33.4543   YX=    19.8525   ZX=   -34.3388
   XY=    19.6182   YY=   168.4854   ZY=    59.5221
   XZ=   -35.3589   YZ=    57.1673   ZZ=     7.4332
   Eigenvalues:   -34.3013    55.8344   187.8398
      3  C    Isotropic =    70.6190   Anisotropy =   174.2729
   XX=    36.9641   YX=    -3.0880   ZX=    38.9690
   XY=    -3.7492   YY=   170.0998   ZY=    54.3816
   XZ=    38.5521   YZ=    54.3240   ZZ=     4.7932
   Eigenvalues:   -32.4794    57.5355   186.8010
      4  C    Isotropic =    53.9075   Anisotropy =   184.5985
   XX=   -34.6105   YX=     5.4584   ZX=     7.9719
   XY=    11.5678   YY=   160.6867   ZY=    47.1328
   XZ=     5.4128   YZ=    47.1958   ZZ=    35.6464
   Eigenvalues:   -35.3419    20.0912   176.9732
      5  C    Isotropic =    73.0702   Anisotropy =   180.8963
   XX=    37.2185   YX=    -1.3050   ZX=    33.1118
   XY=    -6.8658   YY=   176.7960   ZY=    58.1894
   XZ=    33.7781   YZ=    53.8274   ZZ=     5.1961
   Eigenvalues:   -28.3383    53.8811   193.6677
      6  C    Isotropic =    72.1824   Anisotropy =   177.4080
   XX=   -28.6310   YX=    10.4616   ZX=     6.6859
   XY=    13.5964   YY=   178.5700   ZY=    35.9274
   XZ=     6.8522   YZ=    37.8328   ZZ=    66.6083
   Eigenvalues:   -29.5662    55.6590   190.4544
      7  C    Isotropic =   119.5735   Anisotropy =    33.0062
   XX=   112.3544   YX=     1.4940   ZX=   -10.9486
   XY=    -1.3228   YY=   116.1710   ZY=    13.6710
   XZ=   -11.4402   YZ=    13.2456   ZZ=   130.1951
   Eigenvalues:   102.9532   114.1896   141.5777
      8  C    Isotropic =   143.9981   Anisotropy =    31.2065
   XX=   157.0058   YX=    12.8525   ZX=     2.4681
   XY=    13.3314   YY=   142.8109   ZY=     0.7879
   XZ=    -2.8286   YZ=     0.8151   ZZ=   132.1775
   Eigenvalues:   131.9750   135.2168   164.8024
      9  C    Isotropic =    18.2846   Anisotropy =   100.1989
   XX=   -10.8775   YX=    38.6004   ZX=    -7.9781
   XY=    73.9845   YY=   -13.1259   ZY=    23.4349
   XZ=   -13.8228   YZ=    25.4199   ZZ=    78.8571
   Eigenvalues:   -72.4804    42.2503    85.0838
     10  O    Isotropic =   132.8518   Anisotropy =   157.7756
   XX=    10.5963   YX=   -48.2757   ZX=    16.1607
   XY=  -167.4509   YY=   177.7634   ZY=     8.8643
   XZ=    61.3216   YZ=     0.0488   ZZ=   210.1955
   Eigenvalues:   -47.5300   208.0498   238.0355
     11  C    Isotropic =   135.9148   Anisotropy =    60.2652
   XX=   175.6207   YX=    -0.7356   ZX=    -1.0122
   XY=    -9.5755   YY=   118.5909   ZY=    -0.7565
   XZ=     2.3227   YZ=    -1.0127   ZZ=   113.5326
   Eigenvalues:   113.3816   118.2711   176.0916
     12  O    Isotropic =   281.9651   Anisotropy =    50.5581
   XX=   304.7945   YX=   -17.4134   ZX=    -9.2328
   XY=   -13.7523   YY=   262.3014   ZY=    20.1840
   XZ=    -5.3421   YZ=    21.9567   ZZ=   278.7993
   Eigenvalues:   246.4902   283.7346   315.6705
     13  C    Isotropic =   180.6244   Anisotropy =    23.1176
   XX=   178.4656   YX=     3.2838   ZX=    -6.8627
   XY=     4.3883   YY=   179.8009   ZY=    10.5919
   XZ=    -8.6372   YZ=    16.3506   ZZ=   183.6066
   Eigenvalues:   163.6866   182.1503   196.0361
     14  O    Isotropic =   -49.5865   Anisotropy =   543.1964
   XX=  -182.0968   YX=   -35.5595   ZX=    21.2419
   XY=    10.7490   YY=  -253.1343   ZY=   120.3438
   XZ=    14.2019   YZ=   120.3931   ZZ=   286.4716
   Eigenvalues:  -281.3005  -180.0034   312.5444
     15  C    Isotropic =   182.4978   Anisotropy =    22.7594
   XX=   184.7111   YX=    -2.7035   ZX=     0.3578
   XY=   -10.0686   YY=   193.2665   ZY=    -5.2546
   XZ=     2.0291   YZ=    -5.4466   ZZ=   169.5159
   Eigenvalues:   168.3641   181.4586   197.6708
     16  H    Isotropic =    23.8740   Anisotropy =     7.9761
   XX=    27.0883   YX=     1.2707   ZX=    -2.9463
   XY=     1.2162   YY=    21.0989   ZY=    -1.8874
   XZ=    -2.9131   YZ=    -1.6701   ZZ=    23.4349
   Eigenvalues:    20.1198    22.3108    29.1914
     17  H    Isotropic =    23.6601   Anisotropy =     5.0452
   XX=    26.7365   YX=     0.1209   ZX=    -0.9133
   XY=     0.1887   YY=    20.4410   ZY=    -0.8792
   XZ=    -0.9147   YZ=    -0.9795   ZZ=    23.8030
   Eigenvalues:    20.2002    23.7566    27.0236
     18  H    Isotropic =    23.8046   Anisotropy =     4.8045
   XX=    26.7785   YX=    -0.3438   ZX=     0.7749
   XY=    -0.4421   YY=    20.8289   ZY=    -1.1945
   XZ=     0.6171   YZ=    -1.3108   ZZ=    23.8064
   Eigenvalues:    20.3693    24.0369    27.0076
     19  H    Isotropic =    23.4490   Anisotropy =     9.9273
   XX=    28.0311   YX=    -1.3478   ZX=     3.7683
   XY=    -1.5442   YY=    19.4742   ZY=    -0.7078
   XZ=     3.2319   YZ=    -1.1221   ZZ=    22.8417
   Eigenvalues:    19.1861    21.0937    30.0672
     20  H    Isotropic =    23.6884   Anisotropy =     4.1967
   XX=    24.5067   YX=    -0.0807   ZX=     0.0825
   XY=    -0.0163   YY=    20.6784   ZY=    -1.8912
   XZ=     0.0536   YZ=    -1.8506   ZZ=    25.8799
   Eigenvalues:    20.0752    24.5037    26.4862
     21  H    Isotropic =    26.6173   Anisotropy =     4.5817
   XX=    27.0640   YX=    -0.5692   ZX=    -1.6893
   XY=    -1.7633   YY=    24.2131   ZY=    -1.0065
   XZ=    -1.4330   YZ=    -2.1807   ZZ=    28.5748
   Eigenvalues:    23.0297    27.1505    29.6718
     22  H    Isotropic =    28.6399   Anisotropy =     4.6465
   XX=    28.5333   YX=    -0.4473   ZX=     1.5895
   XY=     2.8397   YY=    27.4111   ZY=    -2.6635
   XZ=     2.3729   YZ=    -1.7032   ZZ=    29.9754
   Eigenvalues:    24.9513    29.2309    31.7376
     23  H    Isotropic =    27.4426   Anisotropy =     6.8833
   XX=    29.7881   YX=     1.0337   ZX=     3.7051
   XY=    -0.0247   YY=    28.0184   ZY=     1.7186
   XZ=     3.5220   YZ=     1.7896   ZZ=    24.5213
   Eigenvalues:    22.3590    27.9373    32.0314
     24  H    Isotropic =    27.3634   Anisotropy =     6.9699
   XX=    29.5227   YX=    -0.5793   ZX=    -3.9802
   XY=    -1.5609   YY=    25.9482   ZY=    -2.4314
   XZ=    -3.2403   YZ=    -2.5120   ZZ=    26.6192
   Eigenvalues:    22.2644    27.8158    32.0100
     25  H    Isotropic =    28.2130   Anisotropy =    19.7500
   XX=    38.8156   YX=    -5.9186   ZX=     3.4618
   XY=    -7.2998   YY=    23.6336   ZY=     3.3651
   XZ=     2.0614   YZ=     4.0839   ZZ=    22.1899
   Eigenvalues:    17.1585    26.1008    41.3797
     26  H    Isotropic =    30.5025   Anisotropy =    10.1604
   XX=    28.8374   YX=     2.5137   ZX=    -0.9168
   XY=     4.0224   YY=    35.6427   ZY=     1.3514
   XZ=    -0.3528   YZ=     3.0139   ZZ=    27.0274
   Eigenvalues:    25.6764    28.5550    37.2761
     27  H    Isotropic =    31.1239   Anisotropy =     6.5727
   XX=    35.2615   YX=    -2.0603   ZX=    -0.7352
   XY=     1.3606   YY=    31.4374   ZY=     3.1893
   XZ=    -1.0827   YZ=     3.0235   ZZ=    26.6726
   Eigenvalues:    25.0971    32.7688    35.5057
     28  H    Isotropic =    30.7938   Anisotropy =     8.0405
   XX=    27.7600   YX=    -0.6853   ZX=     0.3703
   XY=     1.1021   YY=    28.5125   ZY=     0.9568
   XZ=     0.8194   YZ=    -0.6759   ZZ=    36.1088
   Eigenvalues:    27.6711    28.5561    36.1541
     29  H    Isotropic =    30.1948   Anisotropy =     8.2028
   XX=    28.0680   YX=    -0.9312   ZX=    -1.3602
   XY=    -0.2732   YY=    29.4654   ZY=    -4.2338
   XZ=    -1.1935   YZ=    -3.6491   ZZ=    33.0508
   Eigenvalues:    26.1547    28.7663    35.6633
     30  H    Isotropic =    30.2917   Anisotropy =    11.1375
   XX=    36.5376   YX=    -3.0072   ZX=     0.4756
   XY=    -3.5276   YY=    28.3220   ZY=    -0.5191
   XZ=     0.5796   YZ=    -0.5108   ZZ=    26.0156
   Eigenvalues:    25.9016    27.2569    37.7168
     31  H    Isotropic =    30.2254   Anisotropy =     7.5798
   XX=    28.4736   YX=    -0.1597   ZX=     1.9102
   XY=     0.2902   YY=    32.9333   ZY=     3.8509
   XZ=     1.3431   YZ=     3.3782   ZZ=    29.2694
   Eigenvalues:    26.2082    29.1895    35.2786
 End of Minotr Frequency-dependent properties file   721 does not exist.
 End of Minotr Frequency-dependent properties file   722 does not exist.

 **********************************************************************

            Population analysis using the SCF density.

 **********************************************************************

 Orbital symmetries:
       Occupied  (A) (A) (A) (A) (A) (A) (A) (A) (A) (A) (A) (A)
                 (A) (A) (A) (A) (A) (A) (A) (A) (A) (A) (A) (A)
                 (A) (A) (A) (A) (A) (A) (A) (A) (A) (A) (A) (A)
                 (A) (A) (A) (A) (A) (A) (A) (A) (A) (A) (A) (A)
                 (A) (A) (A) (A) (A) (A) (A) (A)
       Virtual   (A) (A) (A) (A) (A) (A) (A) (A) (A) (A) (A) (A)
                 (A) (A) (A) (A) (A) (A) (A) (A) (A) (A) (A) (A)
                 (A) (A) (A) (A) (A) (A) (A) (A) (A) (A) (A) (A)
                 (A) (A) (A) (A) (A) (A) (A) (A) (A) (A) (A) (A)
                 (A) (A) (A) (A) (A) (A) (A) (A) (A) (A) (A) (A)
                 (A) (A) (A) (A) (A) (A) (A) (A) (A) (A) (A) (A)
                 (A) (A) (A) (A) (A) (A) (A) (A) (A) (A) (A) (A)
                 (A) (A) (A) (A) (A) (A) (A) (A) (A) (A) (A) (A)
                 (A) (A) (A) (A) (A) (A) (A) (A) (A) (A) (A) (A)
                 (A) (A) (A) (A) (A) (A) (A) (A) (A) (A) (A) (A)
                 (A) (A) (A) (A) (A) (A) (A) (A) (A) (A) (A) (A)
                 (A) (A) (A) (A) (A) (A) (A) (A) (A) (A) (A) (A)
                 (A) (A) (A) (A) (A) (A) (A) (A) (A) (A) (A) (A)
                 (A) (A) (A) (A) (A) (A) (A) (A) (A) (A) (A) (A)
                 (A) (A) (A) (A) (A) (A) (A) (A) (A) (A) (A) (A)
                 (A) (A) (A) (A) (A) (A) (A) (A) (A) (A) (A) (A)
                 (A) (A) (A) (A) (A) (A) (A) (A) (A) (A) (A) (A)
                 (A) (A) (A) (A) (A) (A) (A) (A) (A) (A) (A) (A)
                 (A) (A) (A) (A) (A) (A) (A) (A) (A) (A) (A) (A)
                 (A) (A) (A) (A) (A) (A) (A) (A) (A) (A) (A) (A)
                 (A) (A) (A) (A) (A) (A) (A) (A) (A) (A) (A) (A)
                 (A) (A) (A) (A) (A) (A) (A) (A) (A) (A) (A) (A)
                 (A) (A) (A) (A) (A) (A) (A) (A) (A) (A) (A) (A)
                 (A) (A) (A) (A) (A) (A) (A) (A) (A) (A) (A) (A)
                 (A) (A) (A) (A) (A) (A) (A) (A) (A) (A) (A) (A)
                 (A) (A) (A) (A) (A) (A) (A) (A) (A)
 The electronic state is 1-A.
 Alpha  occ. eigenvalues --  -19.33679 -19.27787 -19.27756 -10.44350 -10.35827
 Alpha  occ. eigenvalues --  -10.35439 -10.32019 -10.31490 -10.30667 -10.30598
 Alpha  occ. eigenvalues --  -10.30576 -10.30523 -10.30450 -10.29276 -10.29118
 Alpha  occ. eigenvalues --   -1.21742  -1.12979  -1.12435  -0.96148  -0.91397
 Alpha  occ. eigenvalues --   -0.87261  -0.85272  -0.84646  -0.77502  -0.75858
 Alpha  occ. eigenvalues --   -0.71378  -0.70055  -0.67340  -0.66205  -0.61509
 Alpha  occ. eigenvalues --   -0.60123  -0.59872  -0.58520  -0.56871  -0.54196
 Alpha  occ. eigenvalues --   -0.53513  -0.52804  -0.51329  -0.50556  -0.50218
 Alpha  occ. eigenvalues --   -0.49493  -0.47975  -0.47438  -0.45855  -0.45597
 Alpha  occ. eigenvalues --   -0.44260  -0.44008  -0.43577  -0.42698  -0.42339
 Alpha  occ. eigenvalues --   -0.41387  -0.39271  -0.37216  -0.35784  -0.33219
 Alpha  occ. eigenvalues --   -0.32611
 Alpha virt. eigenvalues --    0.05087   0.05405   0.06294   0.07119   0.07838
 Alpha virt. eigenvalues --    0.08383   0.08482   0.09633   0.09908   0.10233
 Alpha virt. eigenvalues --    0.10718   0.11046   0.11907   0.12087   0.12314
 Alpha virt. eigenvalues --    0.13176   0.13497   0.13950   0.14760   0.14956
 Alpha virt. eigenvalues --    0.15775   0.16066   0.17066   0.17767   0.18067
 Alpha virt. eigenvalues --    0.18492   0.19027   0.19289   0.19753   0.20588
 Alpha virt. eigenvalues --    0.20734   0.20861   0.21974   0.22159   0.22415
 Alpha virt. eigenvalues --    0.22983   0.23829   0.24253   0.25139   0.25345
 Alpha virt. eigenvalues --    0.25449   0.25756   0.25924   0.26709   0.27049
 Alpha virt. eigenvalues --    0.27134   0.27982   0.28245   0.28820   0.29042
 Alpha virt. eigenvalues --    0.29564   0.30160   0.30191   0.31373   0.31463
 Alpha virt. eigenvalues --    0.31657   0.32135   0.32336   0.32939   0.33349
 Alpha virt. eigenvalues --    0.33744   0.34344   0.34512   0.35245   0.35713
 Alpha virt. eigenvalues --    0.36491   0.36698   0.37722   0.37910   0.38306
 Alpha virt. eigenvalues --    0.39100   0.40224   0.40250   0.40319   0.41044
 Alpha virt. eigenvalues --    0.41456   0.41988   0.42741   0.43631   0.43981
 Alpha virt. eigenvalues --    0.45676   0.46040   0.46723   0.47047   0.48222
 Alpha virt. eigenvalues --    0.49935   0.50252   0.51476   0.52507   0.54272
 Alpha virt. eigenvalues --    0.55467   0.58077   0.59649   0.66628   0.70495
 Alpha virt. eigenvalues --    0.73334   0.74365   0.75327   0.75695   0.76142
 Alpha virt. eigenvalues --    0.77226   0.77511   0.78303   0.80148   0.81192
 Alpha virt. eigenvalues --    0.81750   0.82793   0.83471   0.83690   0.83934
 Alpha virt. eigenvalues --    0.85602   0.87191   0.88632   0.88803   0.89645
 Alpha virt. eigenvalues --    0.90284   0.90921   0.91698   0.94487   0.96645
 Alpha virt. eigenvalues --    0.97201   0.98575   0.99938   1.00990   1.01796
 Alpha virt. eigenvalues --    1.02448   1.02931   1.05151   1.06741   1.07200
 Alpha virt. eigenvalues --    1.07720   1.09248   1.09783   1.10482   1.11644
 Alpha virt. eigenvalues --    1.12890   1.14499   1.18286   1.18952   1.19243
 Alpha virt. eigenvalues --    1.21084   1.21447   1.21839   1.23138   1.23702
 Alpha virt. eigenvalues --    1.25852   1.26299   1.29055   1.29178   1.30733
 Alpha virt. eigenvalues --    1.31339   1.34076   1.34323   1.35444   1.37509
 Alpha virt. eigenvalues --    1.39046   1.40391   1.41979   1.42900   1.44563
 Alpha virt. eigenvalues --    1.45139   1.47157   1.48648   1.48963   1.50299
 Alpha virt. eigenvalues --    1.50453   1.52488   1.52950   1.55527   1.56161
 Alpha virt. eigenvalues --    1.57964   1.58121   1.60999   1.64905   1.66014
 Alpha virt. eigenvalues --    1.67306   1.70788   1.72352   1.74341   1.76226
 Alpha virt. eigenvalues --    1.79731   1.82767   1.83736   1.85125   1.87844
 Alpha virt. eigenvalues --    1.89077   1.90411   1.92389   1.93385   1.93943
 Alpha virt. eigenvalues --    1.95752   1.97201   1.99228   1.99789   2.00871
 Alpha virt. eigenvalues --    2.01868   2.03350   2.03958   2.04759   2.05580
 Alpha virt. eigenvalues --    2.06378   2.07494   2.08502   2.10399   2.11095
 Alpha virt. eigenvalues --    2.11815   2.13528   2.13833   2.16030   2.18413
 Alpha virt. eigenvalues --    2.18764   2.19229   2.20025   2.20382   2.21321
 Alpha virt. eigenvalues --    2.22755   2.24722   2.26176   2.26537   2.31100
 Alpha virt. eigenvalues --    2.31997   2.36494   2.38600   2.39498   2.40894
 Alpha virt. eigenvalues --    2.42143   2.42980   2.44780   2.46222   2.48214
 Alpha virt. eigenvalues --    2.49147   2.50476   2.51089   2.53472   2.53704
 Alpha virt. eigenvalues --    2.56287   2.56858   2.59042   2.61919   2.63065
 Alpha virt. eigenvalues --    2.63957   2.64691   2.66064   2.67826   2.68681
 Alpha virt. eigenvalues --    2.69598   2.70352   2.72286   2.74254   2.75657
 Alpha virt. eigenvalues --    2.77342   2.78779   2.81338   2.81966   2.83135
 Alpha virt. eigenvalues --    2.84252   2.84280   2.86888   2.87867   2.90110
 Alpha virt. eigenvalues --    2.91236   2.91697   2.95357   2.96242   2.96403
 Alpha virt. eigenvalues --    2.99033   3.01067   3.03107   3.05319   3.08928
 Alpha virt. eigenvalues --    3.13956   3.15849   3.16613   3.20502   3.28328
 Alpha virt. eigenvalues --    3.29362   3.30001   3.36497   3.37169   3.38522
 Alpha virt. eigenvalues --    3.38753   3.44012   3.45031   3.48651   3.49634
 Alpha virt. eigenvalues --    3.54262   3.58211   3.59273   3.60910   3.62466
 Alpha virt. eigenvalues --    3.63672   3.65565   3.69883   3.99966   4.38923
 Alpha virt. eigenvalues --    4.40947   4.42178   4.48734   4.52322   4.55181
 Alpha virt. eigenvalues --    4.57798   4.59475   4.63525   4.65527   4.71694
 Alpha virt. eigenvalues --    4.77962   4.82993   4.96196   4.98517
          Condensed to atoms (all electrons):
              1          2          3          4          5          6
     1  C   15.326455  -0.650304  -1.654140  -5.406829  -6.382319   0.236349
     2  C   -0.650304   6.513091   0.341419   0.284313  -0.221286   0.224306
     3  C   -1.654140   0.341419   6.806678   0.966015   0.147654   0.304236
     4  C   -5.406829   0.284313   0.966015  15.891576   0.505778  -0.728768
     5  C   -6.382319  -0.221286   0.147654   0.505778  14.188224   0.432826
     6  C    0.236349   0.224306   0.304236  -0.728768   0.432826   5.356488
     7  C    5.201586  -0.630757  -1.014218  -6.612600  -3.643835   0.041987
     8  C   -1.127673   0.103981   0.060737   1.035925   1.089583  -0.026510
     9  C    0.428403   0.007878  -0.009227  -0.723474  -0.478498  -0.010992
    10  O   -0.044197   0.007345   0.003244   0.128502   0.044058  -0.000996
    11  C   -0.014114   0.001533   0.002431   0.032112   0.002426  -0.000707
    12  O   -0.057768   0.077082  -0.024260   0.145239  -0.035940  -0.004672
    13  C   -0.102120  -0.018337   0.021235   0.204814   0.143647   0.023158
    14  O   -0.006378   0.001202   0.000053   0.007773   0.012358   0.000113
    15  C    0.014107  -0.000274   0.000872  -0.011680  -0.013371  -0.000065
    16  H    0.238864  -0.001070   0.028549   0.038013   0.005801  -0.005431
    17  H    0.008587   0.269868  -0.005487   0.028062   0.014284   0.008462
    18  H    0.052335  -0.001243   0.257715   0.007619  -0.007312   0.017177
    19  H    0.040906  -0.023252  -0.005972   0.026287   0.197732  -0.013206
    20  H   -0.003562   0.019814   0.026618   0.004037  -0.004893   0.283123
    21  H    0.113979   0.003718   0.061185  -0.032737  -0.132603  -0.005448
    22  H    0.045182  -0.010633   0.004449   0.005273  -0.079506  -0.002395
    23  H   -0.000524   0.000022  -0.000024   0.000450   0.000321  -0.000001
    24  H    0.000415  -0.000034   0.000016   0.000491  -0.000745  -0.000002
    25  H    0.003777  -0.008454   0.001072   0.026403   0.016758   0.000875
    26  H    0.006758  -0.000362  -0.001770  -0.013867  -0.008327   0.000089
    27  H    0.002176  -0.007413  -0.002223   0.047479   0.027340   0.006519
    28  H    0.034369  -0.002990   0.004661  -0.050709  -0.009308   0.000970
    29  H    0.000206   0.000003   0.000012   0.001095  -0.000106   0.000000
    30  H    0.000046  -0.000001   0.000001  -0.000138  -0.000036   0.000000
    31  H   -0.000235   0.000009  -0.000019   0.000088   0.000180   0.000000
              7          8          9         10         11         12
     1  C    5.201586  -1.127673   0.428403  -0.044197  -0.014114  -0.057768
     2  C   -0.630757   0.103981   0.007878   0.007345   0.001533   0.077082
     3  C   -1.014218   0.060737  -0.009227   0.003244   0.002431  -0.024260
     4  C   -6.612600   1.035925  -0.723474   0.128502   0.032112   0.145239
     5  C   -3.643835   1.089583  -0.478498   0.044058   0.002426  -0.035940
     6  C    0.041987  -0.026510  -0.010992  -0.000996  -0.000707  -0.004672
     7  C   14.036849  -1.960295   0.870477  -0.077109  -0.026248  -0.022149
     8  C   -1.960295   8.873325  -1.792206  -0.340554  -0.142937  -0.003289
     9  C    0.870477  -1.792206   7.254885   0.263340   0.010360  -0.092864
    10  O   -0.077109  -0.340554   0.263340   8.581761   0.059115   0.023821
    11  C   -0.026248  -0.142937   0.010360   0.059115   5.330047  -0.005882
    12  O   -0.022149  -0.003289  -0.092864   0.023821  -0.005882   8.333088
    13  C   -0.366692   0.120708  -0.457994  -0.046962  -0.021979   0.057220
    14  O    0.044521  -0.004908   0.423945  -0.134392  -0.060538  -0.003239
    15  C    0.001287  -0.070731   0.071765  -0.046091   0.126903  -0.001511
    16  H    0.012323  -0.002606  -0.002521  -0.000093   0.000136  -0.000110
    17  H    0.002535  -0.000210   0.000507  -0.000001   0.000002  -0.000016
    18  H    0.000332  -0.000223   0.000150   0.000000   0.000000   0.000010
    19  H    0.087574  -0.013859   0.030072  -0.000015   0.000177   0.000624
    20  H    0.001801  -0.000405  -0.000100   0.000000   0.000000  -0.000003
    21  H    0.271521   0.004628   0.031718   0.006719   0.006932  -0.045457
    22  H    0.013774   0.313920   0.051522   0.007179   0.003414  -0.001786
    23  H    0.001088  -0.009099  -0.009577  -0.042977   0.417288  -0.000116
    24  H    0.006566  -0.023013  -0.003485  -0.043286   0.410956  -0.000472
    25  H    0.019231  -0.035874  -0.002284  -0.000411  -0.002681   0.227787
    26  H    0.045663  -0.136435   0.025535   0.000629   0.000066  -0.000427
    27  H   -0.064703  -0.043024  -0.052616  -0.000812  -0.001045  -0.000164
    28  H    0.004700  -0.083938   0.064431   0.003292   0.004450  -0.000008
    29  H    0.002026  -0.007099  -0.000902  -0.003340  -0.055423  -0.000011
    30  H   -0.000055  -0.001004   0.002301   0.006571  -0.062108   0.000001
    31  H    0.002210  -0.004995  -0.001350  -0.002607  -0.054881  -0.000518
             13         14         15         16         17         18
     1  C   -0.102120  -0.006378   0.014107   0.238864   0.008587   0.052335
     2  C   -0.018337   0.001202  -0.000274  -0.001070   0.269868  -0.001243
     3  C    0.021235   0.000053   0.000872   0.028549  -0.005487   0.257715
     4  C    0.204814   0.007773  -0.011680   0.038013   0.028062   0.007619
     5  C    0.143647   0.012358  -0.013371   0.005801   0.014284  -0.007312
     6  C    0.023158   0.000113  -0.000065  -0.005431   0.008462   0.017177
     7  C   -0.366692   0.044521   0.001287   0.012323   0.002535   0.000332
     8  C    0.120708  -0.004908  -0.070731  -0.002606  -0.000210  -0.000223
     9  C   -0.457994   0.423945   0.071765  -0.002521   0.000507   0.000150
    10  O   -0.046962  -0.134392  -0.046091  -0.000093  -0.000001   0.000000
    11  C   -0.021979  -0.060538   0.126903   0.000136   0.000002   0.000000
    12  O    0.057220  -0.003239  -0.001511  -0.000110  -0.000016   0.000010
    13  C    5.813625  -0.047460   0.004332   0.005027  -0.000154  -0.000057
    14  O   -0.047460   8.253313   0.009888   0.000010   0.000000   0.000000
    15  C    0.004332   0.009888   5.328414  -0.000049   0.000000   0.000000
    16  H    0.005027   0.000010  -0.000049   0.509898   0.000011  -0.003908
    17  H   -0.000154   0.000000   0.000000   0.000011   0.496573  -0.000122
    18  H   -0.000057   0.000000   0.000000  -0.003908  -0.000122   0.497519
    19  H   -0.008063   0.000005   0.000055  -0.000109  -0.003996   0.000011
    20  H    0.000038   0.000000   0.000000  -0.000121  -0.003818  -0.003871
    21  H   -0.016349  -0.001294   0.002963   0.002019   0.000002  -0.000006
    22  H   -0.037490  -0.007098   0.000614  -0.000009   0.000002   0.000000
    23  H    0.001017   0.001993  -0.026391   0.000000   0.000000   0.000000
    24  H    0.000068   0.001950  -0.017482   0.000000   0.000000   0.000000
    25  H   -0.002506   0.000467  -0.001123   0.000000   0.000000   0.000000
    26  H    0.439133   0.004020   0.000228   0.000006   0.000000   0.000000
    27  H    0.450134   0.000501  -0.000079  -0.000109  -0.000002  -0.000004
    28  H    0.382432  -0.001398   0.000198  -0.000167   0.000000   0.000000
    29  H    0.000440  -0.000083   0.425779   0.000000   0.000000   0.000000
    30  H    0.000066   0.000093   0.422292   0.000000   0.000000   0.000000
    31  H   -0.000202  -0.000111   0.424626   0.000000   0.000000   0.000000
             19         20         21         22         23         24
     1  C    0.040906  -0.003562   0.113979   0.045182  -0.000524   0.000415
     2  C   -0.023252   0.019814   0.003718  -0.010633   0.000022  -0.000034
     3  C   -0.005972   0.026618   0.061185   0.004449  -0.000024   0.000016
     4  C    0.026287   0.004037  -0.032737   0.005273   0.000450   0.000491
     5  C    0.197732  -0.004893  -0.132603  -0.079506   0.000321  -0.000745
     6  C   -0.013206   0.283123  -0.005448  -0.002395  -0.000001  -0.000002
     7  C    0.087574   0.001801   0.271521   0.013774   0.001088   0.006566
     8  C   -0.013859  -0.000405   0.004628   0.313920  -0.009099  -0.023013
     9  C    0.030072  -0.000100   0.031718   0.051522  -0.009577  -0.003485
    10  O   -0.000015   0.000000   0.006719   0.007179  -0.042977  -0.043286
    11  C    0.000177   0.000000   0.006932   0.003414   0.417288   0.410956
    12  O    0.000624  -0.000003  -0.045457  -0.001786  -0.000116  -0.000472
    13  C   -0.008063   0.000038  -0.016349  -0.037490   0.001017   0.000068
    14  O    0.000005   0.000000  -0.001294  -0.007098   0.001993   0.001950
    15  C    0.000055   0.000000   0.002963   0.000614  -0.026391  -0.017482
    16  H   -0.000109  -0.000121   0.002019  -0.000009   0.000000   0.000000
    17  H   -0.003996  -0.003818   0.000002   0.000002   0.000000   0.000000
    18  H    0.000011  -0.003871  -0.000006   0.000000   0.000000   0.000000
    19  H    0.504232  -0.000118  -0.000031  -0.000096   0.000000   0.000000
    20  H   -0.000118   0.499352   0.000000   0.000000   0.000000   0.000000
    21  H   -0.000031   0.000000   0.570529   0.003294  -0.000014  -0.000001
    22  H   -0.000096   0.000000   0.003294   0.479787  -0.000009   0.000027
    23  H    0.000000   0.000000  -0.000014  -0.000009   0.521699  -0.031997
    24  H    0.000000   0.000000  -0.000001   0.000027  -0.031997   0.522917
    25  H    0.000021   0.000000  -0.008699  -0.000060  -0.000015   0.000172
    26  H    0.000003   0.000000  -0.000082  -0.002190  -0.000001   0.000000
    27  H   -0.000006   0.000000  -0.000067  -0.004288   0.000000   0.000000
    28  H   -0.000001   0.000000   0.002069   0.003727  -0.000001   0.000001
    29  H    0.000000   0.000000   0.000011   0.000000  -0.004961   0.003948
    30  H    0.000000   0.000000   0.000000   0.000000  -0.001751  -0.001626
    31  H    0.000000   0.000000  -0.000014   0.000000   0.003954  -0.005019
             25         26         27         28         29         30
     1  C    0.003777   0.006758   0.002176   0.034369   0.000206   0.000046
     2  C   -0.008454  -0.000362  -0.007413  -0.002990   0.000003  -0.000001
     3  C    0.001072  -0.001770  -0.002223   0.004661   0.000012   0.000001
     4  C    0.026403  -0.013867   0.047479  -0.050709   0.001095  -0.000138
     5  C    0.016758  -0.008327   0.027340  -0.009308  -0.000106  -0.000036
     6  C    0.000875   0.000089   0.006519   0.000970   0.000000   0.000000
     7  C    0.019231   0.045663  -0.064703   0.004700   0.002026  -0.000055
     8  C   -0.035874  -0.136435  -0.043024  -0.083938  -0.007099  -0.001004
     9  C   -0.002284   0.025535  -0.052616   0.064431  -0.000902   0.002301
    10  O   -0.000411   0.000629  -0.000812   0.003292  -0.003340   0.006571
    11  C   -0.002681   0.000066  -0.001045   0.004450  -0.055423  -0.062108
    12  O    0.227787  -0.000427  -0.000164  -0.000008  -0.000011   0.000001
    13  C   -0.002506   0.439133   0.450134   0.382432   0.000440   0.000066
    14  O    0.000467   0.004020   0.000501  -0.001398  -0.000083   0.000093
    15  C   -0.001123   0.000228  -0.000079   0.000198   0.425779   0.422292
    16  H    0.000000   0.000006  -0.000109  -0.000167   0.000000   0.000000
    17  H    0.000000   0.000000  -0.000002   0.000000   0.000000   0.000000
    18  H    0.000000   0.000000  -0.000004   0.000000   0.000000   0.000000
    19  H    0.000021   0.000003  -0.000006  -0.000001   0.000000   0.000000
    20  H    0.000000   0.000000   0.000000   0.000000   0.000000   0.000000
    21  H   -0.008699  -0.000082  -0.000067   0.002069   0.000011   0.000000
    22  H   -0.000060  -0.002190  -0.004288   0.003727   0.000000   0.000000
    23  H   -0.000015  -0.000001   0.000000  -0.000001  -0.004961  -0.001751
    24  H    0.000172   0.000000   0.000000   0.000001   0.003948  -0.001626
    25  H    0.358960  -0.000002   0.000001   0.000021   0.000021  -0.000004
    26  H   -0.000002   0.504026  -0.023431  -0.025062   0.000000   0.000000
    27  H    0.000001  -0.023431   0.502219  -0.024735   0.000000   0.000000
    28  H    0.000021  -0.025062  -0.024735   0.512636   0.000000   0.000000
    29  H    0.000021   0.000000   0.000000   0.000000   0.512846  -0.022280
    30  H   -0.000004   0.000000   0.000000   0.000000  -0.022280   0.496334
    31  H    0.000205   0.000000   0.000000   0.000000  -0.028704  -0.022380
             31
     1  C   -0.000235
     2  C    0.000009
     3  C   -0.000019
     4  C    0.000088
     5  C    0.000180
     6  C    0.000000
     7  C    0.002210
     8  C   -0.004995
     9  C   -0.001350
    10  O   -0.002607
    11  C   -0.054881
    12  O   -0.000518
    13  C   -0.000202
    14  O   -0.000111
    15  C    0.424626
    16  H    0.000000
    17  H    0.000000
    18  H    0.000000
    19  H    0.000000
    20  H    0.000000
    21  H   -0.000014
    22  H    0.000000
    23  H    0.003954
    24  H   -0.005019
    25  H    0.000205
    26  H    0.000000
    27  H    0.000000
    28  H    0.000000
    29  H   -0.028704
    30  H   -0.022380
    31  H    0.514859
 Mulliken atomic charges:
              1
     1  C   -0.304336
     2  C   -0.279175
     3  C   -0.321510
     4  C    0.193457
     5  C    0.189113
     6  C   -0.137485
     7  C   -0.249388
     8  C    0.228081
     9  C    0.100798
    10  O   -0.351732
    11  C    0.040197
    12  O   -0.564209
    13  C   -0.540729
    14  O   -0.495305
    15  C   -0.645477
    16  H    0.175646
    17  H    0.184912
    18  H    0.183878
    19  H    0.181028
    20  H    0.182108
    21  H    0.161515
    22  H    0.213396
    23  H    0.179629
    24  H    0.179633
    25  H    0.406341
    26  H    0.185799
    27  H    0.188350
    28  H    0.180361
    29  H    0.176522
    30  H    0.183678
    31  H    0.174902
 Sum of Mulliken atomic charges =   0.00000
 Mulliken charges with hydrogens summed into heavy atoms:
              1
     1  C   -0.128690
     2  C   -0.094264
     3  C   -0.137631
     4  C    0.193457
     5  C    0.370141
     6  C    0.044623
     7  C   -0.087873
     8  C    0.441477
     9  C    0.100798
    10  O   -0.351732
    11  C    0.399459
    12  O   -0.157868
    13  C    0.013781
    14  O   -0.495305
    15  C   -0.110374
 Sum of Mulliken charges with hydrogens summed into heavy atoms =   0.00000
 Electronic spatial extent (au):  <R**2>=           4173.2234
 Charge=              0.0000 electrons
 Dipole moment (field-independent basis, Debye):
    X=              0.8782    Y=             -1.6340    Z=              2.3779  Tot=              3.0159
 Quadrupole moment (field-independent basis, Debye-Ang):
   XX=            -76.0719   YY=            -98.4632   ZZ=            -86.8436
   XY=            -13.3941   XZ=              1.0900   YZ=             -2.4389
 Traceless Quadrupole moment (field-independent basis, Debye-Ang):
   XX=             11.0543   YY=            -11.3370   ZZ=              0.2827
   XY=            -13.3941   XZ=              1.0900   YZ=             -2.4389
 Octapole moment (field-independent basis, Debye-Ang**2):
  XXX=             31.4860  YYY=            -10.9126  ZZZ=              1.5732  XYY=              7.3903
  XXY=            -38.2662  XXZ=              4.4636  XZZ=              0.5274  YZZ=              1.4898
  YYZ=              6.2057  XYZ=             16.5001
 Hexadecapole moment (field-independent basis, Debye-Ang**3):
 XXXX=          -3828.3309 YYYY=           -781.2532 ZZZZ=           -465.0645 XXXY=           -137.8444
 XXXZ=             18.4750 YYYX=            -63.8973 YYYZ=             14.0758 ZZZX=             -3.9382
 ZZZY=            -20.4877 XXYY=           -952.1393 XXZZ=           -758.7710 YYZZ=           -207.5166
 XXYZ=            -13.3998 YYXZ=              3.1312 ZZXY=             -0.1327
 N-N= 9.962415330511D+02 E-N=-3.604036083793D+03  KE= 6.858946232589D+02
 1\1\GINC-COMPUTE-9-6\SP\RwB97XD\6-31+G(d,p)\C12H16O3\ELUCIANO.IQUIR\17
 -May-2022\0\\# wb97xd/6-31+g** scrf=(pcm,solvent=chloroform,smd,dovacu
 um) nmr\\comment\\0,1\C,0,-1.66198031,-2.109066256,0.49959197\C,0,-3.8
 67155163,-1.075694465,-0.85935796\C,0,-2.903186861,-2.741970158,0.5942
 81073\C,0,-1.508418049,-0.948219675,-0.274718008\C,0,-2.627416688,-0.4
 41484118,-0.954466588\C,0,-4.004942818,-2.224524984,-0.083700089\C,0,-
 0.162741189,-0.252180401,-0.35017076\C,0,-0.129841533,1.090877966,0.40
 5966376\C,0,1.218192626,1.787511778,0.32289199\O,0,2.197121503,0.98580
 7095,-0.180274737\C,0,3.490666289,1.602277381,-0.249025881\O,0,0.11329
 6002,-0.038996247,-1.739482513\C,0,-0.477451714,0.937197609,1.88861872
 \O,0,1.402246249,2.939834783,0.698662667\C,0,4.45954301,0.596221756,-0
 .838730974\H,0,-0.815237785,-2.530107936,1.036707433\H,0,-4.723072942,
 -0.674651183,-1.395636512\H,0,-3.010081463,-3.640790671,1.195915422\H,
 0,-2.530376406,0.448034164,-1.573927306\H,0,-4.969867349,-2.719161579,
 -0.01203453\H,0,0.609329944,-0.934146123,0.028929784\H,0,-0.840933743,
 1.780185453,-0.068997658\H,0,3.817936891,1.886528878,0.757243446\H,0,3
 .443787262,2.490188339,-0.889325561\H,0,1.077322096,0.080402034,-1.813
 334738\H,0,-0.379912684,1.891219841,2.418843093\H,0,-1.50748222,0.5952
 29961,2.027846998\H,0,0.193223512,0.221966114,2.377873017\H,0,4.500656
 287,-0.30700143,-0.220980476\H,0,5.464976275,1.019748017,-0.913100293\
 H,0,4.131800969,0.284764058,-1.836107404\\Version=EM64L-G09RevC.01\Sta
 te=1-A\HF=-692.4463992\RMSD=2.783e-09\Dipole=0.8059718,-0.7818642,0.38
 3355\Quadrupole=12.643466,-8.2875741,-4.3558919,0.0522471,-2.4880498,-
 6.5174286\PG=C01 [X(C12H16O3)]\\@


 I LOVE MANKIND - IT'S PEOPLE I CAN'T STAND.
     -- LINUS OF PEANUTS
 Job cpu time:  0 days  0 hours 24 minutes 19.7 seconds.
 File lengths (MBytes):  RWF=    124 Int=      0 D2E=      0 Chk=      9 Scr=      1
 Normal termination of Gaussian 09 at Tue May 17 16:24:20 2022.
