 Entering Gaussian System, Link 0=g09
 Input=/home/lpassaglia.iquir/Link1/01_RRSS_THC_010.gjc
 Output=/home/lpassaglia.iquir/Link1/01_RRSS_THC_010.log
 Initial command:
 /share/apps/Gaussian09/EM64T.SSE4.2-enabled/g09/l1.exe /tmp/Gau-18725.inp -scrdir=/tmp/
 Entering Link 1 = /share/apps/Gaussian09/EM64T.SSE4.2-enabled/g09/l1.exe PID=     18730.
  
 Copyright (c) 1988,1990,1992,1993,1995,1998,2003,2009,2011,
            Gaussian, Inc.  All Rights Reserved.
  
 This is part of the Gaussian(R) 09 program.  It is based on
 the Gaussian(R) 03 system (copyright 2003, Gaussian, Inc.),
 the Gaussian(R) 98 system (copyright 1998, Gaussian, Inc.),
 the Gaussian(R) 94 system (copyright 1995, Gaussian, Inc.),
 the Gaussian 92(TM) system (copyright 1992, Gaussian, Inc.),
 the Gaussian 90(TM) system (copyright 1990, Gaussian, Inc.),
 the Gaussian 88(TM) system (copyright 1988, Gaussian, Inc.),
 the Gaussian 86(TM) system (copyright 1986, Carnegie Mellon
 University), and the Gaussian 82(TM) system (copyright 1983,
 Carnegie Mellon University). Gaussian is a federally registered
 trademark of Gaussian, Inc.
  
 This software contains proprietary and confidential information,
 including trade secrets, belonging to Gaussian, Inc.
  
 This software is provided under written license and may be
 used, copied, transmitted, or stored only in accord with that
 written license.
  
 The following legend is applicable only to US Government
 contracts under FAR:
  
                    RESTRICTED RIGHTS LEGEND
  
 Use, reproduction and disclosure by the US Government is
 subject to restrictions as set forth in subparagraphs (a)
 and (c) of the Commercial Computer Software - Restricted
 Rights clause in FAR 52.227-19.
  
 Gaussian, Inc.
 340 Quinnipiac St., Bldg. 40, Wallingford CT 06492
  
  
 ---------------------------------------------------------------
 Warning -- This program may not be used in any manner that
 competes with the business of Gaussian, Inc. or will provide
 assistance to any competitor of Gaussian, Inc.  The licensee
 of this program is prohibited from giving any competitor of
 Gaussian, Inc. access to this program.  By using this program,
 the user acknowledges that Gaussian, Inc. is engaged in the
 business of creating and licensing software in the field of
 computational chemistry and represents and warrants to the
 licensee that it is not a competitor of Gaussian, Inc. and that
 it will not use this program in any manner prohibited above.
 ---------------------------------------------------------------
  

 Cite this work as:
 Gaussian 09, Revision C.01,
 M. J. Frisch, G. W. Trucks, H. B. Schlegel, G. E. Scuseria, 
 M. A. Robb, J. R. Cheeseman, G. Scalmani, V. Barone, B. Mennucci, 
 G. A. Petersson, H. Nakatsuji, M. Caricato, X. Li, H. P. Hratchian, 
 A. F. Izmaylov, J. Bloino, G. Zheng, J. L. Sonnenberg, M. Hada, 
 M. Ehara, K. Toyota, R. Fukuda, J. Hasegawa, M. Ishida, T. Nakajima, 
 Y. Honda, O. Kitao, H. Nakai, T. Vreven, J. A. Montgomery, Jr., 
 J. E. Peralta, F. Ogliaro, M. Bearpark, J. J. Heyd, E. Brothers, 
 K. N. Kudin, V. N. Staroverov, T. Keith, R. Kobayashi, J. Normand, 
 K. Raghavachari, A. Rendell, J. C. Burant, S. S. Iyengar, J. Tomasi, 
 M. Cossi, N. Rega, J. M. Millam, M. Klene, J. E. Knox, J. B. Cross, 
 V. Bakken, C. Adamo, J. Jaramillo, R. Gomperts, R. E. Stratmann, 
 O. Yazyev, A. J. Austin, R. Cammi, C. Pomelli, J. W. Ochterski, 
 R. L. Martin, K. Morokuma, V. G. Zakrzewski, G. A. Voth, 
 P. Salvador, J. J. Dannenberg, S. Dapprich, A. D. Daniels, 
 O. Farkas, J. B. Foresman, J. V. Ortiz, J. Cioslowski, 
 and D. J. Fox, Gaussian, Inc., Wallingford CT, 2010.
 
 ******************************************
 Gaussian 09:  EM64L-G09RevC.01 23-Sep-2011
                23-Dec-2022 
 ******************************************
 %chk=01_RRSS_THC_010_optB_NMR
 %nprocshared=4
 Will use up to    4 processors via shared memory.
 ------------------------------------------------
 # mPW1PW91/6-31+G** scrf=(PCM,solvent=water) nmr
 ------------------------------------------------
 1/38=1/1;
 2/12=2,17=6,18=5,40=1/2;
 3/5=1,6=6,7=111,11=2,16=1,25=1,30=1,70=2201,72=1,74=-7/1,2,8,3;
 4//1;
 5/5=2,38=5,53=1/2;
 8/6=1,10=90,11=11/1;
 10/13=100,45=16/2;
 6/7=2,8=2,9=2,10=2,28=1/1;
 99/9=1/99;
 -------
 comment
 -------
 Charge =  0 Multiplicity = 1
 Symbolic Z-Matrix:
 6                    -1.80004   0.91287  -2.7712 
 6                    -2.35217   2.11257  -1.98283 
 1                    -1.67852   2.97325  -2.07945 
 1                    -3.32302   2.41539  -2.39524 
 6                    -2.54842   1.79799  -0.49749 
 1                    -2.88249   2.70963   0.01437 
 6                    -1.26389   1.26199   0.17015 
 1                    -0.52722   2.07338   0.11934 
 6                    -0.70742   0.0425   -0.62998 
 1                    -1.50977  -0.70582  -0.6259 
 6                    -0.48317   0.40123  -2.12361 
 1                    -0.13679  -0.49875  -2.64885 
 6                     0.53543  -0.61315  -0.01876 
 6                     2.7438   -1.88581   1.25491 
 6                     1.71128   0.08753   0.29185 
 6                     0.51988  -1.98469   0.29195 
 6                     1.599    -2.61515   0.9219 
 6                     2.78812  -0.5267    0.9352 
 1                     1.55657  -3.67437   1.15929 
 1                     3.66761   0.06721   1.17305 
 8                    -0.58005  -2.73357  -0.03653 
 1                    -0.49102  -3.60998   0.37226 
 8                     1.90015   1.40331  -0.02989 
 1                     1.36374   1.5814   -0.83264 
 8                     0.54639   1.39865  -2.2457 
 1                     0.86326   1.36798  -3.16822 
 6                    -1.59524   1.31049  -4.23722 
 1                    -2.55188   1.56955  -4.70572 
 1                    -1.18672   0.47164  -4.81206 
 1                    -0.9207    2.16556  -4.34478 
 8                    -2.79327  -0.11995  -2.75353 
 1                    -2.43198  -0.90516  -3.20029 
 1                    -3.36244   1.06889  -0.39186 
 6                    -1.5384    0.99272   1.65098 
 6                    -2.22271  -0.0738    2.09957 
 1                    -2.39315  -0.23412   3.15949 
 1                    -2.63014  -0.81779   1.42229 
 6                    -0.98458   2.01334   2.60813 
 1                     0.10584   2.06145   2.52376 
 1                    -1.22734   1.7775    3.64962 
 1                    -1.39637   3.00327   2.38663 
 6                     3.89996  -2.54349   1.96147 
 1                     3.97846  -3.59078   1.64512 
 1                     4.8392   -2.06467   1.65876 
 6                     3.75134  -2.47312   3.47358 
 1                     4.60352  -2.95765   3.96053 
 1                     2.83808  -2.97761   3.80699 
 1                     3.70726  -1.43517   3.82059 
 
                          Input orientation:                          
 ---------------------------------------------------------------------
 Center     Atomic      Atomic             Coordinates (Angstroms)
 Number     Number       Type             X           Y           Z
 ---------------------------------------------------------------------
      1          6           0       -1.800038    0.912871   -2.771201
      2          6           0       -2.352165    2.112566   -1.982826
      3          1           0       -1.678519    2.973251   -2.079452
      4          1           0       -3.323016    2.415387   -2.395238
      5          6           0       -2.548424    1.797993   -0.497487
      6          1           0       -2.882490    2.709634    0.014365
      7          6           0       -1.263887    1.261988    0.170147
      8          1           0       -0.527215    2.073379    0.119339
      9          6           0       -0.707422    0.042501   -0.629984
     10          1           0       -1.509773   -0.705820   -0.625899
     11          6           0       -0.483171    0.401229   -2.123610
     12          1           0       -0.136788   -0.498754   -2.648849
     13          6           0        0.535433   -0.613151   -0.018756
     14          6           0        2.743797   -1.885809    1.254913
     15          6           0        1.711281    0.087526    0.291855
     16          6           0        0.519880   -1.984687    0.291950
     17          6           0        1.599001   -2.615155    0.921899
     18          6           0        2.788124   -0.526702    0.935196
     19          1           0        1.556570   -3.674372    1.159288
     20          1           0        3.667611    0.067214    1.173050
     21          8           0       -0.580051   -2.733568   -0.036530
     22          1           0       -0.491025   -3.609977    0.372263
     23          8           0        1.900146    1.403309   -0.029892
     24          1           0        1.363736    1.581397   -0.832639
     25          8           0        0.546387    1.398651   -2.245705
     26          1           0        0.863261    1.367983   -3.168223
     27          6           0       -1.595238    1.310492   -4.237222
     28          1           0       -2.551879    1.569554   -4.705716
     29          1           0       -1.186716    0.471635   -4.812062
     30          1           0       -0.920704    2.165559   -4.344779
     31          8           0       -2.793274   -0.119947   -2.753535
     32          1           0       -2.431982   -0.905156   -3.200291
     33          1           0       -3.362440    1.068891   -0.391864
     34          6           0       -1.538400    0.992724    1.650980
     35          6           0       -2.222709   -0.073804    2.099566
     36          1           0       -2.393146   -0.234117    3.159489
     37          1           0       -2.630136   -0.817790    1.422289
     38          6           0       -0.984577    2.013339    2.608134
     39          1           0        0.105843    2.061453    2.523756
     40          1           0       -1.227340    1.777503    3.649622
     41          1           0       -1.396369    3.003271    2.386626
     42          6           0        3.899961   -2.543494    1.961467
     43          1           0        3.978460   -3.590777    1.645124
     44          1           0        4.839198   -2.064671    1.658757
     45          6           0        3.751342   -2.473122    3.473576
     46          1           0        4.603518   -2.957650    3.960528
     47          1           0        2.838084   -2.977609    3.806987
     48          1           0        3.707262   -1.435167    3.820593
 ---------------------------------------------------------------------
                    Distance matrix (angstroms):
                    1          2          3          4          5
     1  C    0.000000
     2  C    1.538066   0.000000
     3  H    2.176798   1.097230   0.000000
     4  H    2.172179   1.097422   1.765022   0.000000
     5  C    2.552116   1.530917   2.154200   2.140707   0.000000
     6  H    3.487038   2.150932   2.429632   2.467151   1.097580
     7  C    3.010128   2.557954   2.856753   3.485906   1.543720
     8  H    3.364829   2.784075   2.640067   3.775787   2.131102
     9  C    2.556592   2.969938   3.410760   3.948169   2.547272
    10  H    2.703098   3.239472   3.959402   4.019993   2.713737
    11  C    1.554121   2.538038   2.836566   3.492182   2.976658
    12  H    2.184962   3.488621   3.841350   4.325342   3.964769
    13  C    3.919072   4.430048   4.691517   5.450443   3.943726
    14  C    6.684956   7.241463   7.367858   8.284328   6.681983
    15  C    4.732111   5.078047   5.043933   6.163080   4.657665
    16  C    4.812563   5.496429   5.919262   6.430356   4.934204
    17  C    6.135098   6.811791   7.140065   7.780488   6.220263
    18  C    6.071325   6.473265   6.425627   7.556038   5.994625
    19  H    6.910743   7.657659   8.071316   8.574974   7.038655
    20  H    6.794663   7.097938   6.899633   8.192403   6.665237
    21  O    4.718402   5.514841   6.160191   6.292781   4.962058
    22  H    5.661364   6.462027   7.124601   7.210010   5.851111
    23  O    4.631054   4.732774   4.412738   5.822420   4.490456
    24  H    3.770201   3.925938   3.570310   5.010279   3.932459
    25  O    2.453128   2.996729   2.730790   4.003547   3.576813
    26  H    2.730918   3.506926   3.197335   4.384002   4.354002
    27  C    1.532730   2.509693   2.725376   2.756612   3.889966
    28  H    2.176888   2.783680   3.103286   2.578448   4.214426
    29  H    2.176228   3.472103   3.737260   3.766030   4.714768
    30  H    2.195132   2.762374   2.521578   3.103905   4.193594
    31  O    1.433019   2.402641   3.356328   2.614750   2.971228
    32  H    1.971977   3.255032   4.106826   3.531013   3.824358
    33  H    2.850735   2.154315   3.051251   2.414149   1.097893
    34  C    4.430634   3.888549   4.225902   4.645504   2.506894
    35  C    4.987640   4.632807   5.200469   5.254523   3.217825
    36  H    6.069633   5.652611   6.184206   6.224108   4.186533
    37  H    4.611899   4.501007   5.247834   5.050448   3.245696
    38  C    5.550969   4.791353   4.834920   5.537479   3.483802
    39  H    5.743535   5.133586   5.020443   6.006567   4.030193
    40  H    6.504040   5.753431   5.869895   6.429548   4.352493
    41  H    5.579955   4.560594   4.475083   5.188815   3.331371
    42  C    8.175243   8.736442   8.825131   9.784823   8.153320
    43  H    8.554403   9.261045   9.431879  10.281540   8.730970
    44  H    8.518788   9.078885   9.046298  10.155173   8.610838
    45  C    9.015543   9.383691   9.485911  10.410910   8.584802
    46  H   10.064921  10.460023  10.541392  11.493268   9.676792
    47  H    8.939831   9.293573   9.511183  10.271862   8.387451
    48  H    8.904796   9.109486   9.124216  10.143378   8.260312
                    6          7          8          9         10
     6  H    0.000000
     7  C    2.177113   0.000000
     8  H    2.441958   1.097097   0.000000
     9  C    3.501386   1.561093   2.172193   0.000000
    10  H    3.736257   2.136918   3.040518   1.097165   0.000000
    11  C    3.956817   2.571331   2.798007   1.552382   2.126643
    12  H    4.992528   3.509601   3.798837   2.166655   2.453628
    13  C    4.766990   2.605645   2.892358   1.532373   2.135434
    14  C    7.369678   5.210266   5.259678   4.379740   4.798196
    15  C    5.296714   3.200906   2.997372   2.588810   3.441927
    16  C    5.804293   3.706421   4.194532   2.542779   2.568548
    17  C    7.018601   4.877858   5.210302   3.845915   3.963044
    18  C    6.593759   4.494831   4.291563   3.872030   4.576136
    19  H    7.859493   5.770704   6.201636   4.705561   4.626192
    20  H    7.157427   5.172328   4.767764   4.732067   5.535260
    21  O    5.910353   4.058918   4.809764   2.841650   2.307271
    22  H    6.766438   4.937024   5.689096   3.793669   3.235475
    23  O    4.958029   3.173498   2.522567   3.001885   4.053541
    24  H    4.474457   2.830548   2.173477   2.588235   3.678472
    25  O    4.310892   3.021938   2.683525   2.453921   3.358625
    26  H    5.095051   3.959887   3.638553   3.265976   4.049119
    27  C    4.657318   4.420073   4.549977   3.925326   4.136964
    28  H    4.867058   5.052480   5.256829   4.727103   4.786253
    29  H    5.583788   5.045099   5.226781   4.231271   4.360589
    30  H    4.811108   4.617226   4.482374   4.283989   4.735176
    31  O    3.959262   3.577245   4.266040   2.981046   2.552931
    32  H    4.858361   4.173824   4.849715   3.237072   2.741842
    33  H    1.757103   2.181070   3.051037   2.856449   2.576188
    34  C    2.726328   1.529944   2.129844   2.606961   2.840784
    35  C    3.539901   2.535022   3.377335   3.124110   2.887192
    36  H    4.335543   3.528416   4.248382   4.156716   3.915611
    37  H    3.806396   2.785673   3.805104   2.940877   2.337268
    38  C    3.288546   2.566383   2.531183   3.800845   4.257773
    39  H    3.955669   2.838095   2.486389   3.831924   4.493144
    40  H    4.101644   3.517646   3.611179   4.647104   4.952448
    41  H    2.814676   2.821772   2.600138   4.282609   4.779699
    42  C    8.797056   6.660018   6.656488   5.884808   6.271900
    43  H    9.456594   7.294318   7.396741   6.350930   6.603122
    44  H    9.226185   7.108465   6.949220   6.359521   6.882991
    45  C    9.101364   7.072214   7.087145   6.561108   6.899883
    46  H   10.184823   8.160807   8.148031   7.634120   7.967332
    47  H    8.913679   6.930148   7.101863   6.432604   6.611760
    48  H    8.665540   6.731473   6.628723   6.440541   6.893525
                   11         12         13         14         15
    11  C    0.000000
    12  H    1.098101   0.000000
    13  C    2.548907   2.717049   0.000000
    14  C    5.201757   5.045893   2.849344   0.000000
    15  C    3.278490   3.522332   1.403584   2.426441   0.000000
    16  C    3.540288   3.359689   1.406375   2.425465   2.390294
    17  C    4.765410   4.499150   2.454390   1.397641   2.777417
    18  C    4.573698   4.626150   2.447880   1.396909   1.396694
    19  H    5.616804   5.239649   3.435343   2.148863   3.863710
    20  H    5.311169   5.422239   3.419626   2.162043   2.145727
    21  O    3.767259   3.466278   2.395994   3.665308   3.649193
    22  H    4.724322   4.351127   3.191783   3.770397   4.304433
    23  O    3.326863   3.824379   2.434888   3.630532   1.367654
    24  H    2.543711   3.142804   2.482848   4.275974   1.901822
    25  O    1.438661   2.056550   3.001128   5.279262   3.084678
    26  H    1.959262   2.180494   3.735171   5.804111   3.785610
    27  C    2.555545   2.814849   5.102510   7.694615   5.739447
    28  H    3.508819   3.786986   6.021900   8.689810   6.733992
    29  H    2.779876   2.592971   5.207527   7.603595   5.881828
    30  H    2.870172   3.254116   5.343785   7.822959   5.722232
    31  O    2.450511   2.685400   4.336191   7.060104   5.441365
    32  H    2.581423   2.395238   4.360387   6.899217   5.508822
    33  H    3.425625   4.237490   4.261677   6.980562   5.212792
    34  C    3.963699   4.762095   3.109283   5.174943   3.636899
    35  C    4.592043   5.203757   3.519308   5.353782   4.332450
    36  H    5.653565   6.236824   4.338373   5.722209   5.017280
    37  H    4.320748   4.784635   3.484152   5.481590   4.576612
    38  C    5.023913   5.887718   4.013656   5.561954   4.042469
    39  H    4.970039   5.776623   3.715162   4.914228   3.384554
    40  H    5.981481   6.785380   4.720126   5.909688   4.771385
    41  H    5.286471   6.261527   4.753549   6.505754   4.748381
    42  C    6.676158   6.459978   4.355176   1.506149   3.807911
    43  H    7.074292   6.703288   4.846564   2.140928   4.527841
    44  H    6.979582   6.765205   4.841834   2.141446   4.035373
    45  C    7.584292   7.516633   5.098818   2.506502   4.565317
    46  H    8.612386   8.497089   6.154729   3.453659   5.576494
    47  H    7.590735   7.528107   5.052640   2.777409   4.798009
    48  H    7.501041   7.583354   5.047456   2.777419   4.330649
                   16         17         18         19         20
    16  C    0.000000
    17  C    1.399581   0.000000
    18  C    2.772078   2.403294   0.000000
    19  H    2.163801   1.086322   3.387443   0.000000
    20  H    3.859384   3.396664   1.087570   4.296062   0.000000
    21  O    1.370609   2.383459   4.142355   2.623021   5.229732
    22  H    1.915710   2.379071   4.536110   2.194584   5.608676
    23  O    3.672497   4.140609   2.333419   5.226379   2.521141
    24  H    3.833243   4.554646   3.098097   5.623884   3.409308
    25  O    4.229346   5.220378   4.341716   6.192738   4.816913
    26  H    4.830229   5.756370   4.912532   6.680822   5.329449
    27  C    5.987097   7.227060   7.024461   7.994065   7.649468
    28  H    6.858936   8.149334   8.045483   8.875606   8.689014
    29  H    5.915821   7.082853   7.058825   7.769944   7.716840
    30  H    6.387416   7.545995   6.991553   8.398597   7.476773
    31  O    4.871265   6.247156   6.702550   6.845821   7.562812
    32  H    4.698364   6.013765   6.670455   6.525568   7.568133
    33  H    4.986416   6.317758   6.491259   7.007230   7.271446
    34  C    3.866323   4.836490   4.641101   5.621600   5.309194
    35  C    3.800098   4.738231   5.164235   5.303882   5.964410
    36  H    4.446683   5.158817   5.646118   5.606818   6.385101
    37  H    3.544279   4.622392   5.447893   5.075208   6.364509
    38  C    4.859250   5.562484   4.846009   6.395830   5.243064
    39  H    4.639357   5.163926   4.051753   6.071744   4.299719
    40  H    5.336741   5.892718   5.366696   6.608696   5.746220
    41  H    5.739285   6.533328   5.663686   7.403858   5.978050
    42  C    3.811102   2.525916   2.521282   2.722840   2.737039
    43  H    4.046280   2.671463   3.362952   2.471553   3.701402
    44  H    4.531122   3.368214   2.663793   3.690021   2.480617
    45  C    4.561103   3.341227   3.340616   3.408219   3.428227
    46  H    5.575053   4.286921   4.284600   4.200539   4.218501
    47  H    4.326135   3.160765   3.775794   3.022924   4.110557
    48  H    4.786721   3.773534   3.161588   4.089261   3.044372
                   21         22         23         24         25
    21  O    0.000000
    22  H    0.971149   0.000000
    23  O    4.823398   5.568883   0.000000
    24  H    4.799064   5.642897   0.981760   0.000000
    25  O    4.819185   5.745984   2.596634   1.642623   0.000000
    26  H    5.358486   6.256934   3.305374   2.398118   0.975904
    27  C    5.918685   6.832104   5.470644   4.518860   2.925828
    28  H    6.648779   7.540592   6.458443   5.507531   3.959812
    29  H    5.783345   6.634815   5.767658   4.855119   3.232521
    30  H    6.532878   7.469399   5.211187   4.230253   2.673316
    31  O    4.371669   5.220275   5.636198   4.885196   3.703696
    32  H    4.096599   4.883289   5.843609   5.118221   3.884512
    33  H    4.725108   5.542628   5.285610   4.774273   4.338709
    34  C    4.201355   4.890498   3.849352   3.864880   4.437935
    35  C    3.786236   4.299631   4.869742   4.919360   5.358861
    36  H    4.443997   4.773167   5.593360   5.774715   6.365760
    37  H    3.162469   3.670784   5.250292   5.176081   5.334518
    38  C    5.448947   6.071606   3.956380   4.188086   5.126543
    39  H    5.478846   6.095104   3.189639   3.616370   4.835405
    40  H    5.861439   6.348873   4.843553   5.181003   6.168023
    41  H    6.280874   6.972256   4.389356   4.472535   5.273291
    42  C    4.909035   4.789959   4.852012   5.590545   6.669877
    43  H    4.933841   4.647240   5.662681   6.302973   7.198059
    44  H    5.717489   5.696869   4.849376   5.619582   6.757784
    45  C    5.581186   5.376640   5.543279   6.378344   7.613970
    46  H    6.549509   6.265424   6.499972   7.353474   8.599709
    47  H    5.149352   4.824954   5.898628   6.669660   7.812720
    48  H    5.911370   5.852042   5.113594   6.020327   7.404162
                   26         27         28         29         30
    26  H    0.000000
    27  C    2.681470   0.000000
    28  H    3.750693   1.096249   0.000000
    29  H    2.776338   1.095907   1.755108   0.000000
    30  H    2.280996   1.094397   1.773761   1.777215   0.000000
    31  O    3.969401   2.383856   2.593009   2.677412   3.355907
    32  H    4.003350   2.585432   2.899115   2.458465   3.608753
    33  H    5.064995   4.238886   4.417804   4.962726   4.773918
    34  C    5.397547   5.897044   6.462775   6.493546   6.140539
    35  C    6.273082   6.516508   7.008626   7.010092   6.945470
    36  H    7.294576   7.598276   8.070928   8.093157   8.015022
    37  H    6.168811   6.134383   6.577080   6.527880   6.714284
    38  C    6.098958   6.908386   7.493049   7.581360   6.954873
    39  H    5.783874   7.012021   7.718207   7.616591   6.945604
    40  H    7.142921   7.909219   8.462229   8.561953   8.009685
    41  H    6.215821   6.839621   7.327487   7.633757   6.799988
    42  C    7.129861   9.136419  10.148632   8.991440   9.229449
    43  H    7.580374   9.470509  10.469360   9.212898   9.644488
    44  H    7.133788   9.357150  10.408752   9.198695   9.333476
    45  C    8.198085  10.117216  11.089393  10.085029  10.221157
    46  H    9.138912  11.128554  12.116066  11.056453  11.213493
    47  H    8.452079  10.136639  11.054162  10.118513  10.345625
    48  H    8.049195  10.029134  10.995596  10.104932  10.052691
                   31         32         33         34         35
    31  O    0.000000
    32  H    0.972972   0.000000
    33  H    2.704584   3.556666   0.000000
    34  C    4.713014   5.285382   2.739733   0.000000
    35  C    4.886743   5.368744   2.968495   1.344243   0.000000
    36  H    5.927646   6.395201   3.905057   2.123989   1.085443
    37  H    4.236874   4.627649   2.717901   2.126535   1.085457
    38  C    6.047296   6.659609   3.942868   1.504832   2.479472
    39  H    6.404154   6.928639   4.638428   2.146499   3.187698
    40  H    6.859510   7.454470   4.625407   2.169609   2.611661
    41  H    6.174714   6.896516   3.915006   2.145611   3.199005
    42  C    8.538396   8.331950   8.445706   6.494383   6.603448
    43  H    8.789268   8.472565   8.930321   7.172465   7.143536
    44  H    9.028006   8.821841   9.016159   7.072587   7.350401
    45  C    9.335220   9.232145   8.837046   6.581437   6.582850
    46  H   10.384783  10.246380   9.930399   7.659153   7.640492
    47  H    9.105980   9.009473   8.511816   6.290113   6.079392
    48  H    9.338411   9.341522   8.602080   6.174046   6.322959
                   36         37         38         39         40
    36  H    0.000000
    37  H    1.847892   0.000000
    38  C    2.709081   3.482728   0.000000
    39  H    3.452354   4.121754   1.094737   0.000000
    40  H    2.376121   3.696539   1.095103   1.767930   0.000000
    41  H    3.474416   4.129484   1.094807   1.778332   1.768116
    42  C    6.809674   6.775760   6.711305   5.993082   6.914484
    43  H    7.359200   7.170261   7.547532   6.907739   7.741885
    44  H    7.609857   7.576383   7.172715   6.338594   7.451760
    45  C    6.547253   6.904431   6.580749   5.895269   6.548747
    46  H    7.550669   7.959108   7.600428   6.890921   7.517795
    47  H    5.942371   6.344528   6.399965   5.874008   6.258077
    48  H    6.252564   6.804090   5.947739   5.184434   5.890737
                   41         42         43         44         45
    41  H    0.000000
    42  C    7.681045   0.000000
    43  H    8.539325   1.096830   0.000000
    44  H    8.068217   1.096846   1.752157   0.000000
    45  C    7.594160   1.521024   2.154987   2.154955   0.000000
    46  H    8.602812   2.159343   2.480452   2.480142   1.094574
    47  H    7.464512   2.173012   2.519937   3.074541   1.095312
    48  H    6.913974   2.172986   3.074551   2.520136   1.095315
                   46         47         48
    46  H    0.000000
    47  H    1.772210   0.000000
    48  H    1.772233   1.770532   0.000000
 Stoichiometry    C18H26O4
 Framework group  C1[X(C18H26O4)]
 Deg. of freedom   138
 Full point group                 C1      NOp   1
 Largest Abelian subgroup         C1      NOp   1
 Largest concise Abelian subgroup C1      NOp   1
                         Standard orientation:                         
 ---------------------------------------------------------------------
 Center     Atomic      Atomic             Coordinates (Angstroms)
 Number     Number       Type             X           Y           Z
 ---------------------------------------------------------------------
      1          6           0       -3.229529   -0.936401    0.172262
      2          6           0       -3.673070    0.405098   -0.435437
      3          1           0       -3.671611    0.344948   -1.531016
      4          1           0       -4.701175    0.633083   -0.126637
      5          6           0       -2.780622    1.570053    0.000596
      6          1           0       -3.112459    2.480146   -0.515443
      7          6           0       -1.286719    1.315181   -0.293286
      8          1           0       -1.193804    1.244311   -1.384142
      9          6           0       -0.838297   -0.045259    0.327303
     10          1           0       -1.031210    0.042038    1.403841
     11          6           0       -1.737016   -1.212967   -0.161217
     12          1           0       -1.410195   -2.135049    0.337561
     13          6           0        0.648596   -0.371729    0.151992
     14          6           0        3.450573   -0.841776   -0.064213
     15          6           0        1.298364   -0.395183   -1.091913
     16          6           0        1.443619   -0.634571    1.281923
     17          6           0        2.821183   -0.861427    1.183539
     18          6           0        2.674997   -0.604073   -1.201460
     19          1           0        3.413392   -1.052541    2.073966
     20          1           0        3.132646   -0.590702   -2.187963
     21          8           0        0.855638   -0.678537    2.519225
     22          1           0        1.554210   -0.722785    3.192403
     23          8           0        0.637445   -0.241753   -2.279399
     24          1           0       -0.276328   -0.573925   -2.143256
     25          8           0       -1.575602   -1.404842   -1.577860
     26          1           0       -1.897684   -2.303374   -1.781065
     27          6           0       -4.142448   -2.058263   -0.334954
     28          1           0       -5.174525   -1.898464   -0.001723
     29          1           0       -3.831344   -3.025530    0.075681
     30          1           0       -4.144335   -2.129738   -1.427012
     31          8           0       -3.412643   -0.858546    1.591399
     32          1           0       -3.081343   -1.680859    1.992294
     33          1           0       -2.929804    1.751617    1.073046
     34          6           0       -0.469568    2.529537    0.152059
     35          6           0       -0.176225    2.799547    1.435817
     36          1           0        0.411324    3.669086    1.713079
     37          1           0       -0.512121    2.159713    2.245756
     38          6           0        0.004461    3.432162   -0.954776
     39          1           0        0.658699    2.882960   -1.639466
     40          1           0        0.567125    4.291394   -0.574804
     41          1           0       -0.849396    3.817897   -1.521114
     42          6           0        4.937183   -1.052652   -0.182562
     43          1           0        5.276199   -1.739864    0.602195
     44          1           0        5.166241   -1.544903   -1.135606
     45          6           0        5.702884    0.257884   -0.084034
     46          1           0        6.778459    0.075342   -0.172972
     47          1           0        5.520950    0.753190    0.875799
     48          1           0        5.409196    0.950454   -0.880156
 ---------------------------------------------------------------------
 Rotational constants (GHZ):      0.4661065      0.1866404      0.1728637
 Standard basis: 6-31+G(d,p) (6D, 7F)
 There are   548 symmetry adapted basis functions of A   symmetry.
 Integral buffers will be    131072 words long.
 Raffenetti 2 integral format.
 Two-electron integral symmetry is turned on.
   548 basis functions,   886 primitive gaussians,   548 cartesian basis functions
    83 alpha electrons       83 beta electrons
       nuclear repulsion energy      1982.2424109397 Hartrees.
 NAtoms=   48 NActive=   48 NUniq=   48 SFac= 1.00D+00 NAtFMM=   60 NAOKFM=F Big=F
 ------------------------------------------------------------------------------
 Polarizable Continuum Model (PCM)
 =================================
 Model                : PCM.
 Atomic radii         : UFF (Universal Force Field).
 Polarization charges : Total charges.
 Charge compensation  : None.
 Solution method      : Matrix inversion.
 Cavity type          : Scaled VdW (van der Waals Surface) (Alpha=1.100).
 Cavity algorithm     : GePol (No added spheres)
                        Default sphere list used, NSphG=   48.
                        Lebedev-Laikov grids with approx.  5.0 points / Ang**2.
                        Smoothing algorithm: Karplus/York (Gamma=1.0000).
                        Polarization charges: spherical gaussians, with
                                              point-specific exponents (IZeta= 3).
                        Self-potential: point-specific (ISelfS= 7).
                        Self-field    : sphere-specific E.n sum rule (ISelfD= 2).
 Solvent              : Water, Eps=  78.355300 Eps(inf)=   1.777849
 ------------------------------------------------------------------------------
 One-electron integrals computed using PRISM.
 NBasis=   548 RedAO= T  NBF=   548
 NBsUse=   546 1.00D-06 NBFU=   546
 Harris functional with IExCor=  908 diagonalized for initial guess.
 ExpMin= 4.38D-02 ExpMax= 5.48D+03 ExpMxC= 8.25D+02 IAcc=2 IRadAn=         4 AccDes= 0.00D+00
 HarFok:  IExCor=  908 AccDes= 0.00D+00 IRadAn=         4 IDoV= 1
 ScaDFX=  1.000000  1.000000  1.000000  1.000000
 FoFCou: FMM=F IPFlag=           0 FMFlag=      100000 FMFlg1=           0
         NFxFlg=           0 DoJE=T BraDBF=F KetDBF=T FulRan=T
         Omega=  0.000000  0.000000  1.000000  0.000000  0.000000 ICntrl=     500 IOpCl=  0
         NMat0=    1 NMatS0=    1 NMatT0=    0 NMatD0=    1 NMtDS0=    0 NMtDT0=    0
         I1Cent=           4 NGrid=           0.
 Petite list used in FoFCou.
 Initial guess orbital symmetries:
       Occupied  (A) (A) (A) (A) (A) (A) (A) (A) (A) (A) (A) (A)
                 (A) (A) (A) (A) (A) (A) (A) (A) (A) (A) (A) (A)
                 (A) (A) (A) (A) (A) (A) (A) (A) (A) (A) (A) (A)
                 (A) (A) (A) (A) (A) (A) (A) (A) (A) (A) (A) (A)
                 (A) (A) (A) (A) (A) (A) (A) (A) (A) (A) (A) (A)
                 (A) (A) (A) (A) (A) (A) (A) (A) (A) (A) (A) (A)
                 (A) (A) (A) (A) (A) (A) (A) (A) (A) (A) (A)
       Virtual   (A) (A) (A) (A) (A) (A) (A) (A) (A) (A) (A) (A)
                 (A) (A) (A) (A) (A) (A) (A) (A) (A) (A) (A) (A)
                 (A) (A) (A) (A) (A) (A) (A) (A) (A) (A) (A) (A)
                 (A) (A) (A) (A) (A) (A) (A) (A) (A) (A) (A) (A)
                 (A) (A) (A) (A) (A) (A) (A) (A) (A) (A) (A) (A)
                 (A) (A) (A) (A) (A) (A) (A) (A) (A) (A) (A) (A)
                 (A) (A) (A) (A) (A) (A) (A) (A) (A) (A) (A) (A)
                 (A) (A) (A) (A) (A) (A) (A) (A) (A) (A) (A) (A)
                 (A) (A) (A) (A) (A) (A) (A) (A) (A) (A) (A) (A)
                 (A) (A) (A) (A) (A) (A) (A) (A) (A) (A) (A) (A)
                 (A) (A) (A) (A) (A) (A) (A) (A) (A) (A) (A) (A)
                 (A) (A) (A) (A) (A) (A) (A) (A) (A) (A) (A) (A)
                 (A) (A) (A) (A) (A) (A) (A) (A) (A) (A) (A) (A)
                 (A) (A) (A) (A) (A) (A) (A) (A) (A) (A) (A) (A)
                 (A) (A) (A) (A) (A) (A) (A) (A) (A) (A) (A) (A)
                 (A) (A) (A) (A) (A) (A) (A) (A) (A) (A) (A) (A)
                 (A) (A) (A) (A) (A) (A) (A) (A) (A) (A) (A) (A)
                 (A) (A) (A) (A) (A) (A) (A) (A) (A) (A) (A) (A)
                 (A) (A) (A) (A) (A) (A) (A) (A) (A) (A) (A) (A)
                 (A) (A) (A) (A) (A) (A) (A) (A) (A) (A) (A) (A)
                 (A) (A) (A) (A) (A) (A) (A) (A) (A) (A) (A) (A)
                 (A) (A) (A) (A) (A) (A) (A) (A) (A) (A) (A) (A)
                 (A) (A) (A) (A) (A) (A) (A) (A) (A) (A) (A) (A)
                 (A) (A) (A) (A) (A) (A) (A) (A) (A) (A) (A) (A)
                 (A) (A) (A) (A) (A) (A) (A) (A) (A) (A) (A) (A)
                 (A) (A) (A) (A) (A) (A) (A) (A) (A) (A) (A) (A)
                 (A) (A) (A) (A) (A) (A) (A) (A) (A) (A) (A) (A)
                 (A) (A) (A) (A) (A) (A) (A) (A) (A) (A) (A) (A)
                 (A) (A) (A) (A) (A) (A) (A) (A) (A) (A) (A) (A)
                 (A) (A) (A) (A) (A) (A) (A) (A) (A) (A) (A) (A)
                 (A) (A) (A) (A) (A) (A) (A) (A) (A) (A) (A) (A)
                 (A) (A) (A) (A) (A) (A) (A) (A) (A) (A) (A) (A)
                 (A) (A) (A) (A) (A) (A) (A) (A) (A) (A) (A) (A)
                 (A) (A) (A) (A) (A) (A) (A) (A) (A) (A) (A) (A)
                 (A) (A) (A) (A) (A) (A) (A) (A) (A) (A) (A) (A)
                 (A) (A) (A) (A) (A) (A) (A) (A) (A) (A) (A) (A)
                 (A) (A) (A) (A) (A) (A) (A) (A) (A) (A) (A) (A)
                 (A) (A) (A) (A) (A) (A) (A) (A) (A) (A) (A) (A)
                 (A) (A) (A) (A) (A) (A) (A)
 The electronic state of the initial guess is 1-A.
 Requested convergence on RMS density matrix=1.00D-08 within 128 cycles.
 Requested convergence on MAX density matrix=1.00D-06.
 Requested convergence on             energy=1.00D-06.
 No special actions if energy rises.
 CoulSu:  requested number of processors reduced to:   2 ShMem   1 Linda.
 CoulSu:  requested number of processors reduced to:   2 ShMem   1 Linda.
 Error on total polarization charges =  0.01929
 SCF Done:  E(RmPW1PW91) =  -1002.31554264     A.U. after   14 cycles
             Convg  =    0.5180D-08             -V/T =  2.0094
 Range of M.O.s used for correlation:     1   546
 NBasis=   548 NAE=    83 NBE=    83 NFC=     0 NFV=     0
 NROrb=    546 NOA=    83 NOB=    83 NVA=   463 NVB=   463

 **** Warning!!: The largest alpha MO coefficient is  0.15004273D+03

 NEqPCM:  Using equilibrium solvation (IEInf=0, Eps=  78.3553, EpsInf=   1.7778)
          Differentiating once with respect to magnetic field using GIAOs.
          Electric field/nuclear overlap derivatives assumed to be zero.
 FoFCou: FMM=F IPFlag=           0 FMFlag=    10101102 FMFlg1=           0
         NFxFlg=    40000000 DoJE=F BraDBF=F KetDBF=T FulRan=T
         Omega=  0.000000  0.000000  1.000000  0.000000  0.000000 ICntrl=    6100 IOpCl=  0
         NMat0=    1 NMatS0=    1 NMatT0=    0 NMatD0=    1 NMtDS0=    0 NMtDT0=    0
         I1Cent=           7 NGrid=        3074.
 Symmetry not used in FoFCou.
          There are     3 degrees of freedom in the 1st order CPHF.  IDoFFX=0.
      3 vectors produced by pass  0 Test12= 1.28D-12 3.33D-08 XBig12= 7.92D+02 3.97D+00.
 AX will form     3 AO Fock derivatives at one time.
      3 vectors produced by pass  1 Test12= 1.28D-12 3.33D-08 XBig12= 1.57D+00 3.07D-01.
      3 vectors produced by pass  2 Test12= 1.28D-12 3.33D-08 XBig12= 6.54D-03 3.76D-02.
      3 vectors produced by pass  3 Test12= 1.28D-12 3.33D-08 XBig12= 3.48D-05 1.88D-03.
      3 vectors produced by pass  4 Test12= 1.28D-12 3.33D-08 XBig12= 1.08D-07 6.62D-05.
      3 vectors produced by pass  5 Test12= 1.28D-12 3.33D-08 XBig12= 3.31D-10 3.51D-06.
      3 vectors produced by pass  6 Test12= 1.28D-12 3.33D-08 XBig12= 1.75D-12 2.00D-07.
 Inverted reduced A of dimension    21 with in-core refinement.
 Calculating GIAO nuclear magnetic shielding tensors.
 SCF GIAO Magnetic shielding tensor (ppm):
      1  C    Isotropic =   122.0734   Anisotropy =    51.1646
   XX=   108.4169   YX=     2.7177   ZX=   -14.4852
   XY=     2.7059   YY=   104.2744   ZY=     4.9726
   XZ=    -5.8502   YZ=     6.2509   ZZ=   153.5291
   Eigenvalues:   101.0178   109.0194   156.1832
      2  C    Isotropic =   161.5411   Anisotropy =    23.4255
   XX=   157.0494   YX=    -0.1030   ZX=     3.4137
   XY=     7.7834   YY=   175.6053   ZY=    -6.9606
   XZ=     0.1359   YZ=    -2.7756   ZZ=   151.9686
   Eigenvalues:   150.0608   157.4044   177.1581
      3  H    Isotropic =    29.4959   Anisotropy =     6.5255
   XX=    28.1069   YX=     0.6775   ZX=     3.1887
   XY=    -0.0486   YY=    28.1882   ZY=    -0.6068
   XZ=     2.8162   YZ=    -1.0912   ZZ=    32.1925
   Eigenvalues:    26.2740    28.3674    33.8462
      4  H    Isotropic =    29.9158   Anisotropy =     9.3248
   XX=    36.0494   YX=    -0.6758   ZX=    -0.1903
   XY=    -0.8314   YY=    29.1330   ZY=     0.1086
   XZ=    -0.0798   YZ=     0.1336   ZZ=    24.5652
   Eigenvalues:    24.5608    29.0543    36.1324
      5  C    Isotropic =   163.1323   Anisotropy =    28.3112
   XX=   181.6383   YX=     5.3147   ZX=     1.8929
   XY=     0.4205   YY=   152.9319   ZY=    10.2211
   XZ=    -0.9217   YZ=     8.9527   ZZ=   154.8266
   Eigenvalues:   144.1587   163.2318   182.0064
      6  H    Isotropic =    29.7956   Anisotropy =     9.0943
   XX=    30.9011   YX=    -2.1121   ZX=     1.7766
   XY=    -2.6731   YY=    33.6614   ZY=    -2.9108
   XZ=     1.1054   YZ=    -2.3510   ZZ=    24.8244
   Eigenvalues:    24.0085    29.5198    35.8585
      7  C    Isotropic =   154.1099   Anisotropy =    25.8237
   XX=   161.8160   YX=    13.2352   ZX=     5.0929
   XY=     5.8364   YY=   158.7962   ZY=     3.0497
   XZ=     3.1001   YZ=     6.9142   ZZ=   141.7174
   Eigenvalues:   140.2384   150.7656   171.3257
      8  H    Isotropic =    28.5460   Anisotropy =     4.7533
   XX=    27.0525   YX=     0.3873   ZX=    -2.6614
   XY=    -0.8851   YY=    29.2570   ZY=    -1.3630
   XZ=    -2.9893   YZ=    -1.5066   ZZ=    29.3284
   Eigenvalues:    24.9010    29.0220    31.7148
      9  C    Isotropic =   155.3791   Anisotropy =    16.7201
   XX=   157.2453   YX=     3.7373   ZX=     0.5234
   XY=    -1.1802   YY=   166.3045   ZY=     5.1819
   XZ=    -1.9728   YZ=    -2.9040   ZZ=   142.5876
   Eigenvalues:   142.4911   157.1204   166.5259
     10  H    Isotropic =    27.2379   Anisotropy =     6.8777
   XX=    29.3375   YX=    -0.3235   ZX=     1.9263
   XY=     0.0308   YY=    22.5007   ZY=    -0.9846
   XZ=     2.3912   YZ=    -0.4045   ZZ=    29.8756
   Eigenvalues:    22.4354    27.4554    31.8231
     11  C    Isotropic =   112.8816   Anisotropy =    36.7161
   XX=   117.3434   YX=     5.6798   ZX=   -13.5357
   XY=     8.6293   YY=    87.5901   ZY=     0.0686
   XZ=    -2.7365   YZ=    -2.2697   ZZ=   133.7114
   Eigenvalues:    85.9472   115.3386   137.3590
     12  H    Isotropic =    27.7111   Anisotropy =     3.4834
   XX=    26.7437   YX=     0.2050   ZX=     0.0534
   XY=     2.1303   YY=    28.2001   ZY=    -0.8668
   XZ=     0.7561   YZ=    -2.6114   ZZ=    28.1895
   Eigenvalues:    25.4504    27.6495    30.0334
     13  C    Isotropic =    85.5255   Anisotropy =   122.2592
   XX=    48.1994   YX=    23.7214   ZX=     3.3670
   XY=    22.8241   YY=   161.5867   ZY=    10.7517
   XZ=     1.9167   YZ=     8.8648   ZZ=    46.7905
   Eigenvalues:    43.4187    46.1262   167.0316
     14  C    Isotropic =    50.9287   Anisotropy =   189.2206
   XX=   -25.2473   YX=    37.4495   ZX=     7.9946
   XY=    37.1257   YY=   168.6907   ZY=    13.1440
   XZ=     9.4174   YZ=    15.4728   ZZ=     9.3428
   Eigenvalues:   -33.0282     8.7386   177.0758
     15  C    Isotropic =    41.7563   Anisotropy =   129.6434
   XX=    17.9991   YX=    12.9141   ZX=   -29.8232
   XY=    19.6170   YY=   125.0411   ZY=    19.8185
   XZ=   -30.0269   YZ=     9.2549   ZZ=   -17.7714
   Eigenvalues:   -37.3898    34.4735   128.1852
     16  C    Isotropic =    45.0517   Anisotropy =   124.9019
   XX=    34.8872   YX=    12.1943   ZX=    30.1859
   XY=    16.6192   YY=   124.6127   ZY=     8.4257
   XZ=    23.2471   YZ=    12.6899   ZZ=   -24.3449
   Eigenvalues:   -34.7557    41.5912   128.3196
     17  C    Isotropic =    91.9897   Anisotropy =    95.3976
   XX=    76.3548   YX=    13.7234   ZX=   -30.3705
   XY=     7.3519   YY=   152.6779   ZY=    17.2732
   XZ=   -34.1369   YZ=    15.3154   ZZ=    46.9362
   Eigenvalues:    23.2860    97.0949   155.5881
     18  C    Isotropic =    88.0065   Anisotropy =   107.8923
   XX=    77.9152   YX=     7.4791   ZX=    26.2941
   XY=     7.3993   YY=   158.6262   ZY=     2.9807
   XZ=    30.7943   YZ=     9.4654   ZZ=    27.4782
   Eigenvalues:    14.5602    89.5247   159.9347
     19  H    Isotropic =    25.2679   Anisotropy =     7.1449
   XX=    28.5773   YX=    -0.9894   ZX=    -2.4903
   XY=    -0.9611   YY=    21.4380   ZY=    -0.9120
   XZ=    -2.4164   YZ=    -0.5716   ZZ=    25.7883
   Eigenvalues:    21.0290    24.7434    30.0312
     20  H    Isotropic =    24.9278   Anisotropy =     7.7741
   XX=    29.1903   YX=    -1.3577   ZX=     1.8489
   XY=    -1.7227   YY=    21.1686   ZY=     0.0758
   XZ=     1.9999   YZ=    -0.1388   ZZ=    24.4246
   Eigenvalues:    20.8506    23.8223    30.1106
     21  O    Isotropic =   229.3102   Anisotropy =    50.8156
   XX=   198.8256   YX=     2.9849   ZX=   -19.8127
   XY=    20.5667   YY=   239.2219   ZY=    -0.8693
   XZ=   -36.5761   YZ=     2.0666   ZZ=   249.8831
   Eigenvalues:   184.1120   240.6313   263.1873
     22  H    Isotropic =    26.6663   Anisotropy =    15.3966
   XX=    29.3882   YX=    -1.6243   ZX=     4.8948
   XY=    -1.3654   YY=    18.1050   ZY=     0.0491
   XZ=     6.4464   YZ=    -1.2640   ZZ=    32.5056
   Eigenvalues:    17.9088    25.1593    36.9307
     23  O    Isotropic =   218.0885   Anisotropy =    84.5673
   XX=   180.8231   YX=     5.5455   ZX=     5.9436
   XY=     4.0069   YY=   269.9102   ZY=   -49.9625
   XZ=    28.1852   YZ=    14.0155   ZZ=   203.5322
   Eigenvalues:   169.9941   209.8048   274.4667
     24  H    Isotropic =    21.7340   Anisotropy =    27.8068
   XX=    34.9360   YX=     9.0448   ZX=    -5.8384
   XY=    12.4445   YY=    13.0422   ZY=     0.3898
   XZ=    -3.8503   YZ=    -1.3075   ZZ=    17.2237
   Eigenvalues:     8.4058    16.5242    40.2718
     25  O    Isotropic =   284.3805   Anisotropy =    41.0951
   XX=   284.0158   YX=    14.7618   ZX=     9.2670
   XY=    24.7103   YY=   283.8853   ZY=    14.9364
   XZ=    -2.4568   YZ=    18.2771   ZZ=   285.2404
   Eigenvalues:   259.9810   281.3832   311.7773
     26  H    Isotropic =    28.5889   Anisotropy =    18.8533
   XX=    24.1742   YX=     6.0578   ZX=    -1.3016
   XY=     6.4669   YY=    35.8589   ZY=     6.8535
   XZ=    -0.4228   YZ=     7.3447   ZZ=    25.7338
   Eigenvalues:    18.8228    25.7863    41.1578
     27  C    Isotropic =   167.4452   Anisotropy =    46.9667
   XX=   164.4241   YX=    21.1907   ZX=     9.8485
   XY=    18.6013   YY=   181.5649   ZY=    10.9976
   XZ=     8.3072   YZ=     8.5815   ZZ=   156.3465
   Eigenvalues:   149.6358   153.9433   198.7563
     28  H    Isotropic =    30.2394   Anisotropy =     9.4760
   XX=    35.8272   YX=     1.7505   ZX=    -1.1702
   XY=     2.9351   YY=    28.4711   ZY=    -0.1844
   XZ=    -0.3216   YZ=     0.3896   ZZ=    26.4198
   Eigenvalues:    26.3096    27.8518    36.5567
     29  H    Isotropic =    30.7339   Anisotropy =     9.4181
   XX=    28.7456   YX=     2.2997   ZX=    -0.2194
   XY=     1.4427   YY=    36.4110   ZY=    -1.9437
   XZ=     0.1037   YZ=    -0.6947   ZZ=    27.0452
   Eigenvalues:    26.8375    28.3517    37.0127
     30  H    Isotropic =    30.1890   Anisotropy =     9.0820
   XX=    29.3288   YX=     2.9091   ZX=     2.2761
   XY=     3.1932   YY=    28.0755   ZY=     3.9357
   XZ=     1.6452   YZ=     2.6348   ZZ=    33.1626
   Eigenvalues:    25.2970    29.0263    36.2436
     31  O    Isotropic =   261.9224   Anisotropy =    45.7367
   XX=   250.1233   YX=   -14.4440   ZX=     4.4767
   XY=    -6.6491   YY=   256.4441   ZY=   -31.1457
   XZ=    -6.1156   YZ=   -11.2157   ZZ=   279.1998
   Eigenvalues:   236.8223   256.5313   292.4135
     32  H    Isotropic =    30.2152   Anisotropy =    16.0199
   XX=    25.1272   YX=    -3.1717   ZX=     0.5533
   XY=    -2.3147   YY=    32.1369   ZY=    -7.4898
   XZ=     1.1125   YZ=    -7.9501   ZZ=    33.3815
   Eigenvalues:    23.4352    26.3153    40.8952
     33  H    Isotropic =    29.8679   Anisotropy =     6.2686
   XX=    29.2818   YX=     0.6123   ZX=    -2.0175
   XY=    -0.0267   YY=    29.6261   ZY=     4.2121
   XZ=    -1.7401   YZ=     2.7991   ZZ=    30.6957
   Eigenvalues:    25.9480    29.6087    34.0469
     34  C    Isotropic =    41.7756   Anisotropy =   184.6361
   XX=   103.9498   YX=   -99.5555   ZX=     9.4454
   XY=   -98.9525   YY=    -0.2961   ZY=    41.8148
   XZ=    11.3247   YZ=    36.1627   ZZ=    21.6731
   Eigenvalues:   -75.7673    36.2277   164.8663
     35  C    Isotropic =    91.6306   Anisotropy =   118.3267
   XX=   119.1572   YX=   -78.6100   ZX=     6.6395
   XY=   -78.3558   YY=    48.4274   ZY=    24.2217
   XZ=     8.7625   YZ=    22.4354   ZZ=   107.3072
   Eigenvalues:    -7.2340   111.6107   170.5151
     36  H    Isotropic =    26.4288   Anisotropy =     5.1595
   XX=    24.6719   YX=    -0.3041   ZX=     0.7894
   XY=    -1.0400   YY=    26.3519   ZY=     1.4239
   XZ=     2.1345   YZ=     3.0023   ZZ=    28.2627
   Eigenvalues:    23.3521    26.0660    29.8685
     37  H    Isotropic =    26.3671   Anisotropy =     7.6465
   XX=    24.4132   YX=    -0.7378   ZX=     3.5571
   XY=    -1.5930   YY=    25.3577   ZY=     5.2908
   XZ=     0.7849   YZ=     1.3159   ZZ=    29.3305
   Eigenvalues:    21.7440    25.8926    31.4648
     38  C    Isotropic =   169.7290   Anisotropy =    39.7645
   XX=   155.2677   YX=    14.8297   ZX=    -6.5528
   XY=    14.7320   YY=   177.8381   ZY=   -12.1911
   XZ=    -8.3554   YZ=   -13.7800   ZZ=   176.0813
   Eigenvalues:   147.9179   165.0305   196.2387
     39  H    Isotropic =    29.9723   Anisotropy =     6.0175
   XX=    28.9989   YX=    -0.0563   ZX=    -4.9514
   XY=    -1.2227   YY=    31.0905   ZY=    -0.9927
   XZ=    -4.0469   YZ=     0.8771   ZZ=    29.8274
   Eigenvalues:    24.8529    31.0800    33.9840
     40  H    Isotropic =    30.0888   Anisotropy =     8.9502
   XX=    28.1482   YX=     4.0258   ZX=     0.9588
   XY=     3.6072   YY=    34.1997   ZY=     1.0721
   XZ=    -0.3358   YZ=    -0.7032   ZZ=    27.9184
   Eigenvalues:    26.2789    27.9318    36.0555
     41  H    Isotropic =    29.6506   Anisotropy =     8.2851
   XX=    29.0507   YX=    -0.6812   ZX=     2.0450
   XY=    -1.7351   YY=    31.0842   ZY=    -4.6023
   XZ=     2.6508   YZ=    -3.6401   ZZ=    28.8168
   Eigenvalues:    25.2671    28.5106    35.1740
     42  C    Isotropic =   164.2353   Anisotropy =    29.8541
   XX=   183.7992   YX=   -10.4840   ZX=    -2.6940
   XY=     5.2439   YY=   151.6933   ZY=    -0.9250
   XZ=    -1.0567   YZ=     0.3230   ZZ=   157.2135
   Eigenvalues:   151.4448   157.1230   184.1380
     43  H    Isotropic =    29.3143   Anisotropy =     7.5210
   XX=    29.9000   YX=    -1.9868   ZX=     1.5444
   XY=    -2.8096   YY=    29.8215   ZY=    -4.2325
   XZ=     0.1905   YZ=    -3.5562   ZZ=    28.2214
   Eigenvalues:    24.8806    28.7340    34.3283
     44  H    Isotropic =    29.2363   Anisotropy =     7.4852
   XX=    29.5838   YX=    -1.1335   ZX=    -1.9025
   XY=    -1.8923   YY=    27.8202   ZY=     4.6418
   XZ=    -0.6769   YZ=     3.6983   ZZ=    30.3047
   Eigenvalues:    24.6677    28.8146    34.2264
     45  C    Isotropic =   178.2173   Anisotropy =    28.9419
   XX=   183.9083   YX=     7.6898   ZX=    -0.1439
   XY=    18.5825   YY=   184.6721   ZY=     1.7434
   XZ=     1.2953   YZ=     1.5599   ZZ=   166.0716
   Eigenvalues:   165.8884   171.2517   197.5119
     46  H    Isotropic =    30.2644   Anisotropy =    12.0823
   XX=    38.0613   YX=     0.4638   ZX=    -0.7396
   XY=     2.7913   YY=    26.9356   ZY=     0.0583
   XZ=    -0.4057   YZ=     0.0836   ZZ=    25.7963
   Eigenvalues:    25.7475    26.7264    38.3192
     47  H    Isotropic =    30.6861   Anisotropy =     7.3930
   XX=    29.7334   YX=     1.6805   ZX=     0.1936
   XY=     2.7035   YY=    29.9794   ZY=     4.6876
   XZ=     0.1572   YZ=     3.1132   ZZ=    32.3456
   Eigenvalues:    26.2443    30.1992    35.6148
     48  H    Isotropic =    30.6544   Anisotropy =     7.2801
   XX=    29.8238   YX=     1.1913   ZX=     0.3990
   XY=     2.0847   YY=    31.7478   ZY=    -5.0206
   XZ=     0.6972   YZ=    -3.4557   ZZ=    30.3915
   Eigenvalues:    26.1646    30.2907    35.5078
 End of Minotr Frequency-dependent properties file   721 does not exist.
 End of Minotr Frequency-dependent properties file   722 does not exist.

 **********************************************************************

            Population analysis using the SCF density.

 **********************************************************************

 Orbital symmetries:
       Occupied  (A) (A) (A) (A) (A) (A) (A) (A) (A) (A) (A) (A)
                 (A) (A) (A) (A) (A) (A) (A) (A) (A) (A) (A) (A)
                 (A) (A) (A) (A) (A) (A) (A) (A) (A) (A) (A) (A)
                 (A) (A) (A) (A) (A) (A) (A) (A) (A) (A) (A) (A)
                 (A) (A) (A) (A) (A) (A) (A) (A) (A) (A) (A) (A)
                 (A) (A) (A) (A) (A) (A) (A) (A) (A) (A) (A) (A)
                 (A) (A) (A) (A) (A) (A) (A) (A) (A) (A) (A)
       Virtual   (A) (A) (A) (A) (A) (A) (A) (A) (A) (A) (A) (A)
                 (A) (A) (A) (A) (A) (A) (A) (A) (A) (A) (A) (A)
                 (A) (A) (A) (A) (A) (A) (A) (A) (A) (A) (A) (A)
                 (A) (A) (A) (A) (A) (A) (A) (A) (A) (A) (A) (A)
                 (A) (A) (A) (A) (A) (A) (A) (A) (A) (A) (A) (A)
                 (A) (A) (A) (A) (A) (A) (A) (A) (A) (A) (A) (A)
                 (A) (A) (A) (A) (A) (A) (A) (A) (A) (A) (A) (A)
                 (A) (A) (A) (A) (A) (A) (A) (A) (A) (A) (A) (A)
                 (A) (A) (A) (A) (A) (A) (A) (A) (A) (A) (A) (A)
                 (A) (A) (A) (A) (A) (A) (A) (A) (A) (A) (A) (A)
                 (A) (A) (A) (A) (A) (A) (A) (A) (A) (A) (A) (A)
                 (A) (A) (A) (A) (A) (A) (A) (A) (A) (A) (A) (A)
                 (A) (A) (A) (A) (A) (A) (A) (A) (A) (A) (A) (A)
                 (A) (A) (A) (A) (A) (A) (A) (A) (A) (A) (A) (A)
                 (A) (A) (A) (A) (A) (A) (A) (A) (A) (A) (A) (A)
                 (A) (A) (A) (A) (A) (A) (A) (A) (A) (A) (A) (A)
                 (A) (A) (A) (A) (A) (A) (A) (A) (A) (A) (A) (A)
                 (A) (A) (A) (A) (A) (A) (A) (A) (A) (A) (A) (A)
                 (A) (A) (A) (A) (A) (A) (A) (A) (A) (A) (A) (A)
                 (A) (A) (A) (A) (A) (A) (A) (A) (A) (A) (A) (A)
                 (A) (A) (A) (A) (A) (A) (A) (A) (A) (A) (A) (A)
                 (A) (A) (A) (A) (A) (A) (A) (A) (A) (A) (A) (A)
                 (A) (A) (A) (A) (A) (A) (A) (A) (A) (A) (A) (A)
                 (A) (A) (A) (A) (A) (A) (A) (A) (A) (A) (A) (A)
                 (A) (A) (A) (A) (A) (A) (A) (A) (A) (A) (A) (A)
                 (A) (A) (A) (A) (A) (A) (A) (A) (A) (A) (A) (A)
                 (A) (A) (A) (A) (A) (A) (A) (A) (A) (A) (A) (A)
                 (A) (A) (A) (A) (A) (A) (A) (A) (A) (A) (A) (A)
                 (A) (A) (A) (A) (A) (A) (A) (A) (A) (A) (A) (A)
                 (A) (A) (A) (A) (A) (A) (A) (A) (A) (A) (A) (A)
                 (A) (A) (A) (A) (A) (A) (A) (A) (A) (A) (A) (A)
                 (A) (A) (A) (A) (A) (A) (A) (A) (A) (A) (A) (A)
                 (A) (A) (A) (A) (A) (A) (A) (A) (A) (A) (A) (A)
                 (A) (A) (A) (A) (A) (A) (A) (A) (A) (A) (A) (A)
                 (A) (A) (A) (A) (A) (A) (A) (A) (A) (A) (A) (A)
                 (A) (A) (A) (A) (A) (A) (A) (A) (A) (A) (A) (A)
                 (A) (A) (A) (A) (A) (A) (A) (A) (A) (A) (A) (A)
                 (A) (A) (A) (A) (A) (A) (A) (A) (A) (A) (A) (A)
                 (A) (A) (A) (A) (A) (A) (A)
 The electronic state is 1-A.
 Alpha  occ. eigenvalues --  -19.28204 -19.28062 -19.25753 -19.25592 -10.31956
 Alpha  occ. eigenvalues --  -10.31597 -10.31439 -10.31302 -10.26835 -10.26437
 Alpha  occ. eigenvalues --  -10.26325 -10.25938 -10.25906 -10.24855 -10.24545
 Alpha  occ. eigenvalues --  -10.24458 -10.24380 -10.24007 -10.23963 -10.23877
 Alpha  occ. eigenvalues --  -10.23662 -10.23373  -1.09755  -1.09172  -1.07316
 Alpha  occ. eigenvalues --   -1.06100  -0.88546  -0.86639  -0.82116  -0.81927
 Alpha  occ. eigenvalues --   -0.78554  -0.77018  -0.75769  -0.73913  -0.70913
 Alpha  occ. eigenvalues --   -0.70225  -0.66944  -0.64393  -0.63541  -0.62523
 Alpha  occ. eigenvalues --   -0.60846  -0.59206  -0.56833  -0.55384  -0.54606
 Alpha  occ. eigenvalues --   -0.52060  -0.51341  -0.50851  -0.49851  -0.48404
 Alpha  occ. eigenvalues --   -0.46995  -0.46214  -0.45721  -0.45305  -0.44687
 Alpha  occ. eigenvalues --   -0.44071  -0.43614  -0.42579  -0.42412  -0.42060
 Alpha  occ. eigenvalues --   -0.41554  -0.41284  -0.40563  -0.39886  -0.39069
 Alpha  occ. eigenvalues --   -0.38658  -0.38453  -0.38003  -0.37668  -0.36935
 Alpha  occ. eigenvalues --   -0.36275  -0.35786  -0.35403  -0.34752  -0.34215
 Alpha  occ. eigenvalues --   -0.33538  -0.32455  -0.31380  -0.31007  -0.28606
 Alpha  occ. eigenvalues --   -0.25695  -0.23964  -0.23052
 Alpha virt. eigenvalues --   -0.00428  -0.00245   0.00280   0.00843   0.01229
 Alpha virt. eigenvalues --    0.01661   0.02048   0.02742   0.03113   0.03395
 Alpha virt. eigenvalues --    0.03796   0.04244   0.04378   0.04761   0.05410
 Alpha virt. eigenvalues --    0.05634   0.06126   0.06509   0.06775   0.07195
 Alpha virt. eigenvalues --    0.07604   0.08000   0.08388   0.08939   0.09070
 Alpha virt. eigenvalues --    0.09543   0.10129   0.10295   0.10558   0.11019
 Alpha virt. eigenvalues --    0.11442   0.11871   0.12064   0.12834   0.12981
 Alpha virt. eigenvalues --    0.13339   0.13440   0.14083   0.14147   0.14297
 Alpha virt. eigenvalues --    0.15064   0.15246   0.15278   0.15863   0.16136
 Alpha virt. eigenvalues --    0.16533   0.17174   0.17224   0.17681   0.17779
 Alpha virt. eigenvalues --    0.18069   0.18486   0.18639   0.19082   0.19408
 Alpha virt. eigenvalues --    0.19630   0.19875   0.20209   0.20336   0.20952
 Alpha virt. eigenvalues --    0.21143   0.21412   0.21781   0.22144   0.22390
 Alpha virt. eigenvalues --    0.22737   0.22800   0.23146   0.23345   0.23499
 Alpha virt. eigenvalues --    0.23786   0.24120   0.24412   0.24831   0.25326
 Alpha virt. eigenvalues --    0.25454   0.25791   0.26169   0.26512   0.26704
 Alpha virt. eigenvalues --    0.27132   0.27360   0.27709   0.27856   0.28005
 Alpha virt. eigenvalues --    0.28488   0.28716   0.29068   0.29198   0.29975
 Alpha virt. eigenvalues --    0.30057   0.30339   0.30554   0.31001   0.31262
 Alpha virt. eigenvalues --    0.31691   0.31975   0.32445   0.32802   0.33466
 Alpha virt. eigenvalues --    0.33592   0.34123   0.34558   0.34907   0.35050
 Alpha virt. eigenvalues --    0.35844   0.36031   0.36365   0.36836   0.36901
 Alpha virt. eigenvalues --    0.37391   0.37704   0.38066   0.38515   0.39453
 Alpha virt. eigenvalues --    0.39880   0.40695   0.40801   0.42033   0.42408
 Alpha virt. eigenvalues --    0.43424   0.43790   0.44535   0.44813   0.45832
 Alpha virt. eigenvalues --    0.46236   0.47059   0.47466   0.47662   0.48495
 Alpha virt. eigenvalues --    0.49202   0.49545   0.50822   0.51678   0.52802
 Alpha virt. eigenvalues --    0.54645   0.56754   0.60801   0.63110   0.65629
 Alpha virt. eigenvalues --    0.68366   0.68715   0.69584   0.69627   0.71578
 Alpha virt. eigenvalues --    0.72086   0.72622   0.72773   0.73230   0.74426
 Alpha virt. eigenvalues --    0.74494   0.75027   0.75111   0.76388   0.76737
 Alpha virt. eigenvalues --    0.77906   0.78185   0.78514   0.79223   0.79795
 Alpha virt. eigenvalues --    0.81186   0.81420   0.81672   0.82527   0.84013
 Alpha virt. eigenvalues --    0.84165   0.85518   0.86153   0.86426   0.87657
 Alpha virt. eigenvalues --    0.88219   0.88587   0.89703   0.89728   0.90174
 Alpha virt. eigenvalues --    0.91328   0.92334   0.93687   0.94194   0.94432
 Alpha virt. eigenvalues --    0.95319   0.96046   0.97038   0.98194   0.99034
 Alpha virt. eigenvalues --    1.00227   1.00887   1.01727   1.02158   1.03090
 Alpha virt. eigenvalues --    1.04566   1.04966   1.05700   1.06026   1.07924
 Alpha virt. eigenvalues --    1.08240   1.09469   1.10475   1.10645   1.11474
 Alpha virt. eigenvalues --    1.12717   1.12977   1.13513   1.14051   1.14176
 Alpha virt. eigenvalues --    1.15370   1.16144   1.16666   1.16916   1.18670
 Alpha virt. eigenvalues --    1.19583   1.19877   1.20464   1.21062   1.21440
 Alpha virt. eigenvalues --    1.23401   1.24225   1.24951   1.25828   1.26761
 Alpha virt. eigenvalues --    1.27784   1.28339   1.29038   1.29578   1.30124
 Alpha virt. eigenvalues --    1.32147   1.32771   1.33299   1.33628   1.33840
 Alpha virt. eigenvalues --    1.34869   1.35534   1.37467   1.37973   1.38585
 Alpha virt. eigenvalues --    1.39588   1.40516   1.41259   1.42380   1.43907
 Alpha virt. eigenvalues --    1.44556   1.45446   1.46791   1.48012   1.49157
 Alpha virt. eigenvalues --    1.50804   1.53147   1.53365   1.53607   1.54794
 Alpha virt. eigenvalues --    1.55085   1.56973   1.57596   1.58937   1.59214
 Alpha virt. eigenvalues --    1.61404   1.61820   1.62786   1.64636   1.65628
 Alpha virt. eigenvalues --    1.66976   1.69230   1.69980   1.70573   1.71673
 Alpha virt. eigenvalues --    1.73315   1.75028   1.76971   1.78138   1.80414
 Alpha virt. eigenvalues --    1.80769   1.81481   1.82159   1.84182   1.84264
 Alpha virt. eigenvalues --    1.84948   1.85861   1.86599   1.87217   1.87769
 Alpha virt. eigenvalues --    1.88933   1.89825   1.90121   1.90910   1.91968
 Alpha virt. eigenvalues --    1.92476   1.92831   1.93392   1.95143   1.95723
 Alpha virt. eigenvalues --    1.96423   1.96654   1.97428   1.98911   2.00133
 Alpha virt. eigenvalues --    2.00323   2.02104   2.03192   2.04502   2.04800
 Alpha virt. eigenvalues --    2.05971   2.06779   2.06924   2.07424   2.07816
 Alpha virt. eigenvalues --    2.08988   2.09834   2.10338   2.11195   2.11861
 Alpha virt. eigenvalues --    2.13335   2.13627   2.14597   2.15300   2.15480
 Alpha virt. eigenvalues --    2.15996   2.16956   2.17938   2.19270   2.19679
 Alpha virt. eigenvalues --    2.19993   2.20951   2.23755   2.24337   2.25990
 Alpha virt. eigenvalues --    2.26255   2.27103   2.28318   2.29311   2.29759
 Alpha virt. eigenvalues --    2.30823   2.32190   2.32751   2.33679   2.35450
 Alpha virt. eigenvalues --    2.36305   2.37246   2.38620   2.39414   2.40657
 Alpha virt. eigenvalues --    2.40941   2.41210   2.43008   2.44205   2.46614
 Alpha virt. eigenvalues --    2.47979   2.48282   2.50244   2.50461   2.52448
 Alpha virt. eigenvalues --    2.52879   2.53007   2.54527   2.55301   2.56084
 Alpha virt. eigenvalues --    2.56953   2.57100   2.57860   2.59100   2.60064
 Alpha virt. eigenvalues --    2.60719   2.61512   2.62231   2.63410   2.64753
 Alpha virt. eigenvalues --    2.65317   2.66827   2.67940   2.69056   2.69896
 Alpha virt. eigenvalues --    2.70880   2.71460   2.72066   2.72858   2.73742
 Alpha virt. eigenvalues --    2.73970   2.75794   2.76150   2.76643   2.77221
 Alpha virt. eigenvalues --    2.78749   2.79884   2.81233   2.81902   2.82490
 Alpha virt. eigenvalues --    2.83277   2.85545   2.86423   2.86925   2.88008
 Alpha virt. eigenvalues --    2.88619   2.88940   2.89922   2.90400   2.90728
 Alpha virt. eigenvalues --    2.91477   2.91866   2.92936   2.94140   2.95348
 Alpha virt. eigenvalues --    2.96687   2.97181   2.99498   3.03321   3.07340
 Alpha virt. eigenvalues --    3.07808   3.09256   3.09362   3.11052   3.12014
 Alpha virt. eigenvalues --    3.19481   3.20905   3.25428   3.27818   3.29270
 Alpha virt. eigenvalues --    3.30365   3.31166   3.35985   3.37614   3.39359
 Alpha virt. eigenvalues --    3.39951   3.43478   3.45492   3.46986   3.48098
 Alpha virt. eigenvalues --    3.49174   3.49554   3.51057   3.51475   3.52418
 Alpha virt. eigenvalues --    3.53560   3.54518   3.57576   3.58216   3.58605
 Alpha virt. eigenvalues --    3.59797   3.61839   3.62260   3.67975   3.71827
 Alpha virt. eigenvalues --    3.80644   4.35742   4.36982   4.39367   4.46206
 Alpha virt. eigenvalues --    4.48991   4.50665   4.52799   4.53762   4.55863
 Alpha virt. eigenvalues --    4.57514   4.60544   4.63463   4.66365   4.71182
 Alpha virt. eigenvalues --    4.73609   4.74362   4.78615   4.84054   4.91357
 Alpha virt. eigenvalues --    4.94273   4.99683   5.04017
          Condensed to atoms (all electrons):
              1          2          3          4          5          6
     1  C   13.397594  -1.911584  -0.123668  -0.045317  -0.528189   0.012482
     2  C   -1.911584   7.609998   0.432540   0.367870   0.206436  -0.009127
     3  H   -0.123668   0.432540   0.518198  -0.025421  -0.064214  -0.004832
     4  H   -0.045317   0.367870  -0.025421   0.527673  -0.037712  -0.002334
     5  C   -0.528189   0.206436  -0.064214  -0.037712   7.814264   0.426700
     6  H    0.012482  -0.009127  -0.004832  -0.002334   0.426700   0.545921
     7  C    2.065547  -0.141275   0.033968   0.012644  -3.139575  -0.266127
     8  H   -0.082980   0.011697   0.003387  -0.000050  -0.004070  -0.005557
     9  C   -0.432041   0.043533  -0.020336   0.018880   1.089396   0.161383
    10  H   -0.083142   0.011571   0.000106  -0.000049  -0.063547  -0.000036
    11  C   -4.100314   0.663705   0.062458   0.059539   0.034113  -0.028884
    12  H   -0.019970   0.026103  -0.000074  -0.000117  -0.028527   0.000010
    13  C   -0.070379  -0.367307  -0.011027   0.000847   0.495239   0.036681
    14  C    0.054123  -0.008715  -0.000129  -0.000017   0.011614   0.000150
    15  C    1.239626  -0.007580   0.005395  -0.002688  -0.383079  -0.021735
    16  C   -0.985569   0.046395   0.000681   0.000799   0.334404   0.011293
    17  C   -0.250203   0.025556   0.000177   0.000045   0.050061   0.000835
    18  C   -0.100850  -0.025891   0.000706  -0.000130  -0.150015  -0.002462
    19  H   -0.000165   0.000019   0.000000   0.000000  -0.000099   0.000000
    20  H   -0.000085   0.000015   0.000000   0.000000   0.000092   0.000000
    21  O   -0.018854   0.007335  -0.000002   0.000001   0.017260   0.000001
    22  H    0.000067   0.000125   0.000000   0.000000  -0.000956   0.000000
    23  O    0.021503   0.003377  -0.000058   0.000009   0.033482   0.000165
    24  H    0.005357  -0.008846  -0.000052   0.000001   0.002010  -0.000015
    25  O    0.049461  -0.051337   0.003854  -0.001356  -0.113899  -0.000111
    26  H   -0.000317   0.010673   0.000199  -0.000010   0.014978   0.000000
    27  C   -2.661905   0.292684   0.023907  -0.037791  -0.248020  -0.007051
    28  H   -0.161785   0.024419   0.000195   0.002020   0.010358  -0.000001
    29  H   -0.038971   0.015620   0.000045  -0.000027  -0.008493   0.000002
    30  H   -0.177599   0.034760   0.001570   0.000308   0.000494  -0.000004
    31  O    0.198010  -0.171973   0.009567  -0.002886   0.070731  -0.001049
    32  H    0.092369   0.049766  -0.000220  -0.000029  -0.010598   0.000010
    33  H   -0.040301  -0.037916   0.004499  -0.004322   0.422008  -0.027512
    34  C    0.394879  -0.732075  -0.033743  -0.004355   0.454989   0.040532
    35  C    0.248602  -0.076584  -0.006389   0.000309  -0.046377  -0.026848
    36  H   -0.000081   0.001061   0.000000   0.000000   0.009965  -0.000009
    37  H   -0.006001   0.002794  -0.000001   0.000002  -0.007635   0.000073
    38  C   -0.115926  -0.018458   0.005309  -0.001764  -0.034175  -0.001482
    39  H   -0.001525  -0.004933   0.000001   0.000000  -0.012106   0.000015
    40  H    0.000364   0.001062   0.000000   0.000000   0.002590  -0.000057
    41  H    0.001988   0.009669   0.000008   0.000001   0.013238   0.000753
    42  C   -0.005577   0.000496  -0.000003   0.000000   0.006326   0.000009
    43  H    0.000006  -0.000001   0.000000   0.000000  -0.000002   0.000000
    44  H   -0.000002   0.000001   0.000000   0.000000   0.000000   0.000000
    45  C   -0.000160  -0.000050   0.000000   0.000000  -0.000081   0.000000
    46  H    0.000000   0.000000   0.000000   0.000000   0.000000   0.000000
    47  H    0.000001   0.000000   0.000000   0.000000  -0.000006   0.000000
    48  H    0.000000   0.000000   0.000000   0.000000  -0.000002   0.000000
              7          8          9         10         11         12
     1  C    2.065547  -0.082980  -0.432041  -0.083142  -4.100314  -0.019970
     2  C   -0.141275   0.011697   0.043533   0.011571   0.663705   0.026103
     3  H    0.033968   0.003387  -0.020336   0.000106   0.062458  -0.000074
     4  H    0.012644  -0.000050   0.018880  -0.000049   0.059539  -0.000117
     5  C   -3.139575  -0.004070   1.089396  -0.063547   0.034113  -0.028527
     6  H   -0.266127  -0.005557   0.161383  -0.000036  -0.028884   0.000010
     7  C   28.519067   0.315072  -6.049260   0.059845   0.656194  -0.023783
     8  H    0.315072   0.559907   0.077440   0.004968   0.048547  -0.000149
     9  C   -6.049260   0.077440  15.526523   0.349061  -1.526566  -0.038825
    10  H    0.059845   0.004968   0.349061   0.518211   0.171711  -0.003522
    11  C    0.656194   0.048547  -1.526566   0.171711  13.765785   0.223425
    12  H   -0.023783  -0.000149  -0.038825  -0.003522   0.223425   0.567453
    13  C   -4.935786   0.153912   4.295048  -0.210527  -1.105014   0.050068
    14  C   -0.779624  -0.008517  -0.736436  -0.010559  -0.555267   0.008631
    15  C    3.278993  -0.186618  -1.462770  -0.122176  -3.331342   0.067938
    16  C   -5.951599   0.071668  -0.618954   0.099319  -0.149412   0.074772
    17  C   -1.433872   0.014220  -1.738012   0.057679   0.053055   0.021189
    18  C   -0.395078  -0.030582  -1.453883   0.008196   0.510415   0.011013
    19  H   -0.000207   0.000000  -0.000289  -0.000006   0.001179   0.000002
    20  H   -0.002705   0.000004   0.005493   0.000001  -0.001260   0.000000
    21  O   -0.085334  -0.000209  -0.085797   0.002075  -0.012353   0.000108
    22  H    0.002570   0.000000   0.029043   0.000105   0.002461   0.000025
    23  O    0.100823   0.001834   0.161441   0.000077  -0.013389  -0.002752
    24  H   -0.108312   0.002071  -0.024414  -0.000047  -0.006901   0.000543
    25  O    0.497795   0.004640  -0.360012   0.010241   0.269008  -0.044132
    26  H   -0.017795   0.000000   0.057684  -0.000197  -0.022424  -0.008558
    27  C    0.521121   0.008760  -0.978178   0.025851   1.446534  -0.046638
    28  H   -0.011846   0.000000   0.008912  -0.000005   0.040753  -0.000061
    29  H   -0.010252   0.000001   0.016965   0.000006  -0.013419   0.002649
    30  H    0.002552   0.000016  -0.010076   0.000002   0.022068   0.000513
    31  O    0.156438   0.000784  -0.097191   0.009085   0.233837  -0.009129
    32  H    0.029601  -0.000001   0.006145  -0.000032  -0.118609   0.004609
    33  H    0.008994   0.004913  -0.005809   0.003411   0.011251  -0.000056
    34  C   -6.974434  -0.162317   0.799655  -0.022987  -0.941206   0.000998
    35  C   -0.361752  -0.037070  -0.430828  -0.018284  -0.052397  -0.003129
    36  H    0.010415  -0.000122  -0.013887  -0.000004   0.000027   0.000000
    37  H   -0.080054  -0.000039  -0.000694   0.001051  -0.011293   0.000007
    38  C    0.378737   0.069542   0.190853   0.007702   0.157693   0.000245
    39  H    0.091793   0.001662  -0.007518   0.000009   0.002978   0.000000
    40  H    0.000990   0.000347  -0.006530   0.000005   0.000026   0.000000
    41  H    0.018963  -0.000348   0.010426  -0.000013   0.001760   0.000000
    42  C   -0.188418   0.000314  -0.392240  -0.000517  -0.072181   0.000291
    43  H   -0.000034   0.000000   0.000302   0.000000  -0.000135   0.000000
    44  H   -0.000269   0.000000  -0.000752   0.000000   0.000114   0.000000
    45  C   -0.003380   0.000002  -0.004918   0.000017   0.000407   0.000012
    46  H    0.000013   0.000000  -0.000020   0.000000  -0.000006   0.000000
    47  H   -0.000073   0.000000   0.000071   0.000000   0.000027   0.000000
    48  H   -0.000020   0.000000  -0.000209   0.000000  -0.000024   0.000000
             13         14         15         16         17         18
     1  C   -0.070379   0.054123   1.239626  -0.985569  -0.250203  -0.100850
     2  C   -0.367307  -0.008715  -0.007580   0.046395   0.025556  -0.025891
     3  H   -0.011027  -0.000129   0.005395   0.000681   0.000177   0.000706
     4  H    0.000847  -0.000017  -0.002688   0.000799   0.000045  -0.000130
     5  C    0.495239   0.011614  -0.383079   0.334404   0.050061  -0.150015
     6  H    0.036681   0.000150  -0.021735   0.011293   0.000835  -0.002462
     7  C   -4.935786  -0.779624   3.278993  -5.951599  -1.433872  -0.395078
     8  H    0.153912  -0.008517  -0.186618   0.071668   0.014220  -0.030582
     9  C    4.295048  -0.736436  -1.462770  -0.618954  -1.738012  -1.453883
    10  H   -0.210527  -0.010559  -0.122176   0.099319   0.057679   0.008196
    11  C   -1.105014  -0.555267  -3.331342  -0.149412   0.053055   0.510415
    12  H    0.050068   0.008631   0.067938   0.074772   0.021189   0.011013
    13  C   27.096091  -3.424223 -16.534916   2.537406  -3.338998   2.147750
    14  C   -3.424223  11.076020   4.298121  -0.345564   0.646545  -2.693408
    15  C  -16.534916   4.298121  39.432071  -5.949644  -2.830337 -10.177062
    16  C    2.537406  -0.345564  -5.949644  13.663646   2.409232  -0.171705
    17  C   -3.338998   0.646545  -2.830337   2.409232  13.469291  -1.386013
    18  C    2.147750  -2.693408 -10.177062  -0.171705  -1.386013  18.515055
    19  H    0.080154   0.043054  -0.066293  -0.040371   0.258524   0.061931
    20  H    0.054789   0.062236   0.118497  -0.002066   0.035339   0.071056
    21  O   -0.059394   0.007469  -0.047020   0.301386  -0.010490  -0.010927
    22  H    0.125678   0.011773  -0.028052   0.062397  -0.214839   0.017997
    23  O   -0.379284   0.128070   0.755545  -0.091127  -0.000961  -0.586592
    24  H   -0.026108  -0.002126   0.019207   0.025710  -0.004315   0.159090
    25  O   -0.156719  -0.022172   0.103263  -0.194479  -0.045515  -0.018046
    26  H   -0.026708   0.001700   0.022548  -0.004068  -0.001331  -0.009789
    27  C   -0.440663  -0.026444  -0.086517  -0.159001  -0.012133   0.014563
    28  H   -0.001505  -0.000023  -0.001945   0.000408   0.000021  -0.000100
    29  H    0.001286  -0.000064  -0.005121   0.003687   0.000381  -0.000443
    30  H   -0.003404   0.000125   0.011566  -0.001363  -0.000145   0.001325
    31  O   -0.142343  -0.006237  -0.019220  -0.098044  -0.010673   0.001292
    32  H   -0.015426  -0.000352  -0.004507  -0.004180  -0.000237   0.000019
    33  H   -0.006351  -0.000072  -0.006824   0.011037   0.001727   0.000103
    34  C   -0.044367   0.467285   0.771019   1.370989   0.408329  -0.153893
    35  C    0.068217   0.087457   0.818431  -0.904800  -0.513553  -0.215986
    36  H    0.005922  -0.000864   0.002301  -0.007016  -0.005861   0.003634
    37  H    0.010811   0.000222  -0.009321   0.030183   0.004541   0.001729
    38  C    0.733771  -0.169216  -1.296328   0.356121   0.169921   0.188171
    39  H    0.077295  -0.012846  -0.094968   0.009513   0.002147   0.027339
    40  H   -0.002496   0.000378   0.007032   0.000036   0.000676   0.000371
    41  H   -0.025968   0.001002   0.020680  -0.004259  -0.000312  -0.006142
    42  C   -0.987701  -1.782748  -0.788729  -0.128549   0.354604   1.284907
    43  H   -0.006008  -0.209834  -0.009398   0.052261   0.165476  -0.134438
    44  H    0.008892  -0.245113   0.029648  -0.023212  -0.106203   0.192805
    45  C    0.020432  -0.069677  -0.016011   0.002223   0.040833   0.048409
    46  H    0.001801   0.028927   0.002286   0.003067   0.005299   0.006980
    47  H   -0.000438  -0.042224  -0.002824  -0.003785  -0.017748   0.023275
    48  H   -0.004805  -0.024300  -0.000732   0.001976   0.021512  -0.032764
             19         20         21         22         23         24
     1  C   -0.000165  -0.000085  -0.018854   0.000067   0.021503   0.005357
     2  C    0.000019   0.000015   0.007335   0.000125   0.003377  -0.008846
     3  H    0.000000   0.000000  -0.000002   0.000000  -0.000058  -0.000052
     4  H    0.000000   0.000000   0.000001   0.000000   0.000009   0.000001
     5  C   -0.000099   0.000092   0.017260  -0.000956   0.033482   0.002010
     6  H    0.000000   0.000000   0.000001   0.000000   0.000165  -0.000015
     7  C   -0.000207  -0.002705  -0.085334   0.002570   0.100823  -0.108312
     8  H    0.000000   0.000004  -0.000209   0.000000   0.001834   0.002071
     9  C   -0.000289   0.005493  -0.085797   0.029043   0.161441  -0.024414
    10  H   -0.000006   0.000001   0.002075   0.000105   0.000077  -0.000047
    11  C    0.001179  -0.001260  -0.012353   0.002461  -0.013389  -0.006901
    12  H    0.000002   0.000000   0.000108   0.000025  -0.002752   0.000543
    13  C    0.080154   0.054789  -0.059394   0.125678  -0.379284  -0.026108
    14  C    0.043054   0.062236   0.007469   0.011773   0.128070  -0.002126
    15  C   -0.066293   0.118497  -0.047020  -0.028052   0.755545   0.019207
    16  C   -0.040371  -0.002066   0.301386   0.062397  -0.091127   0.025710
    17  C    0.258524   0.035339  -0.010490  -0.214839  -0.000961  -0.004315
    18  C    0.061931   0.071056  -0.010927   0.017997  -0.586592   0.159090
    19  H    0.522377  -0.000140  -0.017769   0.008259   0.000151   0.000000
    20  H   -0.000140   0.518692   0.000099  -0.000001  -0.006679   0.000082
    21  O   -0.017769   0.000099   8.320364   0.200847  -0.001734  -0.000097
    22  H    0.008259  -0.000001   0.200847   0.367844   0.000035   0.000000
    23  O    0.000151  -0.006679  -0.001734   0.000035   8.355177   0.187075
    24  H    0.000000   0.000082  -0.000097   0.000000   0.187075   0.311303
    25  O    0.000005  -0.000033  -0.001493  -0.000016  -0.002285   0.015950
    26  H    0.000000   0.000000  -0.000064   0.000000   0.003336   0.000440
    27  C   -0.000002  -0.000016   0.000135   0.000018   0.000408  -0.005309
    28  H    0.000000   0.000000   0.000001   0.000000   0.000004   0.000000
    29  H    0.000000   0.000000   0.000014   0.000000   0.000010  -0.000004
    30  H    0.000000   0.000000   0.000006   0.000000  -0.000150   0.000046
    31  O    0.000001   0.000000  -0.002054  -0.000041   0.000698  -0.000205
    32  H    0.000000   0.000000   0.000520   0.000003   0.000018   0.000000
    33  H    0.000000   0.000000  -0.000182   0.000000   0.000023  -0.000004
    34  C   -0.001524   0.000164   0.061583  -0.001425  -0.100608   0.004155
    35  C    0.000947   0.000412  -0.050702   0.001254  -0.012951  -0.008018
    36  H    0.000000   0.000000   0.000342   0.000000  -0.000023   0.000000
    37  H    0.000000   0.000000   0.002331  -0.000069  -0.000060   0.000002
    38  C    0.000066   0.001055   0.001169  -0.000003   0.023124   0.004149
    39  H    0.000000  -0.000016   0.000036   0.000000   0.002113  -0.000011
    40  H    0.000000   0.000000  -0.000016   0.000000  -0.000240   0.000000
    41  H    0.000000   0.000000  -0.000013   0.000000   0.000308   0.000001
    42  C   -0.022220  -0.025735  -0.007274   0.001502  -0.037164   0.003480
    43  H    0.002208   0.000095  -0.000042   0.000003   0.000035   0.000000
    44  H    0.000078   0.001825   0.000037   0.000000   0.000017   0.000000
    45  C    0.007918   0.004759  -0.000170   0.000170   0.000291  -0.000050
    46  H   -0.000028  -0.000025  -0.000001   0.000000   0.000000   0.000000
    47  H    0.000168   0.000007   0.000040   0.000000   0.000007   0.000000
    48  H    0.000010   0.000177   0.000001   0.000000   0.000000   0.000000
             25         26         27         28         29         30
     1  C    0.049461  -0.000317  -2.661905  -0.161785  -0.038971  -0.177599
     2  C   -0.051337   0.010673   0.292684   0.024419   0.015620   0.034760
     3  H    0.003854   0.000199   0.023907   0.000195   0.000045   0.001570
     4  H   -0.001356  -0.000010  -0.037791   0.002020  -0.000027   0.000308
     5  C   -0.113899   0.014978  -0.248020   0.010358  -0.008493   0.000494
     6  H   -0.000111   0.000000  -0.007051  -0.000001   0.000002  -0.000004
     7  C    0.497795  -0.017795   0.521121  -0.011846  -0.010252   0.002552
     8  H    0.004640   0.000000   0.008760   0.000000   0.000001   0.000016
     9  C   -0.360012   0.057684  -0.978178   0.008912   0.016965  -0.010076
    10  H    0.010241  -0.000197   0.025851  -0.000005   0.000006   0.000002
    11  C    0.269008  -0.022424   1.446534   0.040753  -0.013419   0.022068
[...]
    15  C    0.137006   0.002431  -0.038442  -0.002515  -0.003337   0.007973
    16  C   -0.170038   0.000649  -0.130503   0.000466   0.002972  -0.000652
    17  C   -0.039071  -0.000561  -0.013409   0.000025   0.000347  -0.000098
    18  C    0.036745  -0.014871   0.010799  -0.000101  -0.000405   0.000894
    19  H    0.000003   0.000000   0.000003   0.000000   0.000000   0.000000
    20  H   -0.000057   0.000000  -0.000019   0.000000   0.000000   0.000000
    21  O   -0.001876  -0.000055   0.003954   0.000003   0.000009   0.000006
    22  H   -0.000004   0.000000   0.000105   0.000000   0.000000   0.000000
    23  O   -0.014054   0.004613   0.000240   0.000005   0.000015  -0.000129
    24  H    0.024910  -0.000262  -0.004173   0.000000  -0.000003   0.000041
    25  O    8.512275   0.237750  -0.004830  -0.000927  -0.003055   0.006252
    26  H    0.237750   0.308881  -0.004088  -0.000065   0.000284   0.000230
    27  C   -0.004830  -0.004088   7.690605   0.481575   0.475691   0.476795
    28  H   -0.000927  -0.000065   0.481575   0.528911  -0.028303  -0.025331
    29  H   -0.003055   0.000284   0.475691  -0.028303   0.536567  -0.027368
    30  H    0.006252   0.000230   0.476795  -0.025331  -0.027368   0.529633
    31  O    0.015024   0.000030  -0.057404  -0.002094  -0.009931   0.009586
    32  H    0.001333  -0.000003   0.001275  -0.000460   0.003213  -0.000012
    33  H    0.000429   0.000003   0.000342   0.000002   0.000002   0.000001
    34  C   -0.016922  -0.002982  -0.117649   0.000144  -0.000096  -0.000333
    35  C   -0.003482  -0.000079   0.001946  -0.000042  -0.000131  -0.000130
    36  H   -0.000005   0.000000  -0.000065   0.000000   0.000000   0.000000
    37  H   -0.000070   0.000000  -0.000676   0.000000   0.000000   0.000000
    38  C    0.001275  -0.000092   0.005758   0.000013  -0.000001   0.000034
    39  H    0.000014   0.000000  -0.000032   0.000000   0.000000   0.000000
    40  H   -0.000014   0.000000   0.000010   0.000000   0.000000   0.000000
    41  H    0.000059   0.000000   0.000236   0.000000   0.000000   0.000000
    42  C   -0.006504   0.000049  -0.002315   0.000000  -0.000002   0.000001
    43  H    0.000000   0.000000  -0.000001   0.000000   0.000000   0.000000
    44  H    0.000000   0.000000  -0.000001   0.000000   0.000000   0.000000
    45  C   -0.000052  -0.000002  -0.000038   0.000000   0.000000   0.000000
    46  H    0.000000   0.000000   0.000000   0.000000   0.000000   0.000000
    47  H    0.000000   0.000000   0.000000   0.000000   0.000000   0.000000
    48  H    0.000000   0.000000   0.000000   0.000000   0.000000   0.000000
             31         32         33         34         35         36
     1  C    0.109086   0.071976  -0.067948   0.251969   0.297373  -0.000481
     2  C   -0.164636   0.033068  -0.030662  -0.600385  -0.072420  -0.001099
     3  H    0.008115  -0.000213   0.004943  -0.039196  -0.007526   0.000000
     4  H   -0.003009   0.000014  -0.004750  -0.016149  -0.001996   0.000000
     5  C    0.087433  -0.011856   0.511123   0.688672   0.012160   0.013056
     6  H   -0.000891   0.000010  -0.032210   0.044472  -0.027349  -0.000009
     7  C    0.086719   0.025405  -0.155817  -5.777547  -1.166818  -0.058127
     8  H    0.001157  -0.000002   0.005355  -0.159966  -0.019687  -0.000132
     9  C   -0.050836   0.005214   0.070693   0.575525  -0.635282  -0.014890
    10  H    0.011046  -0.000348   0.003553  -0.042541   0.004690   0.000013
    11  C    0.177114  -0.111463   0.007943  -0.945078  -0.102273  -0.001639
    12  H   -0.009411   0.004885  -0.000052   0.001483  -0.004363   0.000000
    13  C   -0.093798  -0.005325   0.005425  -0.295286   0.022565   0.012329
    14  C   -0.004844  -0.000094   0.000160   0.438645   0.075407  -0.000201
    15  C   -0.026170  -0.000528  -0.012450   0.666877   0.740770  -0.002090
    16  C   -0.072253  -0.005193   0.022651   1.124845  -0.902765  -0.001688
    17  C   -0.007429  -0.000616   0.002662   0.365204  -0.542112  -0.005223
    18  C    0.001160   0.000325  -0.000199  -0.144170  -0.156879   0.002640
    19  H    0.000002   0.000000   0.000000  -0.001040   0.000712   0.000000
    20  H    0.000000   0.000000   0.000000   0.000625   0.000312   0.000000
    21  O   -0.002458   0.000299  -0.000082   0.063030  -0.038651   0.000325
    22  H   -0.000054   0.000002   0.000000  -0.000738   0.000835   0.000000
    23  O    0.000673   0.000012   0.000013  -0.094272  -0.022091  -0.000018
    24  H   -0.000239   0.000001  -0.000006   0.000847  -0.006266   0.000000
    25  O    0.015024   0.001333   0.000429  -0.016922  -0.003482  -0.000005
    26  H    0.000030  -0.000003   0.000003  -0.002982  -0.000079   0.000000
    27  C   -0.057404   0.001275   0.000342  -0.117649   0.001946  -0.000065
    28  H   -0.002094  -0.000460   0.000002   0.000144  -0.000042   0.000000
    29  H   -0.009931   0.003213   0.000002  -0.000096  -0.000131   0.000000
    30  H    0.009586  -0.000012   0.000001  -0.000333  -0.000130   0.000000
    31  O    8.366581   0.249565   0.009157  -0.032227  -0.002707  -0.000004
    32  H    0.249565   0.335743  -0.000172  -0.000957  -0.000719   0.000000
    33  H    0.009157  -0.000172   0.558073   0.001106  -0.084051  -0.000042
    34  C   -0.032227  -0.000957   0.001106  11.797343  -0.450634  -0.169407
    35  C   -0.002707  -0.000719  -0.084051  -0.450634   9.950928   0.627247
    36  H   -0.000004   0.000000  -0.000042  -0.169407   0.627247   0.535487
    37  H   -0.000292   0.000006   0.000184  -0.096193   0.536823  -0.034675
    38  C    0.002678   0.000216   0.026980  -1.166517  -1.480309  -0.050726
    39  H   -0.000002   0.000000  -0.000014  -0.262938  -0.065084   0.000147
    40  H    0.000001   0.000000   0.000006  -0.082763   0.021715   0.003315
    41  H    0.000007   0.000000   0.000052  -0.061727   0.000772   0.000135
    42  C   -0.000167   0.000004   0.000007   0.046097  -0.024240  -0.000057
    43  H    0.000000   0.000000   0.000000   0.000013   0.000015   0.000000
    44  H    0.000000   0.000000   0.000000   0.000002  -0.000057   0.000000
    45  C   -0.000001   0.000000   0.000000  -0.001713  -0.002239   0.000011
    46  H    0.000000   0.000000   0.000000  -0.000014  -0.000006   0.000000
    47  H    0.000000   0.000000   0.000000   0.000074  -0.000070   0.000000
    48  H    0.000000   0.000000   0.000000   0.000083   0.000018   0.000000
             37         38         39         40         41         42
     1  C   -0.000440  -0.138545  -0.002327   0.000823   0.002177  -0.005006
     2  C    0.001520  -0.063334  -0.003063  -0.001383   0.010520   0.000322
     3  H   -0.000001   0.005673   0.000000   0.000000   0.000008  -0.000006
     4  H    0.000003  -0.001254   0.000000   0.000000   0.000001   0.000000
     5  C   -0.020224  -0.095271  -0.007838   0.001043   0.008152   0.007754
     6  H    0.000087  -0.005109   0.000010  -0.000062   0.000862   0.000012
     7  C   -0.059458   0.256011   0.108875  -0.065598   0.035248  -0.138451
     8  H   -0.000043   0.057054   0.001470   0.000420  -0.000357   0.000274
     9  C   -0.012680   0.242296  -0.017601  -0.005672   0.000078  -0.284424
    10  H    0.000767   0.002219   0.000009   0.000005  -0.000015  -0.000560
    11  C   -0.009162   0.133589   0.003570  -0.001038   0.003070  -0.095071
    12  H    0.000006   0.000487   0.000000   0.000000   0.000000   0.000317
    13  C    0.000528   0.897177   0.063821   0.003337  -0.028468  -0.656530
    14  C    0.001025  -0.166861  -0.010840   0.000486   0.000543  -1.485146
    15  C   -0.005241  -1.534922  -0.090145   0.003685   0.018036  -0.695249
    16  C    0.016055   0.459007   0.007434   0.000404  -0.005175  -0.082920
    17  C    0.004084   0.195442   0.001941   0.000753  -0.000455   0.372659
    18  C    0.000366   0.240998   0.030069  -0.000325  -0.005839   0.793612
    19  H   -0.000001   0.000092   0.000000   0.000000   0.000000  -0.020845
    20  H    0.000000   0.000943  -0.000012   0.000000   0.000000  -0.015009
    21  O    0.003573   0.000661   0.000053  -0.000016  -0.000021  -0.001548
    22  H   -0.000072   0.000073   0.000000   0.000000   0.000000   0.000484
    23  O   -0.000067   0.036803   0.001833  -0.000132   0.000398  -0.026375
    24  H    0.000002   0.001070  -0.000006   0.000000   0.000001   0.001594
    25  O   -0.000070   0.001275   0.000014  -0.000014   0.000059  -0.006504
    26  H    0.000000  -0.000092   0.000000   0.000000   0.000000   0.000049
    27  C   -0.000676   0.005758  -0.000032   0.000010   0.000236  -0.002315
    28  H    0.000000   0.000013   0.000000   0.000000   0.000000   0.000000
    29  H    0.000000  -0.000001   0.000000   0.000000   0.000000  -0.000002
    30  H    0.000000   0.000034   0.000000   0.000000   0.000000   0.000001
    31  O   -0.000292   0.002678  -0.000002   0.000001   0.000007  -0.000167
    32  H    0.000006   0.000216   0.000000   0.000000   0.000000   0.000004
    33  H    0.000184   0.026980  -0.000014   0.000006   0.000052   0.000007
    34  C   -0.096193  -1.166517  -0.262938  -0.082763  -0.061727   0.046097
    35  C    0.536823  -1.480309  -0.065084   0.021715   0.000772  -0.024240
    36  H   -0.034675  -0.050726   0.000147   0.003315   0.000135  -0.000057
    37  H    0.541940  -0.012695  -0.000187   0.000185  -0.000188   0.000111
    38  C   -0.012695   7.332307   0.587856   0.477957   0.370275   0.016085
    39  H   -0.000187   0.587856   0.538786  -0.027482  -0.028922  -0.000260
    40  H    0.000185   0.477957  -0.027482   0.542522  -0.027173   0.000139
    41  H   -0.000188   0.370275  -0.028922  -0.027173   0.536528  -0.000003
    42  C    0.000111   0.016085  -0.000260   0.000139  -0.000003   7.268875
    43  H    0.000000  -0.000017   0.000000   0.000000   0.000000   0.487561
    44  H    0.000000   0.000040   0.000000   0.000000   0.000000   0.486971
    45  C    0.000004   0.002806   0.000093   0.000008  -0.000006   0.210131
    46  H    0.000000   0.000005   0.000000   0.000000   0.000000  -0.062178
    47  H    0.000000  -0.000019   0.000000   0.000000   0.000000  -0.049273
    48  H    0.000000  -0.000152   0.000000   0.000000   0.000000  -0.054035
             43         44         45         46         47         48
     1  C    0.000004  -0.000004  -0.000312   0.000000  -0.000001   0.000000
     2  C    0.000000   0.000000  -0.000078   0.000000   0.000000  -0.000001
     3  H    0.000000   0.000000   0.000000   0.000000   0.000000   0.000000
     4  H    0.000000   0.000000   0.000000   0.000000   0.000000   0.000000
     5  C   -0.000003  -0.000001  -0.000136   0.000000  -0.000002   0.000000
     6  H    0.000000   0.000000   0.000000   0.000000   0.000000   0.000000
     7  C   -0.000049  -0.000292  -0.002782   0.000006  -0.000155   0.000061
     8  H    0.000000   0.000000   0.000004   0.000000   0.000000   0.000000
     9  C   -0.000554  -0.001276  -0.011791  -0.000098  -0.000340  -0.000222
    10  H    0.000000   0.000000   0.000023   0.000000   0.000000   0.000000
    11  C   -0.000124   0.000084  -0.001407   0.000002   0.000018  -0.000062
    12  H    0.000000   0.000000   0.000012   0.000000   0.000000   0.000000
    13  C   -0.007952  -0.003084  -0.002130   0.000750   0.000407  -0.013508
    14  C   -0.160141  -0.165243   0.028863  -0.020345   0.024985   0.068674
    15  C   -0.012388   0.020759  -0.013344  -0.002965   0.006747  -0.002103
    16  C    0.030191  -0.018828  -0.007354   0.001913  -0.026634   0.011504
    17  C    0.093523  -0.069701   0.011646   0.001724  -0.068753   0.058234
    18  C   -0.089434   0.091549  -0.009226   0.015764   0.050682  -0.129355
    19  H    0.002468   0.000110   0.004561  -0.000033   0.000192   0.000014
    20  H    0.000117   0.002314   0.002964  -0.000034   0.000011   0.000249
    21  O   -0.000012   0.000023  -0.000014  -0.000003   0.000061   0.000000
    22  H    0.000001   0.000000   0.000148   0.000000  -0.000001   0.000000
    23  O    0.000026  -0.000007   0.000179   0.000000   0.000009  -0.000026
    24  H    0.000000   0.000000  -0.000048   0.000000   0.000000   0.000000
    25  O    0.000000   0.000000  -0.000052   0.000000   0.000000   0.000000
    26  H    0.000000   0.000000  -0.000002   0.000000   0.000000   0.000000
    27  C   -0.000001  -0.000001  -0.000038   0.000000   0.000000   0.000000
    28  H    0.000000   0.000000   0.000000   0.000000   0.000000   0.000000
    29  H    0.000000   0.000000   0.000000   0.000000   0.000000   0.000000
    30  H    0.000000   0.000000   0.000000   0.000000   0.000000   0.000000
    31  O    0.000000   0.000000  -0.000001   0.000000   0.000000   0.000000
    32  H    0.000000   0.000000   0.000000   0.000000   0.000000   0.000000
    33  H    0.000000   0.000000   0.000000   0.000000   0.000000   0.000000
    34  C    0.000013   0.000002  -0.001713  -0.000014   0.000074   0.000083
    35  C    0.000015  -0.000057  -0.002239  -0.000006  -0.000070   0.000018
    36  H    0.000000   0.000000   0.000011   0.000000   0.000000   0.000000
    37  H    0.000000   0.000000   0.000004   0.000000   0.000000   0.000000
    38  C   -0.000017   0.000040   0.002806   0.000005  -0.000019  -0.000152
    39  H    0.000000   0.000000   0.000093   0.000000   0.000000   0.000000
    40  H    0.000000   0.000000   0.000008   0.000000   0.000000   0.000000
    41  H    0.000000   0.000000  -0.000006   0.000000   0.000000   0.000000
    42  C    0.487561   0.486971   0.210131  -0.062178  -0.049273  -0.054035
    43  H    0.567341  -0.033829  -0.024144  -0.003365  -0.005027   0.004898
    44  H   -0.033829   0.565331  -0.022718  -0.003295   0.004854  -0.005093
    45  C   -0.024144  -0.022718   5.183055   0.424711   0.418226   0.416704
    46  H   -0.003365  -0.003295   0.424711   0.549401  -0.027100  -0.027075
    47  H   -0.005027   0.004854   0.418226  -0.027100   0.541903  -0.028558
    48  H    0.004898  -0.005093   0.416704  -0.027075  -0.028558   0.542064
 Mulliken atomic charges:
              1
     1  C    0.344262
     2  C   -0.288844
     3  H    0.166861
     4  H    0.155770
     5  C   -0.649764
     6  H    0.151152
     7  C    0.198166
     8  H    0.145072
     9  C   -0.330766
    10  H    0.169527
    11  C   -0.250884
    12  H    0.155137
    13  C    0.225189
    14  C   -0.028571
    15  C   -1.261765
    16  C    0.642259
    17  C   -0.177191
    18  C    0.385059
    19  H    0.148004
    20  H    0.146313
    21  O   -0.586686
    22  H    0.445251
    23  O   -0.628193
    24  H    0.472987
    25  O   -0.680781
    26  H    0.447705
    27  C   -0.350553
    28  H    0.167501
    29  H    0.163459
    30  H    0.168881
    31  O   -0.594280
    32  H    0.405394
    33  H    0.157590
    34  C    0.512387
    35  C   -0.473829
    36  H    0.145871
    37  H    0.145095
    38  C   -0.638057
    39  H    0.170771
    40  H    0.154847
    41  H    0.171193
    42  C    0.013114
    43  H    0.150882
    44  H    0.151392
    45  C   -0.604612
    46  H    0.152236
    47  H    0.157762
    48  H    0.157687
 Sum of Mulliken atomic charges =   0.00000
 Mulliken charges with hydrogens summed into heavy atoms:
              1
     1  C    0.344262
     2  C    0.033788
     5  C   -0.341022
     7  C    0.343237
     9  C   -0.161240
    11  C   -0.095747
    13  C    0.225189
    14  C   -0.028571
    15  C   -1.261765
    16  C    0.642259
    17  C   -0.029187
    18  C    0.531372
    21  O   -0.141435
    23  O   -0.155206
    25  O   -0.233076
    27  C    0.149288
    31  O   -0.188885
    34  C    0.512387
    35  C   -0.182863
    38  C   -0.141246
    42  C    0.315388
    45  C   -0.136928
 Sum of Mulliken charges with hydrogens summed into heavy atoms =   0.00000
 Electronic spatial extent (au):  <R**2>=           7137.4171
 Charge=              0.0000 electrons
 Dipole moment (field-independent basis, Debye):
    X=             -0.4997    Y=             -4.4827    Z=              1.4462  Tot=              4.7366
 Quadrupole moment (field-independent basis, Debye-Ang):
   XX=           -124.1463   YY=           -125.2650   ZZ=           -134.0048
   XY=              7.3798   XZ=             16.4038   YZ=             -3.3148
 Traceless Quadrupole moment (field-independent basis, Debye-Ang):
   XX=              3.6591   YY=              2.5404   ZZ=             -6.1994
   XY=              7.3798   XZ=             16.4038   YZ=             -3.3148
 Octapole moment (field-independent basis, Debye-Ang**2):
  XXX=             41.7056  YYY=            -41.5424  ZZZ=             47.7869  XYY=            -36.9584
  XXY=            -43.3193  XXZ=            -14.4802  XZZ=             16.9798  YZZ=            -24.4750
  YYZ=             -8.7442  XYZ=             -3.2526
 Hexadecapole moment (field-independent basis, Debye-Ang**3):
 XXXX=          -6332.6719 YYYY=          -1954.6565 ZZZZ=          -1157.8982 XXXY=            -24.6802
 XXXZ=            129.8537 YYYX=            139.2616 YYYZ=             -8.5484 ZZZX=            121.0423
 ZZZY=            -28.5948 XXYY=          -1367.5301 XXZZ=          -1245.9306 YYZZ=           -505.8846
 XXYZ=            -24.5933 YYXZ=             25.7477 ZZXY=             18.6915
 N-N= 1.982255526487D+03 E-N=-6.297749118719D+03  KE= 9.931689022219D+02

 Test job not archived.
 1\1\GINC-COMPUTE-10-9\SP\RB3LYP\6-31+G(d,p)\C18H26O4\LPASSAGLIA.IQUIR\
 23-Dec-2022\0\\# B3LYP/6-31+G** geom=allcheck test scrf=(pcm,solvent=w
 ater,smd,dovacuum)\\comment\\0,1\C,0,-1.800038215,0.912871329,-2.77120
 1126\C,0,-2.352165226,2.112565994,-1.982826352\H,0,-1.678519302,2.9732
 51178,-2.079452226\H,0,-3.323015739,2.415386735,-2.395238267\C,0,-2.54
 842395,1.797993036,-0.497487168\H,0,-2.88249002,2.709633844,0.01436513
 8\C,0,-1.26388714,1.261987935,0.170147076\H,0,-0.527215043,2.073378733
 ,0.119338565\C,0,-0.707421751,0.042501348,-0.629984117\H,0,-1.50977331
 3,-0.705820349,-0.62589868\C,0,-0.483170709,0.401229021,-2.123609608\H
 ,0,-0.13678793,-0.498754012,-2.648848574\C,0,0.535432649,-0.613151288,
 -0.018756216\C,0,2.743796651,-1.885808664,1.254912674\C,0,1.711281123,
 0.087525807,0.291854938\C,0,0.519879724,-1.984687138,0.291950465\C,0,1
 .59900131,-2.61515488,0.921898901\C,0,2.788123871,-0.526702455,0.93519
 5697\H,0,1.556569907,-3.674372138,1.159288273\H,0,3.667610881,0.067213
 881,1.173050246\O,0,-0.580050548,-2.733568303,-0.036530381\H,0,-0.4910
 24944,-3.609976976,0.37226322\O,0,1.900145774,1.403308996,-0.029892139
 \H,0,1.36373562,1.581396835,-0.832638951\O,0,0.546386889,1.398650754,-
 2.245704695\H,0,0.863260893,1.367983281,-3.168222642\C,0,-1.59523804,1
 .310491911,-4.237221689\H,0,-2.551878746,1.569554055,-4.705715831\H,0,
 -1.186716042,0.471635257,-4.812062375\H,0,-0.920704143,2.165558823,-4.
 344779246\O,0,-2.793273782,-0.119946866,-2.753534743\H,0,-2.431981643,
 -0.905155522,-3.200290531\H,0,-3.362440204,1.068890898,-0.391863822\C,
 0,-1.53840024,0.992724,1.650980459\C,0,-2.222709327,-0.073804185,2.099
 56575\H,0,-2.393146033,-0.234117417,3.159488845\H,0,-2.630136134,-0.81
 779047,1.422288666\C,0,-0.98457664,2.013339477,2.608133932\H,0,0.10584
 3248,2.061453284,2.523756093\H,0,-1.227339859,1.777503311,3.64962174\H
 ,0,-1.396368503,3.003270681,2.386626226\C,0,3.899960636,-2.543493855,1
 .961467394\H,0,3.978459759,-3.59077659,1.645124175\H,0,4.839197957,-2.
 064671401,1.658757158\C,0,3.751341854,-2.473122338,3.473576194\H,0,4.6
 03517767,-2.957649983,3.96052791\H,0,2.838084411,-2.977608734,3.806986
 915\H,0,3.707262241,-1.435166837,3.82059273\\Version=EM64L-G09RevC.01\
 State=1-A\HF=-1002.5573441\RMSD=7.609e-09\Dipole=0.3421029,-1.0385059,
 -1.5090318\Quadrupole=-14.2362972,6.3664061,7.8698911,-4.477794,-0.729
 4153,-5.279136\PG=C01 [X(C18H26O4)]\\@


 QED = W**5 (WHICH WAS WHAT WE WANTED)
 Job cpu time:  0 days  5 hours 29 minutes 55.5 seconds.
 File lengths (MBytes):  RWF=    242 Int=      0 D2E=      0 Chk=     19 Scr=      1
 Normal termination of Gaussian 09 at Fri Dec 23 18:21:37 2022.
