 Entering Gaussian System, Link 0=g09
 Input=/home/lpassaglia.iquir/Link1/01_RRSS_THC_002.gjc
 Output=/home/lpassaglia.iquir/Link1/01_RRSS_THC_002.log
 Initial command:
 /share/apps/Gaussian09/EM64T.SSE4.2-enabled/g09/l1.exe /tmp/Gau-12857.inp -scrdir=/tmp/
 Entering Link 1 = /share/apps/Gaussian09/EM64T.SSE4.2-enabled/g09/l1.exe PID=     12859.
  
 Copyright (c) 1988,1990,1992,1993,1995,1998,2003,2009,2011,
            Gaussian, Inc.  All Rights Reserved.
  
 This is part of the Gaussian(R) 09 program.  It is based on
 the Gaussian(R) 03 system (copyright 2003, Gaussian, Inc.),
 the Gaussian(R) 98 system (copyright 1998, Gaussian, Inc.),
 the Gaussian(R) 94 system (copyright 1995, Gaussian, Inc.),
 the Gaussian 92(TM) system (copyright 1992, Gaussian, Inc.),
 the Gaussian 90(TM) system (copyright 1990, Gaussian, Inc.),
 the Gaussian 88(TM) system (copyright 1988, Gaussian, Inc.),
 the Gaussian 86(TM) system (copyright 1986, Carnegie Mellon
 University), and the Gaussian 82(TM) system (copyright 1983,
 Carnegie Mellon University). Gaussian is a federally registered
 trademark of Gaussian, Inc.
  
 This software contains proprietary and confidential information,
 including trade secrets, belonging to Gaussian, Inc.
  
 This software is provided under written license and may be
 used, copied, transmitted, or stored only in accord with that
 written license.
  
 The following legend is applicable only to US Government
 contracts under FAR:
  
                    RESTRICTED RIGHTS LEGEND
  
 Use, reproduction and disclosure by the US Government is
 subject to restrictions as set forth in subparagraphs (a)
 and (c) of the Commercial Computer Software - Restricted
 Rights clause in FAR 52.227-19.
  
 Gaussian, Inc.
 340 Quinnipiac St., Bldg. 40, Wallingford CT 06492
  
  
 ---------------------------------------------------------------
 Warning -- This program may not be used in any manner that
 competes with the business of Gaussian, Inc. or will provide
 assistance to any competitor of Gaussian, Inc.  The licensee
 of this program is prohibited from giving any competitor of
 Gaussian, Inc. access to this program.  By using this program,
 the user acknowledges that Gaussian, Inc. is engaged in the
 business of creating and licensing software in the field of
 computational chemistry and represents and warrants to the
 licensee that it is not a competitor of Gaussian, Inc. and that
 it will not use this program in any manner prohibited above.
 ---------------------------------------------------------------
  

 Cite this work as:
 Gaussian 09, Revision C.01,
 M. J. Frisch, G. W. Trucks, H. B. Schlegel, G. E. Scuseria, 
 M. A. Robb, J. R. Cheeseman, G. Scalmani, V. Barone, B. Mennucci, 
 G. A. Petersson, H. Nakatsuji, M. Caricato, X. Li, H. P. Hratchian, 
 A. F. Izmaylov, J. Bloino, G. Zheng, J. L. Sonnenberg, M. Hada, 
 M. Ehara, K. Toyota, R. Fukuda, J. Hasegawa, M. Ishida, T. Nakajima, 
 Y. Honda, O. Kitao, H. Nakai, T. Vreven, J. A. Montgomery, Jr., 
 J. E. Peralta, F. Ogliaro, M. Bearpark, J. J. Heyd, E. Brothers, 
 K. N. Kudin, V. N. Staroverov, T. Keith, R. Kobayashi, J. Normand, 
 K. Raghavachari, A. Rendell, J. C. Burant, S. S. Iyengar, J. Tomasi, 
 M. Cossi, N. Rega, J. M. Millam, M. Klene, J. E. Knox, J. B. Cross, 
 V. Bakken, C. Adamo, J. Jaramillo, R. Gomperts, R. E. Stratmann, 
 O. Yazyev, A. J. Austin, R. Cammi, C. Pomelli, J. W. Ochterski, 
 R. L. Martin, K. Morokuma, V. G. Zakrzewski, G. A. Voth, 
 P. Salvador, J. J. Dannenberg, S. Dapprich, A. D. Daniels, 
 O. Farkas, J. B. Foresman, J. V. Ortiz, J. Cioslowski, 
 and D. J. Fox, Gaussian, Inc., Wallingford CT, 2010.
 
 ******************************************
 Gaussian 09:  EM64L-G09RevC.01 23-Sep-2011
                23-Dec-2022 
 ******************************************
 %chk=01_RRSS_THC_002_optB_NMR
 %nprocshared=4
 Will use up to    4 processors via shared memory.
 ------------------------------------------------
 # mPW1PW91/6-31+G** scrf=(PCM,solvent=water) nmr
 ------------------------------------------------
 1/38=1/1;
 2/12=2,17=6,18=5,40=1/2;
 3/5=1,6=6,7=111,11=2,16=1,25=1,30=1,70=2201,72=1,74=-7/1,2,8,3;
 4//1;
 5/5=2,38=5,53=1/2;
 8/6=1,10=90,11=11/1;
 10/13=100,45=16/2;
 6/7=2,8=2,9=2,10=2,28=1/1;
 99/9=1/99;
 -------
 comment
 -------
 Charge =  0 Multiplicity = 1
 Symbolic Z-Matrix:
 6                    -1.77663   0.79985  -2.66341 
 6                    -2.50638   1.92606  -1.91073 
 1                    -1.9217    2.8535   -1.95329 
 1                    -3.47193   2.13282  -2.38934 
 6                    -2.77156   1.56682  -0.44758 
 1                    -3.25375   2.42016   0.04591 
 6                    -1.4789    1.18766   0.30577 
 1                    -0.84908   2.0866    0.28441 
 6                    -0.72913   0.04398  -0.44661 
 1                    -1.43485  -0.79563  -0.481 
 6                    -0.45973   0.42055  -1.93112 
 1                     0.00682  -0.44129  -2.42689 
 6                     0.54394  -0.45032   0.25192 
 6                     2.80846  -1.43155   1.67934 
 6                     1.61036   0.38921   0.61258 
 6                     0.67312  -1.80903   0.5917 
 6                     1.78265  -2.29771   1.29152 
 6                     2.71467  -0.08369   1.32562 
 1                     1.85519  -3.35217   1.54221 
 1                     3.50755   0.61203   1.59012 
 8                    -0.31199  -2.68744   0.22457 
 1                    -0.09643  -3.56673   0.57414 
 8                     1.66204   1.7144    0.27689 
 1                     1.14863   1.81716  -0.55348 
 8                     0.46542   1.52181  -2.00475 
 1                     0.8968    1.45803  -2.87843 
 6                    -1.51043   1.22975  -4.11093 
 1                    -2.45191   1.40364  -4.6449 
 1                    -0.98649   0.43803  -4.65835 
 1                    -0.91433   2.14579  -4.16838 
 8                    -2.62406  -0.35365  -2.71812 
 1                    -3.47217  -0.0892   -3.11506 
 1                    -3.49204   0.74038  -0.41605 
 6                    -1.78862   0.87436   1.77216 
 6                    -1.2387    1.60023   2.76161 
 1                    -1.43786   1.38554   3.80665 
 1                    -0.55378   2.41735   2.55288 
 6                    -2.71005  -0.2733    2.08734 
 1                    -3.71941  -0.07518   1.71529 
 1                    -2.79134  -0.44489   3.16646 
 1                    -2.3488   -1.20339   1.64113 
 6                     4.01047  -1.94434   2.42789 
 1                     4.39233  -1.16126   3.09428 
 1                     3.71273  -2.77616   3.07787 
 6                     5.11347  -2.39887   1.4843 
 1                     5.97237  -2.7657    2.0551 
 1                     5.45565  -1.57608   0.84743 
 1                     4.76938  -3.20813   0.83131 
 
                          Input orientation:                          
 ---------------------------------------------------------------------
 Center     Atomic      Atomic             Coordinates (Angstroms)
 Number     Number       Type             X           Y           Z
 ---------------------------------------------------------------------
      1          6           0       -1.776631    0.799845   -2.663411
      2          6           0       -2.506379    1.926063   -1.910732
      3          1           0       -1.921705    2.853501   -1.953286
      4          1           0       -3.471929    2.132818   -2.389342
      5          6           0       -2.771559    1.566819   -0.447581
      6          1           0       -3.253749    2.420161    0.045910
      7          6           0       -1.478900    1.187656    0.305765
      8          1           0       -0.849083    2.086600    0.284412
      9          6           0       -0.729129    0.043981   -0.446605
     10          1           0       -1.434851   -0.795627   -0.481002
     11          6           0       -0.459731    0.420552   -1.931121
     12          1           0        0.006819   -0.441287   -2.426893
     13          6           0        0.543940   -0.450317    0.251921
     14          6           0        2.808460   -1.431551    1.679340
     15          6           0        1.610361    0.389212    0.612581
     16          6           0        0.673121   -1.809026    0.591696
     17          6           0        1.782647   -2.297707    1.291523
     18          6           0        2.714673   -0.083688    1.325621
     19          1           0        1.855186   -3.352166    1.542212
     20          1           0        3.507554    0.612026    1.590120
     21          8           0       -0.311985   -2.687443    0.224573
     22          1           0       -0.096429   -3.566729    0.574141
     23          8           0        1.662042    1.714402    0.276892
     24          1           0        1.148626    1.817159   -0.553478
     25          8           0        0.465424    1.521807   -2.004749
     26          1           0        0.896797    1.458028   -2.878427
     27          6           0       -1.510432    1.229747   -4.110930
     28          1           0       -2.451910    1.403645   -4.644898
     29          1           0       -0.986486    0.438029   -4.658346
     30          1           0       -0.914325    2.145791   -4.168384
     31          8           0       -2.624057   -0.353649   -2.718120
     32          1           0       -3.472172   -0.089202   -3.115055
     33          1           0       -3.492043    0.740383   -0.416053
     34          6           0       -1.788615    0.874362    1.772162
     35          6           0       -1.238702    1.600230    2.761614
     36          1           0       -1.437864    1.385540    3.806650
     37          1           0       -0.553776    2.417352    2.552875
     38          6           0       -2.710054   -0.273304    2.087342
     39          1           0       -3.719410   -0.075184    1.715292
     40          1           0       -2.791339   -0.444892    3.166462
     41          1           0       -2.348795   -1.203387    1.641127
     42          6           0        4.010473   -1.944340    2.427888
     43          1           0        4.392326   -1.161260    3.094278
     44          1           0        3.712725   -2.776163    3.077875
     45          6           0        5.113465   -2.398874    1.484300
     46          1           0        5.972374   -2.765703    2.055101
     47          1           0        5.455652   -1.576080    0.847426
     48          1           0        4.769377   -3.208130    0.831311
 ---------------------------------------------------------------------
                    Distance matrix (angstroms):
                    1          2          3          4          5
     1  C    0.000000
     2  C    1.538644   0.000000
     3  H    2.177803   1.097176   0.000000
     4  H    2.173929   1.097316   1.764291   0.000000
     5  C    2.547162   1.529767   2.155214   2.140399   0.000000
     6  H    3.485358   2.152009   2.441087   2.461833   1.097375
     7  C    3.009161   2.552219   2.841554   3.482686   1.543458
     8  H    3.347498   2.755188   2.597296   3.745720   2.121768
     9  C    2.565700   2.973973   3.403780   3.957324   2.547657
    10  H    2.724932   3.255749   3.964944   4.045645   2.714601
    11  C    1.553813   2.540816   2.838503   3.495019   2.976469
    12  H    2.185644   3.490979   3.846964   4.327715   3.958479
    13  C    3.930282   4.430429   4.675206   5.456745   3.943435
    14  C    6.697885   7.239455   7.343847   8.288678   6.682113
    15  C    4.729952   5.067205   5.013170   6.154784   4.659606
    16  C    4.837687   5.506565   5.911785   6.450284   4.933786
    17  C    6.156686   6.818388   7.126426   7.796723   6.220919
    18  C    6.071640   6.463162   6.393302   7.549033   5.997263
    19  H    6.936610   7.668493   8.061868   8.597693   7.040061
    20  H    6.786046   7.081671   6.859795   8.176926   6.670167
    21  O    4.758867   5.537087   6.167360   6.328722   4.959843
    22  H    5.689621   6.492551   7.137147   7.256795   5.878227
    23  O    4.615871   4.712349   4.372011   5.800132   4.494826
    24  H    3.747515   3.900392   3.529929   4.981924   3.929597
    25  O    2.445787   3.000646   2.733942   4.002998   3.592333
    26  H    2.761639   3.568907   3.278289   4.447506   4.402009
    27  C    1.533293   2.513491   2.731510   2.761680   3.888983
    28  H    2.178730   2.784160   3.102898   2.580633   4.212632
    29  H    2.176007   3.474724   3.745195   3.768039   4.710753
    30  H    2.195469   2.771265   2.534231   3.115525   4.198678
    31  O    1.432366   2.421324   3.371065   2.647546   2.977466
    32  H    1.967041   2.538591   3.523231   2.337527   3.216937
    33  H    2.827860   2.147426   3.048657   2.415192   1.096853
    34  C    4.436215   3.896789   4.220623   4.662121   2.524467
    35  C    5.510071   4.852215   4.926202   5.639442   3.556642
    36  H    6.505343   5.841434   5.963712   6.564005   4.462072
    37  H    5.596548   4.896715   4.729370   5.746485   3.826840
    38  C    4.959091   4.567636   5.169630   5.139123   3.132998
    39  H    4.869611   4.315609   5.026669   4.667391   2.876215
    40  H    6.047018   5.610752   6.152030   6.162366   4.136264
    41  H    4.782192   4.736454   5.436961   5.351297   3.495064
    42  C    8.181837   8.733442   8.797994   9.788528   8.160424
    43  H    8.663310   9.064977   9.025695  10.137432   8.444432
    44  H    8.711097   9.256046   9.420854  10.276566   8.563660
    45  C    8.654983   9.396455   9.428577  10.452289   9.035071
    46  H    9.748054  10.470423  10.486138  11.530111  10.074251
    47  H    8.383132   9.125041   9.049340  10.194817   8.901790
    48  H    8.433692   9.317477   9.448170  10.335253   9.016730
                    6          7          8          9         10
     6  H    0.000000
     7  C    2.176392   0.000000
     8  H    2.439378   1.097828   0.000000
     9  C    3.501786   1.560836   2.172802   0.000000
    10  H    3.731933   2.134094   3.039115   1.097346   0.000000
    11  C    3.964041   2.575037   2.799267   1.555046   2.129036
    12  H    4.993390   3.511159   3.804466   2.167636   2.447542
    13  C    4.764927   2.603409   2.894394   1.533941   2.138231
    14  C    7.365742   5.208494   5.263158   4.383078   4.803870
    15  C    5.301456   3.205492   3.006275   2.591191   3.445734
    16  C    5.796914   3.700412   4.193737   2.545194   2.573170
    17  C    7.012497   4.874131   5.211758   3.848845   3.968675
    18  C    6.597649   4.499164   4.300538   3.875159   4.581408
    19  H    7.852382   5.766707   6.202847   4.708280   4.631807
    20  H    7.167228   5.181278   4.781165   4.735020   5.540614
    21  O    5.896907   4.047799   4.804534   2.843443   2.310331
    22  H    6.789002   4.958571   5.710566   3.805188   3.253261
    23  O    4.971564   3.184935   2.538570   3.005237   4.057757
    24  H    4.483724   2.835219   2.183002   2.584868   3.675086
    25  O    4.341024   3.038179   2.699477   2.457385   3.362046
    26  H    5.167637   3.981974   3.666981   3.249141   4.032764
    27  C    4.662141   4.417008   4.526655   3.929854   4.157431
    28  H    4.866203   5.049996   5.228152   4.737332   4.817596
    29  H    5.585638   5.044484   5.212248   4.237956   4.378715
    30  H    4.827883   4.610291   4.453667   4.278263   4.745490
    31  O    3.966157   3.582023   4.256824   2.984735   2.571819
    32  H    4.041821   4.159990   4.813636   3.829184   3.404108
    33  H    1.758365   2.184906   3.047653   2.849491   2.568187
    34  C    2.741543   1.531141   2.136736   2.595182   2.826793
    35  C    3.479620   2.501821   2.554387   3.601978   4.036480
    36  H    4.302446   3.506713   3.639273   4.515779   4.810557
    37  H    3.684391   2.723511   2.311391   3.828906   4.505990
    38  C    3.423128   2.612309   3.504700   3.231969   2.914680
    39  H    3.038161   2.932816   3.867752   3.691853   3.249916
    40  H    4.261478   3.545602   4.299654   4.188790   3.907310
    41  H    4.061251   2.873499   3.861843   2.921964   2.346273
    42  C    8.802932   6.666785   6.667703   5.888970   6.279549
    43  H    8.976724   6.911186   6.776157   6.341905   6.846335
    44  H    9.204692   7.095732   7.229107   6.332870   6.563967
    45  C    9.762292   7.596804   7.557195   6.620563   7.022340
    46  H   10.772715   8.614564   8.556429   7.685246   8.073413
    47  H    9.615926   7.484627   7.313132   6.523084   7.060656
    48  H    9.831839   7.657682   7.739532   6.514819   6.784894
                   11         12         13         14         15
    11  C    0.000000
    12  H    1.098283   0.000000
    13  C    2.555669   2.732147   0.000000
    14  C    5.210258   5.068626   2.851034   0.000000
    15  C    3.279738   3.535460   1.404327   2.426643   0.000000
    16  C    3.552320   3.380318   1.406494   2.425928   2.389792
    17  C    4.775209   4.519566   2.455202   1.397469   2.776720
    18  C    4.575748   4.641306   2.449353   1.396656   1.396985
    19  H    5.626392   5.257706   3.435833   2.148557   3.862909
    20  H    5.308028   5.431484   3.420871   2.161690   2.145827
    21  O    3.785298   3.489574   2.395432   3.664804   3.648530
    22  H    4.723000   4.334196   3.197800   3.770786   4.308605
    23  O    3.324348   3.833695   2.436551   3.630173   1.368023
    24  H    2.536774   3.148648   2.481080   4.277224   1.900506
    25  O    1.440172   2.059676   2.997999   5.271115   3.073120
    26  H    1.952924   2.145540   3.683119   5.725152   3.720037
    27  C    2.551536   2.816094   5.106616   7.698218   5.723408
    28  H    3.507112   3.790602   6.032506   8.700908   6.721026
    29  H    2.777685   2.596004   5.219396   7.619922   5.876110
    30  H    2.861547   3.251810   5.329673   7.800793   5.684824
    31  O    2.429621   2.648396   4.343581   7.071899   5.438354
    32  H    3.276637   3.563834   5.253199   8.014641   6.321099
    33  H    3.404796   4.204980   4.260647   6.986007   5.216888
    34  C    3.960578   4.752534   3.083297   5.143826   3.623953
    35  C    4.901041   5.713119   3.698799   5.171318   3.768563
    36  H    5.899996   6.654432   4.464752   5.522021   4.526193
    37  H    4.909407   5.769244   3.837042   5.184761   3.544232
    38  C    4.657621   5.271427   3.740132   5.653494   4.613007
    39  H    4.916054   5.583593   4.523089   6.667391   5.462425
    40  H    5.671926   6.254225   4.429297   5.877310   5.156840
    41  H    4.355077   4.762195   3.296199   5.162441   4.389669
    42  C    6.676556   6.469723   4.357039   1.506026   3.808063
    43  H    7.162347   7.087620   4.836786   2.140967   4.037587
    44  H    7.260745   7.034760   4.841154   2.140461   4.529592
    45  C    7.118622   6.723646   5.118222   2.507350   4.561256
    46  H    8.210613   7.815308   6.170929   3.454202   5.573286
    47  H    6.833639   6.457453   5.074138   2.778596   4.324787
    48  H    6.938439   6.399475   5.078931   2.778593   4.792504
                   16         17         18         19         20
    16  C    0.000000
    17  C    1.399862   0.000000
    18  C    2.771890   2.402439   0.000000
    19  H    2.163802   1.086274   3.386529   0.000000
    20  H    3.859062   3.395734   1.087492   4.295048   0.000000
    21  O    1.369974   2.382805   4.141559   2.621957   5.228776
    22  H    1.918862   2.378230   4.538567   2.189064   5.610962
    23  O    3.673093   4.140173   2.332593   5.225749   2.519070
    24  H    3.832329   4.553914   3.097860   5.622550   3.407624
    25  O    4.228370   5.214324   4.327598   6.186113   4.796389
    26  H    4.771313   5.681440   4.832762   6.602918   5.244015
    27  C    6.009720   7.243880   7.009473   8.017439   7.619956
    28  H    6.892676   8.177565   8.034478   8.913425   8.661254
    29  H    5.946974   7.110084   7.055398   7.803051   7.698702
    30  H    6.388969   7.538495   6.951568   8.396942   7.420635
    31  O    4.893300   6.267028   6.702743   6.870601   7.555800
    32  H    5.820761   7.204759   7.615556   7.792164   8.446714
    33  H    4.986344   6.322037   6.498910   7.012604   7.282552
    34  C    3.828082   4.800723   4.625674   5.585133   5.305787
    35  C    4.470642   5.146224   4.530654   5.965342   4.987574
    36  H    4.999743   5.501259   5.055461   6.198202   5.474348
    37  H    4.818067   5.411253   4.294660   6.333394   4.547582
    38  C    4.005156   4.991582   5.481226   5.533351   6.299976
    39  H    4.854174   5.949102   6.445877   6.468747   7.260643
    40  H    4.526893   5.279173   5.816815   5.716697   6.578601
    41  H    3.255777   4.288190   5.195381   4.722340   6.131489
    42  C    3.811540   2.525748   2.521134   2.722436   2.736748
    43  H    4.529349   3.369252   2.665300   3.694057   2.487941
    44  H    4.044210   2.673046   3.363914   2.478001   3.706121
    45  C    4.567420   3.337926   3.337585   3.395365   3.414040
    46  H    5.580222   4.284377   4.282285   4.190255   4.207208
    47  H    4.795025   3.769474   3.157352   4.074379   3.022331
    48  H    4.335231   3.156141   3.772040   3.003105   4.094090
                   21         22         23         24         25
    21  O    0.000000
    22  H    0.970467   0.000000
    23  O    4.824496   5.574129   0.000000
    24  H    4.798978   5.639852   0.981667   0.000000
    25  O    4.826182   5.732325   2.583578   1.631007   0.000000
    26  H    5.317396   6.176965   3.256895   2.365963   0.976455
    27  C    5.964666   6.852407   5.436217   4.480078   2.902637
    28  H    6.710293   7.582300   6.422241   5.465763   3.936392
    29  H    5.836646   6.649001   5.744598   4.828110   3.213129
    30  H    6.559043   7.469496   5.155991   4.175082   2.640905
    31  O    4.410410   5.248978   5.622951   4.861195   3.683901
    32  H    5.281170   6.090895   6.412367   5.616731   4.396907
    33  H    4.719445   5.573319   5.290886   4.765935   4.335449
    34  C    4.154747   4.901228   3.853379   3.863269   4.445777
    35  C    5.067496   5.726018   3.821151   4.090994   5.062451
    36  H    5.539681   6.064118   4.709220   5.087921   6.116652
    37  H    5.615905   6.319318   3.253319   3.592747   4.755282
    38  C    3.879267   4.468497   5.132634   5.121853   5.481906
    39  H    4.544962   5.159371   5.850780   5.694387   5.822535
    40  H    4.453194   4.871194   5.731036   5.871810   6.419956
    41  H    2.890959   3.434676   5.144069   5.115852   5.351535
    42  C    4.908202   4.789068   4.850598   5.588165   6.650551
    43  H    5.717952   5.682102   4.864313   5.718277   6.972767
    44  H    4.934318   4.626373   5.675911   6.392177   7.406117
    45  C    5.577248   5.416205   5.503562   6.135750   7.010670
    46  H    6.546001   6.298036   6.466245   7.146737   8.074133
    47  H    5.906667   5.904487   5.054132   5.659247   6.529486
    48  H    5.143879   4.885775   5.847583   6.346732   6.995681
                   26         27         28         29         30
    26  H    0.000000
    27  C    2.714023   0.000000
    28  H    3.786451   1.096241   0.000000
    29  H    2.784828   1.095902   1.755010   0.000000
    30  H    2.327481   1.094431   1.772572   1.778123   0.000000
    31  O    3.962862   2.384790   2.613463   2.659486   3.357625
    32  H    4.640884   2.565116   2.368532   2.972937   3.556301
    33  H    5.083327   4.221182   4.405102   4.936222   4.764429
    34  C    5.401859   5.900377   6.472924   6.495016   6.137670
    35  C    6.032466   6.887885   7.507792   7.514662   6.959004
    36  H    7.081394   7.919445   8.512184   8.529811   8.028277
    37  H    5.702938   6.836073   7.512553   7.490439   6.736398
    38  C    6.376970   6.489749   6.942755   6.998642   6.943398
    39  H    6.690467   6.366105   6.651729   6.953814   6.886136
    40  H    7.332403   7.576647   8.034279   8.078655   8.002174
    41  H    6.167930   6.301520   6.805979   6.650827   6.857486
    42  C    7.030510   9.127506  10.148680   8.992219   9.192041
    43  H    7.399500   9.616365  10.645052   9.570398   9.583495
    44  H    7.831689   9.747184  10.729153   9.605349   9.906739
    45  C    7.189532   9.399442  10.452804   9.109859   9.430858
    46  H    8.242638  10.486941  11.543050  10.186266  10.501484
    47  H    6.623515   8.999127  10.078388   8.710414   8.921170
    48  H    7.108591   9.140924  10.168791   8.749902   9.271779
                   31         32         33         34         35
    31  O    0.000000
    32  H    0.973031   0.000000
    33  H    2.692549   2.823689   0.000000
    34  C    4.729546   5.258109   2.776310   0.000000
    35  C    5.980330   6.509825   3.989292   1.344732   0.000000
    36  H    6.855980   7.363645   4.739946   2.126845   1.085291
    37  H    6.304594   6.850204   4.501130   2.124891   1.086456
    38  C    4.806904   5.261146   2.811771   1.505167   2.475813
    39  H    4.575204   4.836691   2.293355   2.152403   3.171074
    40  H    5.887667   6.328310   3.838004   2.165632   2.599444
    41  H    4.449816   5.012450   3.052416   2.155925   3.216841
    42  C    8.545682   9.495038   8.460702   6.481087   6.342648
    43  H    9.146903  10.077473   8.837529   6.640465   6.280522
    44  H    8.922832   9.858747   8.745416   6.730228   6.615849
    45  C    9.039498  10.010086   9.355268   7.644322   7.614091
    46  H   10.124242  11.094757  10.391074   8.576893   8.459323
    47  H    8.915669   9.880188   9.328645   7.703194   7.652936
    48  H    8.683858   9.655292   9.241089   7.781979   7.933688
                   36         37         38         39         40
    36  H    0.000000
    37  H    1.848837   0.000000
    38  C    2.706705   3.479352   0.000000
    39  H    3.422417   4.115279   1.093833   0.000000
    40  H    2.364787   3.684512   1.095696   1.761787   0.000000
    41  H    3.495973   4.142841   1.093009   1.776774   1.760058
    42  C    6.532493   6.314456   6.933529   7.984524   7.004177
    43  H    6.401935   6.128907   7.228152   8.299483   7.219656
    44  H    6.661790   6.741754   6.964018   8.024247   6.909814
    45  C    7.914228   7.513688   8.129524   9.136333   8.314665
    46  H    8.672507   8.348801   9.033142  10.064047   9.133672
    47  H    8.065280   7.414127   8.361422   9.337432   8.641202
    48  H    8.275523   7.933838   8.132202   9.091550   8.381697
                   41         42         43         44         45
    41  H    0.000000
    42  C    6.450450   0.000000
    43  H    6.896095   1.096860   0.000000
    44  H    6.424943   1.096843   1.752152   0.000000
    45  C    7.559042   1.521036   2.154939   2.154971   0.000000
    46  H    8.476678   2.159320   2.480057   2.480361   1.094578
    47  H    7.853551   2.173020   2.520135   3.074555   1.095304
    48  H    7.439299   2.173052   3.074551   2.519951   1.095301
                   46         47         48
    46  H    0.000000
    47  H    1.772197   0.000000
    48  H    1.772175   1.770542   0.000000
 Stoichiometry    C18H26O4
 Framework group  C1[X(C18H26O4)]
 Deg. of freedom   138
 Full point group                 C1      NOp   1
 Largest Abelian subgroup         C1      NOp   1
 Largest concise Abelian subgroup C1      NOp   1
                         Standard orientation:                         
 ---------------------------------------------------------------------
 Center     Atomic      Atomic             Coordinates (Angstroms)
 Number     Number       Type             X           Y           Z
 ---------------------------------------------------------------------
      1          6           0       -3.044782   -1.235172    0.323085
      2          6           0       -3.666966   -0.132040   -0.550652
      3          1           0       -3.604555   -0.405870   -1.611273
      4          1           0       -4.731625   -0.018859   -0.310250
      5          6           0       -2.988678    1.223100   -0.341587
      6          1           0       -3.444689    1.956726   -1.018403
      7          6           0       -1.466084    1.159724   -0.586439
      8          1           0       -1.347086    0.878226   -1.640871
      9          6           0       -0.821509    0.045114    0.295817
     10          1           0       -1.050323    0.323266    1.332371
     11          6           0       -1.514188   -1.329111    0.072500
     12          1           0       -1.067994   -2.057123    0.763249
     13          6           0        0.703593   -0.063016    0.171943
     14          6           0        3.550117   -0.105767    0.017439
     15          6           0        1.374415   -0.252537   -1.047161
     16          6           0        1.509168    0.058662    1.318447
     17          6           0        2.907193    0.037516    1.249932
     18          6           0        2.768918   -0.258579   -1.130178
     19          1           0        3.504526    0.135386    2.151933
     20          1           0        3.237689   -0.397355   -2.101586
     21          8           0        0.912785    0.197352    2.543976
     22          1           0        1.601027    0.317291    3.217579
     23          8           0        0.722913   -0.467715   -2.230686
     24          1           0       -0.131834   -0.897226   -2.010238
     25          8           0       -1.274543   -1.794552   -1.269153
     26          1           0       -1.360534   -2.766784   -1.240283
     27          6           0       -3.742171   -2.572395    0.046550
     28          1           0       -4.803446   -2.521221    0.316400
     29          1           0       -3.305643   -3.369139    0.659449
     30          1           0       -3.674044   -2.865689   -1.005646
     31          8           0       -3.269171   -0.923189    1.702936
     32          1           0       -4.225052   -0.797779    1.834674
     33          1           0       -3.200638    1.565929    0.678525
     34          6           0       -0.838411    2.544258   -0.403442
     35          6           0       -0.201084    3.150462   -1.420612
     36          1           0        0.259402    4.126519   -1.306064
     37          1           0       -0.102440    2.675005   -2.392516
     38          6           0       -0.934696    3.209542    0.943277
     39          1           0       -1.975650    3.435500    1.191930
     40          1           0       -0.383438    4.156103    0.969480
     41          1           0       -0.517392    2.573657    1.728246
     42          6           0        5.053271   -0.135626   -0.070588
     43          1           0        5.375594    0.288175   -1.029547
     44          1           0        5.480905    0.511225    0.705156
     45          6           0        5.601102   -1.546826    0.077557
     46          1           0        6.693535   -1.537681    0.009667
     47          1           0        5.217765   -2.206422   -0.708366
     48          1           0        5.324844   -1.980894    1.044486
 ---------------------------------------------------------------------
 Rotational constants (GHZ):      0.4510329      0.1886615      0.1716704
 Standard basis: 6-31+G(d,p) (6D, 7F)
 There are   548 symmetry adapted basis functions of A   symmetry.
 Integral buffers will be    131072 words long.
 Raffenetti 2 integral format.
 Two-electron integral symmetry is turned on.
   548 basis functions,   886 primitive gaussians,   548 cartesian basis functions
    83 alpha electrons       83 beta electrons
       nuclear repulsion energy      1981.5309401777 Hartrees.
 NAtoms=   48 NActive=   48 NUniq=   48 SFac= 1.00D+00 NAtFMM=   60 NAOKFM=F Big=F
 ------------------------------------------------------------------------------
 Polarizable Continuum Model (PCM)
 =================================
 Model                : PCM.
 Atomic radii         : UFF (Universal Force Field).
 Polarization charges : Total charges.
 Charge compensation  : None.
 Solution method      : Matrix inversion.
 Cavity type          : Scaled VdW (van der Waals Surface) (Alpha=1.100).
 Cavity algorithm     : GePol (No added spheres)
                        Default sphere list used, NSphG=   48.
                        Lebedev-Laikov grids with approx.  5.0 points / Ang**2.
                        Smoothing algorithm: Karplus/York (Gamma=1.0000).
                        Polarization charges: spherical gaussians, with
                                              point-specific exponents (IZeta= 3).
                        Self-potential: point-specific (ISelfS= 7).
                        Self-field    : sphere-specific E.n sum rule (ISelfD= 2).
 Solvent              : Water, Eps=  78.355300 Eps(inf)=   1.777849
 ------------------------------------------------------------------------------
 One-electron integrals computed using PRISM.
 NBasis=   548 RedAO= T  NBF=   548
 NBsUse=   546 1.00D-06 NBFU=   546
 Harris functional with IExCor=  908 diagonalized for initial guess.
 ExpMin= 4.38D-02 ExpMax= 5.48D+03 ExpMxC= 8.25D+02 IAcc=2 IRadAn=         4 AccDes= 0.00D+00
 HarFok:  IExCor=  908 AccDes= 0.00D+00 IRadAn=         4 IDoV= 1
 ScaDFX=  1.000000  1.000000  1.000000  1.000000
 FoFCou: FMM=F IPFlag=           0 FMFlag=      100000 FMFlg1=           0
         NFxFlg=           0 DoJE=T BraDBF=F KetDBF=T FulRan=T
         Omega=  0.000000  0.000000  1.000000  0.000000  0.000000 ICntrl=     500 IOpCl=  0
         NMat0=    1 NMatS0=    1 NMatT0=    0 NMatD0=    1 NMtDS0=    0 NMtDT0=    0
         I1Cent=           4 NGrid=           0.
 Petite list used in FoFCou.
 Initial guess orbital symmetries:
       Occupied  (A) (A) (A) (A) (A) (A) (A) (A) (A) (A) (A) (A)
                 (A) (A) (A) (A) (A) (A) (A) (A) (A) (A) (A) (A)
                 (A) (A) (A) (A) (A) (A) (A) (A) (A) (A) (A) (A)
                 (A) (A) (A) (A) (A) (A) (A) (A) (A) (A) (A) (A)
                 (A) (A) (A) (A) (A) (A) (A) (A) (A) (A) (A) (A)
                 (A) (A) (A) (A) (A) (A) (A) (A) (A) (A) (A) (A)
                 (A) (A) (A) (A) (A) (A) (A) (A) (A) (A) (A)
       Virtual   (A) (A) (A) (A) (A) (A) (A) (A) (A) (A) (A) (A)
                 (A) (A) (A) (A) (A) (A) (A) (A) (A) (A) (A) (A)
                 (A) (A) (A) (A) (A) (A) (A) (A) (A) (A) (A) (A)
                 (A) (A) (A) (A) (A) (A) (A) (A) (A) (A) (A) (A)
                 (A) (A) (A) (A) (A) (A) (A) (A) (A) (A) (A) (A)
                 (A) (A) (A) (A) (A) (A) (A) (A) (A) (A) (A) (A)
                 (A) (A) (A) (A) (A) (A) (A) (A) (A) (A) (A) (A)
                 (A) (A) (A) (A) (A) (A) (A) (A) (A) (A) (A) (A)
                 (A) (A) (A) (A) (A) (A) (A) (A) (A) (A) (A) (A)
                 (A) (A) (A) (A) (A) (A) (A) (A) (A) (A) (A) (A)
                 (A) (A) (A) (A) (A) (A) (A) (A) (A) (A) (A) (A)
                 (A) (A) (A) (A) (A) (A) (A) (A) (A) (A) (A) (A)
                 (A) (A) (A) (A) (A) (A) (A) (A) (A) (A) (A) (A)
                 (A) (A) (A) (A) (A) (A) (A) (A) (A) (A) (A) (A)
                 (A) (A) (A) (A) (A) (A) (A) (A) (A) (A) (A) (A)
                 (A) (A) (A) (A) (A) (A) (A) (A) (A) (A) (A) (A)
                 (A) (A) (A) (A) (A) (A) (A) (A) (A) (A) (A) (A)
                 (A) (A) (A) (A) (A) (A) (A) (A) (A) (A) (A) (A)
                 (A) (A) (A) (A) (A) (A) (A) (A) (A) (A) (A) (A)
                 (A) (A) (A) (A) (A) (A) (A) (A) (A) (A) (A) (A)
                 (A) (A) (A) (A) (A) (A) (A) (A) (A) (A) (A) (A)
                 (A) (A) (A) (A) (A) (A) (A) (A) (A) (A) (A) (A)
                 (A) (A) (A) (A) (A) (A) (A) (A) (A) (A) (A) (A)
                 (A) (A) (A) (A) (A) (A) (A) (A) (A) (A) (A) (A)
                 (A) (A) (A) (A) (A) (A) (A) (A) (A) (A) (A) (A)
                 (A) (A) (A) (A) (A) (A) (A) (A) (A) (A) (A) (A)
                 (A) (A) (A) (A) (A) (A) (A) (A) (A) (A) (A) (A)
                 (A) (A) (A) (A) (A) (A) (A) (A) (A) (A) (A) (A)
                 (A) (A) (A) (A) (A) (A) (A) (A) (A) (A) (A) (A)
                 (A) (A) (A) (A) (A) (A) (A) (A) (A) (A) (A) (A)
                 (A) (A) (A) (A) (A) (A) (A) (A) (A) (A) (A) (A)
                 (A) (A) (A) (A) (A) (A) (A) (A) (A) (A) (A) (A)
                 (A) (A) (A) (A) (A) (A) (A) (A) (A) (A) (A) (A)
                 (A) (A) (A) (A) (A) (A) (A) (A) (A) (A) (A) (A)
                 (A) (A) (A) (A) (A) (A) (A) (A) (A) (A) (A) (A)
                 (A) (A) (A) (A) (A) (A) (A) (A) (A) (A) (A) (A)
                 (A) (A) (A) (A) (A) (A) (A) (A) (A) (A) (A) (A)
                 (A) (A) (A) (A) (A) (A) (A) (A) (A) (A) (A) (A)
                 (A) (A) (A) (A) (A) (A) (A)
 The electronic state of the initial guess is 1-A.
 Requested convergence on RMS density matrix=1.00D-08 within 128 cycles.
 Requested convergence on MAX density matrix=1.00D-06.
 Requested convergence on             energy=1.00D-06.
 No special actions if energy rises.
 CoulSu:  requested number of processors reduced to:   2 ShMem   1 Linda.
 CoulSu:  requested number of processors reduced to:   2 ShMem   1 Linda.
 Error on total polarization charges =  0.01928
 SCF Done:  E(RmPW1PW91) =  -1002.31606473     A.U. after   14 cycles
             Convg  =    0.5057D-08             -V/T =  2.0094
 Range of M.O.s used for correlation:     1   546
 NBasis=   548 NAE=    83 NBE=    83 NFC=     0 NFV=     0
 NROrb=    546 NOA=    83 NOB=    83 NVA=   463 NVB=   463

 **** Warning!!: The largest alpha MO coefficient is  0.15018815D+03

 NEqPCM:  Using equilibrium solvation (IEInf=0, Eps=  78.3553, EpsInf=   1.7778)
          Differentiating once with respect to magnetic field using GIAOs.
          Electric field/nuclear overlap derivatives assumed to be zero.
 FoFCou: FMM=F IPFlag=           0 FMFlag=    10101102 FMFlg1=           0
         NFxFlg=    40000000 DoJE=F BraDBF=F KetDBF=T FulRan=T
         Omega=  0.000000  0.000000  1.000000  0.000000  0.000000 ICntrl=    6100 IOpCl=  0
         NMat0=    1 NMatS0=    1 NMatT0=    0 NMatD0=    1 NMtDS0=    0 NMtDT0=    0
         I1Cent=           7 NGrid=        3065.
 Symmetry not used in FoFCou.
          There are     3 degrees of freedom in the 1st order CPHF.  IDoFFX=0.
      3 vectors produced by pass  0 Test12= 1.28D-12 3.33D-08 XBig12= 7.08D+02 3.19D+00.
 AX will form     3 AO Fock derivatives at one time.
      3 vectors produced by pass  1 Test12= 1.28D-12 3.33D-08 XBig12= 1.68D+00 4.51D-01.
      3 vectors produced by pass  2 Test12= 1.28D-12 3.33D-08 XBig12= 7.46D-03 3.93D-02.
      3 vectors produced by pass  3 Test12= 1.28D-12 3.33D-08 XBig12= 3.82D-05 1.70D-03.
      3 vectors produced by pass  4 Test12= 1.28D-12 3.33D-08 XBig12= 1.23D-07 1.06D-04.
      3 vectors produced by pass  5 Test12= 1.28D-12 3.33D-08 XBig12= 3.73D-10 4.56D-06.
      3 vectors produced by pass  6 Test12= 1.28D-12 3.33D-08 XBig12= 1.80D-12 2.20D-07.
 Inverted reduced A of dimension    21 with in-core refinement.
 Calculating GIAO nuclear magnetic shielding tensors.
 SCF GIAO Magnetic shielding tensor (ppm):
      1  C    Isotropic =   122.6165   Anisotropy =    49.3672
   XX=   106.5249   YX=    -2.1601   ZX=   -16.4950
   XY=     2.1919   YY=   111.9241   ZY=    10.7388
   XZ=    -8.4403   YZ=    11.9731   ZZ=   149.4005
   Eigenvalues:   101.9953   110.3262   155.5280
      2  C    Isotropic =   159.0621   Anisotropy =    23.9667
   XX=   155.0828   YX=    -4.9453   ZX=     4.5660
   XY=     3.3906   YY=   167.4300   ZY=   -15.0110
   XZ=    -2.0428   YZ=    -9.6912   ZZ=   154.6737
   Eigenvalues:   147.0939   155.0525   175.0399
      3  H    Isotropic =    29.3699   Anisotropy =     6.5596
   XX=    27.7509   YX=     1.0587   ZX=     2.7315
   XY=     0.2754   YY=    27.8185   ZY=     0.2752
   XZ=     2.4842   YZ=     0.4031   ZZ=    32.5402
   Eigenvalues:    26.4366    27.9300    33.7429
      4  H    Isotropic =    30.2208   Anisotropy =     8.9951
   XX=    36.1509   YX=     0.6105   ZX=     0.3028
   XY=     0.6175   YY=    29.2458   ZY=    -0.5138
   XZ=     0.5442   YZ=    -0.6947   ZZ=    25.2657
   Eigenvalues:    25.1523    29.2926    36.2176
      5  C    Isotropic =   166.5300   Anisotropy =    25.2967
   XX=   183.1688   YX=     2.5109   ZX=     2.0658
   XY=     0.7228   YY=   162.7388   ZY=    -2.0732
   XZ=     1.9999   YZ=    -6.7059   ZZ=   153.6824
   Eigenvalues:   151.7066   164.4890   183.3945
      6  H    Isotropic =    30.2644   Anisotropy =     9.8537
   XX=    31.5647   YX=    -2.4747   ZX=     3.2710
   XY=    -2.7506   YY=    32.3083   ZY=    -3.6460
   XZ=     3.1871   YZ=    -3.2758   ZZ=    26.9201
   Eigenvalues:    24.6578    29.3019    36.8335
      7  C    Isotropic =   151.8892   Anisotropy =    31.9747
   XX=   156.7729   YX=    15.1448   ZX=     3.0366
   XY=    11.8666   YY=   160.9816   ZY=     4.6857
   XZ=     2.0141   YZ=     3.6903   ZZ=   137.9132
   Eigenvalues:   137.1746   145.2874   173.2057
      8  H    Isotropic =    28.2021   Anisotropy =     4.1022
   XX=    27.7105   YX=    -0.3019   ZX=    -2.0104
   XY=    -1.8932   YY=    27.1521   ZY=    -0.4558
   XZ=    -1.9120   YZ=    -1.0029   ZZ=    29.7437
   Eigenvalues:    25.4805    28.1888    30.9369
      9  C    Isotropic =   156.2112   Anisotropy =    14.5338
   XX=   161.2829   YX=     0.1644   ZX=     1.0246
   XY=    -4.2615   YY=   164.5876   ZY=     1.4348
   XZ=    -1.2393   YZ=    -7.6442   ZZ=   142.7631
   Eigenvalues:   142.3219   160.4112   165.9004
     10  H    Isotropic =    27.3879   Anisotropy =     6.6695
   XX=    28.9416   YX=     0.9702   ZX=     2.0325
   XY=     1.0625   YY=    23.6060   ZY=     1.6136
   XZ=     2.1553   YZ=     1.6180   ZZ=    29.6160
   Eigenvalues:    23.1544    27.1750    31.8342
     11  C    Isotropic =   115.0256   Anisotropy =    35.3872
   XX=   114.9893   YX=     8.0271   ZX=   -13.5892
   XY=    12.7236   YY=    96.8742   ZY=    11.7475
   XZ=    -6.8304   YZ=     9.3664   ZZ=   133.2133
   Eigenvalues:    87.8659   118.5939   138.6171
     12  H    Isotropic =    27.5105   Anisotropy =     3.6727
   XX=    26.3564   YX=    -0.2069   ZX=     0.3414
   XY=     2.1348   YY=    27.6604   ZY=    -0.9695
   XZ=     1.2306   YZ=    -2.6743   ZZ=    28.5148
   Eigenvalues:    25.0407    27.5319    29.9590
     13  C    Isotropic =    87.6998   Anisotropy =   121.1099
   XX=    45.2235   YX=     5.2707   ZX=     0.7996
   XY=    -0.8055   YY=   166.5202   ZY=   -13.4288
   XZ=    -0.0662   YZ=   -16.2499   ZZ=    51.3557
   Eigenvalues:    45.0906    49.5691   168.4398
     14  C    Isotropic =    49.5748   Anisotropy =   189.4427
   XX=   -32.2830   YX=    -2.3884   ZX=     4.9287
   XY=    -2.6540   YY=   173.2106   ZY=   -21.6996
   XZ=     4.6303   YZ=   -20.2107   ZZ=     7.7968
   Eigenvalues:   -32.8450     5.6995   175.8700
     15  C    Isotropic =    40.7879   Anisotropy =   129.9581
   XX=    15.1051   YX=   -10.8517   ZX=   -29.4980
   XY=    -7.0371   YY=   123.3082   ZY=   -20.9344
   XZ=   -29.6874   YZ=   -26.7740   ZZ=   -16.0497
   Eigenvalues:   -37.8147    32.7517   127.4266
     16  C    Isotropic =    44.7086   Anisotropy =   124.3787
   XX=    30.8743   YX=     3.4222   ZX=    29.2014
   XY=     4.4962   YY=   125.4016   ZY=   -19.4252
   XZ=    20.5676   YZ=   -17.0182   ZZ=   -22.1499
   Eigenvalues:   -34.1228    40.6210   127.6278
     17  C    Isotropic =    92.0946   Anisotropy =    96.9771
   XX=    75.9218   YX=    -1.6511   ZX=   -33.0236
   XY=     2.2636   YY=   155.0315   ZY=   -14.4987
   XZ=   -34.8641   YZ=   -11.0485   ZZ=    45.3305
   Eigenvalues:    22.5488    96.9890   156.7460
     18  C    Isotropic =    87.8583   Anisotropy =   108.7798
   XX=    75.8500   YX=     3.6918   ZX=    28.5338
   XY=    16.8692   YY=   156.7395   ZY=   -22.3306
   XZ=    27.9683   YZ=   -18.3930   ZZ=    30.9855
   Eigenvalues:    13.7073    89.4895   160.3782
     19  H    Isotropic =    25.2826   Anisotropy =     7.0197
   XX=    28.7387   YX=    -1.0132   ZX=    -2.0575
   XY=    -1.1917   YY=    21.5440   ZY=     1.1610
   XZ=    -1.9584   YZ=     0.9434   ZZ=    25.5652
   Eigenvalues:    21.2311    24.6544    29.9624
     20  H    Isotropic =    24.9680   Anisotropy =     7.7885
   XX=    29.3698   YX=    -0.4120   ZX=     2.0117
   XY=    -0.7818   YY=    21.0053   ZY=    -0.6989
   XZ=     2.0840   YZ=     0.4192   ZZ=    24.5288
   Eigenvalues:    20.9629    23.7807    30.1603
     21  O    Isotropic =   227.5773   Anisotropy =    40.4725
   XX=   199.7057   YX=    -4.2707   ZX=   -17.0762
   XY=    -5.4799   YY=   241.4701   ZY=     5.9965
   XZ=   -34.7040   YZ=    -4.3027   ZZ=   241.5561
   Eigenvalues:   187.0421   241.1308   254.5590
     22  H    Isotropic =    26.6443   Anisotropy =    15.4178
   XX=    29.2969   YX=     0.4014   ZX=     4.9470
   XY=     0.8420   YY=    18.2971   ZY=     1.9583
   XZ=     6.4663   YZ=     1.9372   ZZ=    32.3390
   Eigenvalues:    18.0293    24.9808    36.9228
     23  O    Isotropic =   217.0370   Anisotropy =    76.6279
   XX=   177.6251   YX=    -6.8969   ZX=    20.0947
   XY=    -8.8809   YY=   254.8167   ZY=   -47.9153
   XZ=    29.2265   YZ=     5.7736   ZZ=   218.6690
   Eigenvalues:   166.0244   216.9643   268.1222
     24  H    Isotropic =    21.6367   Anisotropy =    28.4131
   XX=    31.5574   YX=    10.7851   ZX=    -7.9400
   XY=    14.2977   YY=    16.1363   ZY=     0.0249
   XZ=    -6.7228   YZ=    -1.7283   ZZ=    17.2165
   Eigenvalues:     8.0710    16.2604    40.5788
     25  O    Isotropic =   289.2074   Anisotropy =    44.2447
   XX=   279.9979   YX=    16.2255   ZX=     3.0518
   XY=    19.5246   YY=   307.1692   ZY=    13.7100
   XZ=   -10.2334   YZ=    11.9088   ZZ=   280.4550
   Eigenvalues:   265.1863   283.7320   318.7038
     26  H    Isotropic =    28.4467   Anisotropy =    19.2741
   XX=    22.0548   YX=     1.5228   ZX=    -3.3645
   XY=     2.3494   YY=    40.5208   ZY=     3.3617
   XZ=    -2.5611   YZ=     3.7133   ZZ=    22.7646
   Eigenvalues:    18.7550    25.2890    41.2961
     27  C    Isotropic =   167.0902   Anisotropy =    46.1028
   XX=   158.1618   YX=    18.7762   ZX=     4.5814
   XY=    15.6484   YY=   189.3080   ZY=     6.0449
   XZ=     2.0791   YZ=     4.6056   ZZ=   153.8006
   Eigenvalues:   150.2376   153.2076   197.8253
     28  H    Isotropic =    30.5148   Anisotropy =     9.4265
   XX=    35.0767   YX=     2.6221   ZX=    -1.2356
   XY=     3.9993   YY=    29.8235   ZY=    -0.6640
   XZ=    -0.8979   YZ=    -0.0567   ZZ=    26.6442
   Eigenvalues:    26.5100    28.2352    36.7992
     29  H    Isotropic =    30.4497   Anisotropy =     9.3688
   XX=    28.2506   YX=     0.8535   ZX=    -0.0708
   XY=     0.1587   YY=    35.4863   ZY=    -3.8875
   XZ=     0.0707   YZ=    -2.6572   ZZ=    27.6122
   Eigenvalues:    26.4135    28.2401    36.6956
     30  H    Isotropic =    30.1299   Anisotropy =     8.8967
   XX=    28.3799   YX=     2.9668   ZX=     0.7311
   XY=     3.1021   YY=    30.5503   ZY=     4.8560
   XZ=     0.2869   YZ=     3.6178   ZZ=    31.4594
   Eigenvalues:    25.2832    29.0454    36.0610
     31  O    Isotropic =   261.6984   Anisotropy =    97.5500
   XX=   306.5434   YX=   -13.4874   ZX=   -40.6693
   XY=    -5.6350   YY=   211.6474   ZY=     5.5732
   XZ=   -25.6940   YZ=    11.3630   ZZ=   266.9045
   Eigenvalues:   210.1085   248.2550   326.7317
     32  H    Isotropic =    30.7095   Anisotropy =    17.7163
   XX=    39.1907   YX=    -1.4995   ZX=    -5.3690
   XY=    -1.4864   YY=    23.1610   ZY=     1.0229
   XZ=    -7.1806   YZ=     1.6383   ZZ=    29.7769
   Eigenvalues:    22.8963    26.7119    42.5204
     33  H    Isotropic =    29.3349   Anisotropy =     6.2804
   XX=    29.0835   YX=     0.2472   ZX=    -2.8545
   XY=     0.1553   YY=    30.7304   ZY=     3.8352
   XZ=    -2.0701   YZ=     3.0309   ZZ=    28.1907
   Eigenvalues:    24.7113    29.7716    33.5218
     34  C    Isotropic =    44.4969   Anisotropy =   181.6945
   XX=   128.0379   YX=   -63.0442   ZX=    19.9321
   XY=   -59.3618   YY=    -0.8863   ZY=   -68.2832
   XZ=    19.1836   YZ=   -67.7235   ZZ=     6.3391
   Eigenvalues:   -70.8023    38.6665   165.6266
     35  C    Isotropic =    86.9129   Anisotropy =    97.7771
   XX=   136.3501   YX=   -31.3755   ZX=    -3.0083
   XY=   -33.6565   YY=    47.6081   ZY=   -61.3601
   XZ=    -4.4142   YZ=   -59.4246   ZZ=    76.7804
   Eigenvalues:    -5.4900   114.1310   152.0976
     36  H    Isotropic =    26.8077   Anisotropy =     6.7791
   XX=    26.0144   YX=     1.8105   ZX=    -1.3318
   XY=     0.0917   YY=    27.9272   ZY=    -2.2843
   XZ=    -2.7427   YZ=    -4.2324   ZZ=    26.4816
   Eigenvalues:    23.3872    25.7088    31.3271
     37  H    Isotropic =    26.5700   Anisotropy =     7.4271
   XX=    25.7998   YX=    -0.1295   ZX=    -2.9247
   XY=    -0.4032   YY=    26.3798   ZY=    -5.7278
   XZ=    -1.5402   YZ=    -2.4807   ZZ=    27.5304
   Eigenvalues:    22.0234    26.1652    31.5214
     38  C    Isotropic =   178.0316   Anisotropy =    28.0824
   XX=   168.3185   YX=     1.5245   ZX=    -3.1174
   XY=     0.1807   YY=   175.3272   ZY=    12.8217
   XZ=    -2.3026   YZ=    10.0901   ZZ=   190.4491
   Eigenvalues:   166.5823   170.7593   196.7532
     39  H    Isotropic =    29.7697   Anisotropy =     8.3075
   XX=    32.2872   YX=    -1.1634   ZX=    -2.4627
   XY=    -2.4276   YY=    30.0138   ZY=     4.0557
   XZ=    -2.8345   YZ=     2.8494   ZZ=    27.0080
   Eigenvalues:    24.5174    29.4836    35.3080
     40  H    Isotropic =    30.1425   Anisotropy =     8.7096
   XX=    27.7871   YX=     2.9554   ZX=    -0.3689
   XY=     2.6501   YY=    34.5556   ZY=     1.2150
   XZ=     0.4485   YZ=     2.4390   ZZ=    28.0849
   Eigenvalues:    26.5059    27.9728    35.9489
     41  H    Isotropic =    29.8113   Anisotropy =     6.2868
   XX=    26.4418   YX=    -1.2234   ZX=     3.7726
   XY=    -2.6835   YY=    31.4293   ZY=     0.6976
   XZ=     3.2654   YZ=    -1.4549   ZZ=    31.5628
   Eigenvalues:    24.2969    31.1344    34.0025
     42  C    Isotropic =   164.8827   Anisotropy =    27.2806
   XX=   182.9454   YX=     5.3327   ZX=    -1.7730
   XY=    -8.5643   YY=   153.6965   ZY=     0.4986
   XZ=    -0.0913   YZ=    -0.1045   ZZ=   158.0061
   Eigenvalues:   153.6027   157.9756   183.0697
     43  H    Isotropic =    29.1540   Anisotropy =     7.1556
   XX=    30.2279   YX=     0.4326   ZX=    -2.5664
   XY=     1.6378   YY=    27.0289   ZY=    -4.0484
   XZ=    -1.2000   YZ=    -3.4362   ZZ=    30.2052
   Eigenvalues:    24.5456    28.9919    33.9244
     44  H    Isotropic =    29.1937   Anisotropy =     7.3340
   XX=    30.7222   YX=     1.5458   ZX=     2.2206
   XY=     2.2956   YY=    29.0087   ZY=     4.1514
   XZ=     0.6884   YZ=     3.6270   ZZ=    27.8503
   Eigenvalues:    24.4932    29.0050    34.0830
     45  C    Isotropic =   178.2411   Anisotropy =    31.8860
   XX=   180.1173   YX=    -7.1305   ZX=     0.0491
   XY=   -21.3593   YY=   188.7348   ZY=    -2.0072
   XZ=     1.7184   YZ=    -2.9775   ZZ=   165.8714
   Eigenvalues:   165.5321   169.6928   199.4985
     46  H    Isotropic =    30.2435   Anisotropy =    12.0636
   XX=    37.1787   YX=    -2.2821   ZX=    -0.3410
   XY=    -4.5808   YY=    27.6160   ZY=     0.1823
   XZ=    -0.0510   YZ=    -0.0809   ZZ=    25.9358
   Eigenvalues:    25.9323    26.5123    38.2859
     47  H    Isotropic =    30.5820   Anisotropy =     7.3410
   XX=    29.0609   YX=    -1.0911   ZX=     1.2523
   XY=    -1.8177   YY=    32.4969   ZY=     4.6716
   XZ=     1.3427   YZ=     3.2144   ZZ=    30.1881
   Eigenvalues:    26.0254    30.2446    35.4760
     48  H    Isotropic =    30.5872   Anisotropy =     7.4857
   XX=    28.7707   YX=    -1.7487   ZX=    -0.5306
   XY=    -2.7260   YY=    30.4857   ZY=    -4.5115
   XZ=    -0.3036   YZ=    -3.0496   ZZ=    32.5051
   Eigenvalues:    26.0213    30.1625    35.5776
 End of Minotr Frequency-dependent properties file   721 does not exist.
 End of Minotr Frequency-dependent properties file   722 does not exist.

 **********************************************************************

            Population analysis using the SCF density.

 **********************************************************************

 Orbital symmetries:
       Occupied  (A) (A) (A) (A) (A) (A) (A) (A) (A) (A) (A) (A)
                 (A) (A) (A) (A) (A) (A) (A) (A) (A) (A) (A) (A)
                 (A) (A) (A) (A) (A) (A) (A) (A) (A) (A) (A) (A)
                 (A) (A) (A) (A) (A) (A) (A) (A) (A) (A) (A) (A)
                 (A) (A) (A) (A) (A) (A) (A) (A) (A) (A) (A) (A)
                 (A) (A) (A) (A) (A) (A) (A) (A) (A) (A) (A) (A)
                 (A) (A) (A) (A) (A) (A) (A) (A) (A) (A) (A)
       Virtual   (A) (A) (A) (A) (A) (A) (A) (A) (A) (A) (A) (A)
                 (A) (A) (A) (A) (A) (A) (A) (A) (A) (A) (A) (A)
                 (A) (A) (A) (A) (A) (A) (A) (A) (A) (A) (A) (A)
                 (A) (A) (A) (A) (A) (A) (A) (A) (A) (A) (A) (A)
                 (A) (A) (A) (A) (A) (A) (A) (A) (A) (A) (A) (A)
                 (A) (A) (A) (A) (A) (A) (A) (A) (A) (A) (A) (A)
                 (A) (A) (A) (A) (A) (A) (A) (A) (A) (A) (A) (A)
                 (A) (A) (A) (A) (A) (A) (A) (A) (A) (A) (A) (A)
                 (A) (A) (A) (A) (A) (A) (A) (A) (A) (A) (A) (A)
                 (A) (A) (A) (A) (A) (A) (A) (A) (A) (A) (A) (A)
                 (A) (A) (A) (A) (A) (A) (A) (A) (A) (A) (A) (A)
                 (A) (A) (A) (A) (A) (A) (A) (A) (A) (A) (A) (A)
                 (A) (A) (A) (A) (A) (A) (A) (A) (A) (A) (A) (A)
                 (A) (A) (A) (A) (A) (A) (A) (A) (A) (A) (A) (A)
                 (A) (A) (A) (A) (A) (A) (A) (A) (A) (A) (A) (A)
                 (A) (A) (A) (A) (A) (A) (A) (A) (A) (A) (A) (A)
                 (A) (A) (A) (A) (A) (A) (A) (A) (A) (A) (A) (A)
                 (A) (A) (A) (A) (A) (A) (A) (A) (A) (A) (A) (A)
                 (A) (A) (A) (A) (A) (A) (A) (A) (A) (A) (A) (A)
                 (A) (A) (A) (A) (A) (A) (A) (A) (A) (A) (A) (A)
                 (A) (A) (A) (A) (A) (A) (A) (A) (A) (A) (A) (A)
                 (A) (A) (A) (A) (A) (A) (A) (A) (A) (A) (A) (A)
                 (A) (A) (A) (A) (A) (A) (A) (A) (A) (A) (A) (A)
                 (A) (A) (A) (A) (A) (A) (A) (A) (A) (A) (A) (A)
                 (A) (A) (A) (A) (A) (A) (A) (A) (A) (A) (A) (A)
                 (A) (A) (A) (A) (A) (A) (A) (A) (A) (A) (A) (A)
                 (A) (A) (A) (A) (A) (A) (A) (A) (A) (A) (A) (A)
                 (A) (A) (A) (A) (A) (A) (A) (A) (A) (A) (A) (A)
                 (A) (A) (A) (A) (A) (A) (A) (A) (A) (A) (A) (A)
                 (A) (A) (A) (A) (A) (A) (A) (A) (A) (A) (A) (A)
                 (A) (A) (A) (A) (A) (A) (A) (A) (A) (A) (A) (A)
                 (A) (A) (A) (A) (A) (A) (A) (A) (A) (A) (A) (A)
                 (A) (A) (A) (A) (A) (A) (A) (A) (A) (A) (A) (A)
                 (A) (A) (A) (A) (A) (A) (A) (A) (A) (A) (A) (A)
                 (A) (A) (A) (A) (A) (A) (A) (A) (A) (A) (A) (A)
                 (A) (A) (A) (A) (A) (A) (A) (A) (A) (A) (A) (A)
                 (A) (A) (A) (A) (A) (A) (A) (A) (A) (A) (A) (A)
                 (A) (A) (A) (A) (A) (A) (A) (A) (A) (A) (A) (A)
                 (A) (A) (A) (A) (A) (A) (A)
 The electronic state is 1-A.
 Alpha  occ. eigenvalues --  -19.28261 -19.28207 -19.25663 -19.25412 -10.32030
 Alpha  occ. eigenvalues --  -10.31825 -10.31483 -10.31314 -10.26934 -10.26441
 Alpha  occ. eigenvalues --  -10.26414 -10.25979 -10.25958 -10.24856 -10.24547
 Alpha  occ. eigenvalues --  -10.24470 -10.24340 -10.23975 -10.23952 -10.23865
 Alpha  occ. eigenvalues --  -10.23669 -10.23497  -1.09847  -1.09245  -1.07250
 Alpha  occ. eigenvalues --   -1.06087  -0.88559  -0.86659  -0.82127  -0.81871
 Alpha  occ. eigenvalues --   -0.78466  -0.77224  -0.75762  -0.73952  -0.71083
 Alpha  occ. eigenvalues --   -0.70221  -0.67002  -0.64468  -0.63338  -0.62448
 Alpha  occ. eigenvalues --   -0.60892  -0.59762  -0.56554  -0.55219  -0.53588
 Alpha  occ. eigenvalues --   -0.52516  -0.51183  -0.50452  -0.49601  -0.49201
 Alpha  occ. eigenvalues --   -0.47512  -0.46590  -0.46077  -0.45541  -0.44830
 Alpha  occ. eigenvalues --   -0.44058  -0.43312  -0.43223  -0.42432  -0.41868
 Alpha  occ. eigenvalues --   -0.41412  -0.41238  -0.40430  -0.39631  -0.39468
 Alpha  occ. eigenvalues --   -0.39175  -0.38192  -0.37954  -0.37516  -0.37041
 Alpha  occ. eigenvalues --   -0.36101  -0.35762  -0.35503  -0.34807  -0.34206
 Alpha  occ. eigenvalues --   -0.33277  -0.32610  -0.31339  -0.30253  -0.29077
 Alpha  occ. eigenvalues --   -0.25925  -0.24070  -0.23003
 Alpha virt. eigenvalues --   -0.00627  -0.00052   0.00508   0.00855   0.01108
 Alpha virt. eigenvalues --    0.01613   0.02016   0.02496   0.03294   0.03410
 Alpha virt. eigenvalues --    0.03908   0.04153   0.04457   0.04834   0.05189
 Alpha virt. eigenvalues --    0.05639   0.06329   0.06525   0.06892   0.07119
 Alpha virt. eigenvalues --    0.07289   0.08115   0.08602   0.08752   0.09356
 Alpha virt. eigenvalues --    0.09538   0.09691   0.10207   0.10620   0.11073
 Alpha virt. eigenvalues --    0.11186   0.11581   0.12110   0.12525   0.12888
 Alpha virt. eigenvalues --    0.13164   0.13673   0.14049   0.14478   0.14703
 Alpha virt. eigenvalues --    0.15020   0.15368   0.15543   0.16059   0.16167
 Alpha virt. eigenvalues --    0.16485   0.17049   0.17105   0.17558   0.18231
 Alpha virt. eigenvalues --    0.18278   0.18514   0.18674   0.19008   0.19304
 Alpha virt. eigenvalues --    0.19515   0.20167   0.20248   0.20517   0.21018
 Alpha virt. eigenvalues --    0.21281   0.21533   0.21796   0.22099   0.22176
 Alpha virt. eigenvalues --    0.22596   0.22892   0.22987   0.23207   0.23451
 Alpha virt. eigenvalues --    0.23959   0.24077   0.24249   0.24687   0.24897
 Alpha virt. eigenvalues --    0.25649   0.25901   0.26163   0.26352   0.26880
 Alpha virt. eigenvalues --    0.26955   0.27160   0.27664   0.27996   0.28172
 Alpha virt. eigenvalues --    0.28240   0.28516   0.28641   0.29412   0.29627
 Alpha virt. eigenvalues --    0.30105   0.30477   0.30618   0.31029   0.31335
 Alpha virt. eigenvalues --    0.31590   0.32108   0.32221   0.32743   0.33067
 Alpha virt. eigenvalues --    0.33540   0.33820   0.34013   0.34570   0.34932
 Alpha virt. eigenvalues --    0.35587   0.35891   0.36520   0.36587   0.36820
 Alpha virt. eigenvalues --    0.37546   0.38035   0.38571   0.38978   0.39257
 Alpha virt. eigenvalues --    0.40231   0.40731   0.41077   0.41952   0.42418
 Alpha virt. eigenvalues --    0.43172   0.43502   0.44689   0.45276   0.45879
 Alpha virt. eigenvalues --    0.46341   0.46920   0.47523   0.47909   0.48199
 Alpha virt. eigenvalues --    0.48547   0.50260   0.50915   0.51728   0.53479
 Alpha virt. eigenvalues --    0.53673   0.56862   0.60710   0.63341   0.65730
 Alpha virt. eigenvalues --    0.68012   0.68569   0.69549   0.70138   0.70561
 Alpha virt. eigenvalues --    0.71829   0.71880   0.72843   0.73450   0.74041
 Alpha virt. eigenvalues --    0.75021   0.75605   0.75711   0.76410   0.76935
 Alpha virt. eigenvalues --    0.77629   0.78413   0.79036   0.79500   0.79722
 Alpha virt. eigenvalues --    0.80110   0.81551   0.82004   0.82958   0.83656
 Alpha virt. eigenvalues --    0.84002   0.84701   0.85919   0.86405   0.87032
 Alpha virt. eigenvalues --    0.87686   0.88869   0.89221   0.89804   0.90940
 Alpha virt. eigenvalues --    0.92154   0.93180   0.93527   0.94367   0.94733
 Alpha virt. eigenvalues --    0.95421   0.96276   0.97052   0.97434   0.99418
 Alpha virt. eigenvalues --    1.00100   1.00555   1.01584   1.02781   1.03297
 Alpha virt. eigenvalues --    1.04375   1.04934   1.06031   1.07722   1.07961
 Alpha virt. eigenvalues --    1.08414   1.09488   1.10275   1.10816   1.11236
 Alpha virt. eigenvalues --    1.12491   1.13508   1.13723   1.14752   1.15149
 Alpha virt. eigenvalues --    1.15438   1.15922   1.16531   1.17515   1.18939
 Alpha virt. eigenvalues --    1.19454   1.19755   1.20264   1.20757   1.22134
 Alpha virt. eigenvalues --    1.23369   1.24861   1.25103   1.26251   1.26772
 Alpha virt. eigenvalues --    1.27194   1.28736   1.29968   1.30403   1.31161
 Alpha virt. eigenvalues --    1.31627   1.32266   1.32483   1.33026   1.34807
 Alpha virt. eigenvalues --    1.35051   1.36639   1.37434   1.38372   1.38700
 Alpha virt. eigenvalues --    1.39876   1.40212   1.41247   1.42195   1.43133
 Alpha virt. eigenvalues --    1.44372   1.45050   1.45353   1.47011   1.48882
 Alpha virt. eigenvalues --    1.49716   1.51128   1.53218   1.54060   1.54647
 Alpha virt. eigenvalues --    1.56342   1.56733   1.58195   1.59505   1.59588
 Alpha virt. eigenvalues --    1.60415   1.61584   1.62217   1.62835   1.65173
 Alpha virt. eigenvalues --    1.66942   1.67250   1.68416   1.70811   1.71416
 Alpha virt. eigenvalues --    1.72864   1.76077   1.77228   1.79049   1.79694
 Alpha virt. eigenvalues --    1.80830   1.81476   1.82059   1.82998   1.85159
 Alpha virt. eigenvalues --    1.85449   1.85847   1.86454   1.87381   1.87679
 Alpha virt. eigenvalues --    1.88187   1.89259   1.90117   1.90957   1.91991
 Alpha virt. eigenvalues --    1.92446   1.92724   1.93750   1.94659   1.95146
 Alpha virt. eigenvalues --    1.95629   1.96152   1.97547   1.97932   1.99057
 Alpha virt. eigenvalues --    1.99930   2.01880   2.02509   2.03763   2.05750
 Alpha virt. eigenvalues --    2.06060   2.06884   2.07223   2.07944   2.08172
 Alpha virt. eigenvalues --    2.09413   2.10416   2.11153   2.11905   2.12799
 Alpha virt. eigenvalues --    2.13549   2.13907   2.14249   2.15043   2.15384
 Alpha virt. eigenvalues --    2.16719   2.17446   2.18136   2.18842   2.19705
 Alpha virt. eigenvalues --    2.20268   2.21462   2.23656   2.24362   2.25934
 Alpha virt. eigenvalues --    2.26879   2.26944   2.28823   2.29239   2.29721
 Alpha virt. eigenvalues --    2.30956   2.32249   2.33251   2.34334   2.34558
 Alpha virt. eigenvalues --    2.35415   2.36073   2.38402   2.39557   2.39949
 Alpha virt. eigenvalues --    2.41223   2.42602   2.43166   2.44476   2.47549
 Alpha virt. eigenvalues --    2.48047   2.48452   2.49524   2.50638   2.51566
 Alpha virt. eigenvalues --    2.52717   2.53345   2.54864   2.55392   2.56161
 Alpha virt. eigenvalues --    2.56342   2.56788   2.57603   2.59503   2.59642
 Alpha virt. eigenvalues --    2.60308   2.61522   2.63186   2.64074   2.64718
 Alpha virt. eigenvalues --    2.65096   2.66930   2.67957   2.70136   2.70597
 Alpha virt. eigenvalues --    2.70889   2.71447   2.71842   2.72936   2.73551
 Alpha virt. eigenvalues --    2.74609   2.75821   2.76270   2.76578   2.77594
 Alpha virt. eigenvalues --    2.77750   2.79581   2.80029   2.82149   2.82615
 Alpha virt. eigenvalues --    2.83159   2.84902   2.85254   2.86184   2.87552
 Alpha virt. eigenvalues --    2.88205   2.88418   2.88696   2.89628   2.90456
 Alpha virt. eigenvalues --    2.92284   2.93256   2.93881   2.94223   2.95474
 Alpha virt. eigenvalues --    2.96197   2.97435   2.99169   3.02031   3.05227
 Alpha virt. eigenvalues --    3.07757   3.09814   3.10468   3.11029   3.13529
 Alpha virt. eigenvalues --    3.19278   3.21416   3.25678   3.27690   3.29468
 Alpha virt. eigenvalues --    3.31056   3.31234   3.36292   3.37603   3.39221
 Alpha virt. eigenvalues --    3.40038   3.42338   3.45440   3.47267   3.48049
 Alpha virt. eigenvalues --    3.49559   3.50216   3.51032   3.51604   3.52479
 Alpha virt. eigenvalues --    3.54053   3.54709   3.56554   3.58968   3.59646
 Alpha virt. eigenvalues --    3.59918   3.60985   3.63720   3.66235   3.71901
 Alpha virt. eigenvalues --    3.80710   4.35040   4.37136   4.39324   4.46815
 Alpha virt. eigenvalues --    4.48204   4.50220   4.52606   4.53008   4.55687
 Alpha virt. eigenvalues --    4.59439   4.60629   4.63272   4.67757   4.70812
 Alpha virt. eigenvalues --    4.73386   4.74437   4.77226   4.85079   4.90615
 Alpha virt. eigenvalues --    4.95804   5.01065   5.03915
          Condensed to atoms (all electrons):
              1          2          3          4          5          6
     1  C   12.921648  -1.796698  -0.114030   0.035903  -0.762480   0.022718
     2  C   -1.796698   7.148243   0.426889   0.313061   0.418052  -0.026169
     3  H   -0.114030   0.426889   0.521108  -0.025199  -0.088358  -0.004848
     4  H    0.035903   0.313061  -0.025199   0.536759  -0.029897  -0.002754
     5  C   -0.762480   0.418052  -0.088358  -0.029897   9.150827   0.481066
     6  H    0.022718  -0.026169  -0.004848  -0.002754   0.481066   0.540126
     7  C    2.946607  -1.027606   0.096824   0.034673  -5.873161  -0.315275
     8  H   -0.053213   0.001132   0.003831  -0.000025  -0.043510  -0.005554
     9  C   -1.336550   0.703658  -0.069864   0.018979   2.586360   0.144648
    10  H   -0.060772   0.014905   0.000102  -0.000040  -0.067639  -0.000041
    11  C   -2.134461   0.290915   0.061330   0.012548  -0.142833  -0.025786
    12  H   -0.042232   0.035928  -0.000082  -0.000101  -0.033564   0.000010
    13  C   -0.456966  -0.110399  -0.014229   0.003271   0.439153   0.025675
    14  C   -0.011543   0.008018  -0.000095  -0.000008   0.019593   0.000152
    15  C    0.499916   0.096574   0.004387  -0.002093  -0.176264  -0.015215
    16  C   -0.759300   0.111631  -0.001316   0.000784   0.506807   0.009218
    17  C   -0.154939   0.013602   0.000111   0.000039   0.059851   0.000745
    18  C   -0.096712   0.010016   0.000616   0.000014  -0.228109  -0.001720
    19  H   -0.000147   0.000019   0.000000   0.000000  -0.000118   0.000000
    20  H   -0.000078  -0.000002   0.000000   0.000000   0.000013   0.000000
    21  O   -0.017090   0.006345  -0.000006   0.000004   0.019281   0.000003
    22  H    0.000190  -0.000002   0.000000   0.000000  -0.000703   0.000000
    23  O    0.035180  -0.005571   0.000089   0.000007   0.015214   0.000014
    24  H    0.003826  -0.011725  -0.000077   0.000001   0.002789  -0.000009
    25  O    0.017025  -0.045480   0.006043  -0.000772  -0.165542  -0.000170
    26  H   -0.018611   0.010056   0.000206  -0.000013   0.014081   0.000000
    27  C   -2.942383   0.286171   0.024750  -0.051758  -0.743715  -0.008392
    28  H   -0.075933  -0.010644   0.000260   0.002051   0.010226  -0.000001
    29  H   -0.143096   0.022090   0.000044  -0.000047  -0.011686   0.000002
    30  H   -0.140243   0.036179   0.001216   0.000356   0.006032  -0.000003
    31  O    0.434527  -0.019409   0.011716  -0.015957  -0.103548  -0.001612
    32  H    0.075709  -0.077519   0.000067   0.004729   0.011784  -0.000014
    33  H   -0.035999  -0.041278   0.004706  -0.004464   0.386622  -0.029279
    34  C   -0.069730  -0.373610  -0.035987   0.001203   1.589074   0.057703
    35  C    0.105379  -0.136407   0.010616  -0.001040  -0.633820   0.000275
    36  H   -0.000031   0.000867   0.000000   0.000000  -0.004993  -0.000044
    37  H    0.003968  -0.004578   0.000001   0.000000  -0.020205   0.000007
    38  C    0.111152   0.035259  -0.002939  -0.000591  -0.082321  -0.016999
    39  H   -0.004455   0.005938  -0.000005   0.000004   0.057114   0.000071
    40  H    0.000092   0.001550   0.000000   0.000000  -0.001733  -0.000021
    41  H   -0.004724  -0.001475   0.000000   0.000001  -0.004169   0.000069
    42  C   -0.004308   0.000139  -0.000001   0.000000   0.001501   0.000007
    43  H   -0.000004   0.000000   0.000000   0.000000   0.000011   0.000000
    44  H    0.000008  -0.000001   0.000000   0.000000  -0.000002   0.000000
    45  C    0.000219  -0.000067   0.000000   0.000000  -0.000147   0.000000
    46  H    0.000000   0.000000   0.000000   0.000000   0.000000   0.000000
    47  H    0.000005   0.000000   0.000000   0.000000  -0.000001   0.000000
    48  H   -0.000010   0.000000   0.000000   0.000000   0.000001   0.000000
              7          8          9         10         11         12
     1  C    2.946607  -0.053213  -1.336550  -0.060772  -2.134461  -0.042232
     2  C   -1.027606   0.001132   0.703658   0.014905   0.290915   0.035928
     3  H    0.096824   0.003831  -0.069864   0.000102   0.061330  -0.000082
     4  H    0.034673  -0.000025   0.018979  -0.000040   0.012548  -0.000101
     5  C   -5.873161  -0.043510   2.586360  -0.067639  -0.142833  -0.033564
     6  H   -0.315275  -0.005554   0.144648  -0.000041  -0.025786   0.000010
     7  C   27.024346   0.357499  -8.053478   0.081513  -0.431022   0.007044
     8  H    0.357499   0.564924   0.085038   0.004958   0.022764  -0.000170
     9  C   -8.053478   0.085038  17.642393   0.390776  -2.433754  -0.019748
    10  H    0.081513   0.004958   0.390776   0.513738   0.124533  -0.004214
    11  C   -0.431022   0.022764  -2.433754   0.124533  11.882640   0.204261
    12  H    0.007044  -0.000170  -0.019748  -0.004214   0.204261   0.556796
    13  C   -2.936646   0.136242   4.207560  -0.167342  -1.267961   0.042400
    14  C   -0.349101  -0.007510  -0.563316  -0.014064  -0.144254   0.009609
    15  C    3.230131  -0.173463  -2.278704  -0.128589  -1.265214   0.069132
    16  C   -4.637644   0.050415   0.100287   0.038774  -0.315038   0.059759
    17  C   -1.427604   0.014811  -1.267699   0.042395   0.011034   0.016200
    18  C   -0.225734  -0.033875  -1.439121   0.007006   0.733080   0.013525
    19  H   -0.000603   0.000000  -0.005640  -0.000007   0.000335   0.000002
    20  H   -0.000126   0.000004   0.007707   0.000001  -0.001435   0.000000
    21  O   -0.063274  -0.000259  -0.094369   0.002866   0.006303  -0.000991
    22  H    0.001449   0.000000   0.036584   0.000094   0.004976   0.000010
    23  O   -0.005921   0.006284   0.169984   0.000526  -0.055940  -0.002719
    24  H   -0.087422   0.000993  -0.028978  -0.000073   0.000908   0.000554
    25  O    0.484228   0.007543  -0.327790   0.011363   0.221127  -0.039201
    26  H   -0.024358   0.000011   0.041261  -0.000193   0.005933  -0.009011
    27  C    0.961062   0.009761  -2.199587   0.022094   1.458579  -0.039025
    28  H   -0.003305   0.000000   0.000328  -0.000006   0.022297  -0.000010
    29  H   -0.008163   0.000001  -0.001978   0.000006   0.022829   0.002669
    30  H   -0.005518   0.000014   0.020397   0.000001   0.018020   0.000402
    31  O    0.293527   0.001271  -0.168680   0.006449  -0.152693   0.003353
    32  H    0.007824   0.000001  -0.032914  -0.000166   0.046662  -0.000170
    33  H    0.090633   0.005127  -0.049400   0.003657   0.010358  -0.000054
    34  C   -5.675135  -0.209172   0.725631  -0.027698  -0.483166  -0.003182
    35  C    0.923539   0.118797   0.298804   0.022574   0.042393  -0.000196
    36  H    0.054109   0.000302   0.000259   0.000006   0.001606   0.000000
    37  H   -0.011399   0.005603   0.036148  -0.000005  -0.002313   0.000000
    38  C    0.792895  -0.028543  -0.564699  -0.017343   0.036941  -0.001669
    39  H   -0.085682  -0.000098  -0.007773  -0.000074   0.011419   0.000000
    40  H    0.020351  -0.000077  -0.005628  -0.000016   0.000624   0.000000
    41  H    0.046935  -0.000096   0.000830  -0.000019  -0.020357   0.000004
    42  C   -0.133473   0.000372  -0.154892  -0.000651  -0.003905   0.000513
    43  H   -0.000137   0.000000   0.000095   0.000000  -0.000020   0.000000
    44  H   -0.000243   0.000000   0.001908   0.000000   0.000073   0.000000
    45  C   -0.000094   0.000003   0.003017   0.000005  -0.001181   0.000023
    46  H    0.000004   0.000000   0.000115   0.000000   0.000014   0.000000
    47  H   -0.000081   0.000000   0.000374   0.000000  -0.000101   0.000000
    48  H    0.000015   0.000000  -0.000409   0.000000  -0.000151   0.000000
             13         14         15         16         17         18
     1  C   -0.456966  -0.011543   0.499916  -0.759300  -0.154939  -0.096712
     2  C   -0.110399   0.008018   0.096574   0.111631   0.013602   0.010016
     3  H   -0.014229  -0.000095   0.004387  -0.001316   0.000111   0.000616
     4  H    0.003271  -0.000008  -0.002093   0.000784   0.000039   0.000014
     5  C    0.439153   0.019593  -0.176264   0.506807   0.059851  -0.228109
     6  H    0.025675   0.000152  -0.015215   0.009218   0.000745  -0.001720
     7  C   -2.936646  -0.349101   3.230131  -4.637644  -1.427604  -0.225734
     8  H    0.136242  -0.007510  -0.173463   0.050415   0.014811  -0.033875
     9  C    4.207560  -0.563316  -2.278704   0.100287  -1.267699  -1.439121
    10  H   -0.167342  -0.014064  -0.128589   0.038774   0.042395   0.007006
    11  C   -1.267961  -0.144254  -1.265214  -0.315038   0.011034   0.733080
    12  H    0.042400   0.009609   0.069132   0.059759   0.016200   0.013525
    13  C   22.905303  -2.283945 -11.746273   0.771034  -3.260782   1.282076
    14  C   -2.283945  11.103778   2.876172  -0.162339   0.027896  -1.869724
    15  C  -11.746273   2.876172  31.504536  -2.219551  -2.711396 -10.113580
    16  C    0.771034  -0.162339  -2.219551  11.439274   1.522469  -0.852488
    17  C   -3.260782   0.027896  -2.711396   1.522469  13.314708  -1.086972
    18  C    1.282076  -1.869724 -10.113580  -0.852488  -1.086972  18.638516
    19  H    0.075007   0.049051  -0.052636  -0.063859   0.281421   0.051762
    20  H    0.054975   0.066214   0.069505  -0.003613   0.034621   0.119926
    21  O   -0.092801   0.031734   0.040736   0.225762  -0.059569  -0.003276
    22  H    0.124639   0.013302  -0.027008   0.040815  -0.202710   0.013770
    23  O   -0.432099   0.159180   0.981912  -0.070248  -0.014325  -0.674380
    24  H   -0.005710  -0.010970  -0.020522   0.024080  -0.002073   0.156839
    25  O   -0.030284  -0.025335   0.050933  -0.162309  -0.049702  -0.033328
    26  H   -0.030518   0.002371   0.028196   0.000376  -0.000655  -0.010307
    27  C   -0.450512  -0.002874   0.119155  -0.234745  -0.028435   0.083148
    28  H   -0.000448  -0.000014  -0.001103   0.000122   0.000009  -0.000028
    29  H   -0.000945  -0.000014  -0.001757   0.002335   0.000301  -0.000038
    30  H   -0.001215   0.000045   0.006218  -0.000503  -0.000120   0.000660
    31  O   -0.049568   0.000943   0.018789  -0.030427  -0.001451   0.003964
    32  H   -0.000259   0.000028   0.000288  -0.002390  -0.000189  -0.000007
    33  H   -0.011497  -0.000187  -0.009203   0.007837   0.001897   0.000063
    34  C   -0.293765   0.262124   0.389730   0.951542   0.178039  -0.154976
    35  C    0.565188  -0.142217  -0.908467   0.083426   0.213288   0.160953
    36  H   -0.000103  -0.000049   0.004163  -0.000640   0.000598  -0.000203
    37  H    0.021940  -0.002619   0.007172   0.003057   0.002428  -0.030452
    38  C   -0.060590   0.001874   0.399215  -0.561479  -0.355189  -0.033332
    39  H   -0.010101   0.000460   0.008373  -0.001301  -0.001274   0.001738
    40  H    0.001854  -0.000396   0.001330   0.003833   0.000378   0.001090
    41  H    0.036508  -0.004456  -0.009720  -0.012742  -0.011719  -0.002913
    42  C   -1.419087  -2.734451  -1.087160  -0.164138   1.022011   1.171147
    43  H    0.005606  -0.275369   0.023022  -0.029433  -0.099650   0.198986
    44  H   -0.012881  -0.248592  -0.000215   0.051304   0.170691  -0.145641
    45  C    0.025566  -0.006268   0.037145  -0.000419   0.012110   0.008692
    46  H    0.001293   0.010857   0.002394   0.001372   0.008071   0.005613
    47  H   -0.010604  -0.027305   0.015317   0.003745   0.023774  -0.052967
    48  H   -0.002034  -0.051993  -0.006524  -0.009712  -0.016148   0.030859
             19         20         21         22         23         24
     1  C   -0.000147  -0.000078  -0.017090   0.000190   0.035180   0.003826
     2  C    0.000019  -0.000002   0.006345  -0.000002  -0.005571  -0.011725
     3  H    0.000000   0.000000  -0.000006   0.000000   0.000089  -0.000077
     4  H    0.000000   0.000000   0.000004   0.000000   0.000007   0.000001
     5  C   -0.000118   0.000013   0.019281  -0.000703   0.015214   0.002789
     6  H    0.000000   0.000000   0.000003   0.000000   0.000014  -0.000009
     7  C   -0.000603  -0.000126  -0.063274   0.001449  -0.005921  -0.087422
     8  H    0.000000   0.000004  -0.000259   0.000000   0.006284   0.000993
     9  C   -0.005640   0.007707  -0.094369   0.036584   0.169984  -0.028978
    10  H   -0.000007   0.000001   0.002866   0.000094   0.000526  -0.000073
    11  C    0.000335  -0.001435   0.006303   0.004976  -0.055940   0.000908
    12  H    0.000002   0.000000  -0.000991   0.000010  -0.002719   0.000554
    13  C    0.075007   0.054975  -0.092801   0.124639  -0.432099  -0.005710
    14  C    0.049051   0.066214   0.031734   0.013302   0.159180  -0.010970
    15  C   -0.052636   0.069505   0.040736  -0.027008   0.981912  -0.020522
    16  C   -0.063859  -0.003613   0.225762   0.040815  -0.070248   0.024080
    17  C    0.281421   0.034621  -0.059569  -0.202710  -0.014325  -0.002073
    18  C    0.051762   0.119926  -0.003276   0.013770  -0.674380   0.156839
    19  H    0.521879  -0.000140  -0.018496   0.008468   0.000136   0.000000
    20  H   -0.000140   0.518035   0.000080  -0.000001  -0.005846   0.000105
    21  O   -0.018496   0.000080   8.318970   0.203039  -0.002141  -0.000097
    22  H    0.008468  -0.000001   0.203039   0.364036   0.000044   0.000000
    23  O    0.000136  -0.005846  -0.002141   0.000044   8.343025   0.188538
    24  H    0.000000   0.000105  -0.000097   0.000000   0.188538   0.313886
    25  O    0.000006  -0.000006  -0.001298  -0.000013  -0.001115   0.011451
    26  H    0.000000   0.000000  -0.000058   0.000000   0.002521   0.000495
    27  C   -0.000004  -0.000008   0.002317   0.000136  -0.003142  -0.002990
    28  H    0.000000   0.000000   0.000001   0.000000   0.000002   0.000000
    29  H    0.000000   0.000000   0.000019   0.000000  -0.000002  -0.000002
    30  H    0.000000   0.000000   0.000002   0.000000  -0.000099   0.000038
    31  O    0.000002   0.000000  -0.001062   0.000015   0.000359  -0.000137
    32  H    0.000000   0.000000   0.000025   0.000000  -0.000001   0.000000
    33  H    0.000000   0.000000  -0.000180   0.000000   0.000054  -0.000006
    34  C   -0.001130  -0.002719   0.040571  -0.000105  -0.057134   0.000526
    35  C    0.000134   0.002763  -0.010222   0.000304   0.015033   0.009705
    36  H    0.000000   0.000000  -0.000062   0.000000   0.000060  -0.000002
    37  H    0.000000  -0.000003  -0.000029   0.000000   0.003001  -0.000099
    38  C    0.000192   0.000244  -0.008233   0.000445  -0.015068  -0.002122
    39  H    0.000000   0.000000   0.000132  -0.000001  -0.000023   0.000000
    40  H    0.000000   0.000000   0.000091   0.000000  -0.000006   0.000000
    41  H   -0.000001   0.000000   0.002398  -0.000219  -0.000066   0.000002
    42  C   -0.017909  -0.031027  -0.000923   0.001047  -0.035563   0.003016
    43  H    0.000076   0.001645   0.000042   0.000000   0.000060   0.000000
    44  H    0.002120   0.000096   0.000032   0.000000   0.000027   0.000000
    45  C    0.007649   0.004740   0.000002   0.000034   0.001005  -0.000007
    46  H   -0.000030  -0.000027   0.000000   0.000000   0.000000   0.000000
    47  H    0.000011   0.000181   0.000004   0.000000  -0.000028   0.000000
    48  H    0.000165   0.000005   0.000028   0.000001   0.000005   0.000000
             25         26         27         28         29         30
     1  C    0.017025  -0.018611  -2.942383  -0.075933  -0.143096  -0.140243
     2  C   -0.045480   0.010056   0.286171  -0.010644   0.022090   0.036179
     3  H    0.006043   0.000206   0.024750   0.000260   0.000044   0.001216
     4  H   -0.000772  -0.000013  -0.051758   0.002051  -0.000047   0.000356
     5  C   -0.165542   0.014081  -0.743715   0.010226  -0.011686   0.006032
     6  H   -0.000170   0.000000  -0.008392  -0.000001   0.000002  -0.000003
     7  C    0.484228  -0.024358   0.961062  -0.003305  -0.008163  -0.005518
     8  H    0.007543   0.000011   0.009761   0.000000   0.000001   0.000014
     9  C   -0.327790   0.041261  -2.199587   0.000328  -0.001978   0.020397
    10  H    0.011363  -0.000193   0.022094  -0.000006   0.000006   0.000001
    11  C    0.221127   0.005933   1.458579   0.022297   0.022829   0.018020
[...]
    15  C    0.061954   0.006351   0.093017  -0.001842  -0.001001   0.004918
    16  C   -0.142327   0.004206  -0.162051   0.000361   0.001379  -0.000106
    17  C   -0.046342   0.000205  -0.026097   0.000024   0.000234  -0.000076
    18  C    0.032863  -0.016299   0.053226  -0.000063  -0.000007   0.000613
    19  H    0.000003   0.000000  -0.000003   0.000000   0.000000   0.000000
    20  H   -0.000049   0.000000  -0.000014   0.000000   0.000000   0.000000
    21  O   -0.001493  -0.000053   0.004613   0.000003   0.000016   0.000003
    22  H   -0.000001   0.000000   0.000154   0.000000   0.000000   0.000000
    23  O   -0.013124   0.004097  -0.002588   0.000003   0.000005  -0.000108
    24  H    0.020899  -0.000250  -0.002568   0.000000  -0.000001   0.000038
    25  O    8.489312   0.241036   0.003624  -0.000885  -0.002451   0.006859
    26  H    0.241036   0.307080   0.000900  -0.000039   0.000339  -0.000187
    27  C    0.003624   0.000900   8.337185   0.453987   0.539576   0.445627
    28  H   -0.000885  -0.000039   0.453987   0.530893  -0.028553  -0.025550
    29  H   -0.002451   0.000339   0.539576  -0.028553   0.537834  -0.027270
    30  H    0.006859  -0.000187   0.445627  -0.025550  -0.027270   0.528698
    31  O    0.021684  -0.000120  -0.207360  -0.012267   0.000072   0.009072
    32  H   -0.000873  -0.000004   0.001987   0.003541  -0.000415   0.000069
    33  H    0.000638   0.000003  -0.001824  -0.000001   0.000002   0.000001
    34  C   -0.022689  -0.001710  -0.125635   0.000287  -0.000725   0.000231
    35  C    0.013973  -0.000253  -0.003295  -0.000044   0.000022   0.000050
    36  H   -0.000007   0.000000   0.000006   0.000000   0.000000   0.000000
    37  H    0.000056   0.000000   0.000126   0.000000   0.000000   0.000000
    38  C    0.001572  -0.000054   0.012811   0.000021  -0.000101  -0.000075
    39  H   -0.000021   0.000000   0.000252   0.000000   0.000000   0.000000
    40  H   -0.000006   0.000000  -0.000013   0.000000   0.000000   0.000000
    41  H    0.000088   0.000000  -0.000800   0.000000   0.000000   0.000000
    42  C   -0.007336   0.000119   0.000027   0.000000  -0.000001   0.000000
    43  H   -0.000001   0.000000   0.000000   0.000000   0.000000   0.000000
    44  H    0.000000   0.000000   0.000000   0.000000   0.000000   0.000000
    45  C    0.000053  -0.000004  -0.000138   0.000000   0.000000   0.000000
    46  H    0.000000   0.000000   0.000000   0.000000   0.000000   0.000000
    47  H    0.000001   0.000000   0.000000   0.000000   0.000000   0.000000
    48  H    0.000000   0.000000   0.000000   0.000000   0.000000   0.000000
             31         32         33         34         35         36
     1  C    0.356804   0.019647  -0.067267   0.069996   0.086887   0.000219
     2  C   -0.021110  -0.049214  -0.040170  -0.311546  -0.212648  -0.000865
     3  H    0.009312   0.000089   0.005124  -0.036398   0.009856   0.000000
     4  H   -0.017359   0.004501  -0.004932  -0.008940  -0.000219   0.000000
     5  C   -0.056679   0.007227   0.510903   1.292636  -0.545569  -0.002520
     6  H   -0.001776   0.000013  -0.033579   0.066168  -0.000290  -0.000046
     7  C    0.233870  -0.003186  -0.125039  -4.336924   0.314087   0.012025
     8  H    0.001515  -0.000001   0.005498  -0.197753   0.079308   0.000338
     9  C   -0.114029  -0.025737   0.050754   0.513444   0.491920  -0.001110
    10  H    0.007647  -0.000144   0.003783  -0.039247   0.007981   0.000007
    11  C   -0.236772   0.060185   0.007427  -0.584557  -0.000437   0.000513
    12  H    0.005455  -0.000184  -0.000057  -0.004307   0.001079   0.000000
    13  C   -0.016961  -0.003307  -0.002861  -0.754198   0.677140   0.005867
    14  C    0.001414  -0.000007  -0.000092   0.285557  -0.110500  -0.000319
    15  C    0.005828  -0.000278  -0.017915   0.919355  -1.067128  -0.001228
    16  C   -0.015203  -0.001938   0.020173   0.692310   0.258205  -0.001116
    17  C    0.001500  -0.000132   0.003080   0.144799   0.294866   0.000145
    18  C    0.003375  -0.000058  -0.000421  -0.225408   0.098864  -0.000896
    19  H    0.000002   0.000000   0.000000  -0.000766   0.000283   0.000000
    20  H    0.000000   0.000000   0.000000  -0.002199   0.002490   0.000000
    21  O   -0.001671   0.000045  -0.000080   0.034156  -0.014260  -0.000061
    22  H    0.000013   0.000000   0.000000  -0.000230   0.000335   0.000000
    23  O    0.000472   0.000000   0.000057  -0.078532   0.041089   0.000145
    24  H   -0.000172   0.000000  -0.000009   0.003718   0.004985  -0.000002
    25  O    0.021684  -0.000873   0.000638  -0.022689   0.013973  -0.000007
    26  H   -0.000120  -0.000004   0.000003  -0.001710  -0.000253   0.000000
    27  C   -0.207360   0.001987  -0.001824  -0.125635  -0.003295   0.000006
    28  H   -0.012267   0.003541  -0.000001   0.000287  -0.000044   0.000000
    29  H    0.000072  -0.000415   0.000002  -0.000725   0.000022   0.000000
    30  H    0.009072   0.000069   0.000001   0.000231   0.000050   0.000000
    31  O    8.426396   0.240065   0.012656  -0.037076   0.010089   0.000001
    32  H    0.240065   0.336691  -0.000177  -0.000824  -0.000023   0.000000
    33  H    0.012656  -0.000177   0.562671  -0.027663   0.051924   0.000007
    34  C   -0.037076  -0.000824  -0.027663  10.932714  -2.136787  -0.127946
    35  C    0.010089  -0.000023   0.051924  -2.136787   8.501117   0.465499
    36  H    0.000001   0.000000   0.000007  -0.127946   0.465499   0.538389
    37  H    0.000003   0.000000  -0.000004  -0.211718   0.627390  -0.035281
    38  C    0.007857  -0.000054  -0.066452  -0.048682  -1.330890  -0.000882
    39  H   -0.000364   0.000001  -0.001314  -0.084728  -0.038570   0.000230
    40  H   -0.000007   0.000000   0.000041  -0.064283  -0.051264   0.003555
    41  H    0.000030  -0.000001  -0.000004  -0.160938  -0.014475   0.000172
    42  C    0.000189   0.000000   0.000005   0.011973   0.020299   0.000096
    43  H    0.000000   0.000000   0.000000   0.000328  -0.000218   0.000000
    44  H    0.000000   0.000000   0.000000   0.000195  -0.000116   0.000000
    45  C    0.000004   0.000000   0.000000  -0.001517  -0.000080   0.000002
    46  H    0.000000   0.000000   0.000000   0.000009  -0.000005   0.000000
    47  H    0.000000   0.000000   0.000000   0.000031  -0.000018   0.000000
    48  H    0.000000   0.000000   0.000000   0.000010  -0.000006   0.000000
             37         38         39         40         41         42
     1  C    0.004554   0.091398  -0.005390   0.000386  -0.003908  -0.004384
     2  C   -0.004551   0.091383   0.005417  -0.001086   0.001765   0.000009
     3  H    0.000001  -0.004031  -0.000005   0.000000   0.000000  -0.000005
     4  H    0.000000  -0.002264   0.000003   0.000000   0.000001   0.000000
     5  C   -0.019063  -0.033704   0.043705   0.006645  -0.019724   0.004491
     6  H   -0.000002  -0.016395   0.000033  -0.000016   0.000074   0.000010
     7  C   -0.057254   0.489411  -0.042730  -0.054456   0.101948  -0.116443
     8  H    0.005989  -0.026560  -0.000103  -0.000085  -0.000092   0.000222
     9  C    0.029347  -0.690017  -0.019086  -0.004674  -0.012906  -0.102848
    10  H   -0.000004  -0.006561  -0.000061   0.000003   0.000122  -0.000967
    11  C   -0.001037  -0.069856   0.010700  -0.001940  -0.010963  -0.044711
    12  H    0.000000  -0.002311   0.000000   0.000000   0.000003   0.000607
    13  C    0.005631  -0.039542  -0.007748   0.005140   0.025228  -1.193189
    14  C   -0.001346   0.005582  -0.000269   0.000712  -0.002800  -2.464084
    15  C    0.016977   0.443004   0.008855  -0.001937  -0.011451  -0.835824
    16  C    0.003806  -0.607013  -0.009150   0.009676  -0.031371  -0.256073
    17  C    0.002786  -0.419710  -0.003296   0.002574  -0.012114   0.923308
    18  C   -0.029940   0.002504   0.002395  -0.000337   0.000011   0.737182
    19  H    0.000000   0.000026   0.000000   0.000000  -0.000001  -0.018860
    20  H   -0.000002   0.000216   0.000000   0.000000   0.000000  -0.018790
    21  O   -0.000046  -0.002262   0.000405   0.000092   0.002763   0.002007
    22  H    0.000000   0.000371   0.000000   0.000000  -0.000223   0.000373
    23  O    0.003173  -0.021985  -0.000045  -0.000005  -0.000001  -0.023755
    24  H   -0.000100  -0.001005   0.000000   0.000000   0.000002   0.001048
    25  O    0.000056   0.001572  -0.000021  -0.000006   0.000088  -0.007336
    26  H    0.000000  -0.000054   0.000000   0.000000   0.000000   0.000119
    27  C    0.000126   0.012811   0.000252  -0.000013  -0.000800   0.000027
    28  H    0.000000   0.000021   0.000000   0.000000   0.000000   0.000000
    29  H    0.000000  -0.000101   0.000000   0.000000   0.000000  -0.000001
    30  H    0.000000  -0.000075   0.000000   0.000000   0.000000   0.000000
    31  O    0.000003   0.007857  -0.000364  -0.000007   0.000030   0.000189
    32  H    0.000000  -0.000054   0.000001   0.000000  -0.000001   0.000000
    33  H   -0.000004  -0.066452  -0.001314   0.000041  -0.000004   0.000005
    34  C   -0.211718  -0.048682  -0.084728  -0.064283  -0.160938   0.011973
    35  C    0.627390  -1.330890  -0.038570  -0.051264  -0.014475   0.020299
    36  H   -0.035281  -0.000882   0.000230   0.003555   0.000172   0.000096
    37  H    0.548138  -0.028646  -0.000190   0.000201  -0.000206   0.000138
    38  C   -0.028646   7.428049   0.487970   0.506989   0.499985  -0.013498
    39  H   -0.000190   0.487970   0.536695  -0.027053  -0.028897  -0.000022
    40  H    0.000201   0.506989  -0.027053   0.541382  -0.026969  -0.000045
    41  H   -0.000206   0.499985  -0.028897  -0.026969   0.534266  -0.000057
    42  C    0.000138  -0.013498  -0.000022  -0.000045  -0.000057   8.377404
    43  H    0.000000   0.000039   0.000000   0.000000   0.000000   0.535113
    44  H    0.000000   0.000012   0.000000   0.000000   0.000000   0.535483
    45  C   -0.000005   0.000570   0.000000   0.000000   0.000014   0.128925
    46  H    0.000000   0.000001   0.000000   0.000000   0.000000  -0.039603
    47  H    0.000000  -0.000001   0.000000   0.000000   0.000000  -0.041417
    48  H    0.000000   0.000002   0.000000   0.000000   0.000000  -0.037544
             43         44         45         46         47         48
     1  C   -0.000002   0.000003   0.000381   0.000000   0.000005  -0.000012
     2  C    0.000000   0.000000  -0.000127   0.000000   0.000000   0.000001
     3  H    0.000000   0.000000   0.000000   0.000000   0.000000   0.000000
     4  H    0.000000   0.000000   0.000000   0.000000   0.000000   0.000000
     5  C    0.000006  -0.000003  -0.000143   0.000000  -0.000003   0.000001
     6  H    0.000000   0.000000   0.000000   0.000000   0.000000   0.000000
     7  C   -0.000225  -0.000181   0.001239   0.000008  -0.000102  -0.000003
     8  H    0.000000   0.000000   0.000000   0.000000   0.000000   0.000000
     9  C   -0.000202   0.001084   0.000758   0.000134   0.000073  -0.000783
    10  H    0.000000   0.000000   0.000008   0.000000   0.000000   0.000000
    11  C   -0.000045   0.000030  -0.000001   0.000001  -0.000143  -0.000157
    12  H    0.000000   0.000000   0.000023   0.000000   0.000000   0.000000
    13  C   -0.009784  -0.014023   0.011238   0.000328  -0.020036  -0.000435
    14  C   -0.207112  -0.203796   0.086186  -0.045036   0.062468   0.015210
    15  C    0.024213  -0.009240   0.024465   0.002538   0.004685  -0.002468
    16  C   -0.023810   0.027093  -0.015790  -0.000166   0.014797  -0.030973
    17  C   -0.064235   0.098035  -0.013870   0.003932   0.055245  -0.064446
    18  C    0.088273  -0.092056  -0.030419   0.014328  -0.137256   0.059254
    19  H    0.000107   0.002381   0.004066  -0.000036   0.000016   0.000190
    20  H    0.002154   0.000115   0.002914  -0.000034   0.000246   0.000007
    21  O    0.000033   0.000042   0.000322  -0.000001   0.000002   0.000051
    22  H    0.000000  -0.000002  -0.000005   0.000000   0.000000   0.000000
    23  O    0.000013   0.000025   0.001121  -0.000001  -0.000038   0.000009
    24  H    0.000000   0.000000  -0.000003   0.000000   0.000000   0.000000
    25  O   -0.000001   0.000000   0.000053   0.000000   0.000001   0.000000
    26  H    0.000000   0.000000  -0.000004   0.000000   0.000000   0.000000
    27  C    0.000000   0.000000  -0.000138   0.000000   0.000000   0.000000
    28  H    0.000000   0.000000   0.000000   0.000000   0.000000   0.000000
    29  H    0.000000   0.000000   0.000000   0.000000   0.000000   0.000000
    30  H    0.000000   0.000000   0.000000   0.000000   0.000000   0.000000
    31  O    0.000000   0.000000   0.000004   0.000000   0.000000   0.000000
    32  H    0.000000   0.000000   0.000000   0.000000   0.000000   0.000000
    33  H    0.000000   0.000000   0.000000   0.000000   0.000000   0.000000
    34  C    0.000328   0.000195  -0.001517   0.000009   0.000031   0.000010
    35  C   -0.000218  -0.000116  -0.000080  -0.000005  -0.000018  -0.000006
    36  H    0.000000   0.000000   0.000002   0.000000   0.000000   0.000000
    37  H    0.000000   0.000000  -0.000005   0.000000   0.000000   0.000000
    38  C    0.000039   0.000012   0.000570   0.000001  -0.000001   0.000002
    39  H    0.000000   0.000000   0.000000   0.000000   0.000000   0.000000
    40  H    0.000000   0.000000   0.000000   0.000000   0.000000   0.000000
    41  H    0.000000   0.000000   0.000014   0.000000   0.000000   0.000000
    42  C    0.535113   0.535483   0.128925  -0.039603  -0.041417  -0.037544
    43  H    0.565370  -0.033587  -0.024694  -0.003311  -0.004983   0.004873
    44  H   -0.033587   0.567003  -0.026350  -0.003337   0.004926  -0.004990
    45  C   -0.024694  -0.026350   5.185353   0.422460   0.416825   0.418053
    46  H   -0.003311  -0.003337   0.422460   0.549784  -0.026820  -0.027039
    47  H   -0.004983   0.004926   0.416825  -0.026820   0.542738  -0.028475
    48  H    0.004873  -0.004990   0.418053  -0.027039  -0.028475   0.542088
 Mulliken atomic charges:
              1
     1  C    0.270709
     2  C   -0.304386
     3  H    0.162205
     4  H    0.155999
     5  C   -0.581287
     6  H    0.150154
     7  C    0.019303
     8  H    0.141260
     9  C   -0.153809
    10  H    0.173176
    11  C   -0.310276
    12  H    0.157885
    13  C    0.361971
    14  C    0.014127
    15  C   -1.303611
    16  C    0.541070
    17  C   -0.101858
    18  C    0.344564
    19  H    0.148037
    20  H    0.146324
    21  O   -0.602208
    22  H    0.449070
    23  O   -0.623899
    24  H    0.474460
    25  O   -0.663804
    26  H    0.445397
    27  C   -0.361373
    28  H    0.165076
    29  H    0.163199
    30  H    0.170211
    31  O   -0.616398
    32  H    0.412497
    33  H    0.155112
    34  C    0.666015
    35  C   -0.532644
    36  H    0.145062
    37  H    0.141081
    38  C   -0.637223
    39  H    0.172382
    40  H    0.156781
    41  H    0.171430
    42  C   -0.059571
    43  H    0.151688
    44  H    0.151252
    45  C   -0.591833
    46  H    0.151868
    47  H    0.157236
    48  H    0.157582
 Sum of Mulliken atomic charges =   0.00000
 Mulliken charges with hydrogens summed into heavy atoms:
              1
     1  C    0.270709
     2  C    0.013818
     5  C   -0.276021
     7  C    0.160563
     9  C    0.019367
    11  C   -0.152390
    13  C    0.361971
    14  C    0.014127
    15  C   -1.303611
    16  C    0.541070
    17  C    0.046179
    18  C    0.490888
    21  O   -0.153138
    23  O   -0.149439
    25  O   -0.218407
    27  C    0.137113
    31  O   -0.203901
    34  C    0.666015
    35  C   -0.246502
    38  C   -0.136630
    42  C    0.243368
    45  C   -0.125147
 Sum of Mulliken charges with hydrogens summed into heavy atoms =   0.00000
 Electronic spatial extent (au):  <R**2>=           7167.6166
 Charge=              0.0000 electrons
 Dipole moment (field-independent basis, Debye):
    X=             -2.7099    Y=             -2.7763    Z=              3.0205  Tot=              4.9168
 Quadrupole moment (field-independent basis, Debye-Ang):
   XX=           -106.0204   YY=           -128.6911   ZZ=           -138.1383
   XY=              6.7642   XZ=              9.9388   YZ=              6.5894
 Traceless Quadrupole moment (field-independent basis, Debye-Ang):
   XX=             18.2629   YY=             -4.4078   ZZ=            -13.8551
   XY=              6.7642   XZ=              9.9388   YZ=              6.5894
 Octapole moment (field-independent basis, Debye-Ang**2):
  XXX=            -60.4433  YYY=            -49.6656  ZZZ=             46.0863  XYY=            -26.6349
  XXY=            -20.2143  XXZ=             33.0994  XZZ=             20.6134  YZZ=              1.5582
  YYZ=             -1.3461  XYZ=             -6.1771
 Hexadecapole moment (field-independent basis, Debye-Ang**3):
 XXXX=          -5675.3718 YYYY=          -2037.4341 ZZZZ=          -1172.0094 XXXY=            103.9723
 XXXZ=            -92.5337 YYYX=            113.0110 YYYZ=             80.4577 ZZZX=            113.2303
 ZZZY=             42.0910 XXYY=          -1451.0404 XXZZ=          -1190.8908 YYZZ=           -570.7242
 XXYZ=             23.1157 YYXZ=             -0.1879 ZZXY=             21.2841
 N-N= 1.981544125360D+03 E-N=-6.296630112367D+03  KE= 9.931596503204D+02

 Test job not archived.
 1\1\GINC-COMPUTE-10-4\SP\RB3LYP\6-31+G(d,p)\C18H26O4\LPASSAGLIA.IQUIR\
 23-Dec-2022\0\\# B3LYP/6-31+G** geom=allcheck test scrf=(pcm,solvent=w
 ater,smd,dovacuum)\\comment\\0,1\C,0,-1.776630645,0.799845002,-2.66341
 0949\C,0,-2.506379176,1.9260634,-1.910731992\H,0,-1.921704966,2.853500
 605,-1.953285502\H,0,-3.471929067,2.132818302,-2.389341892\C,0,-2.7715
 59238,1.566819175,-0.447580945\H,0,-3.253748929,2.420161104,0.04591016
 2\C,0,-1.478900199,1.187655617,0.305765472\H,0,-0.849083181,2.08660030
 3,0.284412061\C,0,-0.729129179,0.043981184,-0.4466053\H,0,-1.434851112
 ,-0.795627417,-0.481002268\C,0,-0.45973128,0.420551988,-1.931120842\H,
 0,0.006818755,-0.441287139,-2.426893323\C,0,0.543940373,-0.450316521,0
 .25192127\C,0,2.808459625,-1.431551449,1.679339724\C,0,1.610360634,0.3
 89211638,0.612580504\C,0,0.673120612,-1.809026234,0.591695993\C,0,1.78
 2646743,-2.297706541,1.291523262\C,0,2.714672793,-0.083687921,1.325621
 437\H,0,1.855185916,-3.352166304,1.542212216\H,0,3.507554391,0.6120259
 ,1.590120175\O,0,-0.311985317,-2.68744319,0.224573378\H,0,-0.096428786
 ,-3.566728855,0.574140834\O,0,1.662041883,1.714401569,0.276892249\H,0,
 1.148625709,1.817158839,-0.553478018\O,0,0.46542372,1.521807303,-2.004
 74907\H,0,0.896796512,1.458027927,-2.878426996\C,0,-1.510431571,1.2297
 4743,-4.110929779\H,0,-2.451909906,1.403644914,-4.644897574\H,0,-0.986
 486384,0.438029257,-4.658346252\H,0,-0.914325258,2.145791076,-4.168383
 685\O,0,-2.624056621,-0.353648878,-2.718120307\H,0,-3.47217249,-0.0892
 01985,-3.115055058\H,0,-3.492042542,0.740382985,-0.416052509\C,0,-1.78
 8615226,0.874362026,1.772161646\C,0,-1.238701627,1.600229588,2.7616144
 05\H,0,-1.43786365,1.385539726,3.806649787\H,0,-0.553775521,2.41735240
 9,2.552875141\C,0,-2.710054272,-0.27330443,2.087342334\H,0,-3.71940963
 3,-0.075183663,1.715292234\H,0,-2.791339333,-0.444892364,3.166462091\H
 ,0,-2.348795372,-1.203387057,1.641127206\C,0,4.010473336,-1.94434028,2
 .427887922\H,0,4.392325519,-1.161259757,3.0942779\H,0,3.7127252,-2.776
 162648,3.077874502\C,0,5.11346536,-2.398874203,1.484300042\H,0,5.97237
 4395,-2.765703046,2.055100581\H,0,5.45565173,-1.57607987,0.847426317\H
 ,0,4.769377275,-3.208129517,0.831311418\\Version=EM64L-G09RevC.01\Stat
 e=1-A\HF=-1002.5577375\RMSD=5.657e-09\Dipole=-0.688573,-0.7496433,-1.6
 449663\Quadrupole=-0.659128,-2.1874516,2.8465796,-8.0675004,4.7092147,
 -12.6718584\PG=C01 [X(C18H26O4)]\\@


 I LOVE THOSE WHO LONG FOR THE IMPOSSIBLE.

                                 -- GOETHE
 Job cpu time:  0 days  1 hours 11 minutes 48.5 seconds.
 File lengths (MBytes):  RWF=    242 Int=      0 D2E=      0 Chk=     19 Scr=      1
 Normal termination of Gaussian 09 at Fri Dec 23 14:39:24 2022.
