 Entering Gaussian System, Link 0=g09
 Input=/home/lpassaglia.iquir/Link1/02_RSSS_THC_003.gjc
 Output=/home/lpassaglia.iquir/Link1/02_RSSS_THC_003.log
 Initial command:
 /share/apps/Gaussian09/EM64T.SSE4.2-enabled/g09/l1.exe /tmp/Gau-18722.inp -scrdir=/tmp/
 Entering Link 1 = /share/apps/Gaussian09/EM64T.SSE4.2-enabled/g09/l1.exe PID=     18732.
  
 Copyright (c) 1988,1990,1992,1993,1995,1998,2003,2009,2011,
            Gaussian, Inc.  All Rights Reserved.
  
 This is part of the Gaussian(R) 09 program.  It is based on
 the Gaussian(R) 03 system (copyright 2003, Gaussian, Inc.),
 the Gaussian(R) 98 system (copyright 1998, Gaussian, Inc.),
 the Gaussian(R) 94 system (copyright 1995, Gaussian, Inc.),
 the Gaussian 92(TM) system (copyright 1992, Gaussian, Inc.),
 the Gaussian 90(TM) system (copyright 1990, Gaussian, Inc.),
 the Gaussian 88(TM) system (copyright 1988, Gaussian, Inc.),
 the Gaussian 86(TM) system (copyright 1986, Carnegie Mellon
 University), and the Gaussian 82(TM) system (copyright 1983,
 Carnegie Mellon University). Gaussian is a federally registered
 trademark of Gaussian, Inc.
  
 This software contains proprietary and confidential information,
 including trade secrets, belonging to Gaussian, Inc.
  
 This software is provided under written license and may be
 used, copied, transmitted, or stored only in accord with that
 written license.
  
 The following legend is applicable only to US Government
 contracts under FAR:
  
                    RESTRICTED RIGHTS LEGEND
  
 Use, reproduction and disclosure by the US Government is
 subject to restrictions as set forth in subparagraphs (a)
 and (c) of the Commercial Computer Software - Restricted
 Rights clause in FAR 52.227-19.
  
 Gaussian, Inc.
 340 Quinnipiac St., Bldg. 40, Wallingford CT 06492
  
  
 ---------------------------------------------------------------
 Warning -- This program may not be used in any manner that
 competes with the business of Gaussian, Inc. or will provide
 assistance to any competitor of Gaussian, Inc.  The licensee
 of this program is prohibited from giving any competitor of
 Gaussian, Inc. access to this program.  By using this program,
 the user acknowledges that Gaussian, Inc. is engaged in the
 business of creating and licensing software in the field of
 computational chemistry and represents and warrants to the
 licensee that it is not a competitor of Gaussian, Inc. and that
 it will not use this program in any manner prohibited above.
 ---------------------------------------------------------------
  

 Cite this work as:
 Gaussian 09, Revision C.01,
 M. J. Frisch, G. W. Trucks, H. B. Schlegel, G. E. Scuseria, 
 M. A. Robb, J. R. Cheeseman, G. Scalmani, V. Barone, B. Mennucci, 
 G. A. Petersson, H. Nakatsuji, M. Caricato, X. Li, H. P. Hratchian, 
 A. F. Izmaylov, J. Bloino, G. Zheng, J. L. Sonnenberg, M. Hada, 
 M. Ehara, K. Toyota, R. Fukuda, J. Hasegawa, M. Ishida, T. Nakajima, 
 Y. Honda, O. Kitao, H. Nakai, T. Vreven, J. A. Montgomery, Jr., 
 J. E. Peralta, F. Ogliaro, M. Bearpark, J. J. Heyd, E. Brothers, 
 K. N. Kudin, V. N. Staroverov, T. Keith, R. Kobayashi, J. Normand, 
 K. Raghavachari, A. Rendell, J. C. Burant, S. S. Iyengar, J. Tomasi, 
 M. Cossi, N. Rega, J. M. Millam, M. Klene, J. E. Knox, J. B. Cross, 
 V. Bakken, C. Adamo, J. Jaramillo, R. Gomperts, R. E. Stratmann, 
 O. Yazyev, A. J. Austin, R. Cammi, C. Pomelli, J. W. Ochterski, 
 R. L. Martin, K. Morokuma, V. G. Zakrzewski, G. A. Voth, 
 P. Salvador, J. J. Dannenberg, S. Dapprich, A. D. Daniels, 
 O. Farkas, J. B. Foresman, J. V. Ortiz, J. Cioslowski, 
 and D. J. Fox, Gaussian, Inc., Wallingford CT, 2010.
 
 ******************************************
 Gaussian 09:  EM64L-G09RevC.01 23-Sep-2011
                23-Dec-2022 
 ******************************************
 %chk=02_RSSS_THC_003_optB_NMR
 %nprocshared=4
 Will use up to    4 processors via shared memory.
 ------------------------------------------------
 # mPW1PW91/6-31+G** scrf=(PCM,solvent=water) nmr
 ------------------------------------------------
 1/38=1/1;
 2/12=2,17=6,18=5,40=1/2;
 3/5=1,6=6,7=111,11=2,16=1,25=1,30=1,70=2201,72=1,74=-7/1,2,8,3;
 4//1;
 5/5=2,38=5,53=1/2;
 8/6=1,10=90,11=11/1;
 10/13=100,45=16/2;
 6/7=2,8=2,9=2,10=2,28=1/1;
 99/9=1/99;
 -------
 comment
 -------
 Charge =  0 Multiplicity = 1
 Symbolic Z-Matrix:
 6                     1.84997   2.42934  -1.6119 
 6                     0.98605   3.4805   -0.91162 
 1                     1.49888   4.45128  -0.9163 
 1                     0.07723   3.64974  -1.49933 
 6                     0.6284    3.10379   0.52523 
 1                     1.53892   3.17718   1.13451 
 6                     0.04649   1.68245   0.70367 
 1                     0.21257   1.46544   1.77071 
 6                     0.87699   0.60882  -0.07794 
 1                     1.87474   0.59363   0.38366 
 6                     1.16558   1.04018  -1.53573 
 1                     0.25328   1.09727  -2.1336 
 6                     0.34922  -0.81382   0.16178 
 6                    -0.6201   -3.42521   0.76373 
 6                     0.67033  -1.46682   1.36819 
 6                    -0.48124  -1.51024  -0.72669 
 6                    -0.96076  -2.79359  -0.43617 
 6                     0.19826  -2.74767   1.67034 
 1                    -1.59941  -3.3139   -1.14543 
 1                     0.45921  -3.22324   2.61172 
 8                    -0.83191  -0.94596  -1.91992 
 1                    -1.57321  -1.44695  -2.29984 
 8                     1.46672  -0.82385   2.28 
 1                     1.62707  -1.41495   3.03326 
 8                     2.01637   0.09466  -2.21054 
 1                     1.49734  -0.73135  -2.24783 
 6                     3.2904    2.44054  -1.07947 
 1                     3.74236   3.42929  -1.22307 
 1                     3.92397   1.73883  -1.63332 
 1                     3.35429   2.19401  -0.01667 
 8                     1.9405    2.79531  -3.00169 
 1                     2.30327   2.00121  -3.44344 
 1                    -0.05961   3.8531    0.9366 
 6                    -1.47798   1.62962   0.51985 
 6                    -2.25396   1.07147   1.4684 
 1                    -3.33431   1.02764   1.37237 
 1                    -1.82786   0.63166   2.36549 
 6                    -2.12092   2.2251   -0.70063 
 1                    -2.00384   3.31235  -0.7067 
 1                    -3.19772   2.02275  -0.73289 
 1                    -1.69946   1.81277  -1.61822 
 6                    -1.15105  -4.79823   1.08622 
 1                    -1.26076  -5.3782    0.16175 
 1                    -0.42195  -5.34158   1.69961 
 6                    -2.48568  -4.73128   1.81276 
 1                    -2.84698  -5.74048   2.03426 
 1                    -3.24376  -4.22508   1.20549 
 1                    -2.39591  -4.18754   2.75933 
 
                          Input orientation:                          
 ---------------------------------------------------------------------
 Center     Atomic      Atomic             Coordinates (Angstroms)
 Number     Number       Type             X           Y           Z
 ---------------------------------------------------------------------
      1          6           0        1.849969    2.429338   -1.611901
      2          6           0        0.986045    3.480502   -0.911616
      3          1           0        1.498878    4.451279   -0.916298
      4          1           0        0.077227    3.649744   -1.499333
      5          6           0        0.628398    3.103789    0.525229
      6          1           0        1.538919    3.177181    1.134511
      7          6           0        0.046489    1.682449    0.703670
      8          1           0        0.212575    1.465443    1.770714
      9          6           0        0.876991    0.608825   -0.077941
     10          1           0        1.874738    0.593632    0.383661
     11          6           0        1.165583    1.040184   -1.535733
     12          1           0        0.253279    1.097267   -2.133600
     13          6           0        0.349217   -0.813823    0.161779
     14          6           0       -0.620102   -3.425211    0.763729
     15          6           0        0.670329   -1.466818    1.368192
     16          6           0       -0.481237   -1.510239   -0.726690
     17          6           0       -0.960755   -2.793593   -0.436165
     18          6           0        0.198257   -2.747671    1.670336
     19          1           0       -1.599409   -3.313900   -1.145435
     20          1           0        0.459212   -3.223238    2.611718
     21          8           0       -0.831913   -0.945960   -1.919917
     22          1           0       -1.573214   -1.446947   -2.299841
     23          8           0        1.466721   -0.823846    2.280002
     24          1           0        1.627073   -1.414945    3.033261
     25          8           0        2.016367    0.094664   -2.210537
     26          1           0        1.497341   -0.731349   -2.247827
     27          6           0        3.290397    2.440543   -1.079466
     28          1           0        3.742360    3.429289   -1.223070
     29          1           0        3.923969    1.738834   -1.633321
     30          1           0        3.354287    2.194010   -0.016674
     31          8           0        1.940496    2.795306   -3.001689
     32          1           0        2.303272    2.001211   -3.443443
     33          1           0       -0.059610    3.853104    0.936599
     34          6           0       -1.477985    1.629616    0.519850
     35          6           0       -2.253957    1.071471    1.468397
     36          1           0       -3.334314    1.027638    1.372371
     37          1           0       -1.827858    0.631664    2.365489
     38          6           0       -2.120915    2.225099   -0.700628
     39          1           0       -2.003838    3.312352   -0.706704
     40          1           0       -3.197715    2.022745   -0.732892
     41          1           0       -1.699462    1.812768   -1.618224
     42          6           0       -1.151053   -4.798234    1.086225
     43          1           0       -1.260761   -5.378202    0.161754
     44          1           0       -0.421950   -5.341585    1.699606
     45          6           0       -2.485681   -4.731280    1.812764
     46          1           0       -2.846984   -5.740481    2.034260
     47          1           0       -3.243762   -4.225082    1.205493
     48          1           0       -2.395914   -4.187543    2.759335
 ---------------------------------------------------------------------
                    Distance matrix (angstroms):
                    1          2          3          4          5
     1  C    0.000000
     2  C    1.530265   0.000000
     3  H    2.166882   1.097919   0.000000
     4  H    2.155151   1.095447   1.733055   0.000000
     5  C    2.552342   1.527858   2.156726   2.168112   0.000000
     6  H    2.863355   2.141100   2.414694   3.049096   1.098025
     7  C    3.028573   2.593243   3.521385   2.953712   1.546178
     8  H    3.879722   3.442908   4.217799   3.934806   2.099600
     9  C    2.571768   2.992230   3.981714   3.450677   2.578848
    10  H    2.711586   3.286569   4.088105   4.014540   2.806117
    11  C    1.550462   2.525254   3.482866   2.827657   2.965569
    12  H    2.143828   2.776689   3.779251   2.635988   3.352047
    13  C    3.989523   4.472020   5.495933   4.770399   3.944328
    14  C    6.783849   7.285284   8.327765   7.460744   6.651577
    15  C    5.045051   5.456480   6.397598   5.895225   4.647880
    16  C    4.662444   5.205249   6.284625   5.247312   4.907937
    17  C    6.046613   6.586376   7.666061   6.612437   6.182944
    18  C    6.348437   6.788021   7.759329   7.140614   5.977949
    19  H    6.715697   7.273456   8.363606   7.171381   6.995783
    20  H    7.191994   7.591546   8.510348   8.017763   6.664332
    21  O    4.322037   4.890319   5.964062   4.703608   4.950931
    22  H    5.216994   5.723350   6.792718   5.416736   5.791141
    23  O    5.086944   5.380045   6.168007   6.018893   4.382730
    24  H    6.033716   6.319682   7.073051   6.971191   5.263700
    25  O    2.415937   3.769968   4.574160   4.111529   4.297174
    26  H    3.243252   4.448210   5.350944   4.665934   4.811776
    27  C    1.535723   2.533717   2.698004   3.458745   3.178236
    28  H    2.175370   2.774328   2.484307   3.682135   3.585981
    29  H    2.186031   3.490797   3.708443   4.297320   4.169321
    30  H    2.205244   2.839815   3.057308   3.880278   2.924351
    31  O    1.440012   2.397681   2.699283   2.541438   3.775701
    32  H    1.934767   3.214582   3.610588   3.384154   4.446487
    33  H    3.488331   2.155951   2.493978   2.448232   1.097293
    34  C    4.032269   3.397988   4.345805   3.252184   2.571004
    35  C    5.307942   4.686738   5.585127   4.570485   3.650733
    36  H    6.143894   5.467966   6.349730   5.173078   4.553146
    37  H    5.707686   5.174297   6.035459   5.260704   3.940958
    38  C    4.079222   3.357642   4.255032   2.738498   3.135848
    39  H    4.055974   3.001611   3.689187   2.252316   2.913730
    40  H    5.139756   4.434056   5.290501   3.736283   4.170212
    41  H    3.602591   3.239226   4.205214   2.558367   3.417610
    42  C    8.277910   8.780434   9.827803   8.919759   8.119305
    43  H    8.589538   9.202005  10.266280   9.276488   8.697425
    44  H    8.747282   9.307532  10.316624   9.556484   8.591084
    45  C    9.044371   9.322473  10.375157   9.369101   8.528982
    46  H   10.104543  10.411380  11.465788  10.450532   9.621671
    47  H    8.841104   9.041541  10.113055   8.964259   8.316774
    48  H    8.995462   9.149451  10.164100   9.256119   8.203731
                    6          7          8          9         10
     6  H    0.000000
     7  C    2.155736   0.000000
     8  H    2.256988   1.101481   0.000000
     9  C    2.916272   1.566308   2.143074   0.000000
    10  H    2.711323   2.151842   2.333829   1.099457   0.000000
    11  C    3.440398   2.584531   3.467227   1.547422   2.094370
    12  H    4.081600   2.904359   3.921846   2.203027   3.036343
    13  C    4.276647   2.572288   2.793277   1.536209   2.087433
    14  C    6.956323   5.151324   5.062199   4.384420   4.745501
    15  C    4.730305   3.278513   2.994948   2.538169   2.581735
    16  C    5.432956   3.538034   3.946275   2.599248   3.348100
    17  C    6.660746   4.727443   4.938259   3.883565   4.492820
    18  C    6.098226   4.536898   4.214334   3.844895   3.953534
    19  H    7.561838   5.575991   5.884669   4.760239   5.447628
    20  H    6.656822   5.279844   4.769889   4.700373   4.640738
    21  O    5.652492   3.816194   4.530627   2.954757   3.873342
    22  H    6.546962   4.630080   5.314177   3.894425   4.822191
    23  O    4.162401   3.283808   2.659530   2.821386   2.402464
    24  H    4.969975   4.185582   3.448401   3.786535   3.334082
    25  O    4.573752   3.859285   4.580727   2.471943   2.645541
    26  H    5.168998   4.079550   4.756595   2.624749   2.970309
    27  C    2.917534   3.778521   4.306662   3.191045   2.748801
    28  H    3.236803   4.519208   5.027804   4.180512   3.756400
    29  H    3.926602   4.527644   5.043476   3.602805   3.095004
    30  H    2.363771   3.423758   3.687265   2.941693   2.215974
    31  O    4.173157   4.307597   5.246911   3.802636   4.038847
    32  H    4.787985   4.732148   5.643182   3.911473   4.100201
    33  H    1.746808   2.185693   2.543768   3.525884   3.830352
    34  C    3.445936   1.536424   2.109408   2.635390   3.511774
    35  C    4.351024   2.500031   2.516026   3.522505   4.295475
    36  H    5.331558   3.507958   3.595938   4.473690   5.319787
    37  H    4.396607   2.716426   2.283048   3.645145   4.199798
    38  C    4.203401   2.638969   3.482784   3.462301   4.450013
    39  H    3.994930   2.974824   3.802783   4.000447   4.860420
    40  H    5.220692   3.564319   4.267166   4.362496   5.386914
    41  H    4.463887   2.908010   3.906587   3.234203   4.274196
    42  C    8.416978   6.601493   6.446832   5.891054   6.222638
    43  H    9.054227   7.201067   7.182961   6.361754   6.748585
    44  H    8.759778   7.109738   6.836907   6.344627   6.498715
    45  C    8.899505   6.984118   6.758826   6.587795   7.029245
    46  H    9.978497   8.077286   7.832988   7.657876   8.070944
    47  H    8.813205   6.780598   6.681902   6.480314   7.077745
    48  H    8.506593   6.681908   6.303795   6.462754   6.836807
                   11         12         13         14         15
    11  C    0.000000
    12  H    1.092246   0.000000
    13  C    2.642980   2.988350   0.000000
    14  C    5.330661   5.441517   2.849784   0.000000
    15  C    3.868219   4.360161   1.408881   2.421960   0.000000
    16  C    3.141851   3.052539   1.401437   2.430586   2.390925
    17  C    4.519757   4.415195   2.448071   1.398117   2.770645
    18  C    5.055932   5.408928   2.457295   1.396678   1.398116
    19  H    5.172578   4.885419   3.428752   2.148566   3.857686
    20  H    5.989748   6.420842   3.437961   2.149599   2.162392
    21  O    2.842949   2.323377   2.397079   3.659713   3.652353
    22  H    3.777657   3.136357   3.186873   3.769272   4.299808
    23  O    4.257361   4.964171   2.394950   3.663471   1.370785
    24  H    5.207336   5.907197   3.199949   3.773823   1.921069
    25  O    1.439861   2.029682   3.038523   5.309119   4.130054
    26  H    1.937903   2.214627   2.670430   4.561790   3.781595
    27  C    2.585347   3.484203   4.558742   7.286730   5.303136
    28  H    3.527798   4.294307   5.606713   8.364366   6.334341
    29  H    2.847162   3.759768   4.745240   7.284353   5.465479
    30  H    2.903322   3.911581   4.255508   6.926791   4.745855
    31  O    2.414532   2.546294   5.056235   7.709076   6.234972
    32  H    2.420179   2.595241   4.973970   7.462739   6.151875
    33  H    3.940310   4.137470   4.748441   7.301911   5.387082
    34  C    3.400192   3.212704   3.072015   5.132905   3.863009
    35  C    4.551817   4.388768   3.469596   4.835927   3.873551
    36  H    5.357827   5.016723   4.292425   5.250262   4.717997
    37  H    4.934280   4.978928   3.418395   4.525764   3.411622
    38  C    3.592004   2.993696   4.010031   6.026838   5.069646
    39  H    3.986887   3.469469   4.828711   7.033608   5.856349
    40  H    4.544046   3.837689   4.628961   6.210007   5.617238
    41  H    2.968531   2.142605   3.776835   5.854497   5.028944
    42  C    6.806510   6.862677   4.356711   1.507018   3.807265
    43  H    7.068542   7.035102   4.839998   2.141726   4.525872
    44  H    7.329028   7.523843   4.843577   2.141873   4.039397
    45  C    7.606179   7.552989   5.109683   2.507324   4.562319
    46  H    8.650027   8.587053   6.163914   3.454523   5.574884
    47  H    7.394571   7.190705   5.063154   2.778226   4.791096
    48  H    7.645979   7.673868   5.066066   2.777967   4.328911
                   16         17         18         19         20
    16  C    0.000000
    17  C    1.400478   0.000000
    18  C    2.781849   2.404738   0.000000
    19  H    2.163065   1.087043   3.388331   0.000000
    20  H    3.868304   3.389763   1.086490   4.285130   0.000000
    21  O    1.365714   2.373155   4.146967   2.606917   5.233423
    22  H    1.916044   2.379464   4.537874   2.195189   5.604407
    23  O    3.647722   4.141269   2.383652   5.228302   2.623393
    24  H    4.311761   4.542515   2.382275   5.610501   2.193517
    25  O    3.318967   4.511505   5.142525   5.081987   6.057008
    26  H    2.614441   3.684726   4.594038   4.180276   5.558993
    27  C    5.473422   6.773648   6.636287   7.551700   7.329315
    28  H    6.517983   7.839819   7.686826   8.602972   8.351094
    29  H    5.548360   6.770274   6.702523   7.501725   7.392365
    30  H    5.379296   6.608459   6.101372   7.493349   6.681053
    31  O    5.438577   6.799629   7.455723   7.300617   8.362260
    32  H    5.240660   6.533585   7.289287   6.982992   8.207338
    33  H    5.631141   6.846540   6.646435   7.620485   7.290392
    34  C    3.522223   4.554807   4.826391   5.217880   5.628395
    35  C    3.824418   4.498716   4.543125   5.147041   5.207014
    36  H    4.357399   4.848339   5.178881   5.310198   5.830675
    37  H    3.995336   4.509270   4.001036   5.286422   4.489052
    38  C    4.079457   5.157827   5.977330   5.581249   6.878449
    39  H    5.057281   6.200304   6.871930   6.653064   7.732559
    40  H    4.456599   5.318754   6.329693   5.586104   7.216638
    41  H    3.649833   4.812641   5.934103   5.149395   6.921968
    42  C    3.813951   2.524375   2.523218   2.717457   2.720422
    43  H    4.044518   2.669778   3.365151   2.466732   3.688427
    44  H    4.535376   3.368099   2.667190   3.686756   2.468965
    45  C    4.565274   3.337321   3.340436   3.397850   3.403662
    46  H    5.578042   4.283108   4.285189   4.189892   4.195343
    47  H    4.328424   3.155365   3.774430   3.010151   4.085729
    48  H    4.794404   3.770146   3.160518   4.079816   3.017188
                   21         22         23         24         25
    21  O    0.000000
    22  H    0.972037   0.000000
    23  O    4.789358   5.532127   0.000000
    24  H    5.549823   6.219714   0.970830   0.000000
    25  O    3.046319   3.907638   4.616352   5.470639   0.000000
    26  H    2.361993   3.153267   4.528878   5.326728   0.976256
    27  C    5.400759   6.344809   5.026734   5.877581   2.899244
    28  H    6.368075   7.293315   5.961477   6.786560   3.882507
    29  H    5.468883   6.388464   5.283890   6.082684   2.583683
    30  H    5.568305   6.538324   4.236163   5.030898   3.318179
    31  O    4.780539   5.552968   6.420201   7.365125   2.815163
    32  H    4.564684   5.312698   6.437281   7.353576   2.288514
    33  H    5.638010   6.391876   5.099831   5.915508   5.323534
    34  C    3.606032   4.174323   4.217689   5.022745   4.692716
    35  C    4.192006   4.583172   4.253748   4.867593   5.720522
    36  H    4.582168   4.765522   5.225105   5.774091   6.506724
    37  H    4.673919   5.113783   3.602785   4.070759   6.000537
    38  C    3.633705   4.042448   5.572374   6.421781   4.892411
    39  H    4.580231   5.037306   6.170358   7.036916   5.364427
    40  H    3.977344   4.139215   6.239998   7.019986   5.752181
    41  H    2.907618   3.332609   5.672091   6.566604   4.136436
    42  C    4.896810   4.782759   4.906486   4.791197   6.696390
    43  H    4.915489   4.648854   5.715618   5.682652   6.805850
    44  H    5.708812   5.699929   4.930913   4.625541   7.126529
    45  C    5.567450   5.341625   5.577440   5.422401   7.729497
    46  H    6.533258   6.232283   6.545360   6.302813   8.701690
    47  H    5.132041   4.774530   5.908606   5.912921   7.615670
    48  H    5.903334   5.812311   5.144334   4.893542   7.906020
                   26         27         28         29         30
    26  H    0.000000
    27  C    3.826357   0.000000
    28  H    4.837473   1.096591   0.000000
    29  H    3.516809   1.095703   1.748979   0.000000
    30  H    4.121166   1.092880   1.769719   1.773491   0.000000
    31  O    3.633453   2.375506   2.610006   2.631108   3.357182
    32  H    3.089645   2.599195   3.006732   2.443777   3.589506
    33  H    5.794987   4.157210   4.393036   5.190716   3.913568
    34  C    4.699655   5.094397   5.790388   5.816286   4.894614
    35  C    5.579671   6.253465   6.982773   6.944984   5.909140
    36  H    6.288463   7.203791   7.910977   7.888135   6.930170
    37  H    5.847858   6.429331   7.192481   7.092237   5.913565
    38  C    4.922010   5.428833   6.008411   6.135715   5.517843
    39  H    5.566402   5.378468   5.770537   6.202699   5.516913
    40  H    5.650099   6.510781   7.098118   7.183994   6.593257
    41  H    4.133822   5.057970   5.690581   5.623938   5.315138
    42  C    5.888077   8.764506   9.847358   8.711201   8.390824
    43  H    5.916625   9.131617  10.223544   8.986430   8.869548
    44  H    6.365547   9.059044  10.139613   8.951410   8.601789
    45  C    6.953583   9.652104  10.705123   9.737633   9.241845
    46  H    7.893088  10.690738  11.752205  10.734855  10.277073
    47  H    6.827127   9.609726  10.643929   9.746976   9.286156
    48  H    7.223184   9.539499  10.561917   9.713820   9.027472
                   31         32         33         34         35
    31  O    0.000000
    32  H    0.978437   0.000000
    33  H    4.541968   5.310131   0.000000
    34  C    5.044411   5.490326   2.670087   0.000000
    35  C    6.367630   6.764535   3.582659   1.346625   0.000000
    36  H    7.076770   7.478121   4.347049   2.129584   1.085501
    37  H    6.905682   7.258484   3.942855   2.127135   1.086170
    38  C    4.702667   5.210239   3.095139   1.502507   2.460331
    39  H    4.592610   5.268778   2.602475   2.147686   3.132917
    40  H    5.669701   6.132570   3.998139   2.163651   2.577067
    41  H    4.016049   4.403274   3.657760   2.157304   3.222455
    42  C    9.161362   8.870327   8.721197   6.461030   5.984638
    43  H    9.330682   8.952961   9.341314   7.020322   6.655226
    44  H    9.689804   9.369869   9.233405   7.148753   6.673604
    45  C    9.970932   9.792253   8.963545   6.568720   5.817578
    46  H   11.006380  10.791857  10.050432   7.647609   6.861091
    47  H    9.688280   9.547195   8.687245   6.153500   5.394656
    48  H   10.037630   9.942710   8.569287   6.300573   5.417001
                   36         37         38         39         40
    36  H    0.000000
    37  H    1.847293   0.000000
    38  C    2.683948   3.467852   0.000000
    39  H    3.363426   4.081106   1.093555   0.000000
    40  H    2.332601   3.662183   1.096124   1.757588   0.000000
    41  H    3.497546   4.157099   1.090698   1.781085   1.752902
    42  C    6.228105   5.619463   7.311681   8.350056   7.350086
    43  H    6.841053   6.426238   7.700243   8.765392   7.702350
    44  H    7.011130   6.172494   8.118024   9.120489   8.237431
    45  C    5.837745   5.431336   7.405498   8.442743   7.252876
    46  H    6.817846   6.461622   8.453239   9.496187   8.249110
    47  H    5.256151   5.190218   6.819012   7.874441   6.541774
    48  H    5.477442   4.868527   7.291704   8.271370   7.169812
                   41         42         43         44         45
    41  H    0.000000
    42  C    7.163808   0.000000
    43  H    7.420972   1.096834   0.000000
    44  H    7.989042   1.096840   1.752122   0.000000
    45  C    7.430638   1.521044   2.155173   2.155054   0.000000
    46  H    8.468118   2.159348   2.480651   2.480302   1.094571
    47  H    6.842067   2.173053   2.520193   3.074630   1.095309
    48  H    7.460013   2.172998   3.074682   2.520193   1.095310
                   46         47         48
    46  H    0.000000
    47  H    1.772208   0.000000
    48  H    1.772234   1.770502   0.000000
 Stoichiometry    C18H26O4
 Framework group  C1[X(C18H26O4)]
 Deg. of freedom   138
 Full point group                 C1      NOp   1
 Largest Abelian subgroup         C1      NOp   1
 Largest concise Abelian subgroup C1      NOp   1
                         Standard orientation:                         
 ---------------------------------------------------------------------
 Center     Atomic      Atomic             Coordinates (Angstroms)
 Number     Number       Type             X           Y           Z
 ---------------------------------------------------------------------
      1          6           0        3.262087   -0.735694   -0.067980
      2          6           0        3.619076    0.735503    0.155286
      3          1           0        4.647365    0.819234    0.530835
      4          1           0        3.638933    1.252102   -0.810496
      5          6           0        2.668851    1.444633    1.118903
      6          1           0        2.852397    1.054612    2.128781
      7          6           0        1.165422    1.268371    0.803782
      8          1           0        0.670391    1.498642    1.760432
      9          6           0        0.804860   -0.223700    0.492274
     10          1           0        0.994050   -0.787023    1.417303
     11          6           0        1.784637   -0.862895   -0.520633
     12          1           0        1.709556   -0.402843   -1.508417
     13          6           0       -0.701190   -0.415070    0.257479
     14          6           0       -3.521582   -0.695811   -0.038901
     15          6           0       -1.565777   -0.454863    1.369169
     16          6           0       -1.299447   -0.510958   -1.006214
     17          6           0       -2.684832   -0.648835   -1.157996
     18          6           0       -2.950298   -0.592128    1.231372
     19          1           0       -3.122746   -0.726379   -2.149904
     20          1           0       -3.591754   -0.614450    2.108012
     21          8           0       -0.526959   -0.486398   -2.132195
     22          1           0       -1.098613   -0.334123   -2.903480
     23          8           0       -1.034182   -0.349173    2.628251
     24          1           0       -1.747419   -0.433195    3.281508
     25          8           0        1.505650   -2.261496   -0.718834
     26          1           0        0.614978   -2.287993   -1.117678
     27          6           0        3.610022   -1.590782    1.159297
     28          1           0        4.679646   -1.512325    1.387907
     29          1           0        3.422016   -2.653362    0.969183
     30          1           0        3.053879   -1.299363    2.053818
     31          8           0        4.090115   -1.227348   -1.138626
     32          1           0        3.685471   -2.081382   -1.392062
     33          1           0        2.927422    2.509999    1.165684
     34          6           0        0.631046    2.317759   -0.183044
     35          6           0       -0.459780    3.043682    0.127657
     36          1           0       -0.855798    3.799064   -0.543819
     37          1           0       -0.995234    2.894550    1.060831
     38          6           0        1.334151    2.567147   -1.487260
     39          1           0        2.320567    3.006962   -1.315774
     40          1           0        0.780145    3.270009   -2.120150
     41          1           0        1.445218    1.649093   -2.065588
     42          6           0       -5.014271   -0.824687   -0.201304
     43          1           0       -5.238349   -1.425251   -1.091336
     44          1           0       -5.432126   -1.376792    0.649364
     45          6           0       -5.689384    0.533646   -0.314123
     46          1           0       -6.770710    0.410253   -0.430713
     47          1           0       -5.316309    1.092199   -1.179303
     48          1           0       -5.511517    1.141188    0.579723
 ---------------------------------------------------------------------
 Rotational constants (GHZ):      0.5006477      0.1826868      0.1726476
 Standard basis: 6-31+G(d,p) (6D, 7F)
 There are   548 symmetry adapted basis functions of A   symmetry.
 Integral buffers will be    131072 words long.
 Raffenetti 2 integral format.
 Two-electron integral symmetry is turned on.
   548 basis functions,   886 primitive gaussians,   548 cartesian basis functions
    83 alpha electrons       83 beta electrons
       nuclear repulsion energy      1986.2169436463 Hartrees.
 NAtoms=   48 NActive=   48 NUniq=   48 SFac= 1.00D+00 NAtFMM=   60 NAOKFM=F Big=F
 ------------------------------------------------------------------------------
 Polarizable Continuum Model (PCM)
 =================================
 Model                : PCM.
 Atomic radii         : UFF (Universal Force Field).
 Polarization charges : Total charges.
 Charge compensation  : None.
 Solution method      : Matrix inversion.
 Cavity type          : Scaled VdW (van der Waals Surface) (Alpha=1.100).
 Cavity algorithm     : GePol (No added spheres)
                        Default sphere list used, NSphG=   48.
                        Lebedev-Laikov grids with approx.  5.0 points / Ang**2.
                        Smoothing algorithm: Karplus/York (Gamma=1.0000).
                        Polarization charges: spherical gaussians, with
                                              point-specific exponents (IZeta= 3).
                        Self-potential: point-specific (ISelfS= 7).
                        Self-field    : sphere-specific E.n sum rule (ISelfD= 2).
 Solvent              : Water, Eps=  78.355300 Eps(inf)=   1.777849
 ------------------------------------------------------------------------------
 One-electron integrals computed using PRISM.
 NBasis=   548 RedAO= T  NBF=   548
 NBsUse=   545 1.00D-06 NBFU=   545
 Harris functional with IExCor=  908 diagonalized for initial guess.
 ExpMin= 4.38D-02 ExpMax= 5.48D+03 ExpMxC= 8.25D+02 IAcc=2 IRadAn=         4 AccDes= 0.00D+00
 HarFok:  IExCor=  908 AccDes= 0.00D+00 IRadAn=         4 IDoV= 1
 ScaDFX=  1.000000  1.000000  1.000000  1.000000
 FoFCou: FMM=F IPFlag=           0 FMFlag=      100000 FMFlg1=           0
         NFxFlg=           0 DoJE=T BraDBF=F KetDBF=T FulRan=T
         Omega=  0.000000  0.000000  1.000000  0.000000  0.000000 ICntrl=     500 IOpCl=  0
         NMat0=    1 NMatS0=    1 NMatT0=    0 NMatD0=    1 NMtDS0=    0 NMtDT0=    0
         I1Cent=           4 NGrid=           0.
 Petite list used in FoFCou.
 Initial guess orbital symmetries:
       Occupied  (A) (A) (A) (A) (A) (A) (A) (A) (A) (A) (A) (A)
                 (A) (A) (A) (A) (A) (A) (A) (A) (A) (A) (A) (A)
                 (A) (A) (A) (A) (A) (A) (A) (A) (A) (A) (A) (A)
                 (A) (A) (A) (A) (A) (A) (A) (A) (A) (A) (A) (A)
                 (A) (A) (A) (A) (A) (A) (A) (A) (A) (A) (A) (A)
                 (A) (A) (A) (A) (A) (A) (A) (A) (A) (A) (A) (A)
                 (A) (A) (A) (A) (A) (A) (A) (A) (A) (A) (A)
       Virtual   (A) (A) (A) (A) (A) (A) (A) (A) (A) (A) (A) (A)
                 (A) (A) (A) (A) (A) (A) (A) (A) (A) (A) (A) (A)
                 (A) (A) (A) (A) (A) (A) (A) (A) (A) (A) (A) (A)
                 (A) (A) (A) (A) (A) (A) (A) (A) (A) (A) (A) (A)
                 (A) (A) (A) (A) (A) (A) (A) (A) (A) (A) (A) (A)
                 (A) (A) (A) (A) (A) (A) (A) (A) (A) (A) (A) (A)
                 (A) (A) (A) (A) (A) (A) (A) (A) (A) (A) (A) (A)
                 (A) (A) (A) (A) (A) (A) (A) (A) (A) (A) (A) (A)
                 (A) (A) (A) (A) (A) (A) (A) (A) (A) (A) (A) (A)
                 (A) (A) (A) (A) (A) (A) (A) (A) (A) (A) (A) (A)
                 (A) (A) (A) (A) (A) (A) (A) (A) (A) (A) (A) (A)
                 (A) (A) (A) (A) (A) (A) (A) (A) (A) (A) (A) (A)
                 (A) (A) (A) (A) (A) (A) (A) (A) (A) (A) (A) (A)
                 (A) (A) (A) (A) (A) (A) (A) (A) (A) (A) (A) (A)
                 (A) (A) (A) (A) (A) (A) (A) (A) (A) (A) (A) (A)
                 (A) (A) (A) (A) (A) (A) (A) (A) (A) (A) (A) (A)
                 (A) (A) (A) (A) (A) (A) (A) (A) (A) (A) (A) (A)
                 (A) (A) (A) (A) (A) (A) (A) (A) (A) (A) (A) (A)
                 (A) (A) (A) (A) (A) (A) (A) (A) (A) (A) (A) (A)
                 (A) (A) (A) (A) (A) (A) (A) (A) (A) (A) (A) (A)
                 (A) (A) (A) (A) (A) (A) (A) (A) (A) (A) (A) (A)
                 (A) (A) (A) (A) (A) (A) (A) (A) (A) (A) (A) (A)
                 (A) (A) (A) (A) (A) (A) (A) (A) (A) (A) (A) (A)
                 (A) (A) (A) (A) (A) (A) (A) (A) (A) (A) (A) (A)
                 (A) (A) (A) (A) (A) (A) (A) (A) (A) (A) (A) (A)
                 (A) (A) (A) (A) (A) (A) (A) (A) (A) (A) (A) (A)
                 (A) (A) (A) (A) (A) (A) (A) (A) (A) (A) (A) (A)
                 (A) (A) (A) (A) (A) (A) (A) (A) (A) (A) (A) (A)
                 (A) (A) (A) (A) (A) (A) (A) (A) (A) (A) (A) (A)
                 (A) (A) (A) (A) (A) (A) (A) (A) (A) (A) (A) (A)
                 (A) (A) (A) (A) (A) (A) (A) (A) (A) (A) (A) (A)
                 (A) (A) (A) (A) (A) (A) (A) (A) (A) (A) (A) (A)
                 (A) (A) (A) (A) (A) (A) (A) (A) (A) (A) (A) (A)
                 (A) (A) (A) (A) (A) (A) (A) (A) (A) (A) (A) (A)
                 (A) (A) (A) (A) (A) (A) (A) (A) (A) (A) (A) (A)
                 (A) (A) (A) (A) (A) (A) (A) (A) (A) (A) (A) (A)
                 (A) (A) (A) (A) (A) (A) (A) (A) (A) (A) (A) (A)
                 (A) (A) (A) (A) (A) (A) (A) (A) (A) (A) (A) (A)
                 (A) (A) (A) (A) (A) (A)
 The electronic state of the initial guess is 1-A.
 Requested convergence on RMS density matrix=1.00D-08 within 128 cycles.
 Requested convergence on MAX density matrix=1.00D-06.
 Requested convergence on             energy=1.00D-06.
 No special actions if energy rises.
 CoulSu:  requested number of processors reduced to:   2 ShMem   1 Linda.
 CoulSu:  requested number of processors reduced to:   2 ShMem   1 Linda.
 Error on total polarization charges =  0.01943
 SCF Done:  E(RmPW1PW91) =  -1002.30387461     A.U. after   14 cycles
             Convg  =    0.5165D-08             -V/T =  2.0094
 Range of M.O.s used for correlation:     1   545
 NBasis=   548 NAE=    83 NBE=    83 NFC=     0 NFV=     0
 NROrb=    545 NOA=    83 NOB=    83 NVA=   462 NVB=   462

 **** Warning!!: The largest alpha MO coefficient is  0.10888947D+03

 NEqPCM:  Using equilibrium solvation (IEInf=0, Eps=  78.3553, EpsInf=   1.7778)
          Differentiating once with respect to magnetic field using GIAOs.
          Electric field/nuclear overlap derivatives assumed to be zero.
 FoFCou: FMM=F IPFlag=           0 FMFlag=    10101102 FMFlg1=           0
         NFxFlg=    40000000 DoJE=F BraDBF=F KetDBF=T FulRan=T
         Omega=  0.000000  0.000000  1.000000  0.000000  0.000000 ICntrl=    6100 IOpCl=  0
         NMat0=    1 NMatS0=    1 NMatT0=    0 NMatD0=    1 NMtDS0=    0 NMtDT0=    0
         I1Cent=           7 NGrid=        2984.
 Symmetry not used in FoFCou.
          There are     3 degrees of freedom in the 1st order CPHF.  IDoFFX=0.
      3 vectors produced by pass  0 Test12= 1.28D-12 3.33D-08 XBig12= 7.36D+02 4.41D+00.
 AX will form     3 AO Fock derivatives at one time.
      3 vectors produced by pass  1 Test12= 1.28D-12 3.33D-08 XBig12= 1.53D+00 3.58D-01.
      3 vectors produced by pass  2 Test12= 1.28D-12 3.33D-08 XBig12= 6.25D-03 3.75D-02.
      3 vectors produced by pass  3 Test12= 1.28D-12 3.33D-08 XBig12= 3.10D-05 1.91D-03.
      3 vectors produced by pass  4 Test12= 1.28D-12 3.33D-08 XBig12= 9.73D-08 5.22D-05.
      3 vectors produced by pass  5 Test12= 1.28D-12 3.33D-08 XBig12= 2.65D-10 3.34D-06.
      3 vectors produced by pass  6 Test12= 1.28D-12 3.33D-08 XBig12= 1.19D-12 1.32D-07.
 Inverted reduced A of dimension    21 with in-core refinement.
 Calculating GIAO nuclear magnetic shielding tensors.
 SCF GIAO Magnetic shielding tensor (ppm):
      1  C    Isotropic =   121.0637   Anisotropy =    46.3541
   XX=   122.2696   YX=    -7.3016   ZX=   -16.9541
   XY=   -10.2707   YY=   108.5276   ZY=     7.9631
   XZ=   -24.4866   YZ=     8.6832   ZZ=   132.3940
   Eigenvalues:   103.8623   107.3625   151.9664
      2  C    Isotropic =   159.8406   Anisotropy =    25.5657
   XX=   155.8539   YX=     3.8486   ZX=    -2.3374
   XY=     1.0965   YY=   175.7627   ZY=     3.7826
   XZ=    -2.0743   YZ=     6.5115   ZZ=   147.9052
   Eigenvalues:   146.2656   156.3718   176.8844
      3  H    Isotropic =    29.9378   Anisotropy =     9.3756
   XX=    35.6219   YX=     1.1507   ZX=     1.5147
   XY=     2.0019   YY=    28.2403   ZY=     0.9194
   XZ=     1.3248   YZ=     0.9312   ZZ=    25.9513
   Eigenvalues:    25.5489    28.0763    36.1882
      4  H    Isotropic =    29.4294   Anisotropy =     6.4295
   XX=    28.6285   YX=    -0.3631   ZX=    -1.9839
   XY=     0.0836   YY=    30.4100   ZY=    -3.9185
   XZ=    -1.0520   YZ=    -3.4452   ZZ=    29.2498
   Eigenvalues:    25.5781    28.9945    33.7158
      5  C    Isotropic =   166.8203   Anisotropy =    21.7215
   XX=   181.0015   YX=    -0.5708   ZX=     3.3019
   XY=     0.6513   YY=   161.3593   ZY=     6.8324
   XZ=     1.8666   YZ=     1.0803   ZZ=   158.1001
   Eigenvalues:   155.2737   163.8859   181.3013
      6  H    Isotropic =    29.3779   Anisotropy =     8.2549
   XX=    28.7467   YX=    -1.2754   ZX=     2.3966
   XY=    -0.4104   YY=    25.4134   ZY=     1.5969
   XZ=     2.2118   YZ=     0.2930   ZZ=    33.9735
   Eigenvalues:    24.9483    28.3041    34.8812
      7  C    Isotropic =   149.8500   Anisotropy =    21.0851
   XX=   149.9666   YX=    -4.9558   ZX=     8.1703
   XY=    -4.4971   YY=   151.6061   ZY=    -8.7292
   XZ=     5.8253   YZ=    -9.5763   ZZ=   147.9772
   Eigenvalues:   139.6294   146.0138   163.9067
      8  H    Isotropic =    28.2736   Anisotropy =     5.7830
   XX=    28.9777   YX=    -0.8106   ZX=    -2.2333
   XY=     1.3742   YY=    26.8107   ZY=     2.6230
   XZ=    -3.1034   YZ=     2.0641   ZZ=    29.0323
   Eigenvalues:    24.5711    28.1207    32.1289
      9  C    Isotropic =   147.8295   Anisotropy =    29.1987
   XX=   147.7276   YX=    -6.0919   ZX=    -6.0072
   XY=     0.4013   YY=   160.7703   ZY=    11.9900
   XZ=    -3.7940   YZ=    14.1472   ZZ=   134.9906
   Eigenvalues:   128.8842   147.3090   167.2953
     10  H    Isotropic =    28.2033   Anisotropy =     6.1886
   XX=    31.5866   YX=    -0.1953   ZX=    -1.7024
   XY=    -2.4842   YY=    24.3759   ZY=    -2.5516
   XZ=    -1.5786   YZ=    -2.2463   ZZ=    28.6476
   Eigenvalues:    22.8814    29.3995    32.3291
     11  C    Isotropic =   119.3210   Anisotropy =    31.4562
   XX=   119.5632   YX=     3.6067   ZX=    -4.7484
   XY=    14.4184   YY=   136.3680   ZY=    -0.3636
   XZ=    -2.2226   YZ=     4.2780   ZZ=   102.0317
   Eigenvalues:   100.9511   116.7200   140.2917
     12  H    Isotropic =    26.3821   Anisotropy =     3.2277
   XX=    25.8766   YX=     0.2674   ZX=     1.4051
   XY=    -0.6776   YY=    27.3675   ZY=    -2.0645
   XZ=     1.3968   YZ=    -0.6710   ZZ=    25.9021
   Eigenvalues:    24.2426    26.3697    28.5339
     13  C    Isotropic =    90.0610   Anisotropy =   120.5761
   XX=    48.5318   YX=   -10.7806   ZX=     1.2289
   XY=   -20.3739   YY=   168.1915   ZY=    -6.6730
   XZ=    -0.1957   YZ=    -4.2933   ZZ=    53.4598
   Eigenvalues:    46.5321    53.2058   170.4451
     14  C    Isotropic =    49.8610   Anisotropy =   190.7281
   XX=   -29.6320   YX=   -23.6947   ZX=    -3.9395
   XY=   -26.3228   YY=   173.6915   ZY=    -8.1783
   XZ=    -3.2469   YZ=    -6.9119   ZZ=     5.5235
   Eigenvalues:   -33.1835     5.7534   177.0130
     15  C    Isotropic =    43.2383   Anisotropy =   124.6875
   XX=    33.5336   YX=    -9.0215   ZX=   -25.2066
   XY=    -8.2136   YY=   125.1948   ZY=   -10.7707
   XZ=   -18.7918   YZ=    -8.1912   ZZ=   -29.0135
   Eigenvalues:   -36.8142    40.1658   126.3633
     16  C    Isotropic =    43.4911   Anisotropy =   120.2228
   XX=    22.0702   YX=    -8.1144   ZX=    37.3533
   XY=    -9.3386   YY=   122.8878   ZY=     7.7988
   XZ=    28.4473   YZ=    -1.1074   ZZ=   -14.4846
   Eigenvalues:   -34.1846    41.0183   123.6396
     17  C    Isotropic =    89.5110   Anisotropy =    99.3559
   XX=    83.1850   YX=    -5.0544   ZX=   -26.9477
   XY=    -1.0979   YY=   155.2280   ZY=   -10.8028
   XZ=   -29.4727   YZ=    -4.9600   ZZ=    30.1199
   Eigenvalues:    17.4066    95.3780   155.7482
     18  C    Isotropic =    90.6096   Anisotropy =    99.4966
   XX=    70.2592   YX=    -4.3763   ZX=    33.9822
   XY=     3.8298   YY=   156.8448   ZY=    -3.3100
   XZ=    35.6624   YZ=    -2.5782   ZZ=    44.7246
   Eigenvalues:    20.3655    94.5225   156.9406
     19  H    Isotropic =    25.1817   Anisotropy =     7.4782
   XX=    29.5272   YX=     0.5608   ZX=    -1.8981
   XY=     0.7243   YY=    21.2679   ZY=     1.0477
   XZ=    -1.7769   YZ=     0.4847   ZZ=    24.7501
   Eigenvalues:    20.9775    24.4005    30.1672
     20  H    Isotropic =    25.1664   Anisotropy =     7.1067
   XX=    28.3487   YX=     0.7572   ZX=     2.3772
   XY=     0.4411   YY=    21.1821   ZY=    -0.2838
   XZ=     2.5307   YZ=    -0.1264   ZZ=    25.9685
   Eigenvalues:    21.0916    24.5034    29.9042
     21  O    Isotropic =   230.7151   Anisotropy =    53.5262
   XX=   212.8531   YX=     4.0065   ZX=   -25.6271
   XY=   -21.4585   YY=   240.6406   ZY=    15.5416
   XZ=   -41.6284   YZ=    -1.0989   ZZ=   238.6515
   Eigenvalues:   189.5411   236.2049   266.3992
     22  H    Isotropic =    26.4889   Anisotropy =    15.5565
   XX=    27.7561   YX=    -0.2809   ZX=     4.6499
   XY=    -0.4167   YY=    18.3254   ZY=    -2.9253
   XZ=     6.0776   YZ=    -1.4918   ZZ=    33.3850
   Eigenvalues:    17.9863    24.6204    36.8599
     23  O    Isotropic =   225.3648   Anisotropy =    53.2803
   XX=   191.3090   YX=    -7.0072   ZX=    19.5802
   XY=    -1.8692   YY=   242.4931   ZY=   -20.1680
   XZ=    37.1060   YZ=     1.1913   ZZ=   242.2922
   Eigenvalues:   178.6798   236.5296   260.8850
     24  H    Isotropic =    26.5650   Anisotropy =    15.6513
   XX=    29.4357   YX=     1.5108   ZX=    -4.9578
   XY=     1.9990   YY=    17.9597   ZY=    -1.6369
   XZ=    -6.5264   YZ=    -0.7345   ZZ=    32.2996
   Eigenvalues:    17.6885    25.0073    36.9992
     25  O    Isotropic =   295.5093   Anisotropy =    31.1567
   XX=   301.7402   YX=     8.3799   ZX=    24.2938
   XY=    -5.9668   YY=   302.9998   ZY=     8.7582
   XZ=    19.0149   YZ=    -1.4765   ZZ=   281.7879
   Eigenvalues:   267.7557   302.4917   316.2805
     26  H    Isotropic =    29.4727   Anisotropy =    18.3359
   XX=    37.8318   YX=     0.7100   ZX=     8.4215
   XY=    -1.0238   YY=    27.5394   ZY=     3.8111
   XZ=     8.2535   YZ=     2.9929   ZZ=    23.0469
   Eigenvalues:    18.2133    28.5082    41.6966
     27  C    Isotropic =   174.9996   Anisotropy =    32.1501
   XX=   169.9405   YX=    -3.9672   ZX=     7.5323
   XY=    -2.4715   YY=   170.9071   ZY=   -17.6811
   XZ=     1.2205   YZ=   -15.3449   ZZ=   184.1513
   Eigenvalues:   159.7330   168.8330   196.4330
     28  H    Isotropic =    30.7474   Anisotropy =    10.0151
   XX=    35.1829   YX=    -1.3506   ZX=     3.4041
   XY=    -1.9409   YY=    27.9757   ZY=    -1.2846
   XZ=     4.1475   YZ=    -1.2474   ZZ=    29.0835
   Eigenvalues:    26.9663    27.8518    37.4241
     29  H    Isotropic =    30.1898   Anisotropy =     8.0925
   XX=    28.1941   YX=    -0.2230   ZX=     2.0664
   XY=    -1.0033   YY=    34.8329   ZY=    -1.4027
   XZ=     2.0968   YZ=    -2.8244   ZZ=    27.5424
   Eigenvalues:    25.5893    29.3954    35.5848
     30  H    Isotropic =    29.8910   Anisotropy =     7.7916
   XX=    28.4392   YX=    -2.3231   ZX=    -1.1337
   XY=    -2.4358   YY=    26.5657   ZY=    -1.9271
   XZ=    -1.9369   YZ=    -0.5568   ZZ=    34.6682
   Eigenvalues:    24.5885    29.9992    35.0854
     31  O    Isotropic =   257.8552   Anisotropy =    80.3695
   XX=   226.6534   YX=   -15.5229   ZX=   -13.6235
   XY=    -9.9970   YY=   242.8659   ZY=     5.4909
   XZ=   -24.7697   YZ=    17.2077   ZZ=   304.0465
   Eigenvalues:   217.9131   244.2177   311.4349
     32  H    Isotropic =    28.4696   Anisotropy =    14.4138
   XX=    27.4652   YX=     2.1970   ZX=    -2.8302
   XY=     2.3779   YY=    33.3713   ZY=     7.7302
   XZ=    -1.3891   YZ=     8.0327   ZZ=    24.5724
   Eigenvalues:    18.9049    28.4251    38.0789
     33  H    Isotropic =    29.8298   Anisotropy =     9.4963
   XX=    29.1735   YX=     2.3463   ZX=     1.0312
   XY=     2.8463   YY=    33.9620   ZY=     3.0426
   XZ=     1.6908   YZ=     2.8087   ZZ=    26.3540
   Eigenvalues:    25.2911    28.0376    36.1607
     34  C    Isotropic =    43.9377   Anisotropy =   180.2789
   XX=    79.7080   YX=    45.5331   ZX=    42.7421
   XY=    44.4079   YY=    74.5659   ZY=    78.5483
   XZ=    44.4532   YZ=    82.4901   ZZ=   -22.4607
   Eigenvalues:   -69.8778    37.5673   164.1237
     35  C    Isotropic =    84.4743   Anisotropy =    98.2515
   XX=   125.0736   YX=     7.5850   ZX=    17.0818
   XY=    13.2945   YY=   100.0225   ZY=    65.3757
   XZ=    19.1751   YZ=    60.0337   ZZ=    28.3268
   Eigenvalues:    -8.8816   112.3292   149.9753
     36  H    Isotropic =    26.7260   Anisotropy =     5.7945
   XX=    28.1151   YX=    -3.4604   ZX=     0.9719
   XY=    -0.7873   YY=    28.6883   ZY=    -0.1300
   XZ=    -1.2100   YZ=     1.4193   ZZ=    23.3746
   Eigenvalues:    23.2930    26.2960    30.5890
     37  H    Isotropic =    27.1851   Anisotropy =     7.9199
   XX=    28.2351   YX=    -1.9030   ZX=    -2.5258
   XY=    -2.0110   YY=    30.1369   ZY=     3.9217
   XZ=    -0.6129   YZ=     1.6627   ZZ=    23.1834
   Eigenvalues:    22.0763    27.0139    32.4651
     38  C    Isotropic =   170.6626   Anisotropy =    26.5090
   XX=   166.2438   YX=    -3.8811   ZX=   -10.9845
   XY=     1.0998   YY=   165.1562   ZY=    -9.0835
   XZ=   -11.5611   YZ=    -5.9108   ZZ=   180.5880
   Eigenvalues:   156.8109   166.8416   188.3353
     39  H    Isotropic =    29.5362   Anisotropy =     7.4783
   XX=    32.2598   YX=     2.2675   ZX=     0.0135
   XY=     3.2900   YY=    29.4607   ZY=    -3.1798
   XZ=    -0.8616   YZ=    -2.8333   ZZ=    26.8880
   Eigenvalues:    24.6945    29.3924    34.5217
     40  H    Isotropic =    29.7175   Anisotropy =     8.2854
   XX=    28.3606   YX=    -1.5996   ZX=     0.2103
   XY=    -2.1109   YY=    30.4540   ZY=    -3.9316
   XZ=     1.2665   YZ=    -4.7652   ZZ=    30.3379
   Eigenvalues:    25.7736    28.1377    35.2411
     41  H    Isotropic =    29.5319   Anisotropy =     3.5262
   XX=    26.2059   YX=    -1.0068   ZX=    -0.0128
   XY=    -0.1212   YY=    31.6725   ZY=    -0.4164
   XZ=    -0.9970   YZ=     1.1474   ZZ=    30.7173
   Eigenvalues:    26.1012    30.6119    31.8828
     42  C    Isotropic =   163.9818   Anisotropy =    30.1202
   XX=   183.5967   YX=     8.6822   ZX=     2.5435
   XY=    -3.7845   YY=   151.1961   ZY=    -0.0991
   XZ=     2.8790   YZ=     1.3551   ZZ=   157.1527
   Eigenvalues:   150.9819   156.9016   184.0620
     43  H    Isotropic =    29.1963   Anisotropy =     7.3723
   XX=    29.7402   YX=     1.1421   ZX=     2.0606
   XY=     2.0860   YY=    28.6957   ZY=     4.5507
   XZ=     0.6314   YZ=     3.8143   ZZ=    29.1529
   Eigenvalues:    24.7220    28.7556    34.1112
     44  H    Isotropic =    29.2861   Anisotropy =     7.7311
   XX=    30.3420   YX=     1.7994   ZX=    -2.0715
   XY=     2.8573   YY=    28.3875   ZY=    -4.3916
   XZ=    -0.7627   YZ=    -3.5489   ZZ=    29.1287
   Eigenvalues:    24.6493    28.7688    34.4401
     45  C    Isotropic =   177.2109   Anisotropy =    30.2665
   XX=   182.4021   YX=    -7.5604   ZX=     1.8944
   XY=   -21.1160   YY=   183.0747   ZY=    -3.1356
   XZ=     2.4392   YZ=    -1.3030   ZZ=   166.1559
   Eigenvalues:   165.8479   168.3963   197.3886
     46  H    Isotropic =    30.2535   Anisotropy =    12.1100
   XX=    37.7162   YX=    -1.0990   ZX=     1.3299
   XY=    -3.3630   YY=    27.0373   ZY=    -0.5719
   XZ=     1.4094   YZ=    -0.1921   ZZ=    26.0069
   Eigenvalues:    25.8293    26.6043    38.3268
     47  H    Isotropic =    30.6500   Anisotropy =     7.1327
   XX=    29.6966   YX=    -1.0618   ZX=    -0.6403
   XY=    -1.7591   YY=    30.7961   ZY=    -4.9645
   XZ=    -0.8027   YZ=    -3.4991   ZZ=    31.4574
   Eigenvalues:    26.2107    30.3342    35.4051
     48  H    Isotropic =    30.6243   Anisotropy =     7.2810
   XX=    29.4039   YX=    -1.8003   ZX=     0.1756
   XY=    -2.9278   YY=    31.1863   ZY=     4.4560
   XZ=     0.3519   YZ=     3.2616   ZZ=    31.2828
   Eigenvalues:    26.1981    30.1966    35.4783
 End of Minotr Frequency-dependent properties file   721 does not exist.
 End of Minotr Frequency-dependent properties file   722 does not exist.

 **********************************************************************

            Population analysis using the SCF density.

 **********************************************************************

 Orbital symmetries:
       Occupied  (A) (A) (A) (A) (A) (A) (A) (A) (A) (A) (A) (A)
                 (A) (A) (A) (A) (A) (A) (A) (A) (A) (A) (A) (A)
                 (A) (A) (A) (A) (A) (A) (A) (A) (A) (A) (A) (A)
                 (A) (A) (A) (A) (A) (A) (A) (A) (A) (A) (A) (A)
                 (A) (A) (A) (A) (A) (A) (A) (A) (A) (A) (A) (A)
                 (A) (A) (A) (A) (A) (A) (A) (A) (A) (A) (A) (A)
                 (A) (A) (A) (A) (A) (A) (A) (A) (A) (A) (A)
       Virtual   (A) (A) (A) (A) (A) (A) (A) (A) (A) (A) (A) (A)
                 (A) (A) (A) (A) (A) (A) (A) (A) (A) (A) (A) (A)
                 (A) (A) (A) (A) (A) (A) (A) (A) (A) (A) (A) (A)
                 (A) (A) (A) (A) (A) (A) (A) (A) (A) (A) (A) (A)
                 (A) (A) (A) (A) (A) (A) (A) (A) (A) (A) (A) (A)
                 (A) (A) (A) (A) (A) (A) (A) (A) (A) (A) (A) (A)
                 (A) (A) (A) (A) (A) (A) (A) (A) (A) (A) (A) (A)
                 (A) (A) (A) (A) (A) (A) (A) (A) (A) (A) (A) (A)
                 (A) (A) (A) (A) (A) (A) (A) (A) (A) (A) (A) (A)
                 (A) (A) (A) (A) (A) (A) (A) (A) (A) (A) (A) (A)
                 (A) (A) (A) (A) (A) (A) (A) (A) (A) (A) (A) (A)
                 (A) (A) (A) (A) (A) (A) (A) (A) (A) (A) (A) (A)
                 (A) (A) (A) (A) (A) (A) (A) (A) (A) (A) (A) (A)
                 (A) (A) (A) (A) (A) (A) (A) (A) (A) (A) (A) (A)
                 (A) (A) (A) (A) (A) (A) (A) (A) (A) (A) (A) (A)
                 (A) (A) (A) (A) (A) (A) (A) (A) (A) (A) (A) (A)
                 (A) (A) (A) (A) (A) (A) (A) (A) (A) (A) (A) (A)
                 (A) (A) (A) (A) (A) (A) (A) (A) (A) (A) (A) (A)
                 (A) (A) (A) (A) (A) (A) (A) (A) (A) (A) (A) (A)
                 (A) (A) (A) (A) (A) (A) (A) (A) (A) (A) (A) (A)
                 (A) (A) (A) (A) (A) (A) (A) (A) (A) (A) (A) (A)
                 (A) (A) (A) (A) (A) (A) (A) (A) (A) (A) (A) (A)
                 (A) (A) (A) (A) (A) (A) (A) (A) (A) (A) (A) (A)
                 (A) (A) (A) (A) (A) (A) (A) (A) (A) (A) (A) (A)
                 (A) (A) (A) (A) (A) (A) (A) (A) (A) (A) (A) (A)
                 (A) (A) (A) (A) (A) (A) (A) (A) (A) (A) (A) (A)
                 (A) (A) (A) (A) (A) (A) (A) (A) (A) (A) (A) (A)
                 (A) (A) (A) (A) (A) (A) (A) (A) (A) (A) (A) (A)
                 (A) (A) (A) (A) (A) (A) (A) (A) (A) (A) (A) (A)
                 (A) (A) (A) (A) (A) (A) (A) (A) (A) (A) (A) (A)
                 (A) (A) (A) (A) (A) (A) (A) (A) (A) (A) (A) (A)
                 (A) (A) (A) (A) (A) (A) (A) (A) (A) (A) (A) (A)
                 (A) (A) (A) (A) (A) (A) (A) (A) (A) (A) (A) (A)
                 (A) (A) (A) (A) (A) (A) (A) (A) (A) (A) (A) (A)
                 (A) (A) (A) (A) (A) (A) (A) (A) (A) (A) (A) (A)
                 (A) (A) (A) (A) (A) (A) (A) (A) (A) (A) (A) (A)
                 (A) (A) (A) (A) (A) (A) (A) (A) (A) (A) (A) (A)
                 (A) (A) (A) (A) (A) (A) (A) (A) (A) (A) (A) (A)
                 (A) (A) (A) (A) (A) (A)
 The electronic state is 1-A.
 Alpha  occ. eigenvalues --  -19.28736 -19.28528 -19.25580 -19.24707 -10.32455
 Alpha  occ. eigenvalues --  -10.32449 -10.31011 -10.30065 -10.26952 -10.26850
 Alpha  occ. eigenvalues --  -10.26641 -10.26369 -10.26157 -10.25084 -10.24984
 Alpha  occ. eigenvalues --  -10.24947 -10.24813 -10.24349 -10.23801 -10.23781
 Alpha  occ. eigenvalues --  -10.23503 -10.23393  -1.10578  -1.10018  -1.06806
 Alpha  occ. eigenvalues --   -1.04319  -0.89061  -0.86817  -0.82370  -0.81819
 Alpha  occ. eigenvalues --   -0.78239  -0.76295  -0.76237  -0.74060  -0.71480
 Alpha  occ. eigenvalues --   -0.69897  -0.66985  -0.66458  -0.63650  -0.62760
 Alpha  occ. eigenvalues --   -0.59992  -0.57865  -0.57119  -0.54863  -0.53375
 Alpha  occ. eigenvalues --   -0.52845  -0.52304  -0.50050  -0.48941  -0.48415
 Alpha  occ. eigenvalues --   -0.47049  -0.46579  -0.46359  -0.45524  -0.44927
 Alpha  occ. eigenvalues --   -0.44582  -0.43659  -0.43094  -0.42456  -0.41794
 Alpha  occ. eigenvalues --   -0.41385  -0.40860  -0.40270  -0.39853  -0.39701
 Alpha  occ. eigenvalues --   -0.39365  -0.38847  -0.38271  -0.37617  -0.36864
 Alpha  occ. eigenvalues --   -0.36151  -0.35571  -0.34985  -0.34815  -0.33819
 Alpha  occ. eigenvalues --   -0.32632  -0.32289  -0.31849  -0.29232  -0.28787
 Alpha  occ. eigenvalues --   -0.25886  -0.24536  -0.23739
 Alpha virt. eigenvalues --   -0.00719  -0.00260  -0.00085   0.00780   0.01221
 Alpha virt. eigenvalues --    0.01534   0.01763   0.02654   0.02899   0.03030
 Alpha virt. eigenvalues --    0.03845   0.04448   0.04698   0.04992   0.05014
 Alpha virt. eigenvalues --    0.05965   0.06263   0.06786   0.07225   0.07365
 Alpha virt. eigenvalues --    0.08094   0.08247   0.08412   0.08892   0.09192
 Alpha virt. eigenvalues --    0.09865   0.10269   0.10460   0.10732   0.11040
 Alpha virt. eigenvalues --    0.11449   0.11577   0.12344   0.12784   0.12977
 Alpha virt. eigenvalues --    0.13310   0.13696   0.14154   0.14319   0.14482
 Alpha virt. eigenvalues --    0.14962   0.15028   0.15454   0.15699   0.16320
 Alpha virt. eigenvalues --    0.16661   0.16943   0.17296   0.17535   0.17890
 Alpha virt. eigenvalues --    0.18074   0.18169   0.18406   0.18827   0.19518
 Alpha virt. eigenvalues --    0.19810   0.20086   0.20487   0.20612   0.21020
 Alpha virt. eigenvalues --    0.21323   0.21447   0.21526   0.21853   0.22209
 Alpha virt. eigenvalues --    0.22507   0.22840   0.22917   0.23134   0.23213
 Alpha virt. eigenvalues --    0.23705   0.24264   0.24451   0.24730   0.25212
 Alpha virt. eigenvalues --    0.25372   0.25576   0.25906   0.26325   0.26463
 Alpha virt. eigenvalues --    0.26707   0.27262   0.27615   0.27798   0.28235
 Alpha virt. eigenvalues --    0.28646   0.29155   0.29412   0.29568   0.29775
 Alpha virt. eigenvalues --    0.29870   0.30298   0.30333   0.31078   0.31574
 Alpha virt. eigenvalues --    0.32261   0.32390   0.32746   0.33394   0.33476
 Alpha virt. eigenvalues --    0.33839   0.33944   0.34395   0.34467   0.35142
 Alpha virt. eigenvalues --    0.36303   0.36415   0.36693   0.36962   0.37958
 Alpha virt. eigenvalues --    0.38145   0.38761   0.39206   0.39363   0.40421
 Alpha virt. eigenvalues --    0.40816   0.40967   0.41715   0.42322   0.42856
 Alpha virt. eigenvalues --    0.43153   0.43846   0.44174   0.44640   0.45421
 Alpha virt. eigenvalues --    0.46452   0.46972   0.47840   0.48143   0.49335
 Alpha virt. eigenvalues --    0.49378   0.50760   0.50915   0.51167   0.51896
 Alpha virt. eigenvalues --    0.53840   0.59486   0.63683   0.65377   0.68069
 Alpha virt. eigenvalues --    0.68423   0.69149   0.70744   0.71006   0.71509
 Alpha virt. eigenvalues --    0.72505   0.73078   0.73185   0.73757   0.73843
 Alpha virt. eigenvalues --    0.74658   0.75422   0.75926   0.76789   0.76995
 Alpha virt. eigenvalues --    0.77631   0.78236   0.78749   0.80115   0.80637
 Alpha virt. eigenvalues --    0.81354   0.81732   0.83287   0.83911   0.84077
 Alpha virt. eigenvalues --    0.84768   0.86227   0.87019   0.87304   0.88013
 Alpha virt. eigenvalues --    0.88305   0.89100   0.90671   0.91346   0.91685
 Alpha virt. eigenvalues --    0.92523   0.93338   0.93961   0.94802   0.95372
 Alpha virt. eigenvalues --    0.95515   0.98128   0.98401   0.99422   0.99566
 Alpha virt. eigenvalues --    1.00786   1.01714   1.01939   1.03241   1.04242
 Alpha virt. eigenvalues --    1.04958   1.06235   1.06996   1.07884   1.08740
 Alpha virt. eigenvalues --    1.09559   1.09957   1.10945   1.11669   1.12131
 Alpha virt. eigenvalues --    1.12745   1.13041   1.14817   1.15755   1.15902
 Alpha virt. eigenvalues --    1.16558   1.17261   1.17946   1.18295   1.19105
 Alpha virt. eigenvalues --    1.20493   1.20870   1.21448   1.21646   1.22795
 Alpha virt. eigenvalues --    1.23837   1.24685   1.25381   1.27184   1.27360
 Alpha virt. eigenvalues --    1.27987   1.28449   1.29400   1.30099   1.31474
 Alpha virt. eigenvalues --    1.31799   1.32791   1.33512   1.33864   1.35100
 Alpha virt. eigenvalues --    1.36254   1.36646   1.37586   1.38153   1.38940
 Alpha virt. eigenvalues --    1.39305   1.40421   1.40855   1.42482   1.43454
 Alpha virt. eigenvalues --    1.43833   1.44947   1.45933   1.47815   1.48764
 Alpha virt. eigenvalues --    1.50526   1.51454   1.53809   1.54849   1.55156
 Alpha virt. eigenvalues --    1.55464   1.57551   1.58680   1.60086   1.61186
 Alpha virt. eigenvalues --    1.62483   1.64266   1.64653   1.65317   1.67509
 Alpha virt. eigenvalues --    1.68772   1.69003   1.71152   1.73507   1.74241
 Alpha virt. eigenvalues --    1.75246   1.75850   1.76911   1.78379   1.78824
 Alpha virt. eigenvalues --    1.80553   1.81301   1.81870   1.83672   1.84899
 Alpha virt. eigenvalues --    1.85636   1.86322   1.86702   1.88002   1.88324
 Alpha virt. eigenvalues --    1.89826   1.90574   1.90863   1.92301   1.92540
 Alpha virt. eigenvalues --    1.93154   1.94266   1.94681   1.95211   1.96331
 Alpha virt. eigenvalues --    1.96772   1.97480   1.98840   1.99138   1.99820
 Alpha virt. eigenvalues --    2.02459   2.03235   2.04410   2.05610   2.06055
 Alpha virt. eigenvalues --    2.06509   2.06927   2.09157   2.09420   2.10707
 Alpha virt. eigenvalues --    2.11427   2.12603   2.13116   2.13349   2.15119
 Alpha virt. eigenvalues --    2.15540   2.16027   2.16542   2.17275   2.17842
 Alpha virt. eigenvalues --    2.18582   2.19119   2.19845   2.20041   2.20730
 Alpha virt. eigenvalues --    2.22997   2.24517   2.25017   2.25751   2.26771
 Alpha virt. eigenvalues --    2.27295   2.27742   2.28487   2.30124   2.31376
 Alpha virt. eigenvalues --    2.31637   2.32900   2.33740   2.35082   2.35960
 Alpha virt. eigenvalues --    2.36390   2.38510   2.38700   2.40503   2.41310
 Alpha virt. eigenvalues --    2.43336   2.44316   2.45405   2.47004   2.47945
 Alpha virt. eigenvalues --    2.48380   2.49934   2.50945   2.51306   2.52385
 Alpha virt. eigenvalues --    2.52561   2.53475   2.54298   2.55373   2.56082
 Alpha virt. eigenvalues --    2.56414   2.58205   2.58682   2.59285   2.59609
 Alpha virt. eigenvalues --    2.61131   2.62462   2.63084   2.64289   2.65116
 Alpha virt. eigenvalues --    2.65742   2.66412   2.68167   2.68666   2.69524
 Alpha virt. eigenvalues --    2.70891   2.71249   2.72043   2.72994   2.73424
 Alpha virt. eigenvalues --    2.74530   2.75019   2.76312   2.76405   2.77154
 Alpha virt. eigenvalues --    2.78145   2.79487   2.79966   2.81154   2.82413
 Alpha virt. eigenvalues --    2.83599   2.84064   2.85014   2.86898   2.87551
 Alpha virt. eigenvalues --    2.88781   2.89682   2.90483   2.90938   2.91392
 Alpha virt. eigenvalues --    2.91710   2.93618   2.94245   2.95266   2.97263
 Alpha virt. eigenvalues --    3.00270   3.02001   3.03114   3.03551   3.08050
 Alpha virt. eigenvalues --    3.10454   3.10596   3.11492   3.16642   3.18635
 Alpha virt. eigenvalues --    3.20684   3.27337   3.29218   3.30178   3.31540
 Alpha virt. eigenvalues --    3.33050   3.36104   3.36321   3.39285   3.41484
 Alpha virt. eigenvalues --    3.42392   3.45189   3.46771   3.48316   3.51104
 Alpha virt. eigenvalues --    3.51410   3.51803   3.52286   3.53550   3.54171
 Alpha virt. eigenvalues --    3.56488   3.57496   3.59551   3.59952   3.60552
 Alpha virt. eigenvalues --    3.61330   3.61922   3.65284   3.66350   3.76637
 Alpha virt. eigenvalues --    4.36592   4.37769   4.41271   4.47060   4.48438
 Alpha virt. eigenvalues --    4.50371   4.51955   4.54401   4.55701   4.57107
 Alpha virt. eigenvalues --    4.61936   4.64103   4.68455   4.71667   4.73791
 Alpha virt. eigenvalues --    4.76484   4.79289   4.86238   4.89026   4.94808
 Alpha virt. eigenvalues --    5.01114   5.03889
          Condensed to atoms (all electrons):
              1          2          3          4          5          6
     1  C   12.683865  -1.983869  -0.123677   0.054272  -0.438653   0.053375
     2  C   -1.983869   8.718091   0.399420   0.367688   0.128083  -0.071591
     3  H   -0.123677   0.399420   0.536237  -0.029450  -0.049841  -0.005300
     4  H    0.054272   0.367688  -0.029450   0.528936  -0.089449   0.004511
     5  C   -0.438653   0.128083  -0.049841  -0.089449   7.038499   0.367187
     6  H    0.053375  -0.071591  -0.005300   0.004511   0.367187   0.529520
     7  C    1.027551  -0.582536   0.035574   0.105859  -1.387463   0.035468
     8  H   -0.004464   0.034739  -0.000159  -0.000122   0.018940  -0.008150
     9  C   -0.348006   0.662682  -0.022062   0.015798   0.282945  -0.015806
    10  H    0.052384  -0.029235  -0.000051   0.000096  -0.044996   0.001885
    11  C   -2.910892  -0.916172   0.069145  -0.128035   0.453836  -0.072828
    12  H    0.015577  -0.036783  -0.000069   0.002182  -0.031169   0.000030
    13  C   -0.122406  -0.056750  -0.000825  -0.001034   0.212436  -0.008929
    14  C   -0.058603  -0.015524   0.000003  -0.000144  -0.002138   0.000053
    15  C   -0.216646   0.022078  -0.001612   0.005641  -0.135567   0.024943
    16  C   -0.557947  -0.184311   0.001916  -0.002319  -0.215987  -0.002846
    17  C   -0.124993  -0.017110   0.000113  -0.000309  -0.050658  -0.000276
    18  C    0.009146  -0.009776  -0.000123   0.000561  -0.018986   0.004526
    19  H   -0.000176  -0.000021   0.000000   0.000000   0.000047   0.000000
    20  H   -0.000079   0.000015   0.000000   0.000000   0.000037   0.000000
    21  O   -0.008964   0.002975  -0.000007  -0.000343   0.000298  -0.000050
    22  H    0.000550   0.000346   0.000000   0.000000   0.000527   0.000000
    23  O   -0.009591   0.010999  -0.000007  -0.000007  -0.008441  -0.000225
    24  H    0.002037  -0.000251   0.000000   0.000000   0.000570   0.000000
    25  O   -0.308468   0.048658  -0.000405   0.000191   0.015138  -0.000137
    26  H    0.057955  -0.009803   0.000004  -0.000001  -0.005186   0.000001
    27  C   -0.931256  -0.292000   0.016450   0.006877   0.055508  -0.004482
    28  H   -0.135392  -0.010541   0.003139   0.000105   0.021566   0.000128
    29  H   -0.080976   0.028913   0.000107  -0.000135  -0.002094  -0.000036
    30  H   -0.136639   0.047044   0.000340  -0.000081  -0.021750  -0.000519
    31  O    0.432539  -0.224562   0.003436  -0.003570   0.045234  -0.000528
    32  H    0.041249   0.070009  -0.000146   0.000001  -0.008155   0.000003
    33  H    0.008203  -0.008008  -0.001507  -0.004951   0.441592  -0.026038
    34  C   -0.230400   0.282800  -0.003770  -0.005352   0.117319   0.007636
    35  C    0.357102  -0.235923  -0.002405   0.021017  -0.302281   0.007830
    36  H    0.001594  -0.000652   0.000000   0.000000  -0.006102   0.000003
    37  H    0.001205  -0.001618   0.000000  -0.000001  -0.006028  -0.000010
    38  C   -0.190747   0.094922   0.003223  -0.021625   0.070973   0.002508
    39  H   -0.015184  -0.015205   0.000106  -0.000392   0.034813   0.000006
    40  H    0.002090  -0.002368  -0.000003   0.000158  -0.004278   0.000002
    41  H   -0.014871   0.019980   0.000046  -0.000890  -0.017441  -0.000026
    42  C   -0.010632  -0.000880   0.000000  -0.000006   0.002316  -0.000002
    43  H    0.000003   0.000000   0.000000   0.000000   0.000002   0.000000
    44  H   -0.000004   0.000000   0.000000   0.000000  -0.000011   0.000000
    45  C    0.000038  -0.000040   0.000000   0.000000   0.000104   0.000000
    46  H    0.000000   0.000000   0.000000   0.000000  -0.000001   0.000000
    47  H   -0.000003   0.000000   0.000000   0.000000  -0.000010   0.000000
    48  H    0.000002   0.000000   0.000000   0.000000   0.000002   0.000000
              7          8          9         10         11         12
     1  C    1.027551  -0.004464  -0.348006   0.052384  -2.910892   0.015577
     2  C   -0.582536   0.034739   0.662682  -0.029235  -0.916172  -0.036783
     3  H    0.035574  -0.000159  -0.022062  -0.000051   0.069145  -0.000069
     4  H    0.105859  -0.000122   0.015798   0.000096  -0.128035   0.002182
     5  C   -1.387463   0.018940   0.282945  -0.044996   0.453836  -0.031169
     6  H    0.035468  -0.008150  -0.015806   0.001885  -0.072828   0.000030
     7  C   13.366301   0.116413  -1.901919   0.121901  -1.999989   0.116528
     8  H    0.116413   0.567315   0.093304  -0.009124  -0.015906  -0.000220
     9  C   -1.901919   0.093304  16.378017   0.273722  -5.957427   0.048237
    10  H    0.121901  -0.009124   0.273722   0.551930  -0.242988   0.004568
    11  C   -1.999989  -0.015906  -5.957427  -0.242988  20.612439   0.114175
    12  H    0.116528  -0.000220   0.048237   0.004568   0.114175   0.568886
    13  C   -1.293291   0.050966   4.932087  -0.161912  -1.761981   0.055647
    14  C   -0.214558  -0.000244  -0.589702   0.006892   0.087520   0.001615
    15  C    0.129967   0.039355  -1.036366   0.184937  -2.275587   0.059144
    16  C    0.239872  -0.061480  -4.271843   0.008790   2.783559  -0.016551
    17  C   -0.133347  -0.008381  -1.834680  -0.001381   0.538131   0.000026
    18  C    0.485014   0.012989  -1.489067   0.083867  -0.887563   0.013089
    19  H    0.000733   0.000000   0.001188   0.000002  -0.001455   0.000001
    20  H   -0.001231   0.000004  -0.006181  -0.000003  -0.000149   0.000000
    21  O    0.006023   0.000059  -0.072072  -0.001275   0.140460  -0.024638
    22  H    0.002368   0.000000   0.026075   0.000005   0.010189   0.000130
    23  O   -0.077751   0.002600   0.004921   0.003445  -0.071089  -0.000066
    24  H   -0.001967  -0.000002   0.051924   0.000056   0.001645   0.000000
    25  O    0.068848  -0.000692  -0.255205  -0.004149   0.600793  -0.060618
    26  H    0.000377   0.000000  -0.151017  -0.000628   0.101533  -0.006438
    27  C   -0.315609   0.002783   0.480254  -0.001495  -0.413757   0.021459
    28  H   -0.014590   0.000001  -0.005410  -0.000048   0.057956  -0.000085
    29  H   -0.008751   0.000002  -0.001324  -0.000130  -0.011499  -0.000005
    30  H    0.042142  -0.000072  -0.036957  -0.000774   0.082133  -0.000161
    31  O    0.001851   0.000197   0.064226  -0.000874  -0.157468  -0.000541
    32  H    0.000095   0.000000   0.037333  -0.000011  -0.096200  -0.001406
    33  H   -0.161723  -0.001428   0.012990  -0.000088   0.044899  -0.000021
    34  C   -2.338215  -0.040426   0.277172   0.007893  -0.688235  -0.035107
    35  C    0.658357   0.056411  -0.098828   0.009919  -0.124884   0.011843
    36  H    0.041659   0.000391   0.000430   0.000003  -0.002558   0.000001
    37  H    0.014652   0.004238   0.017324  -0.000040  -0.003351  -0.000001
    38  C   -0.011198  -0.019290   0.057359   0.005694  -0.502035   0.004521
    39  H   -0.029419  -0.000096  -0.036458   0.000002   0.054679   0.000028
    40  H    0.027099  -0.000106  -0.009969   0.000003   0.003196   0.000088
    41  H    0.034592  -0.000114   0.034620  -0.000050  -0.047921   0.001160
    42  C   -0.050066  -0.000227  -0.044743  -0.000734  -0.000017   0.000156
    43  H   -0.000061   0.000000   0.000256   0.000000   0.000104   0.000000
    44  H   -0.000200   0.000000   0.000691   0.000000  -0.000148   0.000000
    45  C    0.000250   0.000001  -0.000274   0.000011  -0.000776   0.000000
    46  H   -0.000045   0.000000   0.000081   0.000000   0.000007   0.000000
    47  H   -0.000243   0.000000  -0.000083   0.000000  -0.000147   0.000000
    48  H    0.000102   0.000000   0.000044   0.000000   0.000040   0.000000
             13         14         15         16         17         18
     1  C   -0.122406  -0.058603  -0.216646  -0.557947  -0.124993   0.009146
     2  C   -0.056750  -0.015524   0.022078  -0.184311  -0.017110  -0.009776
     3  H   -0.000825   0.000003  -0.001612   0.001916   0.000113  -0.000123
     4  H   -0.001034  -0.000144   0.005641  -0.002319  -0.000309   0.000561
     5  C    0.212436  -0.002138  -0.135567  -0.215987  -0.050658  -0.018986
     6  H   -0.008929   0.000053   0.024943  -0.002846  -0.000276   0.004526
     7  C   -1.293291  -0.214558   0.129967   0.239872  -0.133347   0.485014
     8  H    0.050966  -0.000244   0.039355  -0.061480  -0.008381   0.012989
     9  C    4.932087  -0.589702  -1.036366  -4.271843  -1.834680  -1.489067
    10  H   -0.161912   0.006892   0.184937   0.008790  -0.001381   0.083867
    11  C   -1.761981   0.087520  -2.275587   2.783559   0.538131  -0.887563
    12  H    0.055647   0.001615   0.059144  -0.016551   0.000026   0.013089
    13  C   19.247632  -1.605971  -0.850778  -4.024600  -6.150778  -2.571956
    14  C   -1.605971   9.613920  -1.040528  -0.965018   1.573676   0.531761
    15  C   -0.850778  -1.040528  10.365670  -0.835861  -0.256787   0.965660
    16  C   -4.024600  -0.965018  -0.835861  13.771506   2.635898  -1.614076
    17  C   -6.150778   1.573676  -0.256787   2.635898  11.820678  -2.026553
    18  C   -2.571956   0.531761   0.965660  -1.614076  -2.026553  12.853649
    19  H    0.046592   0.048665  -0.008117  -0.088141   0.321024   0.004741
    20  H    0.065826   0.051835  -0.056106  -0.005458   0.003778   0.287816
    21  O   -0.595542   0.061205  -0.096554   0.468918   0.236459  -0.067030
    22  H    0.161273   0.002052  -0.002087  -0.028043  -0.176191   0.009527
    23  O   -0.204120   0.051390   0.254319   0.023881   0.003603   0.021972
    24  H    0.138421   0.001319   0.041703  -0.010344  -0.007257  -0.211573
    25  O   -0.200722   0.002176  -0.089493   0.239916   0.049484  -0.017752
    26  H   -0.079777   0.007556  -0.011213   0.080508   0.050235  -0.000662
    27  C    0.202049   0.011610   0.242196   0.019698   0.007035   0.052842
    28  H    0.000331  -0.000019  -0.000349  -0.000706  -0.000039  -0.000017
    29  H    0.001667   0.000046  -0.006046   0.001818   0.000237  -0.000887
    30  H   -0.009495   0.000189   0.002934   0.005500   0.000284   0.000328
    31  O    0.046133  -0.001026   0.019153  -0.047518  -0.005445   0.002915
    32  H    0.001947   0.000020  -0.000891  -0.001020   0.000149  -0.000132
    33  H    0.004109   0.000319  -0.009246   0.006000   0.000412  -0.001214
    34  C    0.599362  -0.111797   0.115247  -0.523133   0.016006  -0.352802
    35  C   -0.119841   0.106817   0.090069   0.183505   0.125522   0.128565
    36  H   -0.000957   0.000241   0.007250   0.005383  -0.001482   0.005328
    37  H    0.007508   0.008955   0.007187   0.008166  -0.000374  -0.004223
    38  C    0.432407  -0.053900   0.111197  -0.521131  -0.240901   0.110861
    39  H   -0.018804   0.000557  -0.004100   0.027224   0.004626  -0.000899
    40  H   -0.004731   0.000730   0.000350   0.009111   0.001990   0.000432
    41  H    0.031271  -0.002946   0.008160  -0.036917  -0.018015   0.002602
    42  C   -0.903590  -1.329464   0.130292   0.004708   0.441649  -0.112920
    43  H    0.006741  -0.203776  -0.023477   0.053054   0.143137  -0.092070
    44  H   -0.004718  -0.223488   0.051096  -0.030954  -0.092232   0.144201
    45  C    0.000667  -0.061267   0.014034  -0.006901   0.037032   0.015988
    46  H    0.002628   0.028664   0.001397   0.003391   0.008658   0.006425
    47  H   -0.006087  -0.036000   0.003192  -0.015794  -0.012109   0.018283
    48  H    0.000036  -0.030507  -0.002880   0.002942   0.015562  -0.017993
             19         20         21         22         23         24
     1  C   -0.000176  -0.000079  -0.008964   0.000550  -0.009591   0.002037
     2  C   -0.000021   0.000015   0.002975   0.000346   0.010999  -0.000251
     3  H    0.000000   0.000000  -0.000007   0.000000  -0.000007   0.000000
     4  H    0.000000   0.000000  -0.000343   0.000000  -0.000007   0.000000
     5  C    0.000047   0.000037   0.000298   0.000527  -0.008441   0.000570
     6  H    0.000000   0.000000  -0.000050   0.000000  -0.000225   0.000000
     7  C    0.000733  -0.001231   0.006023   0.002368  -0.077751  -0.001967
     8  H    0.000000   0.000004   0.000059   0.000000   0.002600  -0.000002
     9  C    0.001188  -0.006181  -0.072072   0.026075   0.004921   0.051924
    10  H    0.000002  -0.000003  -0.001275   0.000005   0.003445   0.000056
    11  C   -0.001455  -0.000149   0.140460   0.010189  -0.071089   0.001645
    12  H    0.000001   0.000000  -0.024638   0.000130  -0.000066   0.000000
    13  C    0.046592   0.065826  -0.595542   0.161273  -0.204120   0.138421
    14  C    0.048665   0.051835   0.061205   0.002052   0.051390   0.001319
    15  C   -0.008117  -0.056106  -0.096554  -0.002087   0.254319   0.041703
    16  C   -0.088141  -0.005458   0.468918  -0.028043   0.023881  -0.010344
    17  C    0.321024   0.003778   0.236459  -0.176191   0.003603  -0.007257
    18  C    0.004741   0.287816  -0.067030   0.009527   0.021972  -0.211573
    19  H    0.518389  -0.000141  -0.019657   0.008304   0.000109   0.000000
    20  H   -0.000141   0.517871   0.000117  -0.000001  -0.017722   0.007940
    21  O   -0.019657   0.000117   8.406963   0.212141  -0.003205   0.000047
    22  H    0.008304  -0.000001   0.212141   0.345062   0.000058   0.000000
    23  O    0.000109  -0.017722  -0.003205   0.000058   8.290431   0.204122
    24  H    0.000000   0.007940   0.000047   0.000000   0.204122   0.360579
    25  O   -0.000027   0.000002   0.009844   0.000762  -0.001757  -0.000053
    26  H   -0.000020   0.000000  -0.001873  -0.000177   0.000047   0.000000
    27  C   -0.000013   0.000038  -0.009579  -0.000269  -0.000262  -0.000305
    28  H    0.000000   0.000000  -0.000006   0.000000   0.000009   0.000000
    29  H    0.000000   0.000000   0.000034   0.000000  -0.000009   0.000000
    30  H    0.000000   0.000000   0.000001   0.000000  -0.000097   0.000001
    31  O    0.000000   0.000000  -0.001965   0.000004   0.000263   0.000000
    32  H    0.000000   0.000000   0.000174   0.000000   0.000006   0.000000
    33  H    0.000000   0.000000   0.000000   0.000000  -0.000055   0.000000
    34  C   -0.001616   0.000683  -0.006662  -0.001245   0.054073   0.002974
    35  C    0.000907  -0.000313  -0.033628  -0.002323  -0.021032  -0.000423
    36  H    0.000000   0.000000  -0.000210  -0.000002  -0.000061   0.000000
    37  H    0.000000  -0.000005  -0.000141   0.000000   0.001247  -0.000005
    38  C   -0.000029   0.000002  -0.045169   0.004378   0.006180   0.000342
    39  H    0.000000   0.000000   0.000152   0.000001  -0.000029   0.000000
    40  H    0.000000   0.000000  -0.000032  -0.000011  -0.000003   0.000000
    41  H    0.000000   0.000000   0.000795  -0.000160   0.000056   0.000000
    42  C   -0.006931  -0.023972  -0.009035   0.000421   0.001402  -0.000044
    43  H    0.002198   0.000075  -0.000049   0.000004   0.000038   0.000000
    44  H    0.000076   0.002191   0.000028   0.000000  -0.000044   0.000004
    45  C    0.006937   0.006422  -0.000459   0.000217   0.000014   0.000100
    46  H   -0.000030  -0.000028  -0.000002   0.000000  -0.000001   0.000000
    47  H    0.000176   0.000011   0.000014   0.000001   0.000001   0.000000
    48  H    0.000011   0.000187   0.000001   0.000000   0.000029   0.000001
             25         26         27         28         29         30
     1  C   -0.308468   0.057955  -0.931256  -0.135392  -0.080976  -0.136639
     2  C    0.048658  -0.009803  -0.292000  -0.010541   0.028913   0.047044
     3  H   -0.000405   0.000004   0.016450   0.003139   0.000107   0.000340
     4  H    0.000191  -0.000001   0.006877   0.000105  -0.000135  -0.000081
     5  C    0.015138  -0.005186   0.055508   0.021566  -0.002094  -0.021750
     6  H   -0.000137   0.000001  -0.004482   0.000128  -0.000036  -0.000519
     7  C    0.068848   0.000377  -0.315609  -0.014590  -0.008751   0.042142
     8  H   -0.000692   0.000000   0.002783   0.000001   0.000002  -0.000072
     9  C   -0.255205  -0.151017   0.480254  -0.005410  -0.001324  -0.036957
    10  H   -0.004149  -0.000628  -0.001495  -0.000048  -0.000130  -0.000774
    11  C    0.600793   0.101533  -0.413757   0.057956  -0.011499   0.082133
[...]
    17  C    0.054907   0.053396   0.018076  -0.000054   0.000188   0.000513
    18  C   -0.023028  -0.003140   0.032333   0.000090  -0.001195  -0.000514
    19  H   -0.000029  -0.000014   0.000001   0.000000   0.000000   0.000000
    20  H   -0.000004   0.000000   0.000023   0.000000   0.000000   0.000000
    21  O    0.008071  -0.002935  -0.010798  -0.000008   0.000047  -0.000025
    22  H    0.000582  -0.000204  -0.000185   0.000000   0.000000   0.000000
    23  O   -0.001504  -0.000011   0.000300  -0.000001  -0.000003   0.000191
    24  H   -0.000041   0.000000  -0.000232   0.000000   0.000000   0.000001
    25  O    8.467531   0.211839  -0.051832  -0.000708   0.004033  -0.003894
    26  H    0.211839   0.346265   0.000271   0.000002  -0.000079  -0.000024
    27  C   -0.051832   0.000271   6.097107   0.455459   0.443693   0.388526
    28  H   -0.000708   0.000002   0.455459   0.535828  -0.028918  -0.027271
    29  H    0.004033  -0.000079   0.443693  -0.028918   0.539138  -0.026843
    30  H   -0.003894  -0.000024   0.388526  -0.027271  -0.026843   0.532383
    31  O   -0.025434   0.000780  -0.090772  -0.001797  -0.005418   0.007068
    32  H    0.018521  -0.000858  -0.045546  -0.000222   0.002596   0.000043
    33  H    0.000031   0.000000  -0.004232  -0.000022   0.000001   0.000029
    34  C   -0.033978  -0.003487   0.015536   0.000467   0.000856   0.003929
    35  C   -0.002179   0.001551   0.008711  -0.000022  -0.000177  -0.001159
    36  H   -0.000002   0.000000   0.000033   0.000000   0.000000   0.000000
    37  H   -0.000006   0.000000   0.000139   0.000000   0.000000   0.000000
    38  C   -0.004038  -0.000826  -0.019247   0.000504  -0.000227  -0.000354
    39  H    0.000050   0.000000  -0.000225   0.000000   0.000000   0.000000
    40  H   -0.000014   0.000000  -0.000016   0.000000   0.000000   0.000000
    41  H    0.000303   0.000014  -0.000676   0.000000   0.000000   0.000000
    42  C   -0.000678  -0.000546   0.001040   0.000000  -0.000002  -0.000002
    43  H    0.000000   0.000000   0.000000   0.000000   0.000000   0.000000
    44  H    0.000000   0.000000   0.000000   0.000000   0.000000   0.000000
    45  C    0.000014   0.000011   0.000000   0.000000   0.000000   0.000000
    46  H    0.000000   0.000000   0.000000   0.000000   0.000000   0.000000
    47  H    0.000000   0.000000   0.000000   0.000000   0.000000   0.000000
    48  H    0.000000   0.000000   0.000000   0.000000   0.000000   0.000000
             31         32         33         34         35         36
     1  C    0.381853   0.042024   0.001528  -0.039580   0.292126   0.001738
     2  C   -0.207504   0.051871  -0.035962   0.212704  -0.136525  -0.001127
     3  H    0.004097  -0.000113  -0.001214  -0.001775  -0.003631   0.000000
     4  H    0.004185  -0.000019  -0.005333  -0.020255   0.009837   0.000001
     5  C    0.022738  -0.005812   0.504705  -0.011547  -0.314616  -0.005061
     6  H    0.000112   0.000002  -0.030881   0.003593  -0.012242   0.000003
     7  C    0.008837   0.003169  -0.155096  -1.498119   0.412968   0.033853
     8  H    0.000150   0.000000  -0.001793  -0.085939   0.079837   0.000427
     9  C    0.055007   0.025348   0.001944  -0.131902   0.057718  -0.002022
    10  H   -0.000587  -0.000021  -0.000073   0.015576   0.008800   0.000004
    11  C   -0.172743  -0.074774   0.069916  -0.720022  -0.076242  -0.003472
    12  H    0.004585  -0.001852  -0.000015  -0.037831   0.009878   0.000001
    13  C    0.043350   0.000977   0.000443   0.342024  -0.124479   0.002919
    14  C   -0.000979   0.000014   0.000317  -0.166007   0.148445   0.000288
    15  C    0.019916  -0.001169  -0.011674   0.228772   0.043058   0.008294
    16  C   -0.045622  -0.001090   0.004982  -0.451752   0.294884   0.000343
    17  C   -0.005115   0.000059   0.000262   0.047910   0.175126  -0.003249
    18  C    0.003020  -0.000130  -0.001373  -0.109726   0.005954   0.006871
    19  H    0.000000   0.000000   0.000000   0.000124   0.000171   0.000000
    20  H    0.000000   0.000000   0.000000   0.000063  -0.000032   0.000000
    21  O   -0.002241   0.000219   0.000021  -0.021589  -0.036272  -0.000216
    22  H    0.000007   0.000000   0.000000  -0.002519  -0.000807  -0.000003
    23  O    0.000255   0.000005  -0.000078   0.035930  -0.013814  -0.000022
    24  H    0.000000   0.000000   0.000000   0.001351  -0.000121   0.000000
    25  O   -0.025434   0.018521   0.000031  -0.033978  -0.002179  -0.000002
    26  H    0.000780  -0.000858   0.000000  -0.003487   0.001551   0.000000
    27  C   -0.090772  -0.045546  -0.004232   0.015536   0.008711   0.000033
    28  H   -0.001797  -0.000222  -0.000022   0.000467  -0.000022   0.000000
    29  H   -0.005418   0.002596   0.000001   0.000856  -0.000177   0.000000
    30  H    0.007068   0.000043   0.000029   0.003929  -0.001159   0.000000
    31  O    8.321042   0.240073  -0.000614   0.011176   0.002615   0.000000
    32  H    0.240073   0.351110   0.000005  -0.001466  -0.000484   0.000000
    33  H   -0.000614   0.000005   0.562173  -0.014306  -0.016209  -0.000047
    34  C    0.011176  -0.001466  -0.014306  11.292501  -2.610376  -0.210385
    35  C    0.002615  -0.000484  -0.016209  -2.610376   8.607416   0.544853
    36  H    0.000000   0.000000  -0.000047  -0.210385   0.544853   0.538782
    37  H    0.000002   0.000000  -0.000005  -0.242008   0.602289  -0.035435
    38  C    0.000755   0.001445  -0.023359   0.006002  -1.220600  -0.027298
    39  H   -0.000577   0.000001   0.000628  -0.078842   0.003992   0.000171
    40  H    0.000007   0.000000  -0.000018  -0.116719  -0.066139   0.003264
    41  H    0.000696   0.000006   0.000258  -0.122288  -0.062644   0.000121
    42  C   -0.000038   0.000001   0.000016  -0.016895   0.001465   0.000338
    43  H    0.000000   0.000000   0.000000   0.000122  -0.000104   0.000000
    44  H    0.000000   0.000000   0.000000   0.000124  -0.000033   0.000000
    45  C    0.000000   0.000000   0.000000   0.002757  -0.002516  -0.000013
    46  H    0.000000   0.000000   0.000000   0.000076  -0.000039   0.000000
    47  H    0.000000   0.000000   0.000000   0.000018  -0.000065   0.000000
    48  H    0.000000   0.000000   0.000000  -0.000518   0.000258   0.000000
             37         38         39         40         41         42
     1  C    0.001339  -0.087184  -0.009210   0.004523  -0.024196  -0.010735
     2  C   -0.002163   0.001570  -0.010894  -0.003671   0.015822  -0.000829
     3  H    0.000000   0.002504   0.000115  -0.000003   0.000064   0.000000
     4  H   -0.000001  -0.003781  -0.000607   0.000170  -0.000807  -0.000005
     5  C   -0.007982   0.012477   0.032567   0.000048  -0.023161   0.003532
     6  H   -0.000013   0.013896   0.000015   0.000003  -0.000023   0.000008
     7  C   -0.026962   0.042852  -0.005159  -0.000485   0.032145  -0.058017
     8  H    0.004877  -0.030365  -0.000095  -0.000115  -0.000141  -0.000091
     9  C    0.013370  -0.134235  -0.032969  -0.008455   0.019503  -0.034090
    10  H   -0.000046   0.008766   0.000000   0.000003  -0.000045  -0.001101
    11  C   -0.004294  -0.702387   0.052361  -0.000586  -0.045347   0.001095
    12  H   -0.000002   0.003494  -0.000001   0.000109   0.000981   0.000022
    13  C    0.011722   0.394757  -0.012930  -0.001888   0.010603  -0.901773
    14  C    0.009290  -0.056814  -0.000076   0.001148  -0.001102  -1.233571
    15  C    0.002170   0.213095  -0.002743   0.000496   0.005347   0.038223
    16  C    0.005989  -0.576234   0.013902   0.004637  -0.019230  -0.033079
    17  C    0.000439  -0.261785   0.001889   0.002576  -0.008482   0.234698
    18  C   -0.007001   0.173173  -0.000366   0.000388   0.001672   0.039704
    19  H    0.000000   0.000138   0.000000   0.000000  -0.000001  -0.019498
    20  H   -0.000004   0.000031   0.000000   0.000000   0.000000  -0.029954
    21  O   -0.000026  -0.040348   0.000243   0.000000   0.002071  -0.005202
    22  H    0.000000   0.004096   0.000000  -0.000010  -0.000150  -0.000138
    23  O    0.001461   0.004573  -0.000028  -0.000002   0.000056   0.008484
    24  H   -0.000016   0.000280   0.000000   0.000000   0.000000  -0.000909
    25  O   -0.000006  -0.004038   0.000050  -0.000014   0.000303  -0.000678
    26  H    0.000000  -0.000826   0.000000   0.000000   0.000014  -0.000546
    27  C    0.000139  -0.019247  -0.000225  -0.000016  -0.000676   0.001040
    28  H    0.000000   0.000504   0.000000   0.000000   0.000000   0.000000
    29  H    0.000000  -0.000227   0.000000   0.000000   0.000000  -0.000002
    30  H    0.000000  -0.000354   0.000000   0.000000   0.000000  -0.000002
    31  O    0.000002   0.000755  -0.000577   0.000007   0.000696  -0.000038
    32  H    0.000000   0.001445   0.000001   0.000000   0.000006   0.000001
    33  H   -0.000005  -0.023359   0.000628  -0.000018   0.000258   0.000016
    34  C   -0.242008   0.006002  -0.078842  -0.116719  -0.122288  -0.016895
    35  C    0.602289  -1.220600   0.003992  -0.066139  -0.062644   0.001465
    36  H   -0.035435  -0.027298   0.000171   0.003264   0.000121   0.000338
    37  H    0.549398  -0.019860  -0.000192   0.000245  -0.000206   0.002122
    38  C   -0.019860   7.450648   0.393355   0.533543   0.566691  -0.001720
    39  H   -0.000192   0.393355   0.536520  -0.026788  -0.027963  -0.000019
    40  H    0.000245   0.533543  -0.026788   0.548372  -0.028016   0.000138
    41  H   -0.000206   0.566691  -0.027963  -0.028016   0.537938   0.000108
    42  C    0.002122  -0.001720  -0.000019   0.000138   0.000108   7.014259
    43  H    0.000000   0.000028   0.000000   0.000000   0.000000   0.469696
    44  H    0.000000   0.000009   0.000000   0.000000   0.000000   0.494230
    45  C   -0.000106   0.001459   0.000000   0.000002   0.000004   0.212264
    46  H    0.000000   0.000009   0.000000   0.000000   0.000000  -0.075258
    47  H    0.000000   0.000023   0.000000   0.000000   0.000000  -0.038291
    48  H    0.000000  -0.000028   0.000000   0.000000   0.000000  -0.057048
             43         44         45         46         47         48
     1  C    0.000001  -0.000003  -0.000011   0.000000  -0.000003   0.000001
     2  C    0.000000   0.000000  -0.000025   0.000000   0.000000  -0.000001
     3  H    0.000000   0.000000   0.000000   0.000000   0.000000   0.000000
     4  H    0.000000   0.000000   0.000000   0.000000   0.000000   0.000000
     5  C   -0.000001  -0.000012  -0.000154  -0.000002  -0.000009   0.000006
     6  H    0.000000   0.000000   0.000000   0.000000   0.000000   0.000000
     7  C   -0.000113  -0.000168  -0.000725  -0.000060  -0.000115   0.000073
     8  H    0.000000   0.000000  -0.000001   0.000000   0.000000   0.000000
     9  C   -0.000127  -0.000172  -0.001363   0.000002  -0.000146  -0.000187
    10  H    0.000000   0.000000   0.000005   0.000000   0.000000   0.000000
    11  C    0.000003  -0.000151  -0.001472   0.000008  -0.000142   0.000030
    12  H    0.000000   0.000000  -0.000001   0.000000   0.000000   0.000000
    13  C   -0.000183  -0.009021   0.005476   0.000896  -0.007007   0.001316
    14  C   -0.160465  -0.167214  -0.001603  -0.006272   0.024273   0.029076
    15  C   -0.021211   0.033464   0.001914  -0.000294   0.011884  -0.020992
    16  C    0.032489  -0.026269  -0.013444   0.003985  -0.038513   0.008259
    17  C    0.086800  -0.069459   0.013436   0.006580  -0.059245   0.042158
    18  C   -0.068093   0.082318  -0.012248   0.005831   0.042761  -0.065777
    19  H    0.002449   0.000111   0.003764  -0.000036   0.000202   0.000015
    20  H    0.000111   0.002454   0.003207  -0.000034   0.000015   0.000215
    21  O   -0.000028   0.000012  -0.000589  -0.000003   0.000027   0.000003
    22  H    0.000002   0.000000   0.000185   0.000000   0.000000   0.000000
    23  O    0.000026  -0.000021   0.000088  -0.000003   0.000003   0.000047
    24  H    0.000000   0.000001   0.000083   0.000000   0.000000   0.000000
    25  O    0.000000   0.000000   0.000014   0.000000   0.000000   0.000000
    26  H    0.000000   0.000000   0.000011   0.000000   0.000000   0.000000
    27  C    0.000000   0.000000   0.000000   0.000000   0.000000   0.000000
    28  H    0.000000   0.000000   0.000000   0.000000   0.000000   0.000000
    29  H    0.000000   0.000000   0.000000   0.000000   0.000000   0.000000
    30  H    0.000000   0.000000   0.000000   0.000000   0.000000   0.000000
    31  O    0.000000   0.000000   0.000000   0.000000   0.000000   0.000000
    32  H    0.000000   0.000000   0.000000   0.000000   0.000000   0.000000
    33  H    0.000000   0.000000   0.000000   0.000000   0.000000   0.000000
    34  C    0.000122   0.000124   0.002757   0.000076   0.000018  -0.000518
    35  C   -0.000104  -0.000033  -0.002516  -0.000039  -0.000065   0.000258
    36  H    0.000000   0.000000  -0.000013   0.000000   0.000000   0.000000
    37  H    0.000000   0.000000  -0.000106   0.000000   0.000000   0.000000
    38  C    0.000028   0.000009   0.001459   0.000009   0.000023  -0.000028
    39  H    0.000000   0.000000   0.000000   0.000000   0.000000   0.000000
    40  H    0.000000   0.000000   0.000002   0.000000   0.000000   0.000000
    41  H    0.000000   0.000000   0.000004   0.000000   0.000000   0.000000
    42  C    0.469696   0.494230   0.212264  -0.075258  -0.038291  -0.057048
    43  H    0.564625  -0.033537  -0.021220  -0.003361  -0.005038   0.004833
    44  H   -0.033537   0.565198  -0.020479  -0.003404   0.004856  -0.005036
    45  C   -0.021220  -0.020479   5.177013   0.424255   0.420814   0.419683
    46  H   -0.003361  -0.003404   0.424255   0.548630  -0.027153  -0.027095
    47  H   -0.005038   0.004856   0.420814  -0.027153   0.541189  -0.028799
    48  H    0.004833  -0.005036   0.419683  -0.027095  -0.028799   0.540969
 Mulliken atomic charges:
              1
     1  C    0.413603
     2  C   -0.327297
     3  H    0.153605
     4  H    0.158722
     5  C   -0.430786
     6  H    0.162667
     7  C   -0.105036
     8  H    0.145824
     9  C    0.489738
    10  H    0.160361
    11  C   -0.438601
    12  H    0.158923
    13  C    0.500243
    14  C    0.021577
    15  C    0.318912
    16  C   -0.537519
    17  C   -0.847159
    18  C   -0.143866
    19  H    0.149719
    20  H    0.150966
    21  O   -0.615483
    22  H    0.455234
    23  O   -0.600154
    24  H    0.448832
    25  O   -0.649593
    26  H    0.422419
    27  C   -0.330749
    28  H    0.163749
    29  H    0.159612
    30  H    0.168446
    31  O   -0.572884
    32  H    0.396066
    33  H    0.155046
    34  C    0.528218
    35  C   -0.610423
    36  H    0.146047
    37  H    0.141474
    38  C   -0.619483
    39  H    0.173872
    40  H    0.153257
    41  H    0.170078
    42  C   -0.001952
    43  H    0.152296
    44  H    0.152200
    45  C   -0.610462
    46  H    0.152741
    47  H    0.158459
    48  H    0.158542
 Sum of Mulliken atomic charges =   0.00000
 Mulliken charges with hydrogens summed into heavy atoms:
              1
     1  C    0.413603
     2  C   -0.014970
     5  C   -0.113073
     7  C    0.040788
     9  C    0.650099
    11  C   -0.279678
    13  C    0.500243
    14  C    0.021577
    15  C    0.318912
    16  C   -0.537519
    17  C   -0.697440
    18  C    0.007100
    21  O   -0.160249
    23  O   -0.151322
    25  O   -0.227174
    27  C    0.161058
    31  O   -0.176818
    34  C    0.528218
    35  C   -0.322902
    38  C   -0.122275
    42  C    0.302544
    45  C   -0.140721
 Sum of Mulliken charges with hydrogens summed into heavy atoms =   0.00000
 Electronic spatial extent (au):  <R**2>=           7103.3747
 Charge=              0.0000 electrons
 Dipole moment (field-independent basis, Debye):
    X=             -7.0109    Y=              1.0518    Z=              0.4096  Tot=              7.1012
 Quadrupole moment (field-independent basis, Debye-Ang):
   XX=           -135.0272   YY=           -141.7703   ZZ=           -118.2703
   XY=              9.6515   XZ=              6.2004   YZ=             -1.2195
 Traceless Quadrupole moment (field-independent basis, Debye-Ang):
   XX=             -3.3379   YY=            -10.0811   ZZ=             13.4190
   XY=              9.6515   XZ=              6.2004   YZ=             -1.2195
 Octapole moment (field-independent basis, Debye-Ang**2):
  XXX=           -133.5248  YYY=            -14.0900  ZZZ=             -4.6568  XYY=              8.0970
  XXY=              4.1207  XXZ=             45.7659  XZZ=            -50.0605  YZZ=            -12.7802
  YYZ=            -14.6785  XYZ=             -3.1994
 Hexadecapole moment (field-independent basis, Debye-Ang**3):
 XXXX=          -6788.1957 YYYY=          -1862.2049 ZZZZ=          -1009.4362 XXXY=            149.0464
 XXXZ=            122.5291 YYYX=            -41.6688 YYYZ=             -2.4700 ZZZX=            -54.7259
 ZZZY=              6.8881 XXYY=          -1409.9076 XXZZ=          -1233.6679 YYZZ=           -495.4071
 XXYZ=            -11.3896 YYXZ=            -20.4577 ZZXY=             12.7398
 N-N= 1.986229996354D+03 E-N=-6.305264952061D+03  KE= 9.931136440184D+02

 Test job not archived.
 1\1\GINC-COMPUTE-10-9\SP\RB3LYP\6-31+G(d,p)\C18H26O4\LPASSAGLIA.IQUIR\
 23-Dec-2022\0\\# B3LYP/6-31+G** geom=allcheck test scrf=(pcm,solvent=w
 ater,smd,dovacuum)\\comment\\0,1\C,0,1.849968898,2.429337756,-1.611901
 442\C,0,0.986045477,3.480502255,-0.911616245\H,0,1.498877903,4.4512793
 23,-0.916298187\H,0,0.077227266,3.649744048,-1.499332753\C,0,0.6283976
 12,3.103788896,0.525229355\H,0,1.538919066,3.177181216,1.134510569\C,0
 ,0.046488712,1.682449328,0.70366974\H,0,0.212574562,1.465442855,1.7707
 1395\C,0,0.876991473,0.608824647,-0.077940615\H,0,1.874738319,0.593632
 396,0.383661212\C,0,1.165583071,1.040184021,-1.535733256\H,0,0.2532793
 51,1.09726654,-2.133600005\C,0,0.349216837,-0.813823139,0.161779278\C,
 0,-0.620102483,-3.425210687,0.763728631\C,0,0.6703288,-1.466817806,1.3
 68191991\C,0,-0.481237132,-1.510239075,-0.726690145\C,0,-0.960755121,-
 2.793592661,-0.436165216\C,0,0.198257497,-2.747671238,1.670336177\H,0,
 -1.59940937,-3.31390045,-1.145434599\H,0,0.459212225,-3.223237847,2.61
 1717978\O,0,-0.831913161,-0.945960327,-1.919917288\H,0,-1.573213689,-1
 .446947395,-2.29984139\O,0,1.466720752,-0.823845586,2.28000212\H,0,1.6
 27073001,-1.414945474,3.033261153\O,0,2.0163673,0.094664263,-2.2105365
 17\H,0,1.497341297,-0.731348569,-2.247827476\C,0,3.290396764,2.4405427
 05,-1.079466299\H,0,3.742359532,3.429289384,-1.223069849\H,0,3.9239694
 94,1.738833993,-1.633321056\H,0,3.354286742,2.194009684,-0.016674155\O
 ,0,1.940496223,2.795305593,-3.001688544\H,0,2.303271894,2.001211234,-3
 .443443342\H,0,-0.059610421,3.853103794,0.936598726\C,0,-1.47798454,1.
 629615852,0.519850293\C,0,-2.253957362,1.071471062,1.468396948\H,0,-3.
 334314161,1.027638239,1.372371375\H,0,-1.82785772,0.631663836,2.365489
 485\C,0,-2.120915038,2.225098967,-0.700628027\H,0,-2.003837892,3.31235
 1673,-0.706704006\H,0,-3.197715476,2.022745136,-0.732891519\H,0,-1.699
 462472,1.812767958,-1.618224334\C,0,-1.151052672,-4.798233521,1.086224
 755\H,0,-1.260760517,-5.378201544,0.161754375\H,0,-0.421950051,-5.3415
 84804,1.699605938\C,0,-2.48568055,-4.731280331,1.812764021\H,0,-2.8469
 83788,-5.740481121,2.034259958\H,0,-3.243762209,-4.22508233,1.20549340
 2\H,0,-2.395914241,-4.187542749,2.759334834\\Version=EM64L-G09RevC.01\
 State=1-A\HF=-1002.5466751\RMSD=3.804e-09\Dipole=-1.2244114,-2.1707868
 ,1.2625403\Quadrupole=-3.0573971,3.2678541,-0.210457,1.2918185,11.1658
 502,4.2563277\PG=C01 [X(C18H26O4)]\\@


 THE 2ND LAW OF THERMODYNAMICS HAS THE SAME
 DEGREE OF TRUTH AS THE STATEMENT THAT IF YOU THROW
 A TUMBLERFULL OF WATER INTO THE SEA, YOU CANNOT GET
 THE SAME TUMBLERFULL OF WATER OUT AGAIN.
          - J.C. MAXWELL, LETTER TO LORD RAYLEIGH, DECEMBER 6,1870
 Job cpu time:  0 days  5 hours 36 minutes 51.0 seconds.
 File lengths (MBytes):  RWF=    240 Int=      0 D2E=      0 Chk=     19 Scr=      1
 Normal termination of Gaussian 09 at Fri Dec 23 18:24:21 2022.
