 Entering Gaussian System, Link 0=g09
 Input=/home/lpassaglia.iquir/Link1/03_RSRS_THC_005.gjc
 Output=/home/lpassaglia.iquir/Link1/03_RSRS_THC_005.log
 Initial command:
 /share/apps/Gaussian09/EM64T.SSE4.2-enabled/g09/l1.exe /tmp/Gau-57615.inp -scrdir=/tmp/
 Entering Link 1 = /share/apps/Gaussian09/EM64T.SSE4.2-enabled/g09/l1.exe PID=     57620.
  
 Copyright (c) 1988,1990,1992,1993,1995,1998,2003,2009,2011,
            Gaussian, Inc.  All Rights Reserved.
  
 This is part of the Gaussian(R) 09 program.  It is based on
 the Gaussian(R) 03 system (copyright 2003, Gaussian, Inc.),
 the Gaussian(R) 98 system (copyright 1998, Gaussian, Inc.),
 the Gaussian(R) 94 system (copyright 1995, Gaussian, Inc.),
 the Gaussian 92(TM) system (copyright 1992, Gaussian, Inc.),
 the Gaussian 90(TM) system (copyright 1990, Gaussian, Inc.),
 the Gaussian 88(TM) system (copyright 1988, Gaussian, Inc.),
 the Gaussian 86(TM) system (copyright 1986, Carnegie Mellon
 University), and the Gaussian 82(TM) system (copyright 1983,
 Carnegie Mellon University). Gaussian is a federally registered
 trademark of Gaussian, Inc.
  
 This software contains proprietary and confidential information,
 including trade secrets, belonging to Gaussian, Inc.
  
 This software is provided under written license and may be
 used, copied, transmitted, or stored only in accord with that
 written license.
  
 The following legend is applicable only to US Government
 contracts under FAR:
  
                    RESTRICTED RIGHTS LEGEND
  
 Use, reproduction and disclosure by the US Government is
 subject to restrictions as set forth in subparagraphs (a)
 and (c) of the Commercial Computer Software - Restricted
 Rights clause in FAR 52.227-19.
  
 Gaussian, Inc.
 340 Quinnipiac St., Bldg. 40, Wallingford CT 06492
  
  
 ---------------------------------------------------------------
 Warning -- This program may not be used in any manner that
 competes with the business of Gaussian, Inc. or will provide
 assistance to any competitor of Gaussian, Inc.  The licensee
 of this program is prohibited from giving any competitor of
 Gaussian, Inc. access to this program.  By using this program,
 the user acknowledges that Gaussian, Inc. is engaged in the
 business of creating and licensing software in the field of
 computational chemistry and represents and warrants to the
 licensee that it is not a competitor of Gaussian, Inc. and that
 it will not use this program in any manner prohibited above.
 ---------------------------------------------------------------
  

 Cite this work as:
 Gaussian 09, Revision C.01,
 M. J. Frisch, G. W. Trucks, H. B. Schlegel, G. E. Scuseria, 
 M. A. Robb, J. R. Cheeseman, G. Scalmani, V. Barone, B. Mennucci, 
 G. A. Petersson, H. Nakatsuji, M. Caricato, X. Li, H. P. Hratchian, 
 A. F. Izmaylov, J. Bloino, G. Zheng, J. L. Sonnenberg, M. Hada, 
 M. Ehara, K. Toyota, R. Fukuda, J. Hasegawa, M. Ishida, T. Nakajima, 
 Y. Honda, O. Kitao, H. Nakai, T. Vreven, J. A. Montgomery, Jr., 
 J. E. Peralta, F. Ogliaro, M. Bearpark, J. J. Heyd, E. Brothers, 
 K. N. Kudin, V. N. Staroverov, T. Keith, R. Kobayashi, J. Normand, 
 K. Raghavachari, A. Rendell, J. C. Burant, S. S. Iyengar, J. Tomasi, 
 M. Cossi, N. Rega, J. M. Millam, M. Klene, J. E. Knox, J. B. Cross, 
 V. Bakken, C. Adamo, J. Jaramillo, R. Gomperts, R. E. Stratmann, 
 O. Yazyev, A. J. Austin, R. Cammi, C. Pomelli, J. W. Ochterski, 
 R. L. Martin, K. Morokuma, V. G. Zakrzewski, G. A. Voth, 
 P. Salvador, J. J. Dannenberg, S. Dapprich, A. D. Daniels, 
 O. Farkas, J. B. Foresman, J. V. Ortiz, J. Cioslowski, 
 and D. J. Fox, Gaussian, Inc., Wallingford CT, 2010.
 
 ******************************************
 Gaussian 09:  EM64L-G09RevC.01 23-Sep-2011
                23-Dec-2022 
 ******************************************
 %chk=03_RSRS_THC_005_optB_NMR
 %nprocshared=4
 Will use up to    4 processors via shared memory.
 ------------------------------------------------
 # mPW1PW91/6-31+G** scrf=(PCM,solvent=water) nmr
 ------------------------------------------------
 1/38=1/1;
 2/12=2,17=6,18=5,40=1/2;
 3/5=1,6=6,7=111,11=2,16=1,25=1,30=1,70=2201,72=1,74=-7/1,2,8,3;
 4//1;
 5/5=2,38=5,53=1/2;
 8/6=1,10=90,11=11/1;
 10/13=100,45=16/2;
 6/7=2,8=2,9=2,10=2,28=1/1;
 99/9=1/99;
 -------
 comment
 -------
 Charge =  0 Multiplicity = 1
 Symbolic Z-Matrix:
 6                     1.92382   2.33832  -1.46257 
 6                     1.12799   3.38441  -0.66571 
 1                     1.70968   4.31264  -0.59082 
 1                     0.23245   3.66861  -1.22966 
 6                     0.7412    2.92041   0.73941 
 1                     1.65734   2.85656   1.34152 
 6                     0.03191   1.54592   0.79677 
 1                     0.18328   1.22047   1.83969 
 6                     0.79825   0.49571  -0.07127 
 1                     1.78813   0.44102   0.40183 
 6                     1.17341   0.98076  -1.49004 
 1                     1.79039   0.22661  -1.99464 
 6                     0.2576   -0.93211   0.05675 
 6                    -0.67115  -3.60447   0.46751 
 6                     0.759    -1.75305   1.09099 
 6                    -0.74665  -1.49373  -0.74592 
 6                    -1.20072  -2.80337  -0.54598 
 6                     0.31225  -3.06372   1.29553 
 1                    -1.98605  -3.18766  -1.19394 
 1                     0.72016  -3.66849   2.10027 
 8                    -1.39062  -0.83922  -1.75652 
 1                    -0.9726    0.03705  -1.89479 
 8                     1.71426  -1.25003   1.93919 
 1                     1.92518  -1.9246    2.60538 
 8                     0.01647   1.15551  -2.32275 
 1                     0.34968   1.68869  -3.07929 
 6                     3.36203   2.20037  -0.95309 
 1                     3.89725   3.15275  -1.04416 
 1                     3.91778   1.47855  -1.56248 
 1                     3.41837   1.88281   0.09107 
 8                     1.99722   2.79598  -2.83021 
 1                     2.45927   3.65381  -2.82924 
 1                     0.12932   3.69059   1.22494 
 6                    -1.49132   1.62409   0.64301 
 6                    -2.28589   0.88123   1.43721 
 1                    -3.3683    0.91964   1.36225 
 1                    -1.87604   0.19072   2.1686 
 6                    -2.12217   2.56854  -0.34218 
 1                    -1.87139   3.60586  -0.10226 
 1                    -3.21611   2.49931  -0.32947 
 1                    -1.8102    2.35538  -1.36411 
 6                    -1.18272  -5.00406   0.68348 
 1                    -1.47871  -5.44173  -0.27773 
 1                    -0.3738   -5.63717   1.06805 
 6                    -2.36014  -5.03378   1.64603 
 1                    -2.71024  -6.06163   1.78399 
 1                    -3.19774  -4.43785   1.26785 
 1                    -2.08114  -4.63568   2.62755 
 
                          Input orientation:                          
 ---------------------------------------------------------------------
 Center     Atomic      Atomic             Coordinates (Angstroms)
 Number     Number       Type             X           Y           Z
 ---------------------------------------------------------------------
      1          6           0        1.923819    2.338318   -1.462569
      2          6           0        1.127990    3.384413   -0.665714
      3          1           0        1.709676    4.312645   -0.590822
      4          1           0        0.232452    3.668612   -1.229664
      5          6           0        0.741201    2.920408    0.739406
      6          1           0        1.657338    2.856558    1.341518
      7          6           0        0.031906    1.545924    0.796774
      8          1           0        0.183279    1.220474    1.839693
      9          6           0        0.798250    0.495707   -0.071269
     10          1           0        1.788126    0.441022    0.401830
     11          6           0        1.173412    0.980756   -1.490045
     12          1           0        1.790394    0.226612   -1.994642
     13          6           0        0.257604   -0.932115    0.056750
     14          6           0       -0.671153   -3.604468    0.467506
     15          6           0        0.758997   -1.753049    1.090987
     16          6           0       -0.746645   -1.493728   -0.745922
     17          6           0       -1.200715   -2.803371   -0.545982
     18          6           0        0.312253   -3.063719    1.295534
     19          1           0       -1.986048   -3.187657   -1.193944
     20          1           0        0.720155   -3.668489    2.100275
     21          8           0       -1.390625   -0.839220   -1.756523
     22          1           0       -0.972599    0.037051   -1.894789
     23          8           0        1.714260   -1.250032    1.939186
     24          1           0        1.925180   -1.924598    2.605383
     25          8           0        0.016472    1.155513   -2.322752
     26          1           0        0.349680    1.688692   -3.079292
     27          6           0        3.362029    2.200366   -0.953091
     28          1           0        3.897245    3.152753   -1.044155
     29          1           0        3.917784    1.478545   -1.562480
     30          1           0        3.418374    1.882814    0.091069
     31          8           0        1.997221    2.795979   -2.830213
     32          1           0        2.459266    3.653808   -2.829236
     33          1           0        0.129325    3.690592    1.224944
     34          6           0       -1.491316    1.624088    0.643007
     35          6           0       -2.285888    0.881234    1.437205
     36          1           0       -3.368299    0.919642    1.362250
     37          1           0       -1.876040    0.190719    2.168595
     38          6           0       -2.122169    2.568543   -0.342179
     39          1           0       -1.871392    3.605865   -0.102264
     40          1           0       -3.216106    2.499310   -0.329471
     41          1           0       -1.810199    2.355382   -1.364108
     42          6           0       -1.182722   -5.004065    0.683482
     43          1           0       -1.478712   -5.441726   -0.277732
     44          1           0       -0.373799   -5.637165    1.068051
     45          6           0       -2.360145   -5.033775    1.646029
     46          1           0       -2.710241   -6.061635    1.783988
     47          1           0       -3.197739   -4.437853    1.267847
     48          1           0       -2.081135   -4.635681    2.627547
 ---------------------------------------------------------------------
                    Distance matrix (angstroms):
                    1          2          3          4          5
     1  C    0.000000
     2  C    1.537086   0.000000
     3  H    2.168816   1.097990   0.000000
     4  H    2.164404   1.095808   1.733519   0.000000
     5  C    2.566341   1.529467   2.155406   2.166995   0.000000
     6  H    2.863998   2.141920   2.420096   3.049706   1.098145
     7  C    3.051533   2.592357   3.520664   2.941508   1.547771
     8  H    3.896664   3.442699   4.218864   3.926417   2.100401
     9  C    2.568626   2.967611   3.958491   3.424811   2.557269
    10  H    2.663481   3.199841   3.997622   3.936906   2.712447
    11  C    1.551400   2.541486   3.492515   2.859680   2.986554
    12  H    2.181791   3.489489   4.321214   3.854833   3.978990
    13  C    3.972447   4.462279   5.480453   4.777256   3.942311
    14  C    6.765780   7.305174   8.334812   7.522937   6.681518
    15  C    4.961526   5.442028   6.365918   5.920901   4.686696
    16  C    4.725415   5.226562   6.306468   5.276589   4.889221
    17  C    6.086035   6.612554   7.688307   6.663929   6.179394
    18  C    6.275849   6.788986   7.740922   7.190777   6.025201
    19  H    6.774631   7.291664   8.383118   7.206347   6.963059
    20  H    7.086917   7.586860   8.480546   8.072137   6.727999
    21  O    4.600946   5.037098   6.124740   4.820011   4.990906
    22  H    3.724498   4.138590   5.213025   3.883655   4.264955
    23  O    4.948950   5.348579   6.111001   6.035761   4.447346
    24  H    5.892426   6.286588   7.011802   6.989771   5.325200
    25  O    2.403522   2.991528   3.979196   2.749028   3.607894
    26  H    2.348132   3.050671   3.863574   2.712001   4.031484
    27  C    1.532007   2.544697   2.706147   3.467923   3.201835
    28  H    2.175496   2.804578   2.517205   3.705568   3.632587
    29  H    2.173727   3.495636   3.721825   4.299864   4.179513
    30  H    2.203399   2.841370   3.047738   3.883749   2.943501
    31  O    1.444054   2.405591   2.719895   2.537253   3.786191
    32  H    1.971039   2.554544   2.450806   2.741815   4.028005
    33  H    3.503081   2.160016   2.486255   2.456872   1.096961
    34  C    4.075135   3.416469   4.358558   3.264713   2.583384
    35  C    5.315394   4.726810   5.643758   4.606919   3.715968
    36  H    6.164314   5.514014   6.411926   5.219221   4.612916
    37  H    5.677717   5.220842   6.120622   5.299966   4.042739
    38  C    4.204557   3.366579   4.217434   2.746275   3.080994
    39  H    4.226196   3.059871   3.682700   2.387704   2.829117
    40  H    5.265801   4.446081   5.255456   3.751022   4.120692
    41  H    3.735355   3.190550   4.101021   2.432092   3.354648
    42  C    8.256314   8.804901   9.838236   8.993229   8.154868
    43  H    8.573806   9.211197  10.267015   9.318396   8.711364
    44  H    8.677063   9.308608  10.300070   9.604401   8.636162
    45  C    9.075433   9.400911  10.436595   9.524847   8.585414
    46  H   10.127875  10.486223  11.523934  10.602794   9.678879
    47  H    8.921997   9.145405  10.203362   9.149784   8.362924
    48  H    9.022493   9.244780  10.237220   9.444154   8.284029
                    6          7          8          9         10
     6  H    0.000000
     7  C    2.157901   0.000000
     8  H    2.257831   1.102956   0.000000
     9  C    2.882294   1.563247   2.134304   0.000000
    10  H    2.595175   2.112132   2.291404   1.098484   0.000000
    11  C    3.430825   2.617631   3.482095   1.545621   2.061159
    12  H    4.250209   3.553149   4.274659   2.180854   2.406045
    13  C    4.238387   2.596007   2.796077   1.532110   2.084966
    14  C    6.923195   5.208575   5.088518   4.388719   4.734803
    15  C    4.703005   3.390936   3.119912   2.531656   2.519521
    16  C    5.390875   3.496504   3.862261   2.607625   3.389050
    17  C    6.615582   4.715795   4.878341   3.886532   4.511940
    18  C    6.071330   4.645015   4.320538   3.843677   3.906420
    19  H    7.499024   5.517417   5.774128   4.751830   5.473408
    20  H    6.635530   5.418755   4.925251   4.697045   4.573112
    21  O    5.704972   3.772510   4.433089   3.068107   4.049934
    22  H    5.033872   3.245033   4.084471   2.582924   3.613759
    23  O    4.150244   3.457281   2.908126   2.815778   2.286609
    24  H    4.952630   4.347422   3.675864   3.780517   3.235828
    25  O    4.360375   3.143899   4.166293   2.472993   3.327552
    26  H    4.755780   3.891690   4.944020   3.266899   3.967873
    27  C    2.932880   3.818382   4.343303   3.202567   2.721814
    28  H    3.285780   4.572939   5.083683   4.196448   3.727297
    29  H    3.929598   4.546501   5.058450   3.594603   3.077403
    30  H    2.369187   3.475584   3.736606   2.969086   2.198419
    31  O    4.185991   4.310468   5.251726   3.786892   4.004453
    32  H    4.321329   4.845947   5.735864   4.509874   4.605672
    33  H    1.744714   2.189160   2.546039   3.512111   3.740167
    34  C    3.452669   1.532958   2.097434   2.650575   3.494646
    35  C    4.411359   2.494821   2.524651   3.454857   4.226509
    36  H    5.386010   3.503340   3.596131   4.426605   5.266897
    37  H    4.502834   2.712699   2.325805   3.501691   4.075565
    38  C    4.147585   2.642537   3.448615   3.591503   4.513348
    39  H    3.885602   2.945194   3.699048   4.098907   4.864403
    40  H    5.164328   3.567486   4.230427   4.494013   5.460191
    41  H    4.426669   2.952623   3.940344   3.454537   4.441987
    42  C    8.383814   6.662620   6.476701   5.894182   6.209205
    43  H    9.017665   7.229370   7.185444   6.362412   6.763191
    44  H    8.737484   7.199650   6.923365   6.346957   6.485532
    45  C    8.859472   7.052346   6.754416   6.595433   6.980658
    46  H    9.940105   8.146712   7.836113   7.664869   8.026843
    47  H    8.762741   6.816019   6.616264   6.488542   7.029385
    48  H    8.471345   6.784461   6.327941   6.473454   6.760023
                   11         12         13         14         15
    11  C    0.000000
    12  H    1.097278   0.000000
    13  C    2.624948   2.810747   0.000000
    14  C    5.315892   5.176732   2.858808   0.000000
    15  C    3.782480   3.808403   1.412436   2.421118   0.000000
    16  C    3.219225   3.309900   1.402928   2.435843   2.389234
    17  C    4.565890   4.497348   2.447771   1.396192   2.761036
    18  C    4.985862   4.882257   2.466031   1.394678   1.399742
    19  H    5.238848   5.153626   3.418433   2.159421   3.848933
    20  H    5.891631   5.752005   3.446403   2.146106   2.165429
    21  O    3.155568   3.363269   2.452192   3.620848   3.682970
    22  H    2.379024   2.771287   2.502236   4.351088   3.888154
    23  O    4.126567   4.202532   2.401351   3.660520   1.372951
    24  H    5.077279   5.079970   3.203336   3.759445   1.919064
    25  O    1.436123   2.029116   3.174644   5.560197   4.545843
    26  H    1.924945   2.321595   4.088015   6.452861   5.422577
    27  C    2.562384   2.729573   4.524342   7.209768   5.155920
    28  H    3.512216   3.728881   5.580782   8.295507   6.202768
    29  H    2.790094   2.505971   4.672270   7.142564   5.240422
    30  H    2.890240   3.121460   4.232667   6.853919   4.614284
    31  O    2.402029   2.709724   5.025883   7.678600   6.132100
    32  H    3.254545   3.590211   5.848668   8.564497   6.891528
    33  H    3.975487   5.012389   4.769754   7.377831   5.481574
    34  C    3.473408   4.436186   3.152235   5.295400   4.082848
    35  C    4.532709   5.368629   3.415149   4.865101   4.041119
    36  H    5.363437   6.193636   4.275571   5.342540   4.924575
    37  H    4.827936   5.547664   3.205165   4.330001   3.447158
    38  C    3.833995   4.850096   4.251714   6.392739   5.388065
    39  H    4.252995   5.330021   5.015094   7.331720   6.087754
    40  H    4.787568   5.744823   4.898010   6.660936   5.991803
    41  H    3.287459   4.230071   4.135490   6.338142   5.432077
    42  C    6.789232   6.585722   4.364414   1.505728   3.808601
    43  H    7.053491   6.764974   4.843889   2.140805   4.526265
    44  H    7.261860   6.960438   4.853751   2.140311   4.046000
    45  C    7.648239   7.625819   5.118792   2.506896   4.560733
    46  H    8.683163   8.606730   6.172798   3.453791   5.574924
    47  H    7.488274   7.568522   5.069157   2.778256   4.784894
    48  H    7.687067   7.745660   5.078888   2.777989   4.328619
                   16         17         18         19         20
    16  C    0.000000
    17  C    1.400471   0.000000
    18  C    2.784543   2.397506   0.000000
    19  H    2.146215   1.088246   3.390435   0.000000
    20  H    3.870649   3.382432   1.086158   4.290293   0.000000
    21  O    1.365432   2.315030   4.142854   2.487203   5.228292
    22  H    1.927235   3.152668   4.630743   3.452102   5.705872
    23  O    3.650376   4.133522   2.381045   5.221416   2.619758
    24  H    4.307614   4.524883   2.369564   5.597134   2.179077
    25  O    3.176038   4.506797   5.566093   4.914002   6.582502
    26  H    4.095649   5.385166   6.459560   5.726163   7.460868
    27  C    5.529055   6.783933   6.485988   7.595441   7.123622
    28  H    6.576052   7.855749   7.547903   8.650803   8.155409
    29  H    5.590893   6.750342   6.465312   7.534222   7.080435
    30  H    5.426691   6.610760   5.963800   7.521218   6.491091
    31  O    5.502241   6.840850   7.361859   7.372090   8.229821
    32  H    6.412113   7.765557   8.169979   8.321096   8.996700
    33  H    5.615053   6.861250   6.757157   7.591847   7.434471
    34  C    3.493484   4.593532   5.064996   5.174170   5.918243
    35  C    3.574319   4.322841   4.725787   4.854764   5.493263
    36  H    4.140267   4.711751   5.423844   5.031367   6.189595
    37  H    3.550677   4.097508   4.017740   4.767830   4.651708
    38  C    4.307798   5.454180   6.350661   5.820470   7.276329
    39  H    5.261673   6.459489   7.155801   6.881631   8.030163
    40  H    4.713387   5.676892   6.785075   5.882342   7.709706
    41  H    4.040909   5.258662   6.398839   5.548437   7.395381
    42  C    3.815209   2.520904   2.524777   2.733021   2.722499
    43  H    4.042500   2.666488   3.367141   2.485490   3.692465
    44  H    4.538456   3.364414   2.673021   3.703520   2.477480
    45  C    4.566918   3.335250   3.338514   3.407865   3.399793
    46  H    5.578703   4.280621   4.285038   4.201462   4.194616
    47  H    4.327932   3.154300   3.769489   3.015228   4.078572
    48  H    4.799273   3.768791   3.158105   4.087739   3.010100
                   21         22         23         24         25
    21  O    0.000000
    22  H    0.980670   0.000000
    23  O    4.844310   4.855426   0.000000
    24  H    5.585591   5.700591   0.971259   0.000000
    25  O    2.505892   1.553181   5.180081   6.116924   0.000000
    26  H    3.341963   2.424744   5.973550   6.917629   0.983697
    27  C    5.698447   4.935152   4.794335   5.634056   3.763036
    28  H    6.663700   5.843506   5.748936   6.556498   4.547986
    29  H    5.795593   5.109225   4.956038   5.737851   3.987806
    30  H    5.826623   5.160534   4.016748   4.800811   4.234198
    31  O    5.083796   4.160112   6.260785   7.199634   2.621452
    32  H    6.013292   5.072654   6.880445   7.806340   3.530616
    33  H    5.631926   4.929030   5.237549   6.054838   4.361824
    34  C    3.440315   3.037789   4.496261   5.302503   3.359868
    35  C    3.736490   3.679615   4.560204   5.193306   4.417394
    36  H    4.090420   4.138436   5.556325   6.136449   5.009147
    37  H    4.086925   4.165443   3.875390   4.372028   4.968363
    38  C    3.761433   3.184426   5.874038   6.727367   3.239308
    39  H    4.767231   4.093582   6.372138   7.234040   3.807732
    40  H    4.063821   3.680525   6.596429   7.390342   4.028464
    41  H    3.245845   2.521479   6.027650   6.930233   2.386506
    42  C    4.831437   5.666082   4.905309   4.778689   6.958154
    43  H    4.835043   5.734808   5.716651   5.680583   7.066911
    44  H    5.659720   6.429130   4.936173   4.629454   7.601995
    45  C    5.487405   6.338450   5.568072   5.380646   7.727018
    46  H    6.445946   7.331219   6.538487   6.267128   8.739994
    47  H    5.036133   5.914244   5.894119   5.860866   7.383041
    48  H    5.840375   6.596575   5.132396   4.837461   7.902110
                   26         27         28         29         30
    26  H    0.000000
    27  C    3.722471   0.000000
    28  H    4.344017   1.096263   0.000000
    29  H    3.882815   1.096013   1.752728   0.000000
    30  H    4.416532   1.092832   1.769406   1.773997   0.000000
    31  O    2.000629   2.396047   2.631992   2.651668   3.374527
    32  H    2.893884   2.539173   2.346349   2.909246   3.547462
    33  H    4.752116   4.173127   4.431174   5.197625   3.920661
    34  C    4.153185   5.141457   5.849781   5.843263   4.947387
    35  C    5.291215   6.273164   7.039040   6.916678   5.945911
    36  H    5.843124   7.231762   7.972811   7.871050   6.971552
    37  H    5.893901   6.420356   7.240597   7.010551   5.933812
    38  C    3.791565   5.530389   6.088302   6.257657   5.599603
    39  H    4.179881   5.485256   5.862564   6.338161   5.566679
    40  H    4.575308   6.614388   7.178964   7.311270   6.676320
    41  H    2.837500   5.190848   5.771749   5.798102   5.447829
    42  C    7.829413   8.673923   9.763426   8.548903   8.303622
    43  H    7.876205   9.071408  10.166287   8.869211   8.818523
    44  H    8.449382   8.914500   9.998295   8.716118   8.478512
    45  C    8.652362   9.582875  10.649473   9.597772   9.145949
    46  H    9.647910  10.612479  11.685984  10.582244  10.175469
    47  H    8.307608   9.593178  10.644316   9.677044   9.225432
    48  H    8.858587   9.443545  10.482468   9.535571   8.897702
                   31         32         33         34         35
    31  O    0.000000
    32  H    0.974350   0.000000
    33  H    4.553423   4.676148   0.000000
    34  C    5.060284   5.637671   2.689902   0.000000
    35  C    6.342091   6.957455   3.710903   1.346821   0.000000
    36  H    7.063016   7.681454   4.464347   2.129934   1.085683
    37  H    6.839416   7.467676   4.142593   2.128374   1.086148
    38  C    4.817823   5.324735   2.963797   1.503517   2.457646
    39  H    4.802477   5.117937   2.402401   2.151122   3.156799
    40  H    5.789689   6.308054   3.876502   2.164862   2.569945
    41  H    4.103661   4.696897   3.499676   2.159858   3.201054
    42  C    9.126816  10.028062   8.809751   6.635455   6.035049
    43  H    9.298228  10.234578   9.393777   7.125562   6.600937
    44  H    9.588333  10.466007   9.342634   7.359028   6.803080
    45  C   10.016408  10.896275   9.082365   6.788818   5.919160
    46  H   11.041212  11.932957  10.172590   7.864982   6.964464
    47  H    9.803572  10.689377   8.783099   6.328462   5.399338
    48  H   10.082147  10.913631   8.728130   6.593253   5.647583
                   36         37         38         39         40
    36  H    0.000000
    37  H    1.846174   0.000000
    38  C    2.678953   3.466787   0.000000
    39  H    3.406071   4.101224   1.093839   0.000000
    40  H    2.319576   3.655913   1.096199   1.756229   0.000000
    41  H    3.452832   4.143681   1.089542   1.777555   1.751503
    42  C    6.350416   5.447204   7.699281   8.673093   7.839729
    43  H    6.835721   6.153603   8.036330   9.057808   8.129038
    44  H    7.214243   6.118183   8.507596   9.436420   8.731209
    45  C    6.044840   5.272834   7.861606   8.828294   7.834707
    46  H    7.024894   6.319473   8.907659   9.885452   8.832462
    47  H    5.361041   4.897134   7.269018   8.266668   7.118708
    48  H    5.841180   4.852508   7.792419   8.684407   7.806421
                   41         42         43         44         45
    41  H    0.000000
    42  C    7.664711   0.000000
    43  H    7.879402   1.096855   0.000000
    44  H    8.476995   1.096843   1.752188   0.000000
    45  C    7.997687   1.521086   2.155041   2.154926   0.000000
    46  H    9.031431   2.159371   2.480250   2.480262   1.094575
    47  H    7.416232   2.173101   2.520243   3.074557   1.095312
    48  H    8.054916   2.173072   3.074617   2.519919   1.095310
                   46         47         48
    46  H    0.000000
    47  H    1.772208   0.000000
    48  H    1.772205   1.770515   0.000000
 Stoichiometry    C18H26O4
 Framework group  C1[X(C18H26O4)]
 Deg. of freedom   138
 Full point group                 C1      NOp   1
 Largest Abelian subgroup         C1      NOp   1
 Largest concise Abelian subgroup C1      NOp   1
                         Standard orientation:                         
 ---------------------------------------------------------------------
 Center     Atomic      Atomic             Coordinates (Angstroms)
 Number     Number       Type             X           Y           Z
 ---------------------------------------------------------------------
      1          6           0       -3.162627   -0.944163    0.396749
      2          6           0       -3.611233    0.221150   -0.499595
      3          1           0       -4.618572    0.021643   -0.888244
      4          1           0       -3.727767    1.125195    0.108615
      5          6           0       -2.666340    0.492039   -1.671373
      6          1           0       -2.743931   -0.348954   -2.373252
      7          6           0       -1.177731    0.655619   -1.280373
      8          1           0       -0.639802    0.455815   -2.222298
      9          6           0       -0.735773   -0.487812   -0.310332
     10          1           0       -0.882824   -1.401371   -0.902323
     11          6           0       -1.699578   -0.741018    0.871155
     12          1           0       -1.370787   -1.617371    1.443799
     13          6           0        0.764530   -0.496433    0.000116
     14          6           0        3.593351   -0.580166    0.404521
     15          6           0        1.628553   -1.202223   -0.866081
     16          6           0        1.376874    0.187914    1.060735
     17          6           0        2.762449    0.145791    1.260056
     18          6           0        3.013913   -1.251270   -0.672047
     19          1           0        3.186207    0.699750    2.095422
     20          1           0        3.649717   -1.804618   -1.357100
     21          8           0        0.716759    0.967189    1.967036
     22          1           0       -0.249717    0.888906    1.820370
     23          8           0        1.098152   -1.859716   -1.948380
     24          1           0        1.823145   -2.263096   -2.453371
     25          8           0       -1.706724    0.351112    1.803706
     26          1           0       -2.511893    0.191988    2.345962
     27          6           0       -3.374166   -2.302837   -0.278752
     28          1           0       -4.434793   -2.459773   -0.507299
     29          1           0       -3.083727   -3.116457    0.395720
     30          1           0       -2.811264   -2.411331   -1.209156
     31          8           0       -3.986570   -0.923792    1.582495
     32          1           0       -4.911655   -1.041808    1.300277
     33          1           0       -3.016660    1.368388   -2.230488
     34          6           0       -0.783141    2.091820   -0.917625
     35          6           0        0.375206    2.605965   -1.373490
     36          1           0        0.680743    3.622262   -1.144366
     37          1           0        1.066627    2.015498   -1.967630
     38          6           0       -1.701068    2.965656   -0.108685
     39          1           0       -2.649185    3.122873   -0.631028
     40          1           0       -1.270051    3.958544    0.064663
     41          1           0       -1.903543    2.540107    0.873666
     42          6           0        5.083530   -0.600584    0.619382
     43          1           0        5.303039   -0.538860    1.692274
     44          1           0        5.491719   -1.561002    0.281676
     45          6           0        5.776385    0.538205   -0.113294
     46          1           0        6.856364    0.498233    0.060324
     47          1           0        5.413001    1.512143    0.231822
     48          1           0        5.603874    0.479052   -1.193314
 ---------------------------------------------------------------------
 Rotational constants (GHZ):      0.5101921      0.1796454      0.1711504
 Standard basis: 6-31+G(d,p) (6D, 7F)
 There are   548 symmetry adapted basis functions of A   symmetry.
 Integral buffers will be    131072 words long.
 Raffenetti 2 integral format.
 Two-electron integral symmetry is turned on.
   548 basis functions,   886 primitive gaussians,   548 cartesian basis functions
    83 alpha electrons       83 beta electrons
       nuclear repulsion energy      1990.1866974516 Hartrees.
 NAtoms=   48 NActive=   48 NUniq=   48 SFac= 1.00D+00 NAtFMM=   60 NAOKFM=F Big=F
 ------------------------------------------------------------------------------
 Polarizable Continuum Model (PCM)
 =================================
 Model                : PCM.
 Atomic radii         : UFF (Universal Force Field).
 Polarization charges : Total charges.
 Charge compensation  : None.
 Solution method      : Matrix inversion.
 Cavity type          : Scaled VdW (van der Waals Surface) (Alpha=1.100).
 Cavity algorithm     : GePol (No added spheres)
                        Default sphere list used, NSphG=   48.
                        Lebedev-Laikov grids with approx.  5.0 points / Ang**2.
                        Smoothing algorithm: Karplus/York (Gamma=1.0000).
                        Polarization charges: spherical gaussians, with
                                              point-specific exponents (IZeta= 3).
                        Self-potential: point-specific (ISelfS= 7).
                        Self-field    : sphere-specific E.n sum rule (ISelfD= 2).
 Solvent              : Water, Eps=  78.355300 Eps(inf)=   1.777849
 ------------------------------------------------------------------------------
 One-electron integrals computed using PRISM.
 NBasis=   548 RedAO= T  NBF=   548
 NBsUse=   546 1.00D-06 NBFU=   546
 Harris functional with IExCor=  908 diagonalized for initial guess.
 ExpMin= 4.38D-02 ExpMax= 5.48D+03 ExpMxC= 8.25D+02 IAcc=2 IRadAn=         4 AccDes= 0.00D+00
 HarFok:  IExCor=  908 AccDes= 0.00D+00 IRadAn=         4 IDoV= 1
 ScaDFX=  1.000000  1.000000  1.000000  1.000000
 FoFCou: FMM=F IPFlag=           0 FMFlag=      100000 FMFlg1=           0
         NFxFlg=           0 DoJE=T BraDBF=F KetDBF=T FulRan=T
         Omega=  0.000000  0.000000  1.000000  0.000000  0.000000 ICntrl=     500 IOpCl=  0
         NMat0=    1 NMatS0=    1 NMatT0=    0 NMatD0=    1 NMtDS0=    0 NMtDT0=    0
         I1Cent=           4 NGrid=           0.
 Petite list used in FoFCou.
 Initial guess orbital symmetries:
       Occupied  (A) (A) (A) (A) (A) (A) (A) (A) (A) (A) (A) (A)
                 (A) (A) (A) (A) (A) (A) (A) (A) (A) (A) (A) (A)
                 (A) (A) (A) (A) (A) (A) (A) (A) (A) (A) (A) (A)
                 (A) (A) (A) (A) (A) (A) (A) (A) (A) (A) (A) (A)
                 (A) (A) (A) (A) (A) (A) (A) (A) (A) (A) (A) (A)
                 (A) (A) (A) (A) (A) (A) (A) (A) (A) (A) (A) (A)
                 (A) (A) (A) (A) (A) (A) (A) (A) (A) (A) (A)
       Virtual   (A) (A) (A) (A) (A) (A) (A) (A) (A) (A) (A) (A)
                 (A) (A) (A) (A) (A) (A) (A) (A) (A) (A) (A) (A)
                 (A) (A) (A) (A) (A) (A) (A) (A) (A) (A) (A) (A)
                 (A) (A) (A) (A) (A) (A) (A) (A) (A) (A) (A) (A)
                 (A) (A) (A) (A) (A) (A) (A) (A) (A) (A) (A) (A)
                 (A) (A) (A) (A) (A) (A) (A) (A) (A) (A) (A) (A)
                 (A) (A) (A) (A) (A) (A) (A) (A) (A) (A) (A) (A)
                 (A) (A) (A) (A) (A) (A) (A) (A) (A) (A) (A) (A)
                 (A) (A) (A) (A) (A) (A) (A) (A) (A) (A) (A) (A)
                 (A) (A) (A) (A) (A) (A) (A) (A) (A) (A) (A) (A)
                 (A) (A) (A) (A) (A) (A) (A) (A) (A) (A) (A) (A)
                 (A) (A) (A) (A) (A) (A) (A) (A) (A) (A) (A) (A)
                 (A) (A) (A) (A) (A) (A) (A) (A) (A) (A) (A) (A)
                 (A) (A) (A) (A) (A) (A) (A) (A) (A) (A) (A) (A)
                 (A) (A) (A) (A) (A) (A) (A) (A) (A) (A) (A) (A)
                 (A) (A) (A) (A) (A) (A) (A) (A) (A) (A) (A) (A)
                 (A) (A) (A) (A) (A) (A) (A) (A) (A) (A) (A) (A)
                 (A) (A) (A) (A) (A) (A) (A) (A) (A) (A) (A) (A)
                 (A) (A) (A) (A) (A) (A) (A) (A) (A) (A) (A) (A)
                 (A) (A) (A) (A) (A) (A) (A) (A) (A) (A) (A) (A)
                 (A) (A) (A) (A) (A) (A) (A) (A) (A) (A) (A) (A)
                 (A) (A) (A) (A) (A) (A) (A) (A) (A) (A) (A) (A)
                 (A) (A) (A) (A) (A) (A) (A) (A) (A) (A) (A) (A)
                 (A) (A) (A) (A) (A) (A) (A) (A) (A) (A) (A) (A)
                 (A) (A) (A) (A) (A) (A) (A) (A) (A) (A) (A) (A)
                 (A) (A) (A) (A) (A) (A) (A) (A) (A) (A) (A) (A)
                 (A) (A) (A) (A) (A) (A) (A) (A) (A) (A) (A) (A)
                 (A) (A) (A) (A) (A) (A) (A) (A) (A) (A) (A) (A)
                 (A) (A) (A) (A) (A) (A) (A) (A) (A) (A) (A) (A)
                 (A) (A) (A) (A) (A) (A) (A) (A) (A) (A) (A) (A)
                 (A) (A) (A) (A) (A) (A) (A) (A) (A) (A) (A) (A)
                 (A) (A) (A) (A) (A) (A) (A) (A) (A) (A) (A) (A)
                 (A) (A) (A) (A) (A) (A) (A) (A) (A) (A) (A) (A)
                 (A) (A) (A) (A) (A) (A) (A) (A) (A) (A) (A) (A)
                 (A) (A) (A) (A) (A) (A) (A) (A) (A) (A) (A) (A)
                 (A) (A) (A) (A) (A) (A) (A) (A) (A) (A) (A) (A)
                 (A) (A) (A) (A) (A) (A) (A) (A) (A) (A) (A) (A)
                 (A) (A) (A) (A) (A) (A) (A) (A) (A) (A) (A) (A)
                 (A) (A) (A) (A) (A) (A) (A)
 The electronic state of the initial guess is 1-A.
 Requested convergence on RMS density matrix=1.00D-08 within 128 cycles.
 Requested convergence on MAX density matrix=1.00D-06.
 Requested convergence on             energy=1.00D-06.
 No special actions if energy rises.
 CoulSu:  requested number of processors reduced to:   3 ShMem   1 Linda.
 CoulSu:  requested number of processors reduced to:   3 ShMem   1 Linda.
 Error on total polarization charges =  0.01940
 SCF Done:  E(RmPW1PW91) =  -1002.30613847     A.U. after   14 cycles
             Convg  =    0.5874D-08             -V/T =  2.0093
 Range of M.O.s used for correlation:     1   546
 NBasis=   548 NAE=    83 NBE=    83 NFC=     0 NFV=     0
 NROrb=    546 NOA=    83 NOB=    83 NVA=   463 NVB=   463

 **** Warning!!: The largest alpha MO coefficient is  0.14118589D+03

 NEqPCM:  Using equilibrium solvation (IEInf=0, Eps=  78.3553, EpsInf=   1.7778)
          Differentiating once with respect to magnetic field using GIAOs.
          Electric field/nuclear overlap derivatives assumed to be zero.
 FoFCou: FMM=F IPFlag=           0 FMFlag=    10101102 FMFlg1=           0
         NFxFlg=    40000000 DoJE=F BraDBF=F KetDBF=T FulRan=T
         Omega=  0.000000  0.000000  1.000000  0.000000  0.000000 ICntrl=    6100 IOpCl=  0
         NMat0=    1 NMatS0=    1 NMatT0=    0 NMatD0=    1 NMtDS0=    0 NMtDT0=    0
         I1Cent=           7 NGrid=        2959.
 Symmetry not used in FoFCou.
          There are     3 degrees of freedom in the 1st order CPHF.  IDoFFX=0.
      3 vectors produced by pass  0 Test12= 1.28D-12 3.33D-08 XBig12= 6.79D+02 3.67D+00.
 AX will form     3 AO Fock derivatives at one time.
      3 vectors produced by pass  1 Test12= 1.28D-12 3.33D-08 XBig12= 1.58D+00 2.90D-01.
      3 vectors produced by pass  2 Test12= 1.28D-12 3.33D-08 XBig12= 6.00D-03 3.04D-02.
      3 vectors produced by pass  3 Test12= 1.28D-12 3.33D-08 XBig12= 2.91D-05 1.75D-03.
      3 vectors produced by pass  4 Test12= 1.28D-12 3.33D-08 XBig12= 9.31D-08 6.12D-05.
      3 vectors produced by pass  5 Test12= 1.28D-12 3.33D-08 XBig12= 3.18D-10 2.78D-06.
      3 vectors produced by pass  6 Test12= 1.28D-12 3.33D-08 XBig12= 1.13D-12 1.34D-07.
 Inverted reduced A of dimension    21 with in-core refinement.
 Calculating GIAO nuclear magnetic shielding tensors.
 SCF GIAO Magnetic shielding tensor (ppm):
      1  C    Isotropic =   120.4511   Anisotropy =    46.9227
   XX=   118.6910   YX=     4.8272   ZX=   -19.6350
   XY=     1.2538   YY=   107.5692   ZY=     5.7191
   XZ=   -27.2159   YZ=    -3.7832   ZZ=   135.0930
   Eigenvalues:   100.7197   108.9006   151.7329
      2  C    Isotropic =   161.5877   Anisotropy =    27.1046
   XX=   155.9437   YX=    -4.5632   ZX=    -0.8770
   XY=     1.8927   YY=   166.5751   ZY=   -13.5391
   XZ=    -6.0009   YZ=   -16.5135   ZZ=   162.2444
   Eigenvalues:   147.7473   157.3584   179.6575
      3  H    Isotropic =    30.2164   Anisotropy =     8.6946
   XX=    35.5805   YX=     0.6685   ZX=     1.8401
   XY=     0.3910   YY=    27.1214   ZY=    -1.0920
   XZ=     1.8708   YZ=    -1.6390   ZZ=    27.9471
   Eigenvalues:    25.8551    28.7813    36.0128
      4  H    Isotropic =    29.1227   Anisotropy =     5.5508
   XX=    28.5810   YX=    -0.9633   ZX=    -1.6182
   XY=    -0.9547   YY=    32.2798   ZY=     1.2156
   XZ=    -1.0008   YZ=     0.9714   ZZ=    26.5073
   Eigenvalues:    25.8197    28.7252    32.8232
      5  C    Isotropic =   166.3626   Anisotropy =    18.8580
   XX=   178.2924   YX=     3.0381   ZX=     2.3561
   XY=     2.4350   YY=   157.3369   ZY=    -3.2736
   XZ=     2.3830   YZ=    -0.5633   ZZ=   163.4585
   Eigenvalues:   156.2883   163.8649   178.9346
      6  H    Isotropic =    29.5851   Anisotropy =     8.5866
   XX=    28.3548   YX=     2.0345   ZX=     0.9536
   XY=     1.7648   YY=    27.3562   ZY=     3.0454
   XZ=     1.1498   YZ=     4.2942   ZZ=    33.0442
   Eigenvalues:    25.0409    28.4049    35.3095
      7  C    Isotropic =   152.5931   Anisotropy =    18.6294
   XX=   149.9835   YX=     4.0272   ZX=     9.0344
   XY=     3.7296   YY=   161.3747   ZY=     4.4507
   XZ=     0.6387   YZ=     6.4580   ZZ=   146.4211
   Eigenvalues:   142.7076   150.0589   165.0127
      8  H    Isotropic =    28.5764   Anisotropy =     6.1956
   XX=    28.5950   YX=     0.7415   ZX=    -2.2233
   XY=    -1.9333   YY=    25.7525   ZY=    -0.1721
   XZ=    -2.3838   YZ=     0.4782   ZZ=    31.3818
   Eigenvalues:    25.6099    27.4125    32.7069
      9  C    Isotropic =   154.7388   Anisotropy =    23.6428
   XX=   155.7035   YX=    -1.6908   ZX=    -1.5190
   XY=     1.4790   YY=   153.0734   ZY=   -18.5466
   XZ=     2.6720   YZ=   -13.8223   ZZ=   155.4395
   Eigenvalues:   138.0232   155.6926   170.5007
     10  H    Isotropic =    27.8455   Anisotropy =     8.5217
   XX=    31.2926   YX=    -1.0368   ZX=    -2.2609
   XY=    -0.2092   YY=    28.2136   ZY=     4.9340
   XZ=    -3.5265   YZ=     4.3225   ZZ=    24.0302
   Eigenvalues:    20.6159    29.3939    33.5266
     11  C    Isotropic =   120.3146   Anisotropy =    38.1174
   XX=   112.2476   YX=     8.0575   ZX=     3.8372
   XY=     7.4328   YY=   133.1095   ZY=    15.1989
   XZ=    -0.9059   YZ=    20.2095   ZZ=   115.5867
   Eigenvalues:   103.5059   111.7117   145.7262
     12  H    Isotropic =    27.5047   Anisotropy =     4.8414
   XX=    25.8829   YX=    -0.3506   ZX=     1.0888
   XY=     0.5445   YY=    30.5134   ZY=    -2.0748
   XZ=    -0.4539   YZ=     0.0655   ZZ=    26.1179
   Eigenvalues:    25.5600    26.2218    30.7323
     13  C    Isotropic =    89.3294   Anisotropy =   113.3418
   XX=    52.3720   YX=     8.9991   ZX=    -8.2608
   XY=    16.5544   YY=   124.7618   ZY=   -52.3952
   XZ=   -13.0726   YZ=   -51.4736   ZZ=    90.8544
   Eigenvalues:    49.5739    53.5238   164.8906
     14  C    Isotropic =    50.2985   Anisotropy =   189.4495
   XX=   -29.2416   YX=    16.3010   ZX=   -21.7179
   XY=    15.1152   YY=   117.8819   ZY=   -79.8518
   XZ=   -19.9478   YZ=   -77.6603   ZZ=    62.2554
   Eigenvalues:   -33.7825     8.0799   176.5982
     15  C    Isotropic =    43.9958   Anisotropy =   124.8014
   XX=    34.5711   YX=    -6.0909   ZX=   -26.5134
   XY=     1.6609   YY=    83.2821   ZY=   -65.5414
   XZ=   -20.4631   YZ=   -72.6639   ZZ=    14.1343
   Eigenvalues:   -35.0473    39.8380   127.1968
     16  C    Isotropic =    40.3908   Anisotropy =   134.3972
   XX=    11.7155   YX=    27.4657   ZX=    16.0035
   XY=    32.4743   YY=    71.7289   ZY=   -70.8960
   XZ=    12.9117   YZ=   -71.8553   ZZ=    37.7279
   Eigenvalues:   -37.3712    28.5545   129.9889
     17  C    Isotropic =    88.9646   Anisotropy =   107.0051
   XX=    78.7792   YX=   -11.0659   ZX=   -25.2373
   XY=   -15.8849   YY=   115.5459   ZY=   -62.4685
   XZ=   -22.3542   YZ=   -62.6281   ZZ=    72.5686
   Eigenvalues:    16.1077    90.4846   160.3013
     18  C    Isotropic =    93.6409   Anisotropy =    94.4314
   XX=    74.9701   YX=    24.1701   ZX=    25.0677
   XY=    20.4283   YY=   118.3084   ZY=   -52.3563
   XZ=    29.2092   YZ=   -50.3209   ZZ=    87.6444
   Eigenvalues:    24.8343    99.4934   156.5952
     19  H    Isotropic =    24.9357   Anisotropy =     7.9617
   XX=    29.5666   YX=    -1.9544   ZX=    -1.0781
   XY=    -1.6306   YY=    21.6122   ZY=     1.1300
   XZ=    -1.1296   YZ=     1.6728   ZZ=    23.6282
   Eigenvalues:    20.7435    23.8200    30.2434
     20  H    Isotropic =    25.2161   Anisotropy =     6.9721
   XX=    28.3838   YX=     0.8414   ZX=     2.3998
   XY=     0.7489   YY=    23.2493   ZY=     2.7152
   XZ=     2.2332   YZ=     2.2154   ZZ=    24.0153
   Eigenvalues:    21.0091    24.7751    29.8642
     21  O    Isotropic =   211.1678   Anisotropy =    72.9211
   XX=   175.8010   YX=    -5.4625   ZX=   -22.1221
   XY=    -9.2053   YY=   249.0265   ZY=   -12.4350
   XZ=   -33.2527   YZ=   -33.6124   ZZ=   208.6758
   Eigenvalues:   156.4778   217.2437   259.7818
     22  H    Isotropic =    21.0090   Anisotropy =    30.9691
   XX=    40.6381   YX=     5.0424   ZX=     3.1720
   XY=     5.0134   YY=     9.6078   ZY=     3.1233
   XZ=     0.7955   YZ=     4.0745   ZZ=    12.7812
   Eigenvalues:     6.9488    14.4233    41.6551
     23  O    Isotropic =   227.0684   Anisotropy =    51.0312
   XX=   194.8641   YX=    14.9600   ZX=    14.9185
   XY=    28.9605   YY=   245.9580   ZY=    12.6277
   XZ=    22.3114   YZ=    -2.9317   ZZ=   240.3832
   Eigenvalues:   182.3124   237.8037   261.0893
     24  H    Isotropic =    26.5408   Anisotropy =    15.4636
   XX=    29.8323   YX=    -3.6277   ZX=    -3.2178
   XY=    -4.8828   YY=    22.8152   ZY=     6.6980
   XZ=    -4.8999   YZ=     6.9509   ZZ=    26.9751
   Eigenvalues:    17.6584    25.1143    36.8499
     25  O    Isotropic =   285.3719   Anisotropy =    40.7993
   XX=   301.7661   YX=    -5.2684   ZX=   -18.4957
   XY=     8.6777   YY=   277.4513   ZY=     4.2970
   XZ=   -20.1494   YZ=   -10.6940   ZZ=   276.8984
   Eigenvalues:   266.0024   277.5419   312.5715
     26  H    Isotropic =    26.6698   Anisotropy =    18.4570
   XX=    32.7586   YX=     6.3416   ZX=    -7.2246
   XY=     4.9263   YY=    18.7123   ZY=     2.9632
   XZ=    -8.1628   YZ=     3.5442   ZZ=    28.5384
   Eigenvalues:    14.1999    26.8350    38.9744
     27  C    Isotropic =   170.6206   Anisotropy =    40.6284
   XX=   163.6391   YX=     5.7516   ZX=     5.7519
   XY=     4.9879   YY=   188.3351   ZY=    18.3128
   XZ=     2.6751   YZ=    16.0214   ZZ=   159.8878
   Eigenvalues:   151.6059   162.5498   197.7063
     28  H    Isotropic =    30.6135   Anisotropy =    10.2882
   XX=    33.9285   YX=     3.3905   ZX=     1.9909
   XY=     4.8492   YY=    30.4468   ZY=     1.8442
   XZ=     2.6201   YZ=     1.5183   ZZ=    27.4653
   Eigenvalues:    26.6394    27.7289    37.4723
     29  H    Isotropic =    30.3258   Anisotropy =     9.0782
   XX=    27.8773   YX=    -0.0709   ZX=     0.9921
   XY=     0.4619   YY=    35.8570   ZY=    -2.9904
   XZ=     0.6278   YZ=    -1.3722   ZZ=    27.2430
   Eigenvalues:    26.2859    28.3135    36.3779
     30  H    Isotropic =    29.7920   Anisotropy =     7.4886
   XX=    28.1046   YX=     1.2945   ZX=    -2.5860
   XY=     0.8660   YY=    30.3778   ZY=     4.6370
   XZ=    -2.8739   YZ=     3.1000   ZZ=    30.8936
   Eigenvalues:    24.6324    29.9591    34.7844
     31  O    Isotropic =   249.4906   Anisotropy =    57.7033
   XX=   265.3264   YX=     0.2726   ZX=   -27.7248
   XY=    13.3845   YY=   219.4613   ZY=    -9.5734
   XZ=   -16.5400   YZ=    -3.5211   ZZ=   263.6842
   Eigenvalues:   218.1547   242.3577   287.9595
     32  H    Isotropic =    29.8790   Anisotropy =    17.0578
   XX=    40.7660   YX=     2.7691   ZX=    -0.5999
   XY=     2.6148   YY=    22.4942   ZY=     0.0600
   XZ=    -1.8369   YZ=     0.0504   ZZ=    26.3769
   Eigenvalues:    22.0934    26.2928    41.2509
     33  H    Isotropic =    29.7220   Anisotropy =     9.1887
   XX=    29.0108   YX=    -1.5469   ZX=     2.3984
   XY=    -1.4798   YY=    29.4772   ZY=    -4.2804
   XZ=     3.3785   YZ=    -4.2058   ZZ=    30.6780
   Eigenvalues:    25.5489    27.7693    35.8478
     34  C    Isotropic =    44.3431   Anisotropy =   178.3618
   XX=    61.3343   YX=     3.2232   ZX=    59.1287
   XY=     4.5462   YY=   -28.4368   ZY=   -73.3113
   XZ=    60.4898   YZ=   -77.7677   ZZ=   100.1320
   Eigenvalues:   -70.2756    40.0540   163.2510
     35  C    Isotropic =    83.1281   Anisotropy =   101.3315
   XX=   115.3116   YX=    15.4763   ZX=    23.9163
   XY=    12.0210   YY=    20.7589   ZY=   -58.2842
   XZ=    33.2605   YZ=   -48.2439   ZZ=   113.3139
   Eigenvalues:    -8.4343   107.1361   150.6825
     36  H    Isotropic =    26.6317   Anisotropy =     5.7149
   XX=    28.6008   YX=     3.7943   ZX=    -0.4329
   XY=     0.2948   YY=    26.6965   ZY=    -1.8280
   XZ=    -0.6089   YZ=    -2.8106   ZZ=    24.5977
   Eigenvalues:    23.0081    26.4453    30.4416
     37  H    Isotropic =    27.3713   Anisotropy =     7.8606
   XX=    28.5593   YX=     0.7003   ZX=    -2.2387
   XY=     2.0547   YY=    26.4066   ZY=    -5.1021
   XZ=    -1.2638   YZ=    -4.1003   ZZ=    27.1480
   Eigenvalues:    22.1560    27.3462    32.6117
     38  C    Isotropic =   173.6772   Anisotropy =    29.3108
   XX=   175.2771   YX=    -7.9271   ZX=   -10.6388
   XY=    -9.1885   YY=   178.6560   ZY=     9.9514
   XZ=   -10.6962   YZ=     8.6640   ZZ=   167.0984
   Eigenvalues:   159.1526   168.6612   193.2177
     39  H    Isotropic =    29.6119   Anisotropy =     7.4678
   XX=    32.2664   YX=    -1.6956   ZX=     2.3292
   XY=    -3.0915   YY=    31.2562   ZY=    -0.0237
   XZ=     2.2639   YZ=    -0.1818   ZZ=    25.3131
   Eigenvalues:    24.5655    29.6798    34.5904
     40  H    Isotropic =    29.8501   Anisotropy =     8.8078
   XX=    28.2107   YX=     0.5702   ZX=    -0.7131
   XY=     1.9265   YY=    35.2043   ZY=     1.5286
   XZ=    -0.0239   YZ=     2.0395   ZZ=    26.1352
   Eigenvalues:    25.6510    28.1773    35.7220
     41  H    Isotropic =    28.7643   Anisotropy =     5.6887
   XX=    24.7777   YX=     0.7871   ZX=    -1.8171
   XY=    -0.7118   YY=    31.2090   ZY=    -1.1728
   XZ=    -2.2055   YZ=    -1.8619   ZZ=    30.3062
   Eigenvalues:    24.0958    29.6404    32.5568
     42  C    Isotropic =   164.8698   Anisotropy =    28.6802
   XX=   183.6152   YX=    -5.6083   ZX=     7.2361
   XY=     6.0897   YY=   154.3491   ZY=     2.6124
   XZ=    -0.8920   YZ=     0.9384   ZZ=   156.6450
   Eigenvalues:   153.3228   157.2966   183.9899
     43  H    Isotropic =    29.2027   Anisotropy =     7.6299
   XX=    29.6114   YX=     0.2696   ZX=     2.2206
   XY=    -1.2179   YY=    24.6504   ZY=    -1.4705
   XZ=     1.6579   YZ=    -0.4458   ZZ=    33.3464
   Eigenvalues:    24.5313    28.7875    34.2893
     44  H    Isotropic =    29.2840   Anisotropy =     7.4626
   XX=    30.2470   YX=    -2.6511   ZX=    -0.5098
   XY=    -2.6036   YY=    32.4060   ZY=     1.6542
   XZ=     1.1998   YZ=     0.9858   ZZ=    25.1991
   Eigenvalues:    24.8264    28.7666    34.2591
     45  C    Isotropic =   177.6043   Anisotropy =    30.2972
   XX=   182.6663   YX=     7.1010   ZX=    -3.2016
   XY=    17.0059   YY=   179.7380   ZY=    -8.0699
   XZ=   -10.9949   YZ=    -9.1716   ZZ=   170.4086
   Eigenvalues:   165.2707   169.7398   197.8024
     46  H    Isotropic =    30.3149   Anisotropy =    11.9382
   XX=    37.7286   YX=     1.5322   ZX=     0.4793
   XY=     3.3766   YY=    27.0405   ZY=    -0.3416
   XZ=    -0.9280   YZ=    -0.6146   ZZ=    26.1758
   Eigenvalues:    25.8840    26.7870    38.2738
     47  H    Isotropic =    30.5871   Anisotropy =     7.2316
   XX=    29.6881   YX=     0.4346   ZX=    -1.1069
   XY=     0.9847   YY=    35.1083   ZY=     2.2980
   XZ=    -1.6932   YZ=     0.6695   ZZ=    26.9650
   Eigenvalues:    26.0748    30.2784    35.4082
     48  H    Isotropic =    30.5979   Anisotropy =     7.3621
   XX=    29.3603   YX=     1.5040   ZX=    -1.0076
   XY=     2.4577   YY=    27.4354   ZY=    -1.6631
   XZ=    -1.4414   YZ=    -0.3486   ZZ=    34.9981
   Eigenvalues:    26.1905    30.0972    35.5060
 End of Minotr Frequency-dependent properties file   721 does not exist.
 End of Minotr Frequency-dependent properties file   722 does not exist.

 **********************************************************************

            Population analysis using the SCF density.

 **********************************************************************

 Orbital symmetries:
       Occupied  (A) (A) (A) (A) (A) (A) (A) (A) (A) (A) (A) (A)
                 (A) (A) (A) (A) (A) (A) (A) (A) (A) (A) (A) (A)
                 (A) (A) (A) (A) (A) (A) (A) (A) (A) (A) (A) (A)
                 (A) (A) (A) (A) (A) (A) (A) (A) (A) (A) (A) (A)
                 (A) (A) (A) (A) (A) (A) (A) (A) (A) (A) (A) (A)
                 (A) (A) (A) (A) (A) (A) (A) (A) (A) (A) (A) (A)
                 (A) (A) (A) (A) (A) (A) (A) (A) (A) (A) (A)
       Virtual   (A) (A) (A) (A) (A) (A) (A) (A) (A) (A) (A) (A)
                 (A) (A) (A) (A) (A) (A) (A) (A) (A) (A) (A) (A)
                 (A) (A) (A) (A) (A) (A) (A) (A) (A) (A) (A) (A)
                 (A) (A) (A) (A) (A) (A) (A) (A) (A) (A) (A) (A)
                 (A) (A) (A) (A) (A) (A) (A) (A) (A) (A) (A) (A)
                 (A) (A) (A) (A) (A) (A) (A) (A) (A) (A) (A) (A)
                 (A) (A) (A) (A) (A) (A) (A) (A) (A) (A) (A) (A)
                 (A) (A) (A) (A) (A) (A) (A) (A) (A) (A) (A) (A)
                 (A) (A) (A) (A) (A) (A) (A) (A) (A) (A) (A) (A)
                 (A) (A) (A) (A) (A) (A) (A) (A) (A) (A) (A) (A)
                 (A) (A) (A) (A) (A) (A) (A) (A) (A) (A) (A) (A)
                 (A) (A) (A) (A) (A) (A) (A) (A) (A) (A) (A) (A)
                 (A) (A) (A) (A) (A) (A) (A) (A) (A) (A) (A) (A)
                 (A) (A) (A) (A) (A) (A) (A) (A) (A) (A) (A) (A)
                 (A) (A) (A) (A) (A) (A) (A) (A) (A) (A) (A) (A)
                 (A) (A) (A) (A) (A) (A) (A) (A) (A) (A) (A) (A)
                 (A) (A) (A) (A) (A) (A) (A) (A) (A) (A) (A) (A)
                 (A) (A) (A) (A) (A) (A) (A) (A) (A) (A) (A) (A)
                 (A) (A) (A) (A) (A) (A) (A) (A) (A) (A) (A) (A)
                 (A) (A) (A) (A) (A) (A) (A) (A) (A) (A) (A) (A)
                 (A) (A) (A) (A) (A) (A) (A) (A) (A) (A) (A) (A)
                 (A) (A) (A) (A) (A) (A) (A) (A) (A) (A) (A) (A)
                 (A) (A) (A) (A) (A) (A) (A) (A) (A) (A) (A) (A)
                 (A) (A) (A) (A) (A) (A) (A) (A) (A) (A) (A) (A)
                 (A) (A) (A) (A) (A) (A) (A) (A) (A) (A) (A) (A)
                 (A) (A) (A) (A) (A) (A) (A) (A) (A) (A) (A) (A)
                 (A) (A) (A) (A) (A) (A) (A) (A) (A) (A) (A) (A)
                 (A) (A) (A) (A) (A) (A) (A) (A) (A) (A) (A) (A)
                 (A) (A) (A) (A) (A) (A) (A) (A) (A) (A) (A) (A)
                 (A) (A) (A) (A) (A) (A) (A) (A) (A) (A) (A) (A)
                 (A) (A) (A) (A) (A) (A) (A) (A) (A) (A) (A) (A)
                 (A) (A) (A) (A) (A) (A) (A) (A) (A) (A) (A) (A)
                 (A) (A) (A) (A) (A) (A) (A) (A) (A) (A) (A) (A)
                 (A) (A) (A) (A) (A) (A) (A) (A) (A) (A) (A) (A)
                 (A) (A) (A) (A) (A) (A) (A) (A) (A) (A) (A) (A)
                 (A) (A) (A) (A) (A) (A) (A) (A) (A) (A) (A) (A)
                 (A) (A) (A) (A) (A) (A) (A) (A) (A) (A) (A) (A)
                 (A) (A) (A) (A) (A) (A) (A) (A) (A) (A) (A) (A)
                 (A) (A) (A) (A) (A) (A) (A)
 The electronic state is 1-A.
 Alpha  occ. eigenvalues --  -19.28352 -19.26972 -19.26423 -19.25555 -10.32152
 Alpha  occ. eigenvalues --  -10.32095 -10.31670 -10.31458 -10.27531 -10.26383
 Alpha  occ. eigenvalues --  -10.26374 -10.26276 -10.26244 -10.24930 -10.24845
 Alpha  occ. eigenvalues --  -10.24577 -10.24451 -10.24388 -10.23838 -10.23664
 Alpha  occ. eigenvalues --  -10.23426 -10.23414  -1.09824  -1.09457  -1.07527
 Alpha  occ. eigenvalues --   -1.05549  -0.88665  -0.86904  -0.82279  -0.82047
 Alpha  occ. eigenvalues --   -0.78497  -0.77190  -0.75745  -0.73927  -0.71479
 Alpha  occ. eigenvalues --   -0.69986  -0.67260  -0.64574  -0.63797  -0.63649
 Alpha  occ. eigenvalues --   -0.61284  -0.59664  -0.56241  -0.54394  -0.53393
 Alpha  occ. eigenvalues --   -0.52529  -0.51309  -0.50865  -0.50537  -0.48468
 Alpha  occ. eigenvalues --   -0.47884  -0.46142  -0.45803  -0.45225  -0.44935
 Alpha  occ. eigenvalues --   -0.44171  -0.43923  -0.43118  -0.42675  -0.41950
 Alpha  occ. eigenvalues --   -0.41608  -0.40863  -0.40572  -0.40055  -0.39674
 Alpha  occ. eigenvalues --   -0.39326  -0.38902  -0.38134  -0.37801  -0.37368
 Alpha  occ. eigenvalues --   -0.35799  -0.35512  -0.35203  -0.34789  -0.33965
 Alpha  occ. eigenvalues --   -0.32638  -0.32356  -0.31924  -0.31084  -0.29521
 Alpha  occ. eigenvalues --   -0.25751  -0.24149  -0.22730
 Alpha virt. eigenvalues --   -0.00353  -0.00277   0.00353   0.01053   0.01173
 Alpha virt. eigenvalues --    0.01687   0.02201   0.02624   0.02899   0.03045
 Alpha virt. eigenvalues --    0.04052   0.04222   0.04552   0.04687   0.05150
 Alpha virt. eigenvalues --    0.05995   0.06118   0.06918   0.07136   0.07462
 Alpha virt. eigenvalues --    0.07718   0.08529   0.08804   0.08856   0.09521
 Alpha virt. eigenvalues --    0.09677   0.09916   0.10500   0.10705   0.10996
 Alpha virt. eigenvalues --    0.11235   0.11964   0.12222   0.12509   0.13083
 Alpha virt. eigenvalues --    0.13135   0.13468   0.13959   0.14594   0.14620
 Alpha virt. eigenvalues --    0.14737   0.15145   0.15337   0.15602   0.16074
 Alpha virt. eigenvalues --    0.16743   0.17034   0.17460   0.17537   0.17647
 Alpha virt. eigenvalues --    0.18220   0.18473   0.18583   0.18744   0.19398
 Alpha virt. eigenvalues --    0.19650   0.19913   0.20104   0.20515   0.20946
 Alpha virt. eigenvalues --    0.21000   0.21321   0.21627   0.21898   0.22079
 Alpha virt. eigenvalues --    0.22359   0.22877   0.23143   0.23256   0.23440
 Alpha virt. eigenvalues --    0.23892   0.24096   0.24441   0.24859   0.24986
 Alpha virt. eigenvalues --    0.25353   0.25604   0.25994   0.26289   0.26831
 Alpha virt. eigenvalues --    0.26937   0.27217   0.27585   0.28009   0.28166
 Alpha virt. eigenvalues --    0.28607   0.28887   0.29013   0.29540   0.29785
 Alpha virt. eigenvalues --    0.29907   0.30011   0.30560   0.31341   0.31578
 Alpha virt. eigenvalues --    0.31689   0.31995   0.32208   0.32636   0.33288
 Alpha virt. eigenvalues --    0.33756   0.34242   0.34649   0.34790   0.35386
 Alpha virt. eigenvalues --    0.35730   0.36123   0.36343   0.37015   0.37435
 Alpha virt. eigenvalues --    0.37723   0.38067   0.38768   0.39140   0.39606
 Alpha virt. eigenvalues --    0.39967   0.40734   0.41352   0.41550   0.42270
 Alpha virt. eigenvalues --    0.42782   0.43861   0.44056   0.45137   0.45628
 Alpha virt. eigenvalues --    0.46622   0.46877   0.47287   0.48021   0.48838
 Alpha virt. eigenvalues --    0.48899   0.49779   0.51553   0.51854   0.53524
 Alpha virt. eigenvalues --    0.54086   0.56304   0.60227   0.63625   0.65565
 Alpha virt. eigenvalues --    0.67590   0.68387   0.69289   0.70081   0.70842
 Alpha virt. eigenvalues --    0.71463   0.72404   0.72818   0.73171   0.73506
 Alpha virt. eigenvalues --    0.74418   0.74794   0.75328   0.75817   0.75915
 Alpha virt. eigenvalues --    0.76912   0.77897   0.78435   0.78739   0.79849
 Alpha virt. eigenvalues --    0.80411   0.81220   0.81937   0.82269   0.83351
 Alpha virt. eigenvalues --    0.84080   0.84472   0.86680   0.87362   0.87588
 Alpha virt. eigenvalues --    0.87689   0.88438   0.89527   0.90015   0.90731
 Alpha virt. eigenvalues --    0.92688   0.92980   0.93311   0.94382   0.95011
 Alpha virt. eigenvalues --    0.95883   0.96399   0.97790   0.98337   0.99224
 Alpha virt. eigenvalues --    0.99834   1.00879   1.01429   1.02197   1.02987
 Alpha virt. eigenvalues --    1.04663   1.04882   1.06209   1.06729   1.08488
 Alpha virt. eigenvalues --    1.09559   1.10829   1.11052   1.11470   1.11883
 Alpha virt. eigenvalues --    1.13180   1.13414   1.14481   1.14706   1.15396
 Alpha virt. eigenvalues --    1.15770   1.16380   1.16789   1.17879   1.18107
 Alpha virt. eigenvalues --    1.19304   1.19843   1.20069   1.20883   1.21342
 Alpha virt. eigenvalues --    1.22886   1.24390   1.24956   1.25327   1.27315
 Alpha virt. eigenvalues --    1.27704   1.28205   1.29053   1.30003   1.31456
 Alpha virt. eigenvalues --    1.31847   1.32840   1.33676   1.34105   1.34902
 Alpha virt. eigenvalues --    1.35494   1.36696   1.37158   1.37738   1.38012
 Alpha virt. eigenvalues --    1.39930   1.40415   1.41064   1.41669   1.43309
 Alpha virt. eigenvalues --    1.43862   1.44601   1.45798   1.47616   1.48549
 Alpha virt. eigenvalues --    1.49736   1.50166   1.50985   1.53249   1.54932
 Alpha virt. eigenvalues --    1.55319   1.58546   1.59293   1.60515   1.61344
 Alpha virt. eigenvalues --    1.62155   1.63167   1.64283   1.66181   1.66882
 Alpha virt. eigenvalues --    1.67250   1.68137   1.69621   1.72048   1.72403
 Alpha virt. eigenvalues --    1.75135   1.76605   1.77432   1.78229   1.79368
 Alpha virt. eigenvalues --    1.79837   1.80690   1.82347   1.83134   1.84850
 Alpha virt. eigenvalues --    1.85090   1.85959   1.86491   1.86778   1.87741
 Alpha virt. eigenvalues --    1.88950   1.90220   1.90381   1.91548   1.92224
 Alpha virt. eigenvalues --    1.92665   1.93396   1.94081   1.94693   1.95739
 Alpha virt. eigenvalues --    1.96307   1.97270   1.97632   1.98513   2.00028
 Alpha virt. eigenvalues --    2.00561   2.01559   2.03620   2.05648   2.05707
 Alpha virt. eigenvalues --    2.06945   2.07051   2.07679   2.08424   2.08911
 Alpha virt. eigenvalues --    2.10155   2.11014   2.11125   2.12430   2.12672
 Alpha virt. eigenvalues --    2.13712   2.14373   2.15496   2.15673   2.16253
 Alpha virt. eigenvalues --    2.18061   2.18604   2.19714   2.20240   2.20297
 Alpha virt. eigenvalues --    2.21443   2.22896   2.24618   2.25961   2.26550
 Alpha virt. eigenvalues --    2.27324   2.27830   2.28421   2.29223   2.30286
 Alpha virt. eigenvalues --    2.31424   2.31993   2.33244   2.34145   2.34743
 Alpha virt. eigenvalues --    2.35721   2.37151   2.38377   2.39316   2.40498
 Alpha virt. eigenvalues --    2.41003   2.41381   2.43809   2.45548   2.45752
 Alpha virt. eigenvalues --    2.47355   2.48608   2.49112   2.50720   2.50963
 Alpha virt. eigenvalues --    2.52317   2.52914   2.54686   2.55871   2.56076
 Alpha virt. eigenvalues --    2.56748   2.57210   2.58134   2.58707   2.59480
 Alpha virt. eigenvalues --    2.60833   2.61046   2.61306   2.63496   2.64060
 Alpha virt. eigenvalues --    2.65571   2.66361   2.67435   2.68620   2.68884
 Alpha virt. eigenvalues --    2.69725   2.70935   2.71490   2.71947   2.72784
 Alpha virt. eigenvalues --    2.73685   2.74250   2.76315   2.76852   2.77244
 Alpha virt. eigenvalues --    2.78243   2.79379   2.79624   2.80573   2.82810
 Alpha virt. eigenvalues --    2.83893   2.84088   2.84760   2.85418   2.87256
 Alpha virt. eigenvalues --    2.88298   2.88928   2.90127   2.90839   2.91731
 Alpha virt. eigenvalues --    2.92535   2.93389   2.94229   2.95002   2.95756
 Alpha virt. eigenvalues --    2.97214   2.98014   3.00693   3.01120   3.04010
 Alpha virt. eigenvalues --    3.07795   3.09312   3.09788   3.11088   3.14911
 Alpha virt. eigenvalues --    3.18582   3.21532   3.25756   3.29206   3.29512
 Alpha virt. eigenvalues --    3.30839   3.31852   3.36038   3.37766   3.39415
 Alpha virt. eigenvalues --    3.41875   3.42754   3.45627   3.47850   3.49573
 Alpha virt. eigenvalues --    3.50658   3.51020   3.51543   3.51728   3.53062
 Alpha virt. eigenvalues --    3.54287   3.55209   3.56546   3.57386   3.58846
 Alpha virt. eigenvalues --    3.58930   3.59950   3.62405   3.65139   3.74580
 Alpha virt. eigenvalues --    3.94550   4.36890   4.37533   4.42317   4.46742
 Alpha virt. eigenvalues --    4.48219   4.51240   4.53066   4.54825   4.57491
 Alpha virt. eigenvalues --    4.61505   4.64138   4.65148   4.66919   4.71801
 Alpha virt. eigenvalues --    4.73881   4.75377   4.78579   4.85089   4.94090
 Alpha virt. eigenvalues --    4.97586   4.99877   5.08641
          Condensed to atoms (all electrons):
              1          2          3          4          5          6
     1  C   10.991811  -1.358769  -0.045438  -0.023065  -0.494857   0.048344
     2  C   -1.358769   7.084078   0.386948   0.427277   0.123236  -0.076574
     3  H   -0.045438   0.386948   0.539075  -0.031009  -0.066034  -0.005250
     4  H   -0.023065   0.427277  -0.031009   0.518421  -0.078546   0.004614
     5  C   -0.494857   0.123236  -0.066034  -0.078546   7.375164   0.385365
     6  H    0.048344  -0.076574  -0.005250   0.004614   0.385365   0.529806
     7  C    1.809293  -0.572789   0.078290   0.079277  -1.950735   0.029413
     8  H   -0.028101   0.032716  -0.000149  -0.000108   0.022906  -0.007386
     9  C   -0.930624   0.376288  -0.042663  -0.016314   0.368032  -0.009198
    10  H    0.111630  -0.027538  -0.000052   0.000149  -0.064502   0.002624
    11  C   -2.392368   0.186593   0.040834  -0.049523   0.626776  -0.073969
    12  H   -0.032279   0.006120  -0.000089  -0.000098  -0.017843  -0.000040
    13  C    0.157121  -0.226107   0.000729  -0.004857  -0.094626  -0.011073
    14  C   -0.082051   0.001601   0.000021  -0.000229  -0.011037   0.000070
    15  C    0.254672  -0.173809  -0.000516   0.004563  -0.487297   0.037271
    16  C   -1.089964   0.244967  -0.000061  -0.008766   0.267512  -0.013742
    17  C   -0.154873   0.004032   0.000189  -0.000947  -0.066732  -0.000740
    18  C   -0.070603   0.009200  -0.000216   0.000478   0.007098   0.005242
    19  H   -0.000089  -0.000020   0.000000   0.000000   0.000017   0.000000
    20  H   -0.000014  -0.000004   0.000000   0.000000  -0.000066   0.000000
    21  O    0.052774  -0.005485  -0.000011   0.000122   0.005850  -0.000004
    22  H   -0.020185   0.002830   0.000002  -0.000033   0.002321  -0.000002
    23  O   -0.003476   0.004119   0.000000  -0.000002   0.002601  -0.000156
    24  H    0.001000  -0.000004   0.000000   0.000000   0.000722   0.000001
    25  O    0.215305   0.003064  -0.000611   0.002241  -0.171380   0.000310
    26  H   -0.018167  -0.020952  -0.000027   0.000529   0.015377  -0.000003
    27  C   -0.668315  -0.038376  -0.020292   0.008600   0.153248  -0.005819
    28  H   -0.050056  -0.009656   0.002769   0.000061   0.018088   0.000085
    29  H   -0.124484   0.028731   0.000076  -0.000136  -0.000426  -0.000044
    30  H   -0.116747   0.021810   0.000264  -0.000004  -0.029267  -0.000397
    31  O    0.255316  -0.135603  -0.007973  -0.005138   0.032202  -0.000405
    32  H    0.062350  -0.058522   0.003386  -0.000922   0.005920  -0.000003
    33  H    0.024966  -0.015829  -0.001823  -0.004216   0.442966  -0.025676
    34  C   -0.350542   0.222224  -0.006979  -0.012789   0.535359   0.002707
    35  C    0.246708  -0.181052   0.000377   0.008196  -0.333060   0.000389
    36  H    0.001187  -0.000534   0.000000   0.000001  -0.006786   0.000003
    37  H    0.000548  -0.002234   0.000000  -0.000001   0.001171  -0.000005
    38  C   -0.086288   0.010481   0.003317  -0.003453  -0.066174   0.005920
    39  H    0.001443   0.005742   0.000058  -0.000694  -0.019266   0.000029
    40  H    0.001059  -0.003460  -0.000002   0.000135  -0.002431   0.000001
    41  H   -0.028995   0.015460   0.000066  -0.001038   0.012788  -0.000030
    42  C   -0.015723   0.000341   0.000001  -0.000007   0.002924  -0.000004
    43  H    0.000012  -0.000001   0.000000   0.000000   0.000000   0.000000
    44  H    0.000003   0.000000   0.000000   0.000000  -0.000005   0.000000
    45  C    0.000009  -0.000006   0.000000   0.000000   0.000094   0.000000
    46  H    0.000000   0.000000   0.000000   0.000000  -0.000001   0.000000
    47  H    0.000000   0.000000   0.000000   0.000000  -0.000005   0.000000
    48  H    0.000003   0.000000   0.000000   0.000000  -0.000004   0.000000
              7          8          9         10         11         12
     1  C    1.809293  -0.028101  -0.930624   0.111630  -2.392368  -0.032279
     2  C   -0.572789   0.032716   0.376288  -0.027538   0.186593   0.006120
     3  H    0.078290  -0.000149  -0.042663  -0.000052   0.040834  -0.000089
     4  H    0.079277  -0.000108  -0.016314   0.000149  -0.049523  -0.000098
     5  C   -1.950735   0.022906   0.368032  -0.064502   0.626776  -0.017843
     6  H    0.029413  -0.007386  -0.009198   0.002624  -0.073969  -0.000040
     7  C   15.081251  -0.010294  -2.199692   0.138919  -3.053469   0.038277
     8  H   -0.010294   0.562039   0.178984  -0.009595   0.086381  -0.000134
     9  C   -2.199692   0.178984  13.239085   0.241967  -1.674842  -0.058891
    10  H    0.138919  -0.009595   0.241967   0.555944  -0.255995  -0.003785
    11  C   -3.053469   0.086381  -1.674842  -0.255995  14.691678   0.200184
    12  H    0.038277  -0.000134  -0.058891  -0.003785   0.200184   0.581511
    13  C    0.452077   0.061910   3.076016  -0.215818  -1.172525  -0.049562
    14  C   -0.202220  -0.011021  -0.699735   0.011327  -0.190233   0.015782
    15  C    1.834380  -0.107253  -2.132470   0.474338  -2.190925  -0.038596
    16  C   -3.092277   0.018319  -1.164516  -0.235161   2.159909   0.227533
    17  C   -0.004561  -0.019654  -1.919666   0.004174  -0.268875   0.038018
    18  C   -0.346196   0.020572  -1.006234   0.098086   0.051659  -0.007699
    19  H    0.000107   0.000000   0.003920   0.000002  -0.003361   0.000000
    20  H   -0.001154   0.000003   0.002550  -0.000009   0.000501   0.000000
    21  O    0.081965   0.000306   0.193664   0.000030   0.021225  -0.003538
    22  H   -0.044562  -0.000028  -0.021850  -0.000108   0.071468  -0.000252
    23  O   -0.065575   0.000765  -0.009342  -0.002858   0.004025  -0.001055
    24  H   -0.001967  -0.000068   0.045558   0.000036   0.001541  -0.000002
    25  O    0.259423  -0.001165  -0.116292   0.010062  -0.291176  -0.037227
    26  H   -0.023603   0.000011   0.021983  -0.000306   0.043687  -0.004954
    27  C   -0.621252   0.008960   0.389232  -0.018385  -0.117082  -0.001728
    28  H   -0.009560   0.000001  -0.004073  -0.000005   0.008030  -0.000070
    29  H   -0.006045   0.000000   0.011201  -0.000067   0.009889   0.003847
    30  H    0.023650  -0.000042   0.034808  -0.000534  -0.023942  -0.000029
    31  O    0.005914   0.000135  -0.081871  -0.000700   0.110294   0.000469
    32  H   -0.003523   0.000000   0.006632  -0.000005   0.025412  -0.000259
    33  H   -0.141346  -0.001268   0.018731  -0.000039  -0.008277   0.000013
    34  C   -2.307133   0.024707  -0.171123  -0.014647  -0.059300  -0.016014
    35  C    0.585663   0.024699   0.182318   0.009434   0.106038  -0.000394
    36  H    0.027889   0.000362   0.011345   0.000003   0.000723   0.000000
    37  H   -0.005271   0.002980   0.046462  -0.000070   0.000215   0.000001
    38  C    0.174081  -0.024665  -0.261416   0.008050  -0.255100  -0.003036
    39  H    0.012940  -0.000033  -0.015204   0.000001   0.005484   0.000001
    40  H    0.018819  -0.000108  -0.001645   0.000002  -0.007124   0.000000
    41  H    0.017162  -0.000141  -0.010703  -0.000027   0.021710   0.000004
    42  C   -0.016673  -0.001158  -0.192249  -0.000396  -0.069766   0.001028
    43  H    0.000006   0.000000  -0.000114   0.000000   0.000148   0.000000
    44  H   -0.000071   0.000000   0.000514   0.000000  -0.000212   0.000000
    45  C   -0.000993   0.000010  -0.002866  -0.000011  -0.001133   0.000004
    46  H   -0.000026   0.000000   0.000051   0.000000   0.000000   0.000000
    47  H   -0.000195   0.000000  -0.000260   0.000000  -0.000128   0.000000
    48  H    0.000100   0.000000   0.000184   0.000000   0.000063   0.000000
             13         14         15         16         17         18
     1  C    0.157121  -0.082051   0.254672  -1.089964  -0.154873  -0.070603
     2  C   -0.226107   0.001601  -0.173809   0.244967   0.004032   0.009200
     3  H    0.000729   0.000021  -0.000516  -0.000061   0.000189  -0.000216
     4  H   -0.004857  -0.000229   0.004563  -0.008766  -0.000947   0.000478
     5  C   -0.094626  -0.011037  -0.487297   0.267512  -0.066732   0.007098
     6  H   -0.011073   0.000070   0.037271  -0.013742  -0.000740   0.005242
     7  C    0.452077  -0.202220   1.834380  -3.092277  -0.004561  -0.346196
     8  H    0.061910  -0.011021  -0.107253   0.018319  -0.019654   0.020572
     9  C    3.076016  -0.699735  -2.132470  -1.164516  -1.919666  -1.006234
    10  H   -0.215818   0.011327   0.474338  -0.235161   0.004174   0.098086
    11  C   -1.172525  -0.190233  -2.190925   2.159909  -0.268875   0.051659
    12  H   -0.049562   0.015782  -0.038596   0.227533   0.038018  -0.007699
    13  C   25.568082  -3.179021  -1.357074  -7.235175  -6.786947  -2.434935
    14  C   -3.179021   9.873650  -0.506003   0.282694   1.637455   0.555778
    15  C   -1.357074  -0.506003  19.691831 -10.757067   2.837581  -1.950325
    16  C   -7.235175   0.282694 -10.757067  27.486302  -1.415640   1.468689
    17  C   -6.786947   1.637455   2.837581  -1.415640  15.539386  -3.563763
    18  C   -2.434935   0.555778  -1.950325   1.468689  -3.563763  13.173309
    19  H    0.053976   0.052815  -0.031521   0.018965   0.189232   0.056041
    20  H    0.038951   0.095586   0.062652  -0.059527   0.065500   0.137188
    21  O    0.300869  -0.006476  -0.006286  -0.222295  -0.419162   0.064862
    22  H   -0.196005  -0.001760  -0.022920   0.172022   0.079171  -0.010815
    23  O   -0.213011   0.023770   0.256841  -0.069106   0.009136   0.057994
    24  H    0.173727  -0.006497  -0.022928   0.011743  -0.016087  -0.181288
    25  O    0.068184   0.003638   0.035853   0.013943   0.045489  -0.009907
    26  H   -0.006256  -0.000868  -0.007283  -0.009909  -0.004568  -0.000134
    27  C    0.128172   0.005843  -0.035507   0.146388  -0.017125   0.038611
    28  H   -0.000005  -0.000004  -0.001602  -0.000471   0.000042  -0.000251
    29  H    0.005342   0.000074  -0.012375   0.009736   0.000462  -0.001259
    30  H    0.003989   0.000304   0.019118   0.002062  -0.000578   0.004895
    31  O    0.008336  -0.000410   0.003629  -0.009884  -0.003874   0.001621
    32  H    0.001323   0.000002   0.000400  -0.000592  -0.000025  -0.000001
    33  H    0.010543   0.000362  -0.006943   0.007042   0.000669  -0.001076
    34  C   -0.840283  -0.016994  -0.591052   1.052004   0.186122  -0.030374
    35  C    0.331327   0.030317   0.132658  -0.191393   0.003535  -0.000326
    36  H    0.018351  -0.003772   0.005077  -0.003745  -0.015006   0.004710
    37  H   -0.007881   0.012800  -0.036058   0.063868  -0.008194  -0.000631
    38  C    0.184168  -0.033762   0.177310  -0.546609  -0.129894   0.021410
    39  H    0.001716   0.000359   0.001662   0.011173   0.003373  -0.000442
    40  H   -0.000357   0.000712   0.001288   0.007773   0.000431   0.000286
    41  H   -0.001420  -0.001859  -0.001821  -0.038730  -0.012008   0.000923
    42  C   -1.518319  -1.306666   0.497335  -0.671284   0.849774  -0.031201
    43  H    0.008600  -0.247398  -0.007896   0.023481   0.221279  -0.136582
    44  H    0.001517  -0.227972   0.031459  -0.009679  -0.130671   0.188049
    45  C   -0.027856  -0.069553   0.016894  -0.011234   0.042768   0.013184
    46  H    0.002315   0.031391   0.002869   0.001438   0.009228   0.004962
    47  H   -0.005422  -0.031890  -0.002156  -0.002886  -0.032510   0.029182
    48  H   -0.000417  -0.031524   0.004319  -0.002994   0.033814  -0.039728
             19         20         21         22         23         24
     1  C   -0.000089  -0.000014   0.052774  -0.020185  -0.003476   0.001000
     2  C   -0.000020  -0.000004  -0.005485   0.002830   0.004119  -0.000004
     3  H    0.000000   0.000000  -0.000011   0.000002   0.000000   0.000000
     4  H    0.000000   0.000000   0.000122  -0.000033  -0.000002   0.000000
     5  C    0.000017  -0.000066   0.005850   0.002321   0.002601   0.000722
     6  H    0.000000   0.000000  -0.000004  -0.000002  -0.000156   0.000001
     7  C    0.000107  -0.001154   0.081965  -0.044562  -0.065575  -0.001967
     8  H    0.000000   0.000003   0.000306  -0.000028   0.000765  -0.000068
     9  C    0.003920   0.002550   0.193664  -0.021850  -0.009342   0.045558
    10  H    0.000002  -0.000009   0.000030  -0.000108  -0.002858   0.000036
    11  C   -0.003361   0.000501   0.021225   0.071468   0.004025   0.001541
    12  H    0.000000   0.000000  -0.003538  -0.000252  -0.001055  -0.000002
    13  C    0.053976   0.038951   0.300869  -0.196005  -0.213011   0.173727
    14  C    0.052815   0.095586  -0.006476  -0.001760   0.023770  -0.006497
    15  C   -0.031521   0.062652  -0.006286  -0.022920   0.256841  -0.022928
    16  C    0.018965  -0.059527  -0.222295   0.172022  -0.069106   0.011743
    17  C    0.189232   0.065500  -0.419162   0.079171   0.009136  -0.016087
    18  C    0.056041   0.137188   0.064862  -0.010815   0.057994  -0.181288
    19  H    0.519268  -0.000145  -0.007005   0.000165   0.000111  -0.000001
    20  H   -0.000145   0.524192   0.000140   0.000000  -0.018895   0.008140
    21  O   -0.007005   0.000140   8.431097   0.158375  -0.000043   0.000059
    22  H    0.000165   0.000000   0.158375   0.299877  -0.000160   0.000000
    23  O    0.000111  -0.018895  -0.000043  -0.000160   8.302407   0.206185
    24  H   -0.000001   0.008140   0.000059   0.000000   0.206185   0.359850
    25  O    0.000014   0.000002   0.009829   0.019308  -0.001251  -0.000002
    26  H    0.000000   0.000000   0.002681   0.001449  -0.000002   0.000000
    27  C    0.000020   0.000026  -0.000683   0.001550  -0.002820   0.000048
    28  H    0.000000   0.000000  -0.000002   0.000000   0.000023   0.000000
    29  H    0.000000   0.000000  -0.000002  -0.000001  -0.000072   0.000000
    30  H    0.000000   0.000000   0.000002   0.000002  -0.000042   0.000002
    31  O    0.000000   0.000000   0.000671  -0.000110   0.000179   0.000000
    32  H    0.000000   0.000000  -0.000005   0.000001   0.000002   0.000000
    33  H    0.000000   0.000000   0.000008  -0.000004  -0.000025   0.000000
    34  C   -0.002664   0.000196  -0.054448   0.037637   0.054898   0.004582
    35  C    0.002583  -0.000034  -0.024123  -0.010482  -0.022755  -0.001353
    36  H    0.000000   0.000000   0.000355  -0.000035  -0.000044   0.000000
    37  H   -0.000001  -0.000002  -0.000155  -0.000014   0.000037  -0.000003
    38  C    0.000039   0.000000   0.009697  -0.005393   0.008125   0.000265
    39  H    0.000000   0.000000  -0.000348   0.000067  -0.000011   0.000000
    40  H    0.000000   0.000000  -0.000065  -0.000036  -0.000001   0.000000
    41  H    0.000000   0.000000   0.003319  -0.000770   0.000036   0.000000
    42  C   -0.022584  -0.025970  -0.023617   0.001344  -0.002541  -0.000505
    43  H    0.001660   0.000090   0.000055   0.000000   0.000036   0.000000
    44  H    0.000092   0.002132   0.000029   0.000000  -0.000030   0.000004
    45  C    0.003603   0.007257  -0.000103  -0.000024  -0.000148   0.000100
    46  H   -0.000028  -0.000026   0.000001   0.000000  -0.000002   0.000000
    47  H    0.000183   0.000011  -0.000014   0.000000   0.000001   0.000000
    48  H    0.000007   0.000193   0.000008   0.000000   0.000029   0.000000
             25         26         27         28         29         30
     1  C    0.215305  -0.018167  -0.668315  -0.050056  -0.124484  -0.116747
     2  C    0.003064  -0.020952  -0.038376  -0.009656   0.028731   0.021810
     3  H   -0.000611  -0.000027  -0.020292   0.002769   0.000076   0.000264
     4  H    0.002241   0.000529   0.008600   0.000061  -0.000136  -0.000004
     5  C   -0.171380   0.015377   0.153248   0.018088  -0.000426  -0.029267
     6  H    0.000310  -0.000003  -0.005819   0.000085  -0.000044  -0.000397
     7  C    0.259423  -0.023603  -0.621252  -0.009560  -0.006045   0.023650
     8  H   -0.001165   0.000011   0.008960   0.000001   0.000000  -0.000042
     9  C   -0.116292   0.021983   0.389232  -0.004073   0.011201   0.034808
    10  H    0.010062  -0.000306  -0.018385  -0.000005  -0.000067  -0.000534
    11  C   -0.291176   0.043687  -0.117082   0.008030   0.009889  -0.023942
[...]
    16  C    0.075989  -0.034107   0.217390  -0.000092   0.008784   0.005715
    17  C    0.043918  -0.008834  -0.023593  -0.000029   0.000388  -0.000004
    18  C   -0.009531   0.000454   0.037261  -0.000006  -0.001820   0.001849
    19  H    0.000022   0.000000   0.000023   0.000000   0.000000   0.000000
    20  H    0.000002   0.000000   0.000021   0.000000   0.000000   0.000000
    21  O    0.005504   0.004396   0.000837  -0.000001   0.000005  -0.000007
    22  H    0.023639   0.000122   0.000671   0.000000  -0.000001   0.000002
    23  O   -0.001220  -0.000006  -0.002025   0.000008  -0.000077   0.000495
    24  H   -0.000001   0.000000   0.000041   0.000000   0.000000   0.000002
    25  O    8.640721   0.193953  -0.026487   0.000012   0.001649  -0.000007
    26  H    0.193953   0.314430   0.012944  -0.000036  -0.000034  -0.000039
    27  C   -0.026487   0.012944   5.918418   0.427937   0.442455   0.408177
    28  H    0.000012  -0.000036   0.427937   0.530488  -0.028316  -0.025716
    29  H    0.001649  -0.000034   0.442455  -0.028316   0.542414  -0.026542
    30  H   -0.000007  -0.000039   0.408177  -0.025716  -0.026542   0.522487
    31  O   -0.022279   0.032302  -0.114806  -0.011558   0.004834   0.008001
    32  H    0.000958  -0.000816  -0.022770   0.004044  -0.000605   0.000066
    33  H    0.001499  -0.000009  -0.001530  -0.000016   0.000003   0.000035
    34  C   -0.096258   0.008085   0.072234   0.000985   0.000528   0.003382
    35  C    0.003649   0.000440  -0.012053  -0.000062  -0.000195  -0.000491
    36  H   -0.000080   0.000000   0.000032   0.000000   0.000000   0.000000
    37  H    0.000191   0.000000   0.000177   0.000000   0.000000   0.000000
    38  C    0.006184  -0.002809  -0.030260   0.000292  -0.000234  -0.000070
    39  H   -0.000042  -0.000056  -0.000511   0.000000   0.000000   0.000000
    40  H    0.001197  -0.000013   0.000023   0.000000   0.000000   0.000000
    41  H   -0.007236   0.000318  -0.000966   0.000000   0.000000   0.000000
    42  C   -0.002573  -0.000024   0.000199   0.000001  -0.000002  -0.000001
    43  H    0.000000   0.000000   0.000000   0.000000   0.000000   0.000000
    44  H    0.000000   0.000000  -0.000001   0.000000   0.000000   0.000000
    45  C    0.000014   0.000000   0.000003   0.000000   0.000000   0.000000
    46  H    0.000000   0.000000   0.000000   0.000000   0.000000   0.000000
    47  H    0.000000   0.000000   0.000000   0.000000   0.000000   0.000000
    48  H    0.000000   0.000000   0.000000   0.000000   0.000000   0.000000
             31         32         33         34         35         36
     1  C    0.230600   0.015968   0.019375  -0.232298   0.211756   0.001228
     2  C   -0.110791  -0.040773  -0.047939   0.161114  -0.123101  -0.000882
     3  H   -0.008546   0.003419  -0.001687  -0.001292  -0.000884   0.000000
     4  H    0.001400  -0.001201  -0.004668  -0.025871  -0.000032   0.000001
     5  C    0.015118   0.006539   0.511238   0.606099  -0.550524  -0.006448
     6  H    0.000342  -0.000012  -0.030757  -0.002883  -0.019061   0.000003
     7  C    0.020045  -0.005312  -0.116522  -2.239199   0.365750   0.014805
     8  H    0.000091   0.000000  -0.001545  -0.020710   0.038354   0.000393
     9  C   -0.086153   0.006701  -0.007507   0.051278   0.212375   0.012165
    10  H   -0.000561  -0.000005   0.000001  -0.001795   0.007702   0.000004
    11  C    0.078731   0.036821   0.010336  -0.153851   0.181130   0.001332
    12  H    0.000521  -0.000235   0.000013  -0.020744   0.000683   0.000000
    13  C    0.003889   0.000302   0.008547  -0.875663   0.028836   0.015546
    14  C   -0.000478  -0.000002   0.000388  -0.132202   0.144881  -0.003578
    15  C   -0.001813   0.000174  -0.006971  -0.997596   0.073160   0.003905
    16  C   -0.005427   0.000087   0.004455   1.392665   0.207014  -0.001249
    17  C   -0.003569  -0.000027   0.000736  -0.157480   0.224719  -0.015742
    18  C    0.000968   0.000016  -0.001225   0.254018  -0.125211   0.005607
    19  H    0.000000   0.000000   0.000000  -0.001725   0.002174   0.000000
    20  H    0.000000   0.000000   0.000000   0.000066  -0.000032   0.000000
    21  O    0.000800  -0.000002   0.000023  -0.046150  -0.044605   0.000236
    22  H   -0.000111   0.000002  -0.000006   0.044552  -0.012487  -0.000030
    23  O    0.000174   0.000002  -0.000054   0.039995  -0.018094  -0.000042
    24  H    0.000000   0.000000   0.000000   0.003747  -0.001106   0.000000
    25  O   -0.022279   0.000958   0.001499  -0.096258   0.003649  -0.000080
    26  H    0.032302  -0.000816  -0.000009   0.008085   0.000440   0.000000
    27  C   -0.114806  -0.022770  -0.001530   0.072234  -0.012053   0.000032
    28  H   -0.011558   0.004044  -0.000016   0.000985  -0.000062   0.000000
    29  H    0.004834  -0.000605   0.000003   0.000528  -0.000195   0.000000
    30  H    0.008001   0.000066   0.000035   0.003382  -0.000491   0.000000
    31  O    8.348781   0.247981  -0.000360   0.002187  -0.000171   0.000000
    32  H    0.247981   0.327296  -0.000010   0.001407   0.000064   0.000000
    33  H   -0.000360  -0.000010   0.564045  -0.019834  -0.010929  -0.000033
    34  C    0.002187   0.001407  -0.019834  11.269075  -2.614276  -0.187155
    35  C   -0.000171   0.000064  -0.010929  -2.614276   8.873372   0.542095
    36  H    0.000000   0.000000  -0.000033  -0.187155   0.542095   0.539320
    37  H    0.000001   0.000000   0.000001  -0.240009   0.597851  -0.036056
    38  C    0.000917  -0.000114  -0.025019  -0.003148  -1.501616  -0.033918
    39  H   -0.000301   0.000000   0.001056  -0.106078   0.010738   0.000186
    40  H    0.000010   0.000000   0.000001  -0.104138  -0.090112   0.003239
    41  H    0.000169   0.000003   0.000253  -0.137312  -0.058855   0.000112
    42  C   -0.000022   0.000000   0.000018  -0.017431  -0.004304  -0.000020
    43  H    0.000000   0.000000   0.000000   0.000072  -0.000047   0.000000
    44  H    0.000000   0.000000   0.000000   0.000073  -0.000002   0.000000
    45  C    0.000000   0.000000   0.000000   0.001749   0.000170  -0.000028
    46  H    0.000000   0.000000   0.000000   0.000067  -0.000040   0.000000
    47  H    0.000000   0.000000   0.000000  -0.000177   0.000111   0.000000
    48  H    0.000000   0.000000   0.000000  -0.000540   0.000306   0.000000
             37         38         39         40         41         42
     1  C    0.000928  -0.045093  -0.000610   0.002888  -0.031246  -0.014232
     2  C   -0.003128  -0.010224   0.011168  -0.005059   0.015086  -0.000547
     3  H    0.000000   0.000318   0.000079  -0.000002   0.000088   0.000001
     4  H   -0.000001   0.012146  -0.000762   0.000150  -0.001179  -0.000007
     5  C    0.000187   0.034074  -0.029405   0.003623   0.004333   0.003028
     6  H   -0.000008   0.017251   0.000032   0.000001  -0.000029   0.000002
     7  C   -0.045511   0.250245   0.040536  -0.005580   0.020843  -0.007714
     8  H    0.003626  -0.034908  -0.000036  -0.000117  -0.000169  -0.001048
     9  C    0.039465  -0.384275  -0.010901  -0.000195  -0.026719  -0.178781
    10  H   -0.000080   0.009991   0.000000   0.000002  -0.000024  -0.000627
    11  C   -0.001605  -0.374651   0.002046  -0.012661   0.030884  -0.093022
    12  H    0.000001  -0.004114   0.000001   0.000000   0.000012   0.001184
    13  C   -0.005051   0.320342   0.004212   0.004506  -0.010900  -1.512607
    14  C    0.013388  -0.057294   0.000289   0.000699  -0.001552  -1.166986
    15  C   -0.046348   0.264619   0.002613   0.001653  -0.002226   0.852577
    16  C    0.069853  -0.812202   0.009262   0.003315  -0.036678  -1.163035
    17  C   -0.007322  -0.215202   0.002608   0.000083  -0.009397   1.062065
    18  C   -0.003420   0.057385  -0.000274   0.000356   0.000753  -0.390520
    19  H   -0.000001   0.000199   0.000000   0.000000   0.000000  -0.020063
    20  H   -0.000001   0.000017   0.000000   0.000000   0.000000  -0.033405
    21  O   -0.000279   0.025805  -0.000281  -0.000157   0.003737  -0.016116
    22  H   -0.000016  -0.005774   0.000064  -0.000031  -0.000577   0.000080
    23  O    0.000385   0.008720  -0.000010   0.000000   0.000033   0.001738
    24  H   -0.000007   0.000235   0.000000   0.000000   0.000000  -0.000955
    25  O    0.000191   0.006184  -0.000042   0.001197  -0.007236  -0.002573
    26  H    0.000000  -0.002809  -0.000056  -0.000013   0.000318  -0.000024
    27  C    0.000177  -0.030260  -0.000511   0.000023  -0.000966   0.000199
    28  H    0.000000   0.000292   0.000000   0.000000   0.000000   0.000001
    29  H    0.000000  -0.000234   0.000000   0.000000   0.000000  -0.000002
    30  H    0.000000  -0.000070   0.000000   0.000000   0.000000  -0.000001
    31  O    0.000001   0.000917  -0.000301   0.000010   0.000169  -0.000022
    32  H    0.000000  -0.000114   0.000000   0.000000   0.000003   0.000000
    33  H    0.000001  -0.025019   0.001056   0.000001   0.000253   0.000018
    34  C   -0.240009  -0.003148  -0.106078  -0.104138  -0.137312  -0.017431
    35  C    0.597851  -1.501616   0.010738  -0.090112  -0.058855  -0.004304
    36  H   -0.036056  -0.033918   0.000186   0.003239   0.000112  -0.000020
    37  H    0.550319  -0.030181  -0.000183   0.000261  -0.000221   0.001757
    38  C   -0.030181   7.646918   0.408500   0.548851   0.595243   0.001469
    39  H   -0.000183   0.408500   0.541984  -0.026981  -0.027356   0.000008
    40  H    0.000261   0.548851  -0.026981   0.552264  -0.028418   0.000074
    41  H   -0.000221   0.595243  -0.027356  -0.028418   0.528461  -0.000046
    42  C    0.001757   0.001469   0.000008   0.000074  -0.000046   7.673018
    43  H    0.000000   0.000011   0.000000   0.000000   0.000000   0.479056
    44  H    0.000000   0.000006   0.000000   0.000000   0.000000   0.490921
    45  C   -0.000074   0.000242   0.000000   0.000000  -0.000001   0.229090
    46  H    0.000000   0.000002   0.000000   0.000000   0.000000  -0.075051
    47  H    0.000001   0.000026   0.000000   0.000000   0.000000  -0.049618
    48  H    0.000000  -0.000013   0.000000   0.000000   0.000000  -0.048386
             43         44         45         46         47         48
     1  C    0.000009   0.000006   0.000097   0.000000   0.000000   0.000003
     2  C   -0.000001   0.000000  -0.000003   0.000000  -0.000001  -0.000001
     3  H    0.000000   0.000000   0.000000   0.000000   0.000000   0.000000
     4  H    0.000000   0.000000   0.000000   0.000000   0.000000   0.000000
     5  C   -0.000001  -0.000006  -0.000028  -0.000001  -0.000001  -0.000003
     6  H    0.000000   0.000000   0.000000   0.000000   0.000000   0.000000
     7  C   -0.000100  -0.000027  -0.002203  -0.000037  -0.000151   0.000094
     8  H    0.000000   0.000000   0.000013   0.000000   0.000000   0.000000
     9  C   -0.000319  -0.000069  -0.004170   0.000009  -0.000242  -0.000111
    10  H    0.000000   0.000000  -0.000014   0.000000   0.000000   0.000000
    11  C    0.000072  -0.000163  -0.001407   0.000003  -0.000131   0.000052
    12  H    0.000000   0.000000   0.000004   0.000000   0.000000   0.000000
    13  C    0.000405  -0.002918  -0.030003   0.000931  -0.009622  -0.000659
    14  C   -0.173273  -0.171637   0.047754  -0.008103   0.053254   0.028680
    15  C   -0.015312   0.021751  -0.008579   0.000914   0.002205  -0.008975
    16  C    0.021217  -0.011589   0.001110   0.003368  -0.017450  -0.004453
    17  C    0.105740  -0.080287  -0.029189   0.010363  -0.118322   0.079652
    18  C   -0.077671   0.093788  -0.001108   0.001964   0.076303  -0.108707
    19  H    0.002204   0.000115   0.001747  -0.000034   0.000246   0.000009
    20  H    0.000111   0.002447   0.003907  -0.000031   0.000012   0.000229
    21  O    0.000031   0.000018  -0.000246  -0.000001  -0.000022   0.000014
    22  H    0.000000   0.000000  -0.000020   0.000000   0.000000   0.000000
    23  O    0.000027  -0.000012  -0.000016  -0.000004   0.000004   0.000051
    24  H    0.000000   0.000002   0.000088   0.000000   0.000000  -0.000001
    25  O    0.000000   0.000000   0.000014   0.000000   0.000000   0.000000
    26  H    0.000000   0.000000   0.000000   0.000000   0.000000   0.000000
    27  C    0.000000  -0.000001   0.000003   0.000000   0.000000   0.000000
    28  H    0.000000   0.000000   0.000000   0.000000   0.000000   0.000000
    29  H    0.000000   0.000000   0.000000   0.000000   0.000000   0.000000
    30  H    0.000000   0.000000   0.000000   0.000000   0.000000   0.000000
    31  O    0.000000   0.000000   0.000000   0.000000   0.000000   0.000000
    32  H    0.000000   0.000000   0.000000   0.000000   0.000000   0.000000
    33  H    0.000000   0.000000   0.000000   0.000000   0.000000   0.000000
    34  C    0.000072   0.000073   0.001749   0.000067  -0.000177  -0.000540
    35  C   -0.000047  -0.000002   0.000170  -0.000040   0.000111   0.000306
    36  H    0.000000   0.000000  -0.000028   0.000000   0.000000   0.000000
    37  H    0.000000   0.000000  -0.000074   0.000000   0.000001   0.000000
    38  C    0.000011   0.000006   0.000242   0.000002   0.000026  -0.000013
    39  H    0.000000   0.000000   0.000000   0.000000   0.000000   0.000000
    40  H    0.000000   0.000000   0.000000   0.000000   0.000000   0.000000
    41  H    0.000000   0.000000  -0.000001   0.000000   0.000000   0.000000
    42  C    0.479056   0.490921   0.229090  -0.075051  -0.049618  -0.048386
    43  H    0.565594  -0.033742  -0.021806  -0.003327  -0.005125   0.004870
    44  H   -0.033742   0.567236  -0.023118  -0.003373   0.004902  -0.005094
    45  C   -0.021806  -0.023118   5.179046   0.425057   0.420143   0.419107
    46  H   -0.003327  -0.003373   0.425057   0.549566  -0.027195  -0.027103
    47  H   -0.005125   0.004902   0.420143  -0.027195   0.541139  -0.028785
    48  H    0.004870  -0.005094   0.419107  -0.027103  -0.028785   0.541776
 Mulliken atomic charges:
              1
     1  C    0.142656
     2  C   -0.341050
     3  H    0.154126
     4  H    0.165687
     5  C   -0.450095
     6  H    0.160796
     7  C   -0.020502
     8  H    0.152271
     9  C    0.360965
    10  H    0.168236
    11  C   -0.290086
    12  H    0.146192
    13  C    0.717276
    14  C   -0.042596
    15  C    0.490142
    16  C   -0.743301
    17  C   -0.773056
    18  C   -0.139137
    19  H    0.145361
    20  H    0.147548
    21  O   -0.643307
    22  H    0.505391
    23  O   -0.598796
    24  H    0.447547
    25  O   -0.741100
    26  H    0.457011
    27  C   -0.318011
    28  H    0.166487
    29  H    0.160618
    30  H    0.174751
    31  O   -0.630918
    32  H    0.420034
    33  H    0.154597
    34  C    0.522436
    35  C   -0.539038
    36  H    0.145053
    37  H    0.141110
    38  C   -0.638889
    39  H    0.168403
    40  H    0.150265
    41  H    0.180778
    42  C    0.000856
    43  H    0.151305
    44  H    0.150775
    45  C   -0.607327
    46  H    0.152057
    47  H    0.158495
    48  H    0.157985
 Sum of Mulliken atomic charges =   0.00000
 Mulliken charges with hydrogens summed into heavy atoms:
              1
     1  C    0.142656
     2  C   -0.021236
     5  C   -0.134702
     7  C    0.131769
     9  C    0.529201
    11  C   -0.143895
    13  C    0.717276
    14  C   -0.042596
    15  C    0.490142
    16  C   -0.743301
    17  C   -0.627695
    18  C    0.008411
    21  O   -0.137916
    23  O   -0.151249
    25  O   -0.284089
    27  C    0.183844
    31  O   -0.210884
    34  C    0.522436
    35  C   -0.252875
    38  C   -0.139442
    42  C    0.302936
    45  C   -0.138790
 Sum of Mulliken charges with hydrogens summed into heavy atoms =   0.00000
 Electronic spatial extent (au):  <R**2>=           7159.4547
 Charge=              0.0000 electrons
 Dipole moment (field-independent basis, Debye):
    X=             -3.7793    Y=             -3.7858    Z=             -4.1443  Tot=              6.7669
 Quadrupole moment (field-independent basis, Debye-Ang):
   XX=           -100.9014   YY=           -134.3712   ZZ=           -139.3844
   XY=             -3.1901   XZ=             -4.7225   YZ=              4.9521
 Traceless Quadrupole moment (field-independent basis, Debye-Ang):
   XX=             23.9842   YY=             -9.4855   ZZ=            -14.4987
   XY=             -3.1901   XZ=             -4.7225   YZ=              4.9521
 Octapole moment (field-independent basis, Debye-Ang**2):
  XXX=            -84.7657  YYY=            -17.7490  ZZZ=            -11.6110  XYY=             -8.9862
  XXY=            -43.8195  XXZ=            -11.8010  XZZ=              4.3887  YZZ=            -22.8420
  YYZ=             -8.3596  XYZ=             11.7483
 Hexadecapole moment (field-independent basis, Debye-Ang**3):
 XXXX=          -5813.2997 YYYY=          -1735.0841 ZZZZ=          -1249.5900 XXXY=             42.1209
 XXXZ=            -52.6508 YYYX=            -10.3253 YYYZ=             68.9569 ZZZX=            -94.4035
 ZZZY=             80.1364 XXYY=          -1364.4576 XXZZ=          -1295.8045 YYZZ=           -502.6109
 XXYZ=             69.6442 YYXZ=            -57.6127 ZZXY=            -51.7833
 N-N= 1.990199336907D+03 E-N=-6.313448745840D+03  KE= 9.932057741983D+02

 Test job not archived.
 1\1\GINC-COMPUTE-8-14\SP\RB3LYP\6-31+G(d,p)\C18H26O4\LPASSAGLIA.IQUIR\
 23-Dec-2022\0\\# B3LYP/6-31+G** geom=allcheck test scrf=(pcm,solvent=w
 ater,smd,dovacuum)\\comment\\0,1\C,0,1.923819351,2.338318498,-1.462568
 519\C,0,1.127990014,3.384412801,-0.665714497\H,0,1.709676059,4.3126449
 17,-0.590822013\H,0,0.232452432,3.66861167,-1.229663867\C,0,0.74120105
 7,2.920407986,0.739405831\H,0,1.657338286,2.856557665,1.341517756\C,0,
 0.031905976,1.545924486,0.796774061\H,0,0.18327878,1.220473909,1.83969
 3316\C,0,0.798250153,0.495706633,-0.071269231\H,0,1.788126131,0.441021
 666,0.401829841\C,0,1.173411649,0.980756274,-1.490044997\H,0,1.7903936
 68,0.226611552,-1.994641719\C,0,0.257603679,-0.932114645,0.056749987\C
 ,0,-0.671153301,-3.604468154,0.467506247\C,0,0.758997318,-1.753048567,
 1.090986919\C,0,-0.746645418,-1.493728151,-0.745921843\C,0,-1.20071524
 8,-2.803371081,-0.545982226\C,0,0.312252701,-3.063718988,1.295533833\H
 ,0,-1.986048359,-3.187657058,-1.193944491\H,0,0.720155049,-3.668489065
 ,2.100274708\O,0,-1.390624974,-0.839219988,-1.75652272\H,0,-0.97259856
 2,0.03705093,-1.894789252\O,0,1.714259877,-1.25003153,1.939186147\H,0,
 1.92518016,-1.924597927,2.605382547\O,0,0.016472233,1.155512655,-2.322
 751922\H,0,0.349679543,1.688691988,-3.079291904\C,0,3.362029076,2.2003
 65553,-0.953090683\H,0,3.897245435,3.152753412,-1.044155086\H,0,3.9177
 84319,1.478545162,-1.562479904\H,0,3.418374372,1.882813694,0.091068634
 \O,0,1.997220918,2.795979138,-2.830212536\H,0,2.459266251,3.653808073,
 -2.829235981\H,0,0.129324999,3.690592265,1.224944178\C,0,-1.491316275,
 1.624087511,0.643006975\C,0,-2.285887846,0.881234435,1.437205467\H,0,-
 3.368299446,0.919642301,1.362249787\H,0,-1.876040452,0.190719415,2.168
 595484\C,0,-2.122169361,2.56854325,-0.342178674\H,0,-1.871392445,3.605
 864679,-0.102263631\H,0,-3.216106002,2.499310089,-0.329470726\H,0,-1.8
 10198876,2.355381702,-1.364107709\C,0,-1.18272183,-5.004064529,0.68348
 2428\H,0,-1.478711984,-5.441725729,-0.277732027\H,0,-0.373799264,-5.63
 7165183,1.068051462\C,0,-2.360144678,-5.033775123,1.646028596\H,0,-2.7
 1024112,-6.0616345,1.783988462\H,0,-3.197738585,-4.437853382,1.2678465
 64\H,0,-2.081135458,-4.635680709,2.627546928\\Version=EM64L-G09RevC.01
 \State=1-A\HF=-1002.5453843\RMSD=4.668e-09\Dipole=2.1327142,1.1948772,
 1.0543493\Quadrupole=-5.1464483,12.1799154,-7.0334671,5.4904744,0.0410
 053,-11.4524485\PG=C01 [X(C18H26O4)]\\@


 The cat could very well be man's best friend
 but would never stoop to admitting it.
                               -- Doug Larson
 Job cpu time:  0 days  1 hours 59 minutes 29.8 seconds.
 File lengths (MBytes):  RWF=    239 Int=      0 D2E=      0 Chk=     19 Scr=      1
 Normal termination of Gaussian 09 at Fri Dec 23 15:33:00 2022.
