 Entering Gaussian System, Link 0=g09
 Input=/home/lpassaglia.iquir/Link1/04_RSSR_THC_006.gjc
 Output=/home/lpassaglia.iquir/Link1/04_RSSR_THC_006.log
 Initial command:
 /share/apps/Gaussian09/EM64T.SSE4.2-enabled/g09/l1.exe /tmp/Gau-21290.inp -scrdir=/tmp/
 Entering Link 1 = /share/apps/Gaussian09/EM64T.SSE4.2-enabled/g09/l1.exe PID=     21312.
  
 Copyright (c) 1988,1990,1992,1993,1995,1998,2003,2009,2011,
            Gaussian, Inc.  All Rights Reserved.
  
 This is part of the Gaussian(R) 09 program.  It is based on
 the Gaussian(R) 03 system (copyright 2003, Gaussian, Inc.),
 the Gaussian(R) 98 system (copyright 1998, Gaussian, Inc.),
 the Gaussian(R) 94 system (copyright 1995, Gaussian, Inc.),
 the Gaussian 92(TM) system (copyright 1992, Gaussian, Inc.),
 the Gaussian 90(TM) system (copyright 1990, Gaussian, Inc.),
 the Gaussian 88(TM) system (copyright 1988, Gaussian, Inc.),
 the Gaussian 86(TM) system (copyright 1986, Carnegie Mellon
 University), and the Gaussian 82(TM) system (copyright 1983,
 Carnegie Mellon University). Gaussian is a federally registered
 trademark of Gaussian, Inc.
  
 This software contains proprietary and confidential information,
 including trade secrets, belonging to Gaussian, Inc.
  
 This software is provided under written license and may be
 used, copied, transmitted, or stored only in accord with that
 written license.
  
 The following legend is applicable only to US Government
 contracts under FAR:
  
                    RESTRICTED RIGHTS LEGEND
  
 Use, reproduction and disclosure by the US Government is
 subject to restrictions as set forth in subparagraphs (a)
 and (c) of the Commercial Computer Software - Restricted
 Rights clause in FAR 52.227-19.
  
 Gaussian, Inc.
 340 Quinnipiac St., Bldg. 40, Wallingford CT 06492
  
  
 ---------------------------------------------------------------
 Warning -- This program may not be used in any manner that
 competes with the business of Gaussian, Inc. or will provide
 assistance to any competitor of Gaussian, Inc.  The licensee
 of this program is prohibited from giving any competitor of
 Gaussian, Inc. access to this program.  By using this program,
 the user acknowledges that Gaussian, Inc. is engaged in the
 business of creating and licensing software in the field of
 computational chemistry and represents and warrants to the
 licensee that it is not a competitor of Gaussian, Inc. and that
 it will not use this program in any manner prohibited above.
 ---------------------------------------------------------------
  

 Cite this work as:
 Gaussian 09, Revision C.01,
 M. J. Frisch, G. W. Trucks, H. B. Schlegel, G. E. Scuseria, 
 M. A. Robb, J. R. Cheeseman, G. Scalmani, V. Barone, B. Mennucci, 
 G. A. Petersson, H. Nakatsuji, M. Caricato, X. Li, H. P. Hratchian, 
 A. F. Izmaylov, J. Bloino, G. Zheng, J. L. Sonnenberg, M. Hada, 
 M. Ehara, K. Toyota, R. Fukuda, J. Hasegawa, M. Ishida, T. Nakajima, 
 Y. Honda, O. Kitao, H. Nakai, T. Vreven, J. A. Montgomery, Jr., 
 J. E. Peralta, F. Ogliaro, M. Bearpark, J. J. Heyd, E. Brothers, 
 K. N. Kudin, V. N. Staroverov, T. Keith, R. Kobayashi, J. Normand, 
 K. Raghavachari, A. Rendell, J. C. Burant, S. S. Iyengar, J. Tomasi, 
 M. Cossi, N. Rega, J. M. Millam, M. Klene, J. E. Knox, J. B. Cross, 
 V. Bakken, C. Adamo, J. Jaramillo, R. Gomperts, R. E. Stratmann, 
 O. Yazyev, A. J. Austin, R. Cammi, C. Pomelli, J. W. Ochterski, 
 R. L. Martin, K. Morokuma, V. G. Zakrzewski, G. A. Voth, 
 P. Salvador, J. J. Dannenberg, S. Dapprich, A. D. Daniels, 
 O. Farkas, J. B. Foresman, J. V. Ortiz, J. Cioslowski, 
 and D. J. Fox, Gaussian, Inc., Wallingford CT, 2010.
 
 ******************************************
 Gaussian 09:  EM64L-G09RevC.01 23-Sep-2011
                23-Dec-2022 
 ******************************************
 %chk=04_RSSR_THC_006_optB_NMR
 %nprocshared=4
 Will use up to    4 processors via shared memory.
 ------------------------------------------------
 # mPW1PW91/6-31+G** scrf=(PCM,solvent=water) nmr
 ------------------------------------------------
 1/38=1/1;
 2/12=2,17=6,18=5,40=1/2;
 3/5=1,6=6,7=111,11=2,16=1,25=1,30=1,70=2201,72=1,74=-7/1,2,8,3;
 4//1;
 5/5=2,38=5,53=1/2;
 8/6=1,10=90,11=11/1;
 10/13=100,45=16/2;
 6/7=2,8=2,9=2,10=2,28=1/1;
 99/9=1/99;
 -------
 comment
 -------
 Charge =  0 Multiplicity = 1
 Symbolic Z-Matrix:
 6                     1.70662   2.44351  -1.63727 
 6                     1.03079   3.45225  -0.70314 
 1                     1.62159   4.3766   -0.66347 
 1                     0.04747   3.73314  -1.09393 
 6                     0.8898    2.92761   0.72255 
 1                     1.89176   2.88288   1.17088 
 6                     0.2507    1.52787   0.83748 
 1                     0.49577   1.22501   1.86434 
 6                     0.95196   0.49795  -0.11376 
 1                     2.00248   0.428     0.21057 
 6                     1.02549   1.05439  -1.5591 
 1                     0.02966   1.12522  -2.00339 
 6                     0.42141  -0.93549   0.08059 
 6                    -0.65848  -3.51943   0.66338 
 6                     0.6384   -1.57961   1.31721 
 6                    -0.29361  -1.67352  -0.87466 
 6                    -0.84955  -2.92438  -0.58459 
 6                     0.10464  -2.83985   1.61366 
 1                    -1.4167   -3.43878  -1.35737 
 1                     0.27443  -3.29693   2.58427 
 8                    -0.46102  -1.26972  -2.16941 
 1                     0.41935  -0.94516  -2.46463 
 8                     1.41066  -0.95883   2.26598 
 1                     1.50442  -1.55067   3.02977 
 8                     1.78043   0.13112  -2.37613 
 1                     2.71371   0.29161  -2.11813 
 6                     1.71338   2.97624  -3.07519 
 1                     0.69729   3.08103  -3.46916 
 1                     2.2801    2.31723  -3.74211 
 1                     2.20422   3.95516  -3.12435 
 8                     3.08066   2.27423  -1.24452 
 1                     3.50811   3.14879  -1.27768 
 1                     0.32644   3.65399   1.32193 
 6                    -1.28284   1.56844   0.79685 
 6                    -2.03748   1.941    -0.25038 
 1                    -3.12284   1.9304   -0.19073 
 1                    -1.62947   2.25396  -1.20102 
 6                    -1.95955   1.14423   2.07888 
 1                    -1.70041   0.1106    2.32688 
 1                    -3.05124   1.20274   2.01244 
 1                    -1.64481   1.79167   2.90404 
 6                    -1.26942  -4.85975   0.97551 
 1                    -1.32288  -5.46425   0.06185 
 1                    -0.61856  -5.41074   1.66532 
 6                    -2.65783  -4.71932   1.58061 
 1                    -3.07775  -5.70659   1.79751 
 1                    -3.3394   -4.20359   0.89561 
 1                    -2.62792  -4.15024   2.51601 
 
                          Input orientation:                          
 ---------------------------------------------------------------------
 Center     Atomic      Atomic             Coordinates (Angstroms)
 Number     Number       Type             X           Y           Z
 ---------------------------------------------------------------------
      1          6           0        1.706617    2.443512   -1.637273
      2          6           0        1.030794    3.452251   -0.703138
      3          1           0        1.621589    4.376603   -0.663467
      4          1           0        0.047474    3.733142   -1.093933
      5          6           0        0.889795    2.927608    0.722549
      6          1           0        1.891756    2.882876    1.170881
      7          6           0        0.250704    1.527865    0.837484
      8          1           0        0.495775    1.225009    1.864342
      9          6           0        0.951964    0.497952   -0.113759
     10          1           0        2.002478    0.428004    0.210566
     11          6           0        1.025490    1.054390   -1.559102
     12          1           0        0.029658    1.125218   -2.003394
     13          6           0        0.421408   -0.935488    0.080586
     14          6           0       -0.658483   -3.519426    0.663376
     15          6           0        0.638404   -1.579607    1.317215
     16          6           0       -0.293612   -1.673524   -0.874660
     17          6           0       -0.849554   -2.924384   -0.584593
     18          6           0        0.104644   -2.839853    1.613657
     19          1           0       -1.416697   -3.438779   -1.357367
     20          1           0        0.274432   -3.296929    2.584268
     21          8           0       -0.461017   -1.269725   -2.169407
     22          1           0        0.419349   -0.945161   -2.464629
     23          8           0        1.410660   -0.958834    2.265978
     24          1           0        1.504422   -1.550669    3.029773
     25          8           0        1.780432    0.131118   -2.376128
     26          1           0        2.713714    0.291608   -2.118127
     27          6           0        1.713377    2.976243   -3.075193
     28          1           0        0.697292    3.081028   -3.469165
     29          1           0        2.280098    2.317234   -3.742114
     30          1           0        2.204218    3.955155   -3.124354
     31          8           0        3.080660    2.274225   -1.244519
     32          1           0        3.508106    3.148793   -1.277679
     33          1           0        0.326439    3.653991    1.321934
     34          6           0       -1.282841    1.568441    0.796853
     35          6           0       -2.037480    1.941000   -0.250384
     36          1           0       -3.122836    1.930397   -0.190727
     37          1           0       -1.629468    2.253959   -1.201018
     38          6           0       -1.959545    1.144230    2.078884
     39          1           0       -1.700412    0.110604    2.326877
     40          1           0       -3.051237    1.202742    2.012440
     41          1           0       -1.644810    1.791671    2.904036
     42          6           0       -1.269418   -4.859747    0.975514
     43          1           0       -1.322879   -5.464250    0.061854
     44          1           0       -0.618560   -5.410740    1.665322
     45          6           0       -2.657831   -4.719320    1.580605
     46          1           0       -3.077748   -5.706594    1.797513
     47          1           0       -3.339399   -4.203595    0.895610
     48          1           0       -2.627924   -4.150242    2.516015
 ---------------------------------------------------------------------
                    Distance matrix (angstroms):
                    1          2          3          4          5
     1  C    0.000000
     2  C    1.531959   0.000000
     3  H    2.166188   1.097743   0.000000
     4  H    2.170511   1.094777   1.754190   0.000000
     5  C    2.543680   1.525685   2.134514   2.158239   0.000000
     6  H    2.848341   2.139484   2.380975   3.041992   1.098603
     7  C    3.013721   2.585598   3.499641   2.938523   1.543025
     8  H    3.900281   3.440757   4.194022   3.904241   2.087531
     9  C    2.583757   3.013547   3.974232   3.499328   2.570313
    10  H    2.750330   3.305313   4.062074   4.055575   2.783561
    11  C    1.549099   2.546064   3.492077   2.889396   2.955214
    12  H    2.164286   2.847459   3.860202   2.762010   3.379232
    13  C    4.002554   4.498647   5.496577   4.828605   3.943985
    14  C    6.814933   7.302417   8.325054   7.495749   6.630604
    15  C    5.104465   5.436487   6.353440   5.864140   4.553220
    16  C    4.640311   5.296890   6.349539   5.421850   5.012180
    17  C    6.037918   6.649153   7.708255   6.736968   6.243378
    18  C    6.406934   6.768742   7.717749   7.109049   5.888475
    19  H    6.665943   7.341970   8.413851   7.324592   7.083562
    20  H    7.268097   7.545234   8.440718   7.937416   6.526066
    21  O    4.332428   5.164543   6.203719   5.142361   5.273112
    22  H    3.718156   4.776395   5.745497   4.889132   5.037635
    23  O    5.186417   5.330818   6.090405   5.929748   4.214013
    24  H    6.146192   6.260045   6.984719   6.859031   5.075038
    25  O    2.428688   3.793519   4.580676   4.197826   4.267950
    26  H    2.424078   3.850205   4.471684   4.472355   4.283062
    27  C    1.533448   2.513791   2.790315   2.696946   3.886321
    28  H    2.186548   2.810682   3.225645   2.547399   4.198936
    29  H    2.185220   3.476263   3.762009   3.741960   4.715795
    30  H    2.178091   2.737174   2.563794   2.970428   4.193116
    31  O    1.439065   2.425447   2.624215   3.369174   3.015984
    32  H    1.967762   2.561105   2.333178   3.514427   3.302330
    33  H    3.482392   2.153539   2.478184   2.433208   1.097390
    34  C    3.953173   3.339404   4.295815   3.167135   2.563826
    35  C    4.024208   3.450097   4.414929   2.875827   3.238663
    36  H    5.067485   4.453229   5.358823   3.757198   4.234349
    37  H    3.369824   2.959861   3.919688   2.238656   3.240463
    38  C    5.379471   4.691347   5.549167   4.560413   3.624752
    39  H    5.724054   5.273242   6.178722   5.280135   4.149525
    40  H    6.123486   5.394221   6.250534   5.065026   4.491182
    41  H    5.681589   4.788328   5.484371   4.755722   3.531779
    42  C    8.307890   8.786248   9.816025   8.936137   8.085115
    43  H    8.636990   9.253593  10.297494   9.370471   8.703777
    44  H    8.831923   9.321083  10.306969   9.574323   8.525961
    45  C    8.983836   9.251812  10.299763   9.269086   8.473336
    46  H   10.055453  10.344942  11.393466  10.355486   9.562761
    47  H    8.721342   8.959161  10.033042   8.855562   8.292774
    48  H    8.917155   9.030342  10.043633   9.073986   8.104742
                    6          7          8          9         10
     6  H    0.000000
     7  C    2.154126   0.000000
     8  H    2.275560   1.098280   0.000000
     9  C    2.867294   1.567594   2.156294   0.000000
    10  H    2.638344   2.161350   2.374941   1.101662   0.000000
    11  C    3.398027   2.562830   3.468382   1.550498   2.116267
    12  H    4.078332   2.877772   3.896999   2.194272   3.046267
    13  C    4.234450   2.582662   2.802688   1.540782   2.091838
    14  C    6.910191   5.131480   5.028349   4.397363   4.782045
    15  C    4.637462   3.168097   2.861042   2.542097   2.667559
    16  C    5.451684   3.671051   4.065312   2.616436   3.296387
    17  C    6.657382   4.801604   5.002465   3.896092   4.472681
    18  C    6.011609   4.438552   4.091323   3.852643   4.031045
    19  H    7.569757   5.680243   5.982297   4.759723   5.394552
    20  H    6.542430   5.131322   4.584235   4.705265   4.742967
    21  O    5.825561   4.168267   4.838416   3.057267   3.823004
    22  H    5.480765   4.128953   4.843084   2.809420   3.398315
    23  O    4.023608   3.093504   2.401561   2.827680   2.549174
    24  H    4.823051   3.981873   3.174899   3.792605   3.480106
    25  O    4.490639   3.823386   4.563828   2.437056   2.613127
    26  H    4.267067   4.041088   4.653015   2.676534   2.438703
    27  C    4.250845   4.421114   5.380369   3.935958   4.168130
    28  H    4.795418   4.599889   5.650815   4.242156   4.720431
    29  H    4.960674   5.070923   5.984072   4.270678   4.389754
    30  H    4.438069   5.040249   5.937976   4.752271   4.858311
    31  O    2.760092   3.591718   4.177021   2.994180   2.586171
    32  H    2.945971   4.208561   4.758926   3.862063   3.447387
    33  H    1.751471   2.181934   2.494561   3.523220   3.801478
    34  C    3.456256   1.534620   2.102606   2.639984   3.526705
    35  C    4.283226   2.567085   3.376698   3.322323   4.338536
    36  H    5.282739   3.549651   4.220809   4.319933   5.356031
    37  H    4.291906   2.866662   3.869344   3.305977   4.303221
    38  C    4.322023   2.563875   2.465999   3.701654   4.438606
    39  H    4.682466   2.834392   2.505808   3.625168   4.276787
    40  H    5.288123   3.519807   3.550172   4.587272   5.420978
    41  H    4.086791   2.816595   2.446257   4.186172   4.734668
    42  C    8.365369   6.567451   6.397669   5.901355   6.265043
    43  H    9.013231   7.208845   7.162587   6.383855   6.767479
    44  H    8.679299   7.041675   6.731606   6.367442   6.563314
    45  C    8.869047   6.931027   6.735042   6.566690   7.077460
    46  H    9.943220   8.021076   7.798824   7.641199   8.121600
    47  H    8.812425   6.763273   6.716900   6.445088   7.103284
    48  H    8.467683   6.583683   6.251040   6.429387   6.907681
                   11         12         13         14         15
    11  C    0.000000
    12  H    1.092746   0.000000
    13  C    2.648226   2.956848   0.000000
    14  C    5.356767   5.399807   2.860514   0.000000
    15  C    3.919307   4.325863   1.411109   2.423287   0.000000
    16  C    3.106446   3.035046   1.403013   2.430234   2.383651
    17  C    4.505119   4.380101   2.452247   1.395711   2.763932
    18  C    5.106807   5.367539   2.465209   1.395428   1.400356
    19  H    5.117962   4.831083   3.422398   2.159814   3.851409
    20  H    6.055211   6.376672   3.444769   2.147012   2.164970
    21  O    2.825541   2.450321   2.439847   3.622817   3.668962
    22  H    2.277189   2.156633   2.545234   4.192013   3.840944
    23  O    4.339661   4.947522   2.398980   3.661464   1.371820
    24  H    5.298441   5.887960   3.201418   3.762180   1.919292
    25  O    1.445649   2.047529   3.003338   5.339790   4.227480
    26  H    1.935057   2.812868   3.405110   5.799349   4.428310
    27  C    2.542683   2.722123   5.189389   7.861063   6.419079
    28  H    2.804161   2.533656   5.367424   7.904556   6.680899
    29  H    2.816800   3.083590   5.352379   7.881002   6.593735
    30  H    3.500551   3.740830   6.112973   8.855016   7.267248
    31  O    2.410536   3.347345   4.373761   7.154554   5.232506
    32  H    3.260231   4.089146   5.296596   8.098968   6.109535
    33  H    3.942964   4.188147   4.755342   7.270604   5.242890
    34  C    3.338138   3.124177   3.112421   5.127770   3.724536
    35  C    3.446826   2.830478   3.798665   5.705510   4.691737
    36  H    4.455159   3.724553   4.566024   6.041779   5.361058
    37  H    2.935301   2.161148   4.002646   6.144164   5.116734
    38  C    4.706745   4.541177   3.739968   5.044414   3.840413
    39  H    4.839639   4.772194   3.262246   4.126738   3.057170
    40  H    5.421957   5.062099   4.512577   5.462977   4.673142
    41  H    5.252969   5.227894   4.436048   5.848175   4.369964
    42  C    6.831390   6.810382   4.365730   1.505700   3.809969
    43  H    7.115828   7.036740   4.853100   2.141400   4.529130
    44  H    7.409299   7.523192   4.860124   2.140692   4.047063
    45  C    7.533946   7.363849   5.103838   2.505684   4.559862
    46  H    8.591526   8.412879   6.160794   3.452943   5.574271
    47  H    7.261148   6.939094   5.048610   2.776569   4.783930
    48  H    7.552629   7.437626   5.056124   2.776491   4.325990
                   16         17         18         19         20
    16  C    0.000000
    17  C    1.399236   0.000000
    18  C    2.776807   2.397905   0.000000
    19  H    2.147196   1.087857   3.391192   0.000000
    20  H    3.862940   3.382871   1.086201   4.291448   0.000000
    21  O    1.366546   2.323896   4.134833   2.505500   5.219949
    22  H    1.888605   3.010311   4.507917   3.288651   5.571640
    23  O    3.644027   4.134938   2.381057   5.222328   2.618972
    24  H    4.300305   4.526803   2.372079   5.598652   2.181921
    25  O    3.132539   4.411634   5.249126   4.899355   6.214908
    26  H    3.801574   5.038969   5.526256   5.617370   6.398455
    27  C    5.521837   6.898485   7.642009   7.341716   8.570458
    28  H    5.506279   6.839478   7.825800   7.171926   8.803477
    29  H    5.547290   6.873079   7.746769   7.244653   8.692792
    30  H    6.556090   7.943801   8.545706   8.420424   9.428954
    31  O    5.206461   6.550391   6.571121   7.271683   7.319310
    32  H    6.153879   7.506866   7.470425   8.225335   8.180380
    33  H    5.795853   6.949304   6.504176   7.779754   7.064806
    34  C    3.779268   4.720340   4.693116   5.452599   5.412188
    35  C    4.061475   5.019445   5.560567   5.527459   6.388747
    36  H    4.632550   5.375113   6.035538   5.753260   6.823999
    37  H    4.161267   5.272901   6.072599   5.698858   6.983236
    38  C    4.408911   4.987967   4.511123   5.753823   4.996995
    39  H    3.925817   4.290894   3.531586   5.123697   3.946839
    40  H    4.920645   5.350248   5.144044   5.964146   5.624420
    41  H    5.302062   5.919809   5.116315   6.750496   5.447898
    42  C    3.811477   2.521081   2.524925   2.735540   2.722859
    43  H    4.038076   2.663241   3.366508   2.474980   3.689343
    44  H    4.530329   3.361167   2.671171   3.696255   2.471860
    45  C    4.571076   3.343613   3.341371   3.436842   3.410088
    46  H    5.581897   4.287187   4.287147   4.225558   4.202687
    47  H    4.337272   3.166498   3.773171   3.059025   4.090646
    48  H    4.804146   3.778769   3.162009   4.120235   3.025966
                   21         22         23         24         25
    21  O    0.000000
    22  H    0.983638   0.000000
    23  O    4.824155   4.833376   0.000000
    24  H    5.565371   5.633159   0.970795   0.000000
    25  O    2.651262   1.737456   4.782665   5.668188   0.000000
    26  H    3.538263   2.629405   4.741512   5.599755   0.981497
    27  C    4.855582   4.174290   6.641127   7.603104   2.930516
    28  H    4.686160   4.158911   7.051329   8.021239   3.327145
    29  H    4.780522   3.967061   6.898240   7.837142   2.625773
    30  H    5.942624   5.256814   7.337077   8.287164   3.919528
    31  O    5.094946   4.351516   5.056201   5.948438   2.750280
    32  H    6.006031   5.264002   5.816303   6.682352   3.646616
    33  H    6.087078   5.958094   4.831657   5.602932   5.310405
    34  C    4.186797   4.455660   3.974971   4.741689   4.638680
    35  C    4.059142   4.389626   5.160503   5.957874   4.729791
    36  H    4.608821   5.097699   5.910638   6.625780   5.661751
    37  H    3.836587   4.003590   5.620007   6.495849   4.185064
    38  C    5.110845   5.537888   3.976954   4.490628   5.904318
    39  H    4.863946   5.344769   3.290315   3.677615   5.851065
    40  H    5.505467   6.058267   4.964395   5.419434   6.614600
    41  H    6.042626   6.369738   4.160324   4.593986   6.509214
    42  C    4.840692   5.478184   4.905633   4.781649   6.741203
    43  H    4.828600   5.462659   5.712195   5.667301   6.847075
    44  H    5.646058   6.170506   4.929299   4.611826   7.266407
    45  C    5.548720   6.330658   5.582438   5.428148   7.673374
    46  H    6.501503   7.284696   6.550305   6.307651   8.666030
    47  H    5.127085   6.003065   5.913497   5.920750   7.463691
    48  H    5.911518   6.660723   5.153423   4.908974   7.854726
                   26         27         28         29         30
    26  H    0.000000
    27  C    3.020581   0.000000
    28  H    3.697584   1.094817   0.000000
    29  H    2.632207   1.095559   1.778527   0.000000
    30  H    3.833230   1.096181   1.775900   1.752191   0.000000
    31  O    2.197410   2.390326   3.358634   2.623115   2.669729
    32  H    3.082355   2.545954   3.564811   2.876271   2.400115
    33  H    5.370169   4.660221   4.839467   5.590017   4.835930
    34  C    5.108803   5.094307   4.940420   5.818715   5.764707
    35  C    5.364961   4.808347   4.374836   5.565538   5.505318
    36  H    6.361275   5.727381   5.163863   6.477167   6.409627
    37  H    4.853364   3.899850   3.352960   4.663247   4.614156
    38  C    6.338866   6.588713   6.449094   7.296200   7.232697
    39  H    6.267004   7.003442   6.940209   7.585930   7.729336
    40  H    7.150273   7.192416   6.901262   7.923390   7.847435
    41  H    6.816821   6.959296   6.911264   7.736436   7.472427
    42  C    7.209190   9.311714   9.310157   9.293230  10.323641
    43  H    7.360456   9.502728   9.464194   9.380997  10.550713
    44  H    7.611525   9.912209  10.010222   9.867328  10.891697
    45  C    8.224568  10.000280   9.879396  10.110765  11.001031
    46  H    9.211498  11.049425  10.918385  11.125457  12.061233
    47  H    8.119707   9.635761   9.402758   9.777957  10.651620
    48  H    8.350953  10.044664   9.958449  10.250907  10.993672
                   31         32         33         34         35
    31  O    0.000000
    32  H    0.974001   0.000000
    33  H    4.009510   4.139591   0.000000
    34  C    4.868827   5.454756   2.686078   0.000000
    35  C    5.224434   5.767809   3.315817   1.343498   0.000000
    36  H    6.301751   6.829007   4.142031   2.119412   1.087046
    37  H    4.710372   5.215483   3.485821   2.140461   1.080797
    38  C    6.142115   6.721606   3.478161   1.510459   2.463008
    39  H    6.347817   7.025103   4.204002   2.154212   3.179031
    40  H    7.025384   7.591901   4.230144   2.176835   2.587102
    41  H    6.306619   6.773556   3.139603   2.149668   3.182272
    42  C    8.645536   9.593660   8.668939   6.430684   6.952906
    43  H    8.998987   9.965805   9.351491   7.071108   7.446199
    44  H    9.011664   9.947674   9.120323   7.064310   7.728606
    45  C    9.477409  10.396911   8.892982   6.483888   6.935216
    46  H   10.529645  11.456358   9.971721   7.559705   7.985095
    47  H    9.368002  10.279548   8.681116   6.128261   6.384696
    48  H    9.381009  10.262499   8.429718   6.121119   6.716012
                   36         37         38         39         40
    36  H    0.000000
    37  H    1.831810   0.000000
    38  C    2.668790   3.478248   0.000000
    39  H    3.416617   4.128565   1.094090   0.000000
    40  H    2.321326   3.667805   1.095276   1.765323   0.000000
    41  H    3.432399   4.131031   1.095041   1.778255   1.766300
    42  C    7.134517   7.447935   6.143406   5.168783   6.403426
    43  H    7.614752   7.826851   6.938715   6.029250   7.158268
    44  H    7.975501   8.245329   6.703500   5.665095   7.055250
    45  C    6.897288   7.577703   5.925969   4.980135   5.950805
    46  H    7.891690   8.628969   6.947182   6.001423   6.912729
    47  H    6.233208   7.001408   5.648306   4.831885   5.528004
    48  H    6.674246   7.471750   5.354367   4.364729   5.393257
                   41         42         43         44         45
    41  H    0.000000
    42  C    6.935523   0.000000
    43  H    7.799361   1.096839   0.000000
    44  H    7.379860   1.096834   1.752152   0.000000
    45  C    6.720914   1.521034   2.154907   2.154963   0.000000
    46  H    7.713734   2.159372   2.480082   2.480446   1.094573
    47  H    6.545886   2.172957   2.520071   3.074512   1.095321
    48  H    6.035181   2.173034   3.074518   2.519936   1.095324
                   46         47         48
    46  H    0.000000
    47  H    1.772258   0.000000
    48  H    1.772235   1.770524   0.000000
 Stoichiometry    C18H26O4
 Framework group  C1[X(C18H26O4)]
 Deg. of freedom   138
 Full point group                 C1      NOp   1
 Largest Abelian subgroup         C1      NOp   1
 Largest concise Abelian subgroup C1      NOp   1
                         Standard orientation:                         
 ---------------------------------------------------------------------
 Center     Atomic      Atomic             Coordinates (Angstroms)
 Number     Number       Type             X           Y           Z
 ---------------------------------------------------------------------
      1          6           0        3.283880   -0.634340    0.061288
      2          6           0        3.601074    0.852236   -0.129446
      3          1           0        4.608130    1.069563    0.249563
      4          1           0        3.612913    1.105122   -1.194549
      5          6           0        2.620123    1.759931    0.606447
      6          1           0        2.801143    1.655549    1.684994
      7          6           0        1.131076    1.456299    0.339099
      8          1           0        0.617262    1.997643    1.144803
      9          6           0        0.810534   -0.064365    0.544493
     10          1           0        1.028701   -0.296864    1.599010
     11          6           0        1.800795   -0.943251   -0.262345
     12          1           0        1.643353   -0.825980   -1.337311
     13          6           0       -0.694204   -0.369284    0.414889
     14          6           0       -3.529306   -0.687354    0.206156
     15          6           0       -1.584394    0.183280    1.360120
     16          6           0       -1.281140   -1.149343   -0.592812
     17          6           0       -2.668434   -1.283034   -0.716922
     18          6           0       -2.973793    0.040559    1.259136
     19          1           0       -3.067305   -1.879635   -1.534480
     20          1           0       -3.630578    0.497520    1.993747
     21          8           0       -0.562119   -1.881983   -1.494863
     22          1           0        0.141789   -2.330953   -0.974784
     23          8           0       -1.076086    0.878188    2.428116
     24          1           0       -1.809213    1.144501    3.006082
     25          8           0        1.548061   -2.332930    0.045584
     26          1           0        1.945243   -2.456883    0.934526
     27          6           0        4.226515   -1.490259   -0.793290
     28          1           0        4.074403   -1.309492   -1.862312
     29          1           0        4.084182   -2.558504   -0.596202
     30          1           0        5.273670   -1.272646   -0.553028
     31          8           0        3.512113   -0.999602    1.434387
     32          1           0        4.439999   -0.792176    1.645765
     33          1           0        2.844635    2.806796    0.365756
     34          6           0        0.615432    2.099419   -0.955337
     35          6           0        1.009020    1.793192   -2.202855
     36          1           0        0.580569    2.297687   -3.065167
     37          1           0        1.746646    1.036301   -2.429009
     38          6           0       -0.427742    3.173164   -0.754477
     39          1           0       -1.312433    2.762138   -0.259084
     40          1           0       -0.756625    3.616199   -1.700619
     41          1           0       -0.023604    3.981095   -0.135581
     42          6           0       -5.021865   -0.823079    0.061313
     43          1           0       -5.263169   -1.790306   -0.396180
     44          1           0       -5.489931   -0.832257    1.053218
     45          6           0       -5.611792    0.302219   -0.774890
     46          1           0       -6.695807    0.179379   -0.863828
     47          1           0       -5.187256    0.311461   -1.784549
     48          1           0       -5.417146    1.279408   -0.319973
 ---------------------------------------------------------------------
 Rotational constants (GHZ):      0.4951203      0.1866396      0.1698437
 Standard basis: 6-31+G(d,p) (6D, 7F)
 There are   548 symmetry adapted basis functions of A   symmetry.
 Integral buffers will be    131072 words long.
 Raffenetti 2 integral format.
 Two-electron integral symmetry is turned on.
   548 basis functions,   886 primitive gaussians,   548 cartesian basis functions
    83 alpha electrons       83 beta electrons
       nuclear repulsion energy      1986.1614473660 Hartrees.
 NAtoms=   48 NActive=   48 NUniq=   48 SFac= 1.00D+00 NAtFMM=   60 NAOKFM=F Big=F
 ------------------------------------------------------------------------------
 Polarizable Continuum Model (PCM)
 =================================
 Model                : PCM.
 Atomic radii         : UFF (Universal Force Field).
 Polarization charges : Total charges.
 Charge compensation  : None.
 Solution method      : Matrix inversion.
 Cavity type          : Scaled VdW (van der Waals Surface) (Alpha=1.100).
 Cavity algorithm     : GePol (No added spheres)
                        Default sphere list used, NSphG=   48.
                        Lebedev-Laikov grids with approx.  5.0 points / Ang**2.
                        Smoothing algorithm: Karplus/York (Gamma=1.0000).
                        Polarization charges: spherical gaussians, with
                                              point-specific exponents (IZeta= 3).
                        Self-potential: point-specific (ISelfS= 7).
                        Self-field    : sphere-specific E.n sum rule (ISelfD= 2).
 Solvent              : Water, Eps=  78.355300 Eps(inf)=   1.777849
 ------------------------------------------------------------------------------
 One-electron integrals computed using PRISM.
 NBasis=   548 RedAO= T  NBF=   548
 NBsUse=   545 1.00D-06 NBFU=   545
 Harris functional with IExCor=  908 diagonalized for initial guess.
 ExpMin= 4.38D-02 ExpMax= 5.48D+03 ExpMxC= 8.25D+02 IAcc=2 IRadAn=         4 AccDes= 0.00D+00
 HarFok:  IExCor=  908 AccDes= 0.00D+00 IRadAn=         4 IDoV= 1
 ScaDFX=  1.000000  1.000000  1.000000  1.000000
 FoFCou: FMM=F IPFlag=           0 FMFlag=      100000 FMFlg1=           0
         NFxFlg=           0 DoJE=T BraDBF=F KetDBF=T FulRan=T
         Omega=  0.000000  0.000000  1.000000  0.000000  0.000000 ICntrl=     500 IOpCl=  0
         NMat0=    1 NMatS0=    1 NMatT0=    0 NMatD0=    1 NMtDS0=    0 NMtDT0=    0
         I1Cent=           4 NGrid=           0.
 Petite list used in FoFCou.
 Initial guess orbital symmetries:
       Occupied  (A) (A) (A) (A) (A) (A) (A) (A) (A) (A) (A) (A)
                 (A) (A) (A) (A) (A) (A) (A) (A) (A) (A) (A) (A)
                 (A) (A) (A) (A) (A) (A) (A) (A) (A) (A) (A) (A)
                 (A) (A) (A) (A) (A) (A) (A) (A) (A) (A) (A) (A)
                 (A) (A) (A) (A) (A) (A) (A) (A) (A) (A) (A) (A)
                 (A) (A) (A) (A) (A) (A) (A) (A) (A) (A) (A) (A)
                 (A) (A) (A) (A) (A) (A) (A) (A) (A) (A) (A)
       Virtual   (A) (A) (A) (A) (A) (A) (A) (A) (A) (A) (A) (A)
                 (A) (A) (A) (A) (A) (A) (A) (A) (A) (A) (A) (A)
                 (A) (A) (A) (A) (A) (A) (A) (A) (A) (A) (A) (A)
                 (A) (A) (A) (A) (A) (A) (A) (A) (A) (A) (A) (A)
                 (A) (A) (A) (A) (A) (A) (A) (A) (A) (A) (A) (A)
                 (A) (A) (A) (A) (A) (A) (A) (A) (A) (A) (A) (A)
                 (A) (A) (A) (A) (A) (A) (A) (A) (A) (A) (A) (A)
                 (A) (A) (A) (A) (A) (A) (A) (A) (A) (A) (A) (A)
                 (A) (A) (A) (A) (A) (A) (A) (A) (A) (A) (A) (A)
                 (A) (A) (A) (A) (A) (A) (A) (A) (A) (A) (A) (A)
                 (A) (A) (A) (A) (A) (A) (A) (A) (A) (A) (A) (A)
                 (A) (A) (A) (A) (A) (A) (A) (A) (A) (A) (A) (A)
                 (A) (A) (A) (A) (A) (A) (A) (A) (A) (A) (A) (A)
                 (A) (A) (A) (A) (A) (A) (A) (A) (A) (A) (A) (A)
                 (A) (A) (A) (A) (A) (A) (A) (A) (A) (A) (A) (A)
                 (A) (A) (A) (A) (A) (A) (A) (A) (A) (A) (A) (A)
                 (A) (A) (A) (A) (A) (A) (A) (A) (A) (A) (A) (A)
                 (A) (A) (A) (A) (A) (A) (A) (A) (A) (A) (A) (A)
                 (A) (A) (A) (A) (A) (A) (A) (A) (A) (A) (A) (A)
                 (A) (A) (A) (A) (A) (A) (A) (A) (A) (A) (A) (A)
                 (A) (A) (A) (A) (A) (A) (A) (A) (A) (A) (A) (A)
                 (A) (A) (A) (A) (A) (A) (A) (A) (A) (A) (A) (A)
                 (A) (A) (A) (A) (A) (A) (A) (A) (A) (A) (A) (A)
                 (A) (A) (A) (A) (A) (A) (A) (A) (A) (A) (A) (A)
                 (A) (A) (A) (A) (A) (A) (A) (A) (A) (A) (A) (A)
                 (A) (A) (A) (A) (A) (A) (A) (A) (A) (A) (A) (A)
                 (A) (A) (A) (A) (A) (A) (A) (A) (A) (A) (A) (A)
                 (A) (A) (A) (A) (A) (A) (A) (A) (A) (A) (A) (A)
                 (A) (A) (A) (A) (A) (A) (A) (A) (A) (A) (A) (A)
                 (A) (A) (A) (A) (A) (A) (A) (A) (A) (A) (A) (A)
                 (A) (A) (A) (A) (A) (A) (A) (A) (A) (A) (A) (A)
                 (A) (A) (A) (A) (A) (A) (A) (A) (A) (A) (A) (A)
                 (A) (A) (A) (A) (A) (A) (A) (A) (A) (A) (A) (A)
                 (A) (A) (A) (A) (A) (A) (A) (A) (A) (A) (A) (A)
                 (A) (A) (A) (A) (A) (A) (A) (A) (A) (A) (A) (A)
                 (A) (A) (A) (A) (A) (A) (A) (A) (A) (A) (A) (A)
                 (A) (A) (A) (A) (A) (A) (A) (A) (A) (A) (A) (A)
                 (A) (A) (A) (A) (A) (A) (A) (A) (A) (A) (A) (A)
                 (A) (A) (A) (A) (A) (A)
 The electronic state of the initial guess is 1-A.
 Requested convergence on RMS density matrix=1.00D-08 within 128 cycles.
 Requested convergence on MAX density matrix=1.00D-06.
 Requested convergence on             energy=1.00D-06.
 No special actions if energy rises.
 CoulSu:  requested number of processors reduced to:   2 ShMem   1 Linda.
 CoulSu:  requested number of processors reduced to:   2 ShMem   1 Linda.
 Error on total polarization charges =  0.01906
 SCF Done:  E(RmPW1PW91) =  -1002.30240126     A.U. after   14 cycles
             Convg  =    0.5302D-08             -V/T =  2.0094
 Range of M.O.s used for correlation:     1   545
 NBasis=   548 NAE=    83 NBE=    83 NFC=     0 NFV=     0
 NROrb=    545 NOA=    83 NOB=    83 NVA=   462 NVB=   462

 **** Warning!!: The largest alpha MO coefficient is  0.15137601D+03

 NEqPCM:  Using equilibrium solvation (IEInf=0, Eps=  78.3553, EpsInf=   1.7778)
          Differentiating once with respect to magnetic field using GIAOs.
          Electric field/nuclear overlap derivatives assumed to be zero.
 FoFCou: FMM=F IPFlag=           0 FMFlag=    10101102 FMFlg1=           0
         NFxFlg=    40000000 DoJE=F BraDBF=F KetDBF=T FulRan=T
         Omega=  0.000000  0.000000  1.000000  0.000000  0.000000 ICntrl=    6100 IOpCl=  0
         NMat0=    1 NMatS0=    1 NMatT0=    0 NMatD0=    1 NMtDS0=    0 NMtDT0=    0
         I1Cent=           7 NGrid=        3000.
 Symmetry not used in FoFCou.
          There are     3 degrees of freedom in the 1st order CPHF.  IDoFFX=0.
      3 vectors produced by pass  0 Test12= 1.28D-12 3.33D-08 XBig12= 6.50D+02 3.79D+00.
 AX will form     3 AO Fock derivatives at one time.
      3 vectors produced by pass  1 Test12= 1.28D-12 3.33D-08 XBig12= 1.67D+00 2.55D-01.
      3 vectors produced by pass  2 Test12= 1.28D-12 3.33D-08 XBig12= 6.54D-03 2.48D-02.
      3 vectors produced by pass  3 Test12= 1.28D-12 3.33D-08 XBig12= 3.03D-05 1.32D-03.
      3 vectors produced by pass  4 Test12= 1.28D-12 3.33D-08 XBig12= 1.02D-07 6.39D-05.
      3 vectors produced by pass  5 Test12= 1.28D-12 3.33D-08 XBig12= 3.81D-10 5.15D-06.
      3 vectors produced by pass  6 Test12= 1.28D-12 3.33D-08 XBig12= 2.06D-12 2.66D-07.
 Inverted reduced A of dimension    21 with in-core refinement.
 Calculating GIAO nuclear magnetic shielding tensors.
 SCF GIAO Magnetic shielding tensor (ppm):
      1  C    Isotropic =   122.5613   Anisotropy =    41.0431
   XX=   107.1519   YX=    -1.6642   ZX=     7.2490
   XY=    -3.3222   YY=   112.8939   ZY=    -9.9781
   XZ=     6.7629   YZ=    -2.1614   ZZ=   147.6380
   Eigenvalues:   105.6395   112.1211   149.9234
      2  C    Isotropic =   158.7857   Anisotropy =    30.1014
   XX=   154.9490   YX=     3.4577   ZX=     0.9916
   XY=     2.0619   YY=   178.5260   ZY=    -2.9979
   XZ=     3.2599   YZ=     1.3980   ZZ=   142.8820
   Eigenvalues:   142.4742   155.0296   178.8533
      3  H    Isotropic =    30.1092   Anisotropy =     9.1423
   XX=    35.7063   YX=     1.1018   ZX=     0.5811
   XY=     2.3879   YY=    29.2599   ZY=     1.5020
   XZ=     0.3507   YZ=     1.1044   ZZ=    25.3615
   Eigenvalues:    24.9656    29.1580    36.2041
      4  H    Isotropic =    29.4074   Anisotropy =     6.0661
   XX=    28.3429   YX=    -1.3794   ZX=    -2.2184
   XY=     0.1666   YY=    28.8337   ZY=    -2.9692
   XZ=    -1.9937   YZ=    -2.8184   ZZ=    31.0456
   Eigenvalues:    25.6578    29.1129    33.4515
      5  C    Isotropic =   167.8053   Anisotropy =    22.9148
   XX=   182.0763   YX=     5.1170   ZX=     6.8631
   XY=     1.7339   YY=   160.4980   ZY=    -0.8607
   XZ=     0.0449   YZ=    -1.3906   ZZ=   160.8416
   Eigenvalues:   158.5305   161.8036   183.0818
      6  H    Isotropic =    29.2791   Anisotropy =     8.0366
   XX=    28.7464   YX=    -0.5075   ZX=     3.0990
   XY=    -0.2438   YY=    26.7034   ZY=     3.5779
   XZ=     2.0867   YZ=     2.6736   ZZ=    32.3874
   Eigenvalues:    24.7576    28.4429    34.6368
      7  C    Isotropic =   151.9789   Anisotropy =    21.4052
   XX=   153.7041   YX=    -2.8890   ZX=    10.2807
   XY=     0.0932   YY=   155.1581   ZY=    -8.0382
   XZ=     8.5298   YZ=   -12.8935   ZZ=   147.0744
   Eigenvalues:   136.7328   152.9548   166.2490
      8  H    Isotropic =    27.9855   Anisotropy =     7.0847
   XX=    29.8176   YX=    -1.8388   ZX=    -2.6948
   XY=    -1.0109   YY=    28.1293   ZY=     1.6513
   XZ=    -4.0957   YZ=     1.4867   ZZ=    26.0097
   Eigenvalues:    23.9124    27.3355    32.7087
      9  C    Isotropic =   149.5215   Anisotropy =    29.1016
   XX=   143.9852   YX=    -5.9143   ZX=    -3.8486
   XY=     4.2055   YY=   168.8903   ZY=    -2.9050
   XZ=     2.7206   YZ=     3.4980   ZZ=   135.6891
   Eigenvalues:   135.6492   143.9928   168.9226
     10  H    Isotropic =    27.9871   Anisotropy =     4.9592
   XX=    30.6605   YX=    -0.7838   ZX=    -1.0977
   XY=    -2.7753   YY=    24.0028   ZY=    -0.6159
   XZ=    -0.2892   YZ=     0.0760   ZZ=    29.2980
   Eigenvalues:    23.5247    29.1434    31.2933
     11  C    Isotropic =   121.4886   Anisotropy =    42.6934
   XX=   117.0071   YX=     5.3847   ZX=    -6.7926
   XY=    11.1565   YY=   146.4729   ZY=    -3.5557
   XZ=    -5.0454   YZ=    -9.8597   ZZ=   100.9857
   Eigenvalues:    98.7023   115.8126   149.9509
     12  H    Isotropic =    26.6214   Anisotropy =     1.8528
   XX=    27.0008   YX=     1.0793   ZX=     0.2094
   XY=     0.1322   YY=    25.8101   ZY=    -0.7766
   XZ=     1.3941   YZ=     0.2231   ZZ=    27.0534
   Eigenvalues:    25.3433    26.6644    27.8566
     13  C    Isotropic =    86.9649   Anisotropy =   120.7081
   XX=    42.6215   YX=    -8.5794   ZX=     8.8046
   XY=    -2.3904   YY=   131.2129   ZY=   -53.2533
   XZ=     4.3282   YZ=   -53.4965   ZZ=    87.0602
   Eigenvalues:    41.4961    51.9616   167.4370
     14  C    Isotropic =    51.5359   Anisotropy =   189.3317
   XX=   -29.0376   YX=   -14.3562   ZX=     0.7824
   XY=   -16.7989   YY=   121.6559   ZY=   -82.0135
   XZ=     3.4921   YZ=   -77.1341   ZZ=    61.9895
   Eigenvalues:   -31.3097     8.1605   177.7571
     15  C    Isotropic =    42.7804   Anisotropy =   125.0368
   XX=    33.4941   YX=   -16.3476   ZX=   -20.0747
   XY=   -16.4131   YY=    78.9820   ZY=   -75.7159
   XZ=    -8.3673   YZ=   -67.6470   ZZ=    15.8653
   Eigenvalues:   -37.0822    39.2852   126.1383
     16  C    Isotropic =    42.0473   Anisotropy =   121.8629
   XX=    17.8570   YX=    27.6726   ZX=    28.5123
   XY=    18.6558   YY=    75.3313   ZY=   -57.3529
   XZ=    21.7217   YZ=   -73.9511   ZZ=    32.9536
   Eigenvalues:   -36.1940    39.0467   123.2892
     17  C    Isotropic =    83.7560   Anisotropy =   108.8444
   XX=    77.5118   YX=   -14.4703   ZX=   -21.6882
   XY=   -17.9763   YY=   105.0930   ZY=   -75.3089
   XZ=   -22.2413   YZ=   -58.7039   ZZ=    68.6631
   Eigenvalues:     6.8851    88.0639   156.3189
     18  C    Isotropic =    89.9206   Anisotropy =    98.1703
   XX=    68.2012   YX=    19.9143   ZX=    31.0222
   XY=    24.0443   YY=   123.5436   ZY=   -47.4164
   XZ=    28.2474   YZ=   -51.6264   ZZ=    78.0169
   Eigenvalues:    18.8151    95.5792   155.3674
     19  H    Isotropic =    24.8176   Anisotropy =     7.5909
   XX=    29.4092   YX=    -0.8563   ZX=    -1.4453
   XY=    -0.5084   YY=    22.5959   ZY=     1.7847
   XZ=    -1.5815   YZ=     1.8152   ZZ=    22.4476
   Eigenvalues:    20.6728    23.9018    29.8782
     20  H    Isotropic =    25.1209   Anisotropy =     6.9796
   XX=    28.1831   YX=     1.8576   ZX=     1.7950
   XY=     1.5983   YY=    22.0548   ZY=     1.5648
   XZ=     1.8657   YZ=     2.1686   ZZ=    25.1249
   Eigenvalues:    21.0706    24.5181    29.7740
     21  O    Isotropic =   239.4004   Anisotropy =    59.4271
   XX=   211.4169   YX=    -8.1146   ZX=   -22.3451
   XY=   -16.4908   YY=   265.0154   ZY=   -34.7252
   XZ=   -18.7756   YZ=   -10.9497   ZZ=   241.7690
   Eigenvalues:   194.2765   244.9063   279.0185
     22  H    Isotropic =    23.9725   Anisotropy =    24.0152
   XX=    31.6223   YX=    -4.4119   ZX=    10.6115
   XY=    -8.4268   YY=    20.0451   ZY=    -0.5068
   XZ=    11.6529   YZ=     0.4344   ZZ=    20.2503
   Eigenvalues:    11.8697    20.0653    39.9827
     23  O    Isotropic =   223.9147   Anisotropy =    40.5934
   XX=   190.9310   YX=     2.0070   ZX=    13.9278
   XY=    28.6510   YY=   236.4763   ZY=    -4.9342
   XZ=    24.8688   YZ=    -0.9930   ZZ=   244.3366
   Eigenvalues:   180.3474   240.4197   250.9769
     24  H    Isotropic =    26.4938   Anisotropy =    15.1925
   XX=    29.7636   YX=    -1.1922   ZX=    -4.9599
   XY=    -1.9786   YY=    20.3371   ZY=     4.6707
   XZ=    -6.3286   YZ=     5.5781   ZZ=    29.3808
   Eigenvalues:    17.9428    24.9165    36.6222
     25  O    Isotropic =   291.3092   Anisotropy =    53.3942
   XX=   274.2235   YX=   -21.6416   ZX=    20.5633
   XY=   -17.6178   YY=   301.1251   ZY=   -13.4453
   XZ=    14.7584   YZ=   -14.0751   ZZ=   298.5790
   Eigenvalues:   260.9883   286.0339   326.9053
     26  H    Isotropic =    28.3286   Anisotropy =    15.2817
   XX=    25.7239   YX=     2.3193   ZX=     6.6960
   XY=    -0.4222   YY=    26.7217   ZY=    -5.1762
   XZ=     7.8668   YZ=    -5.1717   ZZ=    32.5403
   Eigenvalues:    19.1854    27.2841    38.5164
     27  C    Isotropic =   166.2834   Anisotropy =    47.0780
   XX=   164.9804   YX=   -18.0872   ZX=   -15.9063
   XY=   -15.9290   YY=   158.7389   ZY=    14.9731
   XZ=   -11.8527   YZ=    15.3351   ZZ=   175.1308
   Eigenvalues:   144.1696   157.0119   197.6687
     28  H    Isotropic =    30.3945   Anisotropy =     9.7724
   XX=    28.3617   YX=    -1.3404   ZX=    -2.7757
   XY=    -1.2150   YY=    26.7692   ZY=     1.7919
   XZ=    -1.6635   YZ=     0.8857   ZZ=    36.0526
   Eigenvalues:    26.0588    28.2152    36.9095
     29  H    Isotropic =    29.6141   Anisotropy =     8.1262
   XX=    29.6172   YX=    -2.4660   ZX=    -1.6029
   XY=    -1.5461   YY=    33.9042   ZY=     0.7439
   XZ=    -1.5475   YZ=     1.8598   ZZ=    25.3210
   Eigenvalues:    24.7592    29.0516    35.0316
     30  H    Isotropic =    30.6559   Anisotropy =     9.0527
   XX=    36.3437   YX=    -0.9191   ZX=    -0.4542
   XY=    -1.9678   YY=    28.0613   ZY=     0.7069
   XZ=    -1.2253   YZ=     0.9543   ZZ=    27.5626
   Eigenvalues:    26.9402    28.3363    36.6910
     31  O    Isotropic =   271.0932   Anisotropy =    81.6990
   XX=   305.3493   YX=     8.2537   ZX=    37.2873
   XY=    21.1899   YY=   233.6471   ZY=     3.9690
   XZ=    23.8868   YZ=    -8.3016   ZZ=   274.2832
   Eigenvalues:   228.8596   258.8607   325.5592
     32  H    Isotropic =    30.6362   Anisotropy =    17.8943
   XX=    38.8287   YX=     1.9624   ZX=     6.2041
   XY=     1.5502   YY=    23.3917   ZY=    -0.8096
   XZ=     7.4512   YZ=    -0.1707   ZZ=    29.6880
   Eigenvalues:    22.8121    26.5307    42.5657
     33  H    Isotropic =    30.1625   Anisotropy =     9.7044
   XX=    29.8992   YX=     2.2718   ZX=     0.3677
   XY=     2.2972   YY=    35.8021   ZY=     1.0964
   XZ=     0.0816   YZ=     0.3640   ZZ=    24.7863
   Eigenvalues:    24.7370    29.1185    36.6322
     34  C    Isotropic =    42.2905   Anisotropy =   182.2368
   XX=    60.4838   YX=   113.3146   ZX=   -16.4166
   XY=   109.3122   YY=    42.8670   ZY=    27.6915
   XZ=   -12.5255   YZ=    26.5820   ZZ=    23.5208
   Eigenvalues:   -69.5258    32.6157   163.7817
     35  C    Isotropic =    87.2869   Anisotropy =   110.6165
   XX=    92.9037   YX=    72.1249   ZX=   -22.6177
   XY=    75.4719   YY=    81.0837   ZY=    22.9104
   XZ=   -29.8223   YZ=    35.1400   ZZ=    87.8733
   Eigenvalues:    -3.7394   104.5689   161.0312
     36  H    Isotropic =    26.3289   Anisotropy =     5.2190
   XX=    24.6188   YX=     0.1708   ZX=    -1.9300
   XY=     0.5907   YY=    25.0177   ZY=    -0.1043
   XZ=    -0.8312   YZ=    -1.0088   ZZ=    29.3500
   Eigenvalues:    24.1808    24.9976    29.8082
     37  H    Isotropic =    26.4689   Anisotropy =     6.2094
   XX=    24.9181   YX=     0.1244   ZX=     0.1513
   XY=     0.7495   YY=    24.1614   ZY=    -1.4095
   XZ=    -2.6227   YZ=     1.0229   ZZ=    30.3272
   Eigenvalues:    23.9396    24.8586    30.6085
     38  C    Isotropic =   166.3170   Anisotropy =    44.3503
   XX=   166.2875   YX=   -27.1120   ZX=     0.5918
   XY=   -26.1836   YY=   171.7256   ZY=    -3.6780
   XZ=    -2.2827   YZ=    -2.6506   ZZ=   160.9379
   Eigenvalues:   141.8240   161.2431   195.8839
     39  H    Isotropic =    30.3449   Anisotropy =     6.2555
   XX=    32.8980   YX=    -0.4118   ZX=    -3.0469
   XY=     0.2026   YY=    31.2535   ZY=    -1.6041
   XZ=    -2.8847   YZ=    -4.1232   ZZ=    26.8833
   Eigenvalues:    24.5683    31.9512    34.5153
     40  H    Isotropic =    30.1853   Anisotropy =     8.6448
   XX=    28.4932   YX=    -2.9669   ZX=     2.6716
   XY=    -2.3688   YY=    30.8796   ZY=    -4.5128
   XZ=     0.5500   YZ=    -2.8606   ZZ=    31.1831
   Eigenvalues:    26.5532    28.0542    35.9485
     41  H    Isotropic =    29.8004   Anisotropy =     8.2236
   XX=    27.2850   YX=    -0.8286   ZX=     0.4913
   XY=    -0.0004   YY=    34.6770   ZY=     2.8389
   XZ=     0.8492   YZ=     1.4969   ZZ=    27.4391
   Eigenvalues:    26.2717    27.8466    35.2828
     42  C    Isotropic =   163.6671   Anisotropy =    29.7710
   XX=   183.1274   YX=     7.2371   ZX=    -0.9511
   XY=    -3.2509   YY=   152.1206   ZY=     2.3097
   XZ=     5.8390   YZ=     4.8044   ZZ=   155.7534
   Eigenvalues:   149.9374   157.5496   183.5145
     43  H    Isotropic =    29.1034   Anisotropy =     7.4172
   XX=    29.7667   YX=     2.0056   ZX=     1.4223
   XY=     1.9196   YY=    32.4003   ZY=     2.5805
   XZ=    -0.1493   YZ=     1.9711   ZZ=    25.1432
   Eigenvalues:    24.4875    28.7744    34.0482
     44  H    Isotropic =    29.2153   Anisotropy =     7.4591
   XX=    30.5912   YX=     0.3853   ZX=    -2.8529
   XY=     1.9703   YY=    25.1256   ZY=    -1.4988
   XZ=    -2.1794   YZ=    -1.0135   ZZ=    31.9292
   Eigenvalues:    24.7945    28.6635    34.1881
     45  C    Isotropic =   177.2130   Anisotropy =    30.4778
   XX=   181.4157   YX=    -4.8646   ZX=     5.6995
   XY=   -16.5663   YY=   177.1648   ZY=   -10.3207
   XZ=    13.7863   YZ=    -8.0966   ZZ=   173.0583
   Eigenvalues:   165.5123   168.5951   197.5315
     46  H    Isotropic =    30.2561   Anisotropy =    12.0980
   XX=    37.3618   YX=    -0.5945   ZX=     2.1438
   XY=    -2.5916   YY=    26.6436   ZY=    -0.8404
   XZ=     3.5132   YZ=    -0.5583   ZZ=    26.7628
   Eigenvalues:    25.8891    26.5577    38.3214
     47  H    Isotropic =    30.5978   Anisotropy =     7.1584
   XX=    29.5109   YX=    -1.1480   ZX=    -0.3413
   XY=    -1.9379   YY=    27.2840   ZY=    -2.5171
   XZ=     0.1417   YZ=    -0.9061   ZZ=    34.9986
   Eigenvalues:    26.2108    30.2126    35.3701
     48  H    Isotropic =    30.6037   Anisotropy =     7.0215
   XX=    29.1494   YX=    -1.1156   ZX=     1.2071
   XY=    -1.9768   YY=    34.7136   ZY=     2.0794
   XZ=     1.9903   YZ=     0.9676   ZZ=    27.9482
   Eigenvalues:    26.2978    30.2287    35.2848
 End of Minotr Frequency-dependent properties file   721 does not exist.
 End of Minotr Frequency-dependent properties file   722 does not exist.

 **********************************************************************

            Population analysis using the SCF density.

 **********************************************************************

 Orbital symmetries:
       Occupied  (A) (A) (A) (A) (A) (A) (A) (A) (A) (A) (A) (A)
                 (A) (A) (A) (A) (A) (A) (A) (A) (A) (A) (A) (A)
                 (A) (A) (A) (A) (A) (A) (A) (A) (A) (A) (A) (A)
                 (A) (A) (A) (A) (A) (A) (A) (A) (A) (A) (A) (A)
                 (A) (A) (A) (A) (A) (A) (A) (A) (A) (A) (A) (A)
                 (A) (A) (A) (A) (A) (A) (A) (A) (A) (A) (A) (A)
                 (A) (A) (A) (A) (A) (A) (A) (A) (A) (A) (A)
       Virtual   (A) (A) (A) (A) (A) (A) (A) (A) (A) (A) (A) (A)
                 (A) (A) (A) (A) (A) (A) (A) (A) (A) (A) (A) (A)
                 (A) (A) (A) (A) (A) (A) (A) (A) (A) (A) (A) (A)
                 (A) (A) (A) (A) (A) (A) (A) (A) (A) (A) (A) (A)
                 (A) (A) (A) (A) (A) (A) (A) (A) (A) (A) (A) (A)
                 (A) (A) (A) (A) (A) (A) (A) (A) (A) (A) (A) (A)
                 (A) (A) (A) (A) (A) (A) (A) (A) (A) (A) (A) (A)
                 (A) (A) (A) (A) (A) (A) (A) (A) (A) (A) (A) (A)
                 (A) (A) (A) (A) (A) (A) (A) (A) (A) (A) (A) (A)
                 (A) (A) (A) (A) (A) (A) (A) (A) (A) (A) (A) (A)
                 (A) (A) (A) (A) (A) (A) (A) (A) (A) (A) (A) (A)
                 (A) (A) (A) (A) (A) (A) (A) (A) (A) (A) (A) (A)
                 (A) (A) (A) (A) (A) (A) (A) (A) (A) (A) (A) (A)
                 (A) (A) (A) (A) (A) (A) (A) (A) (A) (A) (A) (A)
                 (A) (A) (A) (A) (A) (A) (A) (A) (A) (A) (A) (A)
                 (A) (A) (A) (A) (A) (A) (A) (A) (A) (A) (A) (A)
                 (A) (A) (A) (A) (A) (A) (A) (A) (A) (A) (A) (A)
                 (A) (A) (A) (A) (A) (A) (A) (A) (A) (A) (A) (A)
                 (A) (A) (A) (A) (A) (A) (A) (A) (A) (A) (A) (A)
                 (A) (A) (A) (A) (A) (A) (A) (A) (A) (A) (A) (A)
                 (A) (A) (A) (A) (A) (A) (A) (A) (A) (A) (A) (A)
                 (A) (A) (A) (A) (A) (A) (A) (A) (A) (A) (A) (A)
                 (A) (A) (A) (A) (A) (A) (A) (A) (A) (A) (A) (A)
                 (A) (A) (A) (A) (A) (A) (A) (A) (A) (A) (A) (A)
                 (A) (A) (A) (A) (A) (A) (A) (A) (A) (A) (A) (A)
                 (A) (A) (A) (A) (A) (A) (A) (A) (A) (A) (A) (A)
                 (A) (A) (A) (A) (A) (A) (A) (A) (A) (A) (A) (A)
                 (A) (A) (A) (A) (A) (A) (A) (A) (A) (A) (A) (A)
                 (A) (A) (A) (A) (A) (A) (A) (A) (A) (A) (A) (A)
                 (A) (A) (A) (A) (A) (A) (A) (A) (A) (A) (A) (A)
                 (A) (A) (A) (A) (A) (A) (A) (A) (A) (A) (A) (A)
                 (A) (A) (A) (A) (A) (A) (A) (A) (A) (A) (A) (A)
                 (A) (A) (A) (A) (A) (A) (A) (A) (A) (A) (A) (A)
                 (A) (A) (A) (A) (A) (A) (A) (A) (A) (A) (A) (A)
                 (A) (A) (A) (A) (A) (A) (A) (A) (A) (A) (A) (A)
                 (A) (A) (A) (A) (A) (A) (A) (A) (A) (A) (A) (A)
                 (A) (A) (A) (A) (A) (A) (A) (A) (A) (A) (A) (A)
                 (A) (A) (A) (A) (A) (A) (A) (A) (A) (A) (A) (A)
                 (A) (A) (A) (A) (A) (A)
 The electronic state is 1-A.
 Alpha  occ. eigenvalues --  -19.28309 -19.27053 -19.26071 -19.25927 -10.32157
 Alpha  occ. eigenvalues --  -10.31789 -10.31349 -10.31346 -10.27153 -10.26556
 Alpha  occ. eigenvalues --  -10.26475 -10.26420 -10.25938 -10.24876 -10.24774
 Alpha  occ. eigenvalues --  -10.24676 -10.24552 -10.24103 -10.23891 -10.23843
 Alpha  occ. eigenvalues --  -10.23677 -10.23607  -1.09854  -1.09030  -1.07631
 Alpha  occ. eigenvalues --   -1.05462  -0.88608  -0.86743  -0.82099  -0.81966
 Alpha  occ. eigenvalues --   -0.78443  -0.77191  -0.75769  -0.74009  -0.71002
 Alpha  occ. eigenvalues --   -0.70339  -0.67023  -0.64566  -0.63684  -0.63064
 Alpha  occ. eigenvalues --   -0.61250  -0.60372  -0.56022  -0.54255  -0.53351
 Alpha  occ. eigenvalues --   -0.51816  -0.51237  -0.50317  -0.49871  -0.48132
 Alpha  occ. eigenvalues --   -0.47262  -0.46884  -0.46210  -0.45347  -0.44570
 Alpha  occ. eigenvalues --   -0.44117  -0.43918  -0.43792  -0.42948  -0.42625
 Alpha  occ. eigenvalues --   -0.42223  -0.41312  -0.40296  -0.39590  -0.39150
 Alpha  occ. eigenvalues --   -0.38917  -0.38358  -0.38062  -0.37132  -0.37004
 Alpha  occ. eigenvalues --   -0.36553  -0.36144  -0.34948  -0.34735  -0.34157
 Alpha  occ. eigenvalues --   -0.32953  -0.32226  -0.31378  -0.30265  -0.29046
 Alpha  occ. eigenvalues --   -0.26098  -0.24246  -0.23318
 Alpha virt. eigenvalues --   -0.00468  -0.00097   0.00290   0.00543   0.01147
 Alpha virt. eigenvalues --    0.01642   0.01759   0.02739   0.03028   0.03153
 Alpha virt. eigenvalues --    0.04257   0.04392   0.04615   0.04885   0.05101
 Alpha virt. eigenvalues --    0.05629   0.06018   0.06608   0.07429   0.07456
 Alpha virt. eigenvalues --    0.07678   0.07871   0.08610   0.08869   0.09303
 Alpha virt. eigenvalues --    0.09639   0.10033   0.10147   0.10826   0.11442
 Alpha virt. eigenvalues --    0.11778   0.11885   0.12219   0.12696   0.12803
 Alpha virt. eigenvalues --    0.13139   0.13587   0.13864   0.14254   0.14675
 Alpha virt. eigenvalues --    0.14868   0.15262   0.15597   0.15833   0.16071
 Alpha virt. eigenvalues --    0.16655   0.16922   0.17298   0.17600   0.18058
 Alpha virt. eigenvalues --    0.18110   0.18609   0.19015   0.19160   0.19480
 Alpha virt. eigenvalues --    0.19782   0.19832   0.20507   0.20710   0.20896
 Alpha virt. eigenvalues --    0.21094   0.21331   0.21481   0.21662   0.22021
 Alpha virt. eigenvalues --    0.22232   0.22554   0.22931   0.23601   0.23757
 Alpha virt. eigenvalues --    0.23929   0.24080   0.24628   0.24791   0.25007
 Alpha virt. eigenvalues --    0.25369   0.25716   0.26002   0.26376   0.26614
 Alpha virt. eigenvalues --    0.26832   0.26887   0.27116   0.27935   0.28203
 Alpha virt. eigenvalues --    0.28360   0.28854   0.29049   0.29472   0.29618
 Alpha virt. eigenvalues --    0.29971   0.30223   0.30784   0.30959   0.31686
 Alpha virt. eigenvalues --    0.31763   0.32500   0.32771   0.33214   0.33829
 Alpha virt. eigenvalues --    0.34048   0.34305   0.34621   0.34819   0.35427
 Alpha virt. eigenvalues --    0.36255   0.36364   0.36588   0.37260   0.37555
 Alpha virt. eigenvalues --    0.38046   0.38829   0.38984   0.39309   0.40183
 Alpha virt. eigenvalues --    0.40766   0.40943   0.41626   0.41948   0.42430
 Alpha virt. eigenvalues --    0.43320   0.43944   0.44385   0.45163   0.46141
 Alpha virt. eigenvalues --    0.46247   0.46766   0.47132   0.47951   0.48354
 Alpha virt. eigenvalues --    0.49714   0.49933   0.50764   0.51124   0.52780
 Alpha virt. eigenvalues --    0.54550   0.60602   0.63159   0.65617   0.68077
 Alpha virt. eigenvalues --    0.68340   0.69529   0.70487   0.70974   0.71297
 Alpha virt. eigenvalues --    0.71769   0.72960   0.73366   0.73577   0.74014
 Alpha virt. eigenvalues --    0.74294   0.75630   0.76079   0.76592   0.77029
 Alpha virt. eigenvalues --    0.77323   0.77862   0.78403   0.78835   0.80007
 Alpha virt. eigenvalues --    0.80358   0.81746   0.83067   0.84201   0.84228
 Alpha virt. eigenvalues --    0.85851   0.86004   0.86272   0.87840   0.88654
 Alpha virt. eigenvalues --    0.88829   0.89496   0.90143   0.90841   0.91564
 Alpha virt. eigenvalues --    0.92021   0.93077   0.94317   0.94564   0.95537
 Alpha virt. eigenvalues --    0.96409   0.97131   0.97704   0.98790   1.00173
 Alpha virt. eigenvalues --    1.00639   1.01714   1.01843   1.02992   1.04401
 Alpha virt. eigenvalues --    1.05533   1.05836   1.06758   1.08847   1.09238
 Alpha virt. eigenvalues --    1.09809   1.10485   1.10801   1.12015   1.12243
 Alpha virt. eigenvalues --    1.13110   1.14094   1.14474   1.15139   1.15425
 Alpha virt. eigenvalues --    1.15839   1.16890   1.17686   1.17926   1.18865
 Alpha virt. eigenvalues --    1.19677   1.19866   1.20534   1.21608   1.22462
 Alpha virt. eigenvalues --    1.23507   1.24029   1.24394   1.25168   1.26776
 Alpha virt. eigenvalues --    1.28378   1.28834   1.30153   1.30395   1.31528
 Alpha virt. eigenvalues --    1.32030   1.32904   1.33664   1.34006   1.35337
 Alpha virt. eigenvalues --    1.36055   1.36497   1.37328   1.38548   1.39181
 Alpha virt. eigenvalues --    1.39611   1.40649   1.41848   1.42971   1.43911
 Alpha virt. eigenvalues --    1.44992   1.46197   1.47202   1.47526   1.48188
 Alpha virt. eigenvalues --    1.50140   1.51647   1.53162   1.53513   1.55344
 Alpha virt. eigenvalues --    1.56229   1.56360   1.58817   1.59203   1.59823
 Alpha virt. eigenvalues --    1.60614   1.61508   1.63109   1.64513   1.64788
 Alpha virt. eigenvalues --    1.65448   1.68460   1.70619   1.71645   1.72447
 Alpha virt. eigenvalues --    1.76719   1.77279   1.78267   1.79535   1.80320
 Alpha virt. eigenvalues --    1.80739   1.81531   1.82463   1.83207   1.84822
 Alpha virt. eigenvalues --    1.85113   1.86529   1.87242   1.88281   1.88953
 Alpha virt. eigenvalues --    1.89122   1.90537   1.91489   1.92254   1.93040
 Alpha virt. eigenvalues --    1.93544   1.93937   1.95204   1.95553   1.95905
 Alpha virt. eigenvalues --    1.96371   1.97763   1.98134   1.99334   2.00079
 Alpha virt. eigenvalues --    2.01538   2.03533   2.05024   2.05557   2.06552
 Alpha virt. eigenvalues --    2.06709   2.06874   2.07844   2.08500   2.09342
 Alpha virt. eigenvalues --    2.10605   2.10726   2.12330   2.13337   2.13448
 Alpha virt. eigenvalues --    2.14298   2.14665   2.15430   2.15916   2.16360
 Alpha virt. eigenvalues --    2.17488   2.18201   2.19318   2.19514   2.19758
 Alpha virt. eigenvalues --    2.22062   2.23035   2.24378   2.24819   2.26266
 Alpha virt. eigenvalues --    2.27125   2.28395   2.28566   2.29429   2.30417
 Alpha virt. eigenvalues --    2.31202   2.32129   2.33084   2.33790   2.35592
 Alpha virt. eigenvalues --    2.37616   2.37852   2.40181   2.40386   2.40943
 Alpha virt. eigenvalues --    2.41366   2.42677   2.45402   2.47760   2.48373
 Alpha virt. eigenvalues --    2.49247   2.49328   2.50859   2.51819   2.51917
 Alpha virt. eigenvalues --    2.53602   2.54386   2.54396   2.56095   2.57432
 Alpha virt. eigenvalues --    2.57930   2.58565   2.59598   2.60255   2.60614
 Alpha virt. eigenvalues --    2.61107   2.61825   2.62618   2.63914   2.64152
 Alpha virt. eigenvalues --    2.65322   2.66171   2.66916   2.69466   2.70400
 Alpha virt. eigenvalues --    2.70970   2.71111   2.72640   2.73117   2.73641
 Alpha virt. eigenvalues --    2.74241   2.75768   2.76961   2.78002   2.78556
 Alpha virt. eigenvalues --    2.80289   2.81307   2.82155   2.82641   2.83477
 Alpha virt. eigenvalues --    2.85472   2.86144   2.86872   2.87578   2.87827
 Alpha virt. eigenvalues --    2.89067   2.89673   2.91049   2.91355   2.92576
 Alpha virt. eigenvalues --    2.92737   2.93205   2.95811   2.96056   2.96566
 Alpha virt. eigenvalues --    2.99304   3.03346   3.04747   3.05053   3.08200
 Alpha virt. eigenvalues --    3.09382   3.10113   3.12055   3.16207   3.16518
 Alpha virt. eigenvalues --    3.18737   3.26559   3.28809   3.29246   3.31076
 Alpha virt. eigenvalues --    3.31816   3.35691   3.37182   3.39419   3.39967
 Alpha virt. eigenvalues --    3.42309   3.45342   3.47081   3.47320   3.49222
 Alpha virt. eigenvalues --    3.50247   3.50794   3.51473   3.53045   3.54048
 Alpha virt. eigenvalues --    3.55233   3.56147   3.58361   3.58867   3.59895
 Alpha virt. eigenvalues --    3.61329   3.63077   3.67614   3.70397   3.76624
 Alpha virt. eigenvalues --    4.36216   4.37642   4.39842   4.43421   4.48048
 Alpha virt. eigenvalues --    4.49579   4.51913   4.53277   4.54515   4.56830
 Alpha virt. eigenvalues --    4.62941   4.64081   4.66659   4.68804   4.72388
 Alpha virt. eigenvalues --    4.75659   4.77768   4.79056   4.86758   4.95449
 Alpha virt. eigenvalues --    5.00250   5.03382
          Condensed to atoms (all electrons):
              1          2          3          4          5          6
     1  C   12.695679  -1.294549   0.059468  -0.088735   0.213467  -0.018657
     2  C   -1.294549   7.165754   0.279651   0.385994   0.235063  -0.059287
     3  H    0.059468   0.279651   0.534292  -0.025207  -0.006581  -0.005318
     4  H   -0.088735   0.385994  -0.025207   0.525066  -0.101174   0.004842
     5  C    0.213467   0.235063  -0.006581  -0.101174   6.963035   0.412938
     6  H   -0.018657  -0.059287  -0.005318   0.004842   0.412938   0.537167
     7  C   -0.068272  -0.756058   0.057448   0.078514  -1.563706   0.001284
     8  H   -0.023407   0.046207  -0.000176  -0.000151  -0.015923  -0.008846
     9  C    0.429344   0.479883   0.008027  -0.071089   1.001505  -0.059439
    10  H   -0.032595   0.011916  -0.000071   0.000058  -0.082814   0.002233
    11  C   -2.436958  -0.528664   0.000161   0.079906   0.301895   0.061261
    12  H   -0.071534   0.022205  -0.000055   0.000597  -0.013784   0.000007
    13  C    0.439304  -0.064683   0.002804  -0.015213   0.172590  -0.034428
    14  C   -0.029984   0.009797   0.000005  -0.000104  -0.016440  -0.000302
    15  C   -0.150464   0.154599  -0.000597  -0.000980  -0.217711   0.008223
    16  C   -0.789122   0.146204   0.000339   0.003818  -0.280238  -0.003192
    17  C   -0.052882   0.009006   0.000051  -0.000056  -0.060183  -0.000546
    18  C    0.029866   0.036035  -0.000074   0.000107  -0.020725   0.003630
    19  H   -0.000565   0.000012   0.000000   0.000000   0.000037   0.000000
    20  H   -0.000070   0.000016   0.000000   0.000000   0.000049   0.000000
    21  O    0.024825   0.002891  -0.000005   0.000020   0.016037  -0.000010
    22  H    0.023136  -0.002041   0.000001  -0.000001  -0.006060   0.000000
    23  O   -0.014696   0.001349   0.000003  -0.000023   0.004542  -0.000538
    24  H    0.000064  -0.000237   0.000000   0.000000  -0.000478  -0.000005
    25  O    0.067186  -0.022119  -0.000458   0.000233   0.015751  -0.000175
    26  H   -0.067217   0.017915  -0.000011  -0.000025  -0.005395  -0.000006
    27  C   -2.910190   0.145513  -0.063932   0.038881  -0.487514   0.008214
    28  H   -0.135847   0.028100   0.000352   0.000984   0.007756  -0.000001
    29  H   -0.106336   0.020641  -0.000058   0.000102  -0.010341   0.000003
    30  H   -0.051394  -0.017472   0.002376   0.000038   0.007016   0.000000
    31  O    0.400531   0.100518  -0.013814   0.009584  -0.055604   0.009495
    32  H    0.096034  -0.095635   0.004674   0.000045   0.019277  -0.000017
    33  H    0.031771  -0.034924  -0.001772  -0.004698   0.458446  -0.027936
    34  C   -0.337610  -0.019812  -0.007033   0.048042  -0.415755  -0.006302
    35  C    0.119492  -0.096168   0.004582  -0.062542   0.193114  -0.015041
    36  H   -0.001095  -0.001343  -0.000001   0.000126   0.008861   0.000004
    37  H   -0.029882   0.004102   0.000106   0.000573  -0.030678  -0.000042
    38  C    0.023719   0.040591  -0.001528   0.014071  -0.171200   0.015991
    39  H   -0.000346   0.000573   0.000000   0.000001   0.005414   0.000016
    40  H   -0.000522   0.000586   0.000000   0.000000  -0.005474   0.000002
    41  H    0.001945  -0.003039   0.000000  -0.000005   0.010017  -0.000077
    42  C    0.007527  -0.000225   0.000000  -0.000003   0.001047  -0.000008
    43  H    0.000008  -0.000001   0.000000   0.000000   0.000002   0.000000
    44  H   -0.000004   0.000000   0.000000   0.000000  -0.000013   0.000000
    45  C   -0.000297   0.000034   0.000000   0.000000   0.000062   0.000000
    46  H    0.000000   0.000000   0.000000   0.000000  -0.000001   0.000000
    47  H   -0.000002   0.000000   0.000000   0.000000  -0.000011   0.000000
    48  H    0.000001  -0.000001   0.000000   0.000000  -0.000002   0.000000
              7          8          9         10         11         12
     1  C   -0.068272  -0.023407   0.429344  -0.032595  -2.436958  -0.071534
     2  C   -0.756058   0.046207   0.479883   0.011916  -0.528664   0.022205
     3  H    0.057448  -0.000176   0.008027  -0.000071   0.000161  -0.000055
     4  H    0.078514  -0.000151  -0.071089   0.000058   0.079906   0.000597
     5  C   -1.563706  -0.015923   1.001505  -0.082814   0.301895  -0.013784
     6  H    0.001284  -0.008846  -0.059439   0.002233   0.061261   0.000007
     7  C   13.155387   0.198046  -2.100861   0.183314  -0.609632   0.085910
     8  H    0.198046   0.561282   0.002961  -0.007011  -0.004491  -0.000194
     9  C   -2.100861   0.002961  17.718973   0.318903  -5.602178   0.022927
    10  H    0.183314  -0.007011   0.318903   0.531972  -0.285945   0.004307
    11  C   -0.609632  -0.004491  -5.602178  -0.285945  22.022423   0.289763
    12  H    0.085910  -0.000194   0.022927   0.004307   0.289763   0.514966
    13  C   -1.219593   0.014842   3.181208  -0.122530  -4.807180   0.062804
    14  C   -0.071412   0.001372  -0.619228   0.000412  -0.553113  -0.004092
    15  C   -0.325054   0.045501  -1.880662   0.227052  -2.569093   0.043802
    16  C    0.120459  -0.003363  -1.680109  -0.079531   0.733484  -0.079624
    17  C   -0.247892   0.000836  -1.215538  -0.013396  -0.463248  -0.025714
    18  C    0.274723   0.008556  -1.089611   0.093197  -0.126675   0.011139
    19  H    0.000569   0.000000   0.005288   0.000002   0.001414   0.000002
    20  H    0.000082   0.000007  -0.012818  -0.000002  -0.000642   0.000000
    21  O    0.009742  -0.000118  -0.096274  -0.002361   0.237094  -0.011757
    22  H   -0.004748   0.000003  -0.009092   0.000200  -0.049154  -0.001562
    23  O   -0.104849  -0.008151   0.210954   0.010737  -0.010126   0.000073
    24  H   -0.005592   0.000224   0.037104   0.000021  -0.002303   0.000000
    25  O    0.054481  -0.000602  -0.274043  -0.015700   0.362533  -0.053813
    26  H    0.021373  -0.000007  -0.030381   0.003430   0.060954   0.005705
    27  C    0.416941  -0.000080  -2.268590   0.007123   1.961077  -0.010563
    28  H   -0.007594   0.000000   0.019070  -0.000002   0.062859   0.001869
    29  H    0.005787   0.000000  -0.008943   0.000009  -0.031534   0.000287
    30  H   -0.002464   0.000000  -0.001634   0.000002   0.018943   0.000057
    31  O    0.045332  -0.000705   0.103972   0.005617  -0.314265   0.006565
    32  H   -0.000663  -0.000005  -0.030342  -0.000170   0.056027  -0.000182
    33  H   -0.175224  -0.002231   0.045241  -0.000041  -0.001745   0.000006
    34  C   -1.764789  -0.012476  -0.923082   0.039907  -1.066621   0.008813
    35  C   -0.944090  -0.007900   0.143427   0.011818  -1.065207  -0.004658
    36  H    0.017975  -0.000135  -0.011867   0.000003   0.015321   0.000087
    37  H   -0.008153  -0.000090   0.023107  -0.000038  -0.019497   0.001760
    38  C    0.963617   0.038034   0.125224   0.001669   0.374844   0.001845
    39  H    0.143174  -0.001010   0.061327  -0.000033   0.014447  -0.000007
    40  H    0.006875   0.000519  -0.010492   0.000002  -0.001138   0.000000
    41  H   -0.071565   0.001259  -0.013066   0.000006  -0.008514   0.000001
    42  C   -0.055299  -0.000243  -0.001252  -0.000475  -0.052261  -0.000032
    43  H    0.000003   0.000000   0.000179   0.000000  -0.000081   0.000000
    44  H   -0.000252   0.000000  -0.000688   0.000000  -0.000441   0.000000
    45  C    0.000353  -0.000012  -0.000894   0.000008  -0.001601   0.000006
    46  H   -0.000053   0.000000   0.000112   0.000000   0.000012   0.000000
    47  H   -0.000274   0.000000  -0.000515   0.000000  -0.000256   0.000000
    48  H    0.000125   0.000000  -0.000294   0.000000  -0.000053   0.000000
             13         14         15         16         17         18
     1  C    0.439304  -0.029984  -0.150464  -0.789122  -0.052882   0.029866
     2  C   -0.064683   0.009797   0.154599   0.146204   0.009006   0.036035
     3  H    0.002804   0.000005  -0.000597   0.000339   0.000051  -0.000074
     4  H   -0.015213  -0.000104  -0.000980   0.003818  -0.000056   0.000107
     5  C    0.172590  -0.016440  -0.217711  -0.280238  -0.060183  -0.020725
     6  H   -0.034428  -0.000302   0.008223  -0.003192  -0.000546   0.003630
     7  C   -1.219593  -0.071412  -0.325054   0.120459  -0.247892   0.274723
     8  H    0.014842   0.001372   0.045501  -0.003363   0.000836   0.008556
     9  C    3.181208  -0.619228  -1.880662  -1.680109  -1.215538  -1.089611
    10  H   -0.122530   0.000412   0.227052  -0.079531  -0.013396   0.093197
    11  C   -4.807180  -0.553113  -2.569093   0.733484  -0.463248  -0.126675
    12  H    0.062804  -0.004092   0.043802  -0.079624  -0.025714   0.011139
    13  C   18.821574  -0.778305   0.421010  -3.994131  -3.638535  -2.531234
    14  C   -0.778305   9.224953  -0.500391  -0.762885   1.427172  -0.018890
    15  C    0.421010  -0.500391  10.677159  -1.132343  -0.089305   0.270889
    16  C   -3.994131  -0.762885  -1.132343  13.104083   3.006368  -2.026227
    17  C   -3.638535   1.427172  -0.089305   3.006368   9.854566  -1.863087
    18  C   -2.531234  -0.018890   0.270889  -2.026227  -1.863087  12.800888
    19  H    0.099179   0.003285  -0.013059  -0.027379   0.261261   0.027503
    20  H    0.064900   0.056063  -0.046521  -0.007234   0.000998   0.282831
    21  O   -0.312335   0.139394  -0.050013   0.100480   0.002796  -0.015956
    22  H   -0.140156  -0.006299  -0.000906   0.130191   0.082314  -0.015156
    23  O   -0.188363   0.014617   0.148663   0.055215  -0.009133  -0.063804
    24  H    0.148562   0.008026   0.057042  -0.001893  -0.003157  -0.233505
    25  O   -0.126661  -0.002393  -0.164226   0.157423   0.064503  -0.055459
    26  H   -0.033976  -0.000749   0.020981   0.001633  -0.003064   0.005634
    27  C   -0.670947  -0.001897  -0.087575   0.182931   0.001963   0.009473
    28  H   -0.000700  -0.000048  -0.000269   0.000387  -0.000285  -0.000015
    29  H   -0.000812   0.000046   0.000152   0.001924   0.000345   0.000015
    30  H   -0.000124  -0.000004   0.000145  -0.000798  -0.000061   0.000011
    31  O   -0.017845  -0.000367  -0.002093  -0.000371  -0.002391   0.001231
    32  H   -0.003344  -0.000034  -0.002370  -0.002254  -0.000131  -0.000115
    33  H    0.009097   0.000227  -0.006403   0.000103  -0.000011  -0.000822
    34  C    0.696859   0.124189   0.786691   0.267610   0.346993  -0.134072
    35  C    0.985077  -0.044473   0.234361  -0.663099  -0.155970   0.089648
    36  H   -0.000156  -0.000573  -0.002006  -0.003106  -0.001661   0.000960
    37  H   -0.011759   0.000278   0.000980   0.023494   0.001844  -0.001015
    38  C   -0.494504  -0.017078  -0.235706   0.121737  -0.039768   0.077595
    39  H   -0.023628   0.001535  -0.039509   0.003279  -0.011255   0.000519
    40  H   -0.001834   0.000203   0.003901   0.003641   0.000856   0.003880
    41  H    0.004415  -0.000503   0.019343  -0.004417   0.000456   0.005450
    42  C   -0.525769  -1.268579   0.247320  -0.138651  -0.231127   0.209114
    43  H    0.003042  -0.200684  -0.019720   0.040417   0.135449  -0.087496
    44  H   -0.010850  -0.239929   0.057913  -0.034813  -0.092996   0.138094
    45  C    0.009963  -0.054134   0.006097   0.018539   0.029197   0.014579
    46  H    0.002251   0.027894   0.002441   0.001679   0.007620   0.007008
    47  H   -0.006091  -0.038645   0.003212  -0.014901  -0.011376   0.016972
    48  H   -0.001387  -0.029523   0.001736  -0.000339   0.011918  -0.016714
             19         20         21         22         23         24
     1  C   -0.000565  -0.000070   0.024825   0.023136  -0.014696   0.000064
     2  C    0.000012   0.000016   0.002891  -0.002041   0.001349  -0.000237
     3  H    0.000000   0.000000  -0.000005   0.000001   0.000003   0.000000
     4  H    0.000000   0.000000   0.000020  -0.000001  -0.000023   0.000000
     5  C    0.000037   0.000049   0.016037  -0.006060   0.004542  -0.000478
     6  H    0.000000   0.000000  -0.000010   0.000000  -0.000538  -0.000005
     7  C    0.000569   0.000082   0.009742  -0.004748  -0.104849  -0.005592
     8  H    0.000000   0.000007  -0.000118   0.000003  -0.008151   0.000224
     9  C    0.005288  -0.012818  -0.096274  -0.009092   0.210954   0.037104
    10  H    0.000002  -0.000002  -0.002361   0.000200   0.010737   0.000021
    11  C    0.001414  -0.000642   0.237094  -0.049154  -0.010126  -0.002303
    12  H    0.000002   0.000000  -0.011757  -0.001562   0.000073   0.000000
    13  C    0.099179   0.064900  -0.312335  -0.140156  -0.188363   0.148562
    14  C    0.003285   0.056063   0.139394  -0.006299   0.014617   0.008026
    15  C   -0.013059  -0.046521  -0.050013  -0.000906   0.148663   0.057042
    16  C   -0.027379  -0.007234   0.100480   0.130191   0.055215  -0.001893
    17  C    0.261261   0.000998   0.002796   0.082314  -0.009133  -0.003157
    18  C    0.027503   0.282831  -0.015956  -0.015156  -0.063804  -0.233505
    19  H    0.514980  -0.000138  -0.006812   0.000120   0.000117   0.000000
    20  H   -0.000138   0.520544   0.000082   0.000000  -0.018244   0.008382
    21  O   -0.006812   0.000082   8.324829   0.213514  -0.002167   0.000025
    22  H    0.000120   0.000000   0.213514   0.329161  -0.000115   0.000000
    23  O    0.000117  -0.018244  -0.002167  -0.000115   8.331034   0.200164
    24  H    0.000000   0.008382   0.000025   0.000000   0.200164   0.362645
    25  O   -0.000025   0.000001  -0.007911   0.033782  -0.000209  -0.000015
    26  H    0.000000   0.000000  -0.000757  -0.000066  -0.000068   0.000000
    27  C    0.000011  -0.000001   0.004109  -0.007702  -0.004385  -0.000024
    28  H    0.000000   0.000000  -0.000006  -0.000005   0.000001   0.000000
    29  H    0.000000   0.000000  -0.000019  -0.000014   0.000000   0.000000
    30  H    0.000000   0.000000   0.000012   0.000000   0.000000   0.000000
    31  O    0.000000   0.000000   0.001256  -0.000498  -0.001595  -0.000003
    32  H    0.000000   0.000000   0.000021   0.000000   0.000011   0.000000
    33  H    0.000000   0.000000   0.000006   0.000000   0.000037   0.000000
    34  C   -0.001306   0.000881  -0.050156   0.008492   0.003596   0.006072
    35  C    0.000418   0.000229  -0.002808  -0.003909  -0.005818   0.000700
    36  H    0.000000   0.000000  -0.000011  -0.000001  -0.000005   0.000000
    37  H    0.000000   0.000000   0.000036   0.000001   0.000005   0.000000
    38  C    0.000010  -0.000096  -0.000551   0.000009  -0.004908  -0.001663
    39  H    0.000000  -0.000030   0.000149  -0.000002   0.000189  -0.000075
    40  H    0.000000   0.000000  -0.000078   0.000000  -0.000059   0.000001
    41  H    0.000000   0.000000  -0.000021   0.000000  -0.000009   0.000005
    42  C   -0.040136  -0.023166   0.012476  -0.002201  -0.004789   0.000881
    43  H    0.001948   0.000069  -0.000022   0.000000   0.000043   0.000000
    44  H    0.000072   0.002365   0.000036   0.000000  -0.000113   0.000006
    45  C    0.005184   0.006313   0.000173  -0.000074  -0.000047   0.000166
    46  H   -0.000026  -0.000028   0.000000   0.000000  -0.000001   0.000000
    47  H    0.000138   0.000014   0.000005   0.000000  -0.000002   0.000000
    48  H    0.000006   0.000216   0.000003   0.000000   0.000020   0.000001
             25         26         27         28         29         30
     1  C    0.067186  -0.067217  -2.910190  -0.135847  -0.106336  -0.051394
     2  C   -0.022119   0.017915   0.145513   0.028100   0.020641  -0.017472
     3  H   -0.000458  -0.000011  -0.063932   0.000352  -0.000058   0.002376
     4  H    0.000233  -0.000025   0.038881   0.000984   0.000102   0.000038
     5  C    0.015751  -0.005395  -0.487514   0.007756  -0.010341   0.007016
     6  H   -0.000175  -0.000006   0.008214  -0.000001   0.000003   0.000000
     7  C    0.054481   0.021373   0.416941  -0.007594   0.005787  -0.002464
     8  H   -0.000602  -0.000007  -0.000080   0.000000   0.000000   0.000000
     9  C   -0.274043  -0.030381  -2.268590   0.019070  -0.008943  -0.001634
    10  H   -0.015700   0.003430   0.007123  -0.000002   0.000009   0.000002
    11  C    0.362533   0.060954   1.961077   0.062859  -0.031534   0.018943
[...]
    17  C    0.061123  -0.003096  -0.007063  -0.000028   0.000295  -0.000079
    18  C   -0.060423   0.004855   0.003346  -0.000010  -0.000022   0.000015
    19  H   -0.000002   0.000000  -0.000015   0.000000   0.000000   0.000000
    20  H   -0.000001   0.000000  -0.000001   0.000000   0.000000   0.000000
    21  O   -0.012545   0.000748   0.006454  -0.000037   0.000039   0.000003
    22  H    0.034155  -0.000384  -0.006095  -0.000006  -0.000025   0.000000
    23  O   -0.000495  -0.000061  -0.003199   0.000000   0.000000   0.000000
    24  H   -0.000010   0.000000  -0.000003   0.000000   0.000000   0.000000
    25  O    8.425448   0.243150  -0.010470  -0.002287   0.004436  -0.000641
    26  H    0.243150   0.320859   0.009850   0.000149   0.000272   0.000018
    27  C   -0.010470   0.009850   8.218171   0.426476   0.507313   0.454878
    28  H   -0.002287   0.000149   0.426476   0.530675  -0.026195  -0.026185
    29  H    0.004436   0.000272   0.507313  -0.026195   0.532510  -0.029895
    30  H   -0.000641   0.000018   0.454878  -0.026185  -0.029895   0.534552
    31  O   -0.001213   0.020666  -0.222445   0.008327  -0.000275  -0.011685
    32  H   -0.000100  -0.000482  -0.012007   0.000053  -0.000614   0.003117
    33  H    0.000052   0.000000  -0.008850  -0.000003   0.000002  -0.000004
    34  C   -0.029243  -0.001332   0.069267  -0.002102  -0.001449   0.000221
    35  C    0.001523  -0.000186  -0.091070   0.005055   0.000649  -0.000401
    36  H   -0.000005   0.000000  -0.000390   0.000000   0.000000   0.000000
    37  H    0.000415  -0.000004   0.006792   0.000193   0.000002   0.000003
    38  C    0.000378  -0.000100   0.035619  -0.000569  -0.000109   0.000041
    39  H    0.000040   0.000000   0.000061   0.000000   0.000000   0.000000
    40  H   -0.000003   0.000000   0.000136   0.000000   0.000000   0.000000
    41  H   -0.000006   0.000000  -0.000167   0.000000   0.000000   0.000000
    42  C   -0.002522  -0.000021  -0.000581   0.000000   0.000000   0.000000
    43  H    0.000001   0.000000   0.000000   0.000000   0.000000   0.000000
    44  H    0.000000   0.000000   0.000000   0.000000   0.000000   0.000000
    45  C    0.000068   0.000000  -0.000003   0.000000   0.000000   0.000000
    46  H    0.000000   0.000000   0.000000   0.000000   0.000000   0.000000
    47  H    0.000000   0.000000   0.000000   0.000000   0.000000   0.000000
    48  H    0.000000   0.000000   0.000000   0.000000   0.000000   0.000000
             31         32         33         34         35         36
     1  C    0.324612   0.031059   0.058029  -0.369845   0.245632   0.002553
     2  C    0.124871  -0.062898  -0.098392   0.051119  -0.237932  -0.002999
     3  H   -0.016167   0.004582  -0.001343  -0.006114   0.008117  -0.000002
     4  H    0.008249   0.000077  -0.005107   0.025566  -0.050562   0.000133
     5  C   -0.056095   0.012265   0.568789  -0.535910   0.175485   0.009809
     6  H    0.009044  -0.000070  -0.032571  -0.021361   0.001590   0.000005
     7  C    0.044907  -0.005391  -0.175286  -1.466961  -1.284305  -0.004791
     8  H   -0.000619  -0.000006  -0.002743  -0.034915  -0.022339  -0.000146
     9  C    0.114456  -0.018474   0.043333  -1.315599  -0.137529  -0.008813
    10  H    0.005023  -0.000182  -0.000023   0.047014   0.018376   0.000004
    11  C   -0.358377   0.060562   0.011448  -0.968849  -1.187107   0.008228
    12  H    0.006331  -0.000174   0.000011  -0.004094   0.000822   0.000104
    13  C   -0.015207  -0.002205   0.002771   0.351349   0.969302   0.005954
    14  C   -0.000353  -0.000012   0.000119   0.167054  -0.048368  -0.000739
    15  C    0.003873  -0.002635  -0.008558   0.882037   0.358389  -0.000702
    16  C   -0.013624   0.000252  -0.003178   0.623442  -0.857217  -0.009061
    17  C   -0.002360  -0.000026  -0.000229   0.513817  -0.213856  -0.003115
    18  C    0.002296  -0.000174  -0.000829  -0.074613   0.179738   0.001236
    19  H    0.000000   0.000000   0.000000  -0.000753   0.000424   0.000000
    20  H    0.000000   0.000000   0.000000   0.000201   0.000160   0.000000
    21  O    0.001206   0.000008   0.000012  -0.073131   0.014896   0.000125
    22  H   -0.000398   0.000000   0.000000   0.010392  -0.005792  -0.000001
    23  O   -0.001687   0.000007   0.000055  -0.025266  -0.009930  -0.000006
    24  H   -0.000005   0.000000   0.000000   0.003984   0.000624   0.000000
    25  O   -0.001213  -0.000100   0.000052  -0.029243   0.001523  -0.000005
    26  H    0.020666  -0.000482   0.000000  -0.001332  -0.000186   0.000000
    27  C   -0.222445  -0.012007  -0.008850   0.069267  -0.091070  -0.000390
    28  H    0.008327   0.000053  -0.000003  -0.002102   0.005055   0.000000
    29  H   -0.000275  -0.000614   0.000002  -0.001449   0.000649   0.000000
    30  H   -0.011685   0.003117  -0.000004   0.000221  -0.000401   0.000000
    31  O    8.488025   0.244116  -0.001164  -0.017794  -0.016410   0.000005
    32  H    0.244116   0.328663   0.000009   0.001598   0.000077   0.000000
    33  H   -0.001164   0.000009   0.568440  -0.042088  -0.006204  -0.000031
    34  C   -0.017794   0.001598  -0.042088  10.529188  -0.415261  -0.178174
    35  C   -0.016410   0.000077  -0.006204  -0.415261   9.497757   0.567609
    36  H    0.000005   0.000000  -0.000031  -0.178174   0.567609   0.540741
    37  H   -0.000177   0.000001   0.000166  -0.132980   0.570001  -0.036590
    38  C    0.010202  -0.000189  -0.017438  -1.389311  -1.437779  -0.038376
    39  H    0.000007   0.000000  -0.000007  -0.290052  -0.060711   0.000210
    40  H    0.000000   0.000000  -0.000057  -0.125330  -0.018742   0.003273
    41  H   -0.000009   0.000000   0.000446  -0.012429   0.016777   0.000214
    42  C    0.000060   0.000000   0.000010   0.042575  -0.006051   0.000005
    43  H    0.000000   0.000000   0.000000   0.000017   0.000055   0.000000
    44  H    0.000000   0.000000   0.000000   0.000156   0.000002   0.000000
    45  C   -0.000001   0.000000   0.000000   0.001519   0.002030   0.000002
    46  H    0.000000   0.000000   0.000000   0.000018   0.000016   0.000000
    47  H    0.000000   0.000000   0.000000   0.000356   0.000042   0.000000
    48  H    0.000000   0.000000   0.000000  -0.000265  -0.000051   0.000000
             37         38         39         40         41         42
     1  C   -0.015198  -0.043867  -0.000306  -0.000032   0.001379   0.006204
     2  C    0.000717   0.110406   0.000608   0.000152  -0.003586  -0.001641
     3  H    0.000130  -0.003365   0.000000   0.000000   0.000000   0.000001
     4  H    0.000508   0.010437   0.000001   0.000001  -0.000005  -0.000004
     5  C   -0.033392  -0.204464   0.011325  -0.010914   0.012622   0.001315
     6  H   -0.000048   0.005469   0.000016   0.000003  -0.000084   0.000000
     7  C   -0.012735   1.047438   0.129958  -0.003994  -0.064104  -0.067347
     8  H   -0.000105   0.060169  -0.000766   0.000627   0.001396  -0.000040
     9  C    0.013525   0.193384   0.061048  -0.009098  -0.021589  -0.044149
    10  H   -0.000042  -0.000239  -0.000037   0.000002   0.000005  -0.000941
    11  C   -0.032262   0.335809   0.016027  -0.001692  -0.009922  -0.067138
    12  H    0.001575   0.001536  -0.000008   0.000000   0.000001  -0.000168
    13  C   -0.007332  -0.458203  -0.020746   0.003768  -0.002815  -0.701081
    14  C   -0.000046  -0.021358  -0.000259  -0.000257   0.000550  -1.152221
    15  C   -0.002414  -0.231540  -0.046467   0.002050   0.024029   0.296806
    16  C    0.012913   0.154443  -0.003634   0.001486  -0.001491  -0.271869
    17  C    0.002118  -0.031523  -0.012473   0.000907   0.000693  -0.223622
    18  C   -0.001473   0.071712   0.001618   0.003448   0.008570   0.241018
    19  H    0.000000   0.000009   0.000000   0.000000   0.000000  -0.051726
    20  H    0.000000  -0.000069  -0.000021   0.000000   0.000000  -0.030612
    21  O    0.000094  -0.005138   0.000227  -0.000076  -0.000035   0.007869
    22  H    0.000002   0.000221  -0.000002   0.000000   0.000000  -0.001630
    23  O    0.000020   0.004330  -0.000027   0.000040  -0.000047   0.000386
    24  H    0.000000  -0.001218  -0.000080   0.000001   0.000005  -0.000218
    25  O    0.000415   0.000378   0.000040  -0.000003  -0.000006  -0.002522
    26  H   -0.000004  -0.000100   0.000000   0.000000   0.000000  -0.000021
    27  C    0.006792   0.035619   0.000061   0.000136  -0.000167  -0.000581
    28  H    0.000193  -0.000569   0.000000   0.000000   0.000000   0.000000
    29  H    0.000002  -0.000109   0.000000   0.000000   0.000000   0.000000
    30  H    0.000003   0.000041   0.000000   0.000000   0.000000   0.000000
    31  O   -0.000177   0.010202   0.000007   0.000000  -0.000009   0.000060
    32  H    0.000001  -0.000189   0.000000   0.000000   0.000000   0.000000
    33  H    0.000166  -0.017438  -0.000007  -0.000057   0.000446   0.000010
    34  C   -0.132980  -1.389311  -0.290052  -0.125330  -0.012429   0.042575
    35  C    0.570001  -1.437779  -0.060711  -0.018742   0.016777  -0.006051
    36  H   -0.036590  -0.038376   0.000210   0.003273   0.000214   0.000005
    37  H    0.546105  -0.026385  -0.000206   0.000190  -0.000189  -0.000031
    38  C   -0.026385   7.115664   0.561863   0.509535   0.398074  -0.008827
    39  H   -0.000206   0.561863   0.538925  -0.026924  -0.028811  -0.003065
    40  H    0.000190   0.509535  -0.026924   0.544853  -0.027163   0.000195
    41  H   -0.000189   0.398074  -0.028811  -0.027163   0.537937   0.000266
    42  C   -0.000031  -0.008827  -0.003065   0.000195   0.000266   7.008360
    43  H    0.000000  -0.000036   0.000000   0.000000   0.000000   0.482352
    44  H    0.000000  -0.000017   0.000000   0.000000   0.000000   0.526518
    45  C    0.000005  -0.002280  -0.000270   0.000003   0.000001   0.208725
    46  H    0.000000   0.000017   0.000000   0.000000   0.000000  -0.073475
    47  H    0.000000  -0.000308  -0.000001   0.000000   0.000000  -0.030529
    48  H    0.000000   0.000062   0.000000   0.000000   0.000000  -0.055461
             43         44         45         46         47         48
     1  C    0.000005  -0.000004  -0.000290   0.000000  -0.000007  -0.000001
     2  C   -0.000001   0.000000   0.000049   0.000000   0.000001  -0.000001
     3  H    0.000000   0.000000   0.000000   0.000000   0.000000   0.000000
     4  H    0.000000   0.000000   0.000000   0.000000   0.000000   0.000000
     5  C    0.000000  -0.000014  -0.000117  -0.000002  -0.000011   0.000006
     6  H    0.000000   0.000000   0.000000   0.000000   0.000000   0.000000
     7  C   -0.000011  -0.000193  -0.000689  -0.000075  -0.000149   0.000216
     8  H    0.000000   0.000000  -0.000017   0.000000   0.000000   0.000000
     9  C   -0.000549  -0.001618  -0.003839  -0.000017  -0.000537  -0.000392
    10  H    0.000000   0.000000   0.000000   0.000000   0.000000   0.000000
    11  C   -0.000242  -0.000483  -0.002736   0.000004  -0.000253  -0.000039
    12  H    0.000000   0.000000   0.000006   0.000000   0.000000   0.000000
    13  C   -0.005023  -0.016342   0.002164   0.000074  -0.008256   0.000558
    14  C   -0.155815  -0.183906   0.012150  -0.005235   0.020202   0.027798
    15  C   -0.016352   0.039936   0.002051   0.000800   0.013153  -0.018032
    16  C    0.018674  -0.030619   0.003076   0.001154  -0.036681   0.005621
    17  C    0.080410  -0.070342   0.013935   0.006677  -0.061925   0.038199
    18  C   -0.064582   0.075756  -0.031210   0.005116   0.042161  -0.061876
    19  H    0.002308   0.000103   0.003060  -0.000032   0.000161   0.000010
    20  H    0.000106   0.002599   0.003385  -0.000032   0.000017   0.000219
    21  O   -0.000026   0.000021   0.000226  -0.000002   0.000014   0.000007
    22  H    0.000000   0.000000  -0.000073   0.000000   0.000000   0.000000
    23  O    0.000023  -0.000082  -0.000184  -0.000004   0.000000   0.000046
    24  H    0.000000   0.000003   0.000139   0.000000   0.000000   0.000000
    25  O    0.000001   0.000000   0.000068   0.000000   0.000000   0.000000
    26  H    0.000000   0.000000   0.000000   0.000000   0.000000   0.000000
    27  C    0.000000   0.000000  -0.000003   0.000000   0.000000   0.000000
    28  H    0.000000   0.000000   0.000000   0.000000   0.000000   0.000000
    29  H    0.000000   0.000000   0.000000   0.000000   0.000000   0.000000
    30  H    0.000000   0.000000   0.000000   0.000000   0.000000   0.000000
    31  O    0.000000   0.000000  -0.000001   0.000000   0.000000   0.000000
    32  H    0.000000   0.000000   0.000000   0.000000   0.000000   0.000000
    33  H    0.000000   0.000000   0.000000   0.000000   0.000000   0.000000
    34  C    0.000017   0.000156   0.001519   0.000018   0.000356  -0.000265
    35  C    0.000055   0.000002   0.002030   0.000016   0.000042  -0.000051
    36  H    0.000000   0.000000   0.000002   0.000000   0.000000   0.000000
    37  H    0.000000   0.000000   0.000005   0.000000   0.000000   0.000000
    38  C   -0.000036  -0.000017  -0.002280   0.000017  -0.000308   0.000062
    39  H    0.000000   0.000000  -0.000270   0.000000  -0.000001   0.000000
    40  H    0.000000   0.000000   0.000003   0.000000   0.000000   0.000000
    41  H    0.000000   0.000000   0.000001   0.000000   0.000000   0.000000
    42  C    0.482352   0.526518   0.208725  -0.073475  -0.030529  -0.055461
    43  H    0.565495  -0.033498  -0.021325  -0.003324  -0.005038   0.004839
    44  H   -0.033498   0.567671  -0.023046  -0.003411   0.004892  -0.004936
    45  C   -0.021325  -0.023046   5.179062   0.424340   0.418752   0.419502
    46  H   -0.003324  -0.003411   0.424340   0.549335  -0.027199  -0.027066
    47  H   -0.005038   0.004892   0.418752  -0.027199   0.542071  -0.028659
    48  H    0.004839  -0.004936   0.419502  -0.027066  -0.028659   0.541744
 Mulliken atomic charges:
              1
     1  C    0.195466
     2  C   -0.370732
     3  H    0.157898
     4  H    0.164749
     5  C   -0.472769
     6  H    0.155374
     7  C    0.259831
     8  H    0.147935
     9  C    0.085675
    10  H    0.163286
    11  C    0.162383
    12  H    0.182815
    13  C    0.458902
    14  C   -0.077639
    15  C    0.319985
    16  C   -0.357749
    17  C   -0.914465
    18  C   -0.011531
    19  H    0.147488
    20  H    0.150868
    21  O   -0.610373
    22  H    0.445884
    23  O   -0.617658
    24  H    0.450028
    25  O   -0.647282
    26  H    0.415938
    27  C   -0.272099
    28  H    0.166610
    29  H    0.164776
    30  H    0.163681
    31  O   -0.680213
    32  H    0.419193
    33  H    0.150414
    34  C    0.214332
    35  C   -0.527339
    36  H    0.143731
    37  H    0.146135
    38  C   -0.704108
    39  H    0.172939
    40  H    0.153614
    41  H    0.169490
    42  C   -0.027695
    43  H    0.151538
    44  H    0.150856
    45  C   -0.608168
    46  H    0.152325
    47  H    0.157729
    48  H    0.157953
 Sum of Mulliken atomic charges =   0.00000
 Mulliken charges with hydrogens summed into heavy atoms:
              1
     1  C    0.195466
     2  C   -0.048086
     5  C   -0.166981
     7  C    0.407766
     9  C    0.248962
    11  C    0.345198
    13  C    0.458902
    14  C   -0.077639
    15  C    0.319985
    16  C   -0.357749
    17  C   -0.766977
    18  C    0.139336
    21  O   -0.164488
    23  O   -0.167630
    25  O   -0.231344
    27  C    0.222968
    31  O   -0.261021
    34  C    0.214332
    35  C   -0.237473
    38  C   -0.208065
    42  C    0.274699
    45  C   -0.140161
 Sum of Mulliken charges with hydrogens summed into heavy atoms =   0.00000
 Electronic spatial extent (au):  <R**2>=           7116.0235
 Charge=              0.0000 electrons
 Dipole moment (field-independent basis, Debye):
    X=              2.1471    Y=              3.1022    Z=              3.3889  Tot=              5.0713
 Quadrupole moment (field-independent basis, Debye-Ang):
   XX=           -101.5110   YY=           -139.3462   ZZ=           -133.7789
   XY=             -3.5504   XZ=             -6.2015   YZ=              0.6232
 Traceless Quadrupole moment (field-independent basis, Debye-Ang):
   XX=             23.3677   YY=            -14.4675   ZZ=             -8.9002
   XY=             -3.5504   XZ=             -6.2015   YZ=              0.6232
 Octapole moment (field-independent basis, Debye-Ang**2):
  XXX=             69.9190  YYY=              2.1163  ZZZ=             37.4843  XYY=              3.3091
  XXY=             -9.1605  XXZ=             42.6071  XZZ=             -9.1106  YZZ=             12.0254
  YYZ=             19.4328  XYZ=             -9.9795
 Hexadecapole moment (field-independent basis, Debye-Ang**3):
 XXXX=          -5800.0816 YYYY=          -1932.7310 ZZZZ=          -1079.0338 XXXY=            -30.9578
 XXXZ=             77.3879 YYYX=            -47.0870 YYYZ=              1.8585 ZZZX=            -69.2072
 ZZZY=             32.8931 XXYY=          -1445.9173 XXZZ=          -1207.8418 YYZZ=           -509.3724
 XXYZ=             55.1517 YYXZ=             20.4839 ZZXY=            -56.6516
 N-N= 1.986174550588D+03 E-N=-6.305536350004D+03  KE= 9.931496611118D+02

 Test job not archived.
 1\1\GINC-COMPUTE-8-17\SP\RB3LYP\6-31+G(d,p)\C18H26O4\LPASSAGLIA.IQUIR\
 23-Dec-2022\0\\# B3LYP/6-31+G** geom=allcheck test scrf=(pcm,solvent=w
 ater,smd,dovacuum)\\comment\\0,1\C,0,1.7066173,2.443512119,-1.63727280
 1\C,0,1.03079364,3.452251198,-0.703138151\H,0,1.621589492,4.376603368,
 -0.663466828\H,0,0.047474163,3.733141752,-1.093933381\C,0,0.889795144,
 2.92760821,0.722548999\H,0,1.89175621,2.882875808,1.170881058\C,0,0.25
 0704302,1.52786549,0.837484041\H,0,0.495774917,1.225009026,1.864341681
 \C,0,0.951963906,0.497951534,-0.113759145\H,0,2.002477951,0.428004127,
 0.210565772\C,0,1.02549,1.054389528,-1.559101765\H,0,0.029658201,1.125
 218117,-2.003394024\C,0,0.421408041,-0.935487874,0.080585675\C,0,-0.65
 8482552,-3.519425843,0.663375576\C,0,0.638404463,-1.579606945,1.317214
 878\C,0,-0.293612276,-1.673524193,-0.874660102\C,0,-0.849554181,-2.924
 384024,-0.584593184\C,0,0.104644448,-2.839852722,1.61365738\H,0,-1.416
 697488,-3.438779013,-1.357367232\H,0,0.274431505,-3.296929126,2.584268
 29\O,0,-0.461017219,-1.269724773,-2.169406581\H,0,0.419349105,-0.94516
 0879,-2.464628819\O,0,1.410659864,-0.958833666,2.265978297\H,0,1.50442
 2474,-1.550668532,3.029773258\O,0,1.780432246,0.131117604,-2.376128488
 \H,0,2.713713999,0.291608146,-2.118127466\C,0,1.713376753,2.976242567,
 -3.075192774\H,0,0.697291548,3.081027845,-3.469164956\H,0,2.280097731,
 2.317233555,-3.742114445\H,0,2.204218189,3.955155448,-3.124353595\O,0,
 3.080660246,2.274225084,-1.244519319\H,0,3.508105619,3.148792602,-1.27
 7678809\H,0,0.326439377,3.65399106,1.321933675\C,0,-1.282840905,1.5684
 40797,0.796852866\C,0,-2.037480403,1.940999854,-0.250384246\H,0,-3.122
 836082,1.930396579,-0.190727448\H,0,-1.629467748,2.253959082,-1.201018
 012\C,0,-1.959545316,1.144229871,2.07888404\H,0,-1.700411666,0.1106037
 27,2.326877023\H,0,-3.051236711,1.2027422,2.012439672\H,0,-1.644810414
 ,1.791671014,2.90403599\C,0,-1.269417999,-4.859746877,0.975514211\H,0,
 -1.322878605,-5.464250474,0.061854412\H,0,-0.618559564,-5.410740285,1.
 665321679\C,0,-2.65783062,-4.719320426,1.580605345\H,0,-3.07774759,-5.
 706594317,1.797513236\H,0,-3.339399215,-4.203594953,0.895609928\H,0,-2
 .627924282,-4.150242391,2.516014588\\Version=EM64L-G09RevC.01\State=1-
 A\HF=-1002.5425038\RMSD=3.687e-09\Dipole=0.8906709,1.125211,1.3861798\
 Quadrupole=-6.4228567,9.4351448,-3.0122881,6.1681753,-2.1686831,-12.11
 0892\PG=C01 [X(C18H26O4)]\\@


 Human beings, who are almost unique in having the
 ability to learn from the experience of others, are
 also remarkable for their apparent disinclination to do so.
                               -- Douglas Adams,
                                Last Chance to See
 Job cpu time:  0 days  2 hours 16 minutes 36.1 seconds.
 File lengths (MBytes):  RWF=    239 Int=      0 D2E=      0 Chk=     19 Scr=      1
 Normal termination of Gaussian 09 at Fri Dec 23 15:49:29 2022.
