 Entering Gaussian System, Link 0=g09
 Input=/home/fbruno.iquir/2_val_run/2a_011_MPW_A_SMD.gjc
 Output=/home/fbruno.iquir/2_val_run/2a_011_MPW_A_SMD.log
 Initial command:
 /share/apps/Gaussian09/EM64T.SSE4.2-enabled/g09/l1.exe /tmp/Gau-11514.inp -scrdir=/tmp/
 Entering Link 1 = /share/apps/Gaussian09/EM64T.SSE4.2-enabled/g09/l1.exe PID=     11515.
  
 Copyright (c) 1988,1990,1992,1993,1995,1998,2003,2009,2011,
            Gaussian, Inc.  All Rights Reserved.
  
 This is part of the Gaussian(R) 09 program.  It is based on
 the Gaussian(R) 03 system (copyright 2003, Gaussian, Inc.),
 the Gaussian(R) 98 system (copyright 1998, Gaussian, Inc.),
 the Gaussian(R) 94 system (copyright 1995, Gaussian, Inc.),
 the Gaussian 92(TM) system (copyright 1992, Gaussian, Inc.),
 the Gaussian 90(TM) system (copyright 1990, Gaussian, Inc.),
 the Gaussian 88(TM) system (copyright 1988, Gaussian, Inc.),
 the Gaussian 86(TM) system (copyright 1986, Carnegie Mellon
 University), and the Gaussian 82(TM) system (copyright 1983,
 Carnegie Mellon University). Gaussian is a federally registered
 trademark of Gaussian, Inc.
  
 This software contains proprietary and confidential information,
 including trade secrets, belonging to Gaussian, Inc.
  
 This software is provided under written license and may be
 used, copied, transmitted, or stored only in accord with that
 written license.
  
 The following legend is applicable only to US Government
 contracts under FAR:
  
                    RESTRICTED RIGHTS LEGEND
  
 Use, reproduction and disclosure by the US Government is
 subject to restrictions as set forth in subparagraphs (a)
 and (c) of the Commercial Computer Software - Restricted
 Rights clause in FAR 52.227-19.
  
 Gaussian, Inc.
 340 Quinnipiac St., Bldg. 40, Wallingford CT 06492
  
  
 ---------------------------------------------------------------
 Warning -- This program may not be used in any manner that
 competes with the business of Gaussian, Inc. or will provide
 assistance to any competitor of Gaussian, Inc.  The licensee
 of this program is prohibited from giving any competitor of
 Gaussian, Inc. access to this program.  By using this program,
 the user acknowledges that Gaussian, Inc. is engaged in the
 business of creating and licensing software in the field of
 computational chemistry and represents and warrants to the
 licensee that it is not a competitor of Gaussian, Inc. and that
 it will not use this program in any manner prohibited above.
 ---------------------------------------------------------------
  

 Cite this work as:
 Gaussian 09, Revision C.01,
 M. J. Frisch, G. W. Trucks, H. B. Schlegel, G. E. Scuseria, 
 M. A. Robb, J. R. Cheeseman, G. Scalmani, V. Barone, B. Mennucci, 
 G. A. Petersson, H. Nakatsuji, M. Caricato, X. Li, H. P. Hratchian, 
 A. F. Izmaylov, J. Bloino, G. Zheng, J. L. Sonnenberg, M. Hada, 
 M. Ehara, K. Toyota, R. Fukuda, J. Hasegawa, M. Ishida, T. Nakajima, 
 Y. Honda, O. Kitao, H. Nakai, T. Vreven, J. A. Montgomery, Jr., 
 J. E. Peralta, F. Ogliaro, M. Bearpark, J. J. Heyd, E. Brothers, 
 K. N. Kudin, V. N. Staroverov, T. Keith, R. Kobayashi, J. Normand, 
 K. Raghavachari, A. Rendell, J. C. Burant, S. S. Iyengar, J. Tomasi, 
 M. Cossi, N. Rega, J. M. Millam, M. Klene, J. E. Knox, J. B. Cross, 
 V. Bakken, C. Adamo, J. Jaramillo, R. Gomperts, R. E. Stratmann, 
 O. Yazyev, A. J. Austin, R. Cammi, C. Pomelli, J. W. Ochterski, 
 R. L. Martin, K. Morokuma, V. G. Zakrzewski, G. A. Voth, 
 P. Salvador, J. J. Dannenberg, S. Dapprich, A. D. Daniels, 
 O. Farkas, J. B. Foresman, J. V. Ortiz, J. Cioslowski, 
 and D. J. Fox, Gaussian, Inc., Wallingford CT, 2010.
 
 ******************************************
 Gaussian 09:  EM64L-G09RevC.01 23-Sep-2011
                21-Dec-2021 
 ******************************************
 %nprocshared=4
 Will use up to    4 processors via shared memory.
 -----------------------------------------------------------------
 # mPW1PW91/6-31g** scrf=(pcm,solvent=chloroform,smd,dovacuum) nmr
 -----------------------------------------------------------------
 1/38=1/1;
 2/12=2,17=6,18=5,40=1/2;
 3/5=1,6=6,7=101,11=2,16=1,25=1,30=1,70=32101,72=7,74=-7/1,2,8,3;
 4//1;
 5/5=2,38=5,53=7/2;
 8/6=1,10=90,11=11/1;
 10/13=100,45=16/2;
 6/7=2,8=2,9=2,10=2,28=1/1;
 99/9=1/99;
 -------
 comment
 -------
 Charge =  0 Multiplicity = 1
 Symbolic Z-Matrix:
 6                    -1.40973   0.51222   2.00733 
 1                    -2.48445   0.40962   1.81779 
 6                    -0.61861  -0.51789   1.18314 
 1                     0.44347  -0.43224   1.42832 
 6                    -0.87102  -0.30953  -0.30553 
 8                    -2.011    -0.29603  -0.76911 
 8                    -1.20858   0.26994   3.40401 
 1                    -0.28053   0.4622    3.61938 
 6                    -1.02709  -1.95239   1.53459 
 1                    -0.49778  -2.67246   0.90055 
 1                    -2.10115  -2.11002   1.38583 
 1                    -0.78982  -2.18783   2.57702 
 6                     0.28296  -0.16199  -1.23845 
 6                     2.37628   0.08066  -3.08193 
 6                     0.11018  -0.57479  -2.56676 
 6                     1.50584   0.39244  -0.84443 
 6                     2.5503    0.50857  -1.76626 
 6                     1.15569  -0.4577   -3.48399 
 1                    -0.84184  -0.99125  -2.89192 
 1                     1.66835   0.76403   0.16191 
 1                     3.50012   0.94146  -1.46058 
 1                     1.01458  -0.78315  -4.51181 
 1                     3.18991   0.17487  -3.79729 
 6                    -0.99456   1.9524    1.719 
 1                    -1.53034   2.64127   2.38133 
 1                    -1.20479   2.23844   0.68454 
 1                     0.07359   2.09913   1.9133 
 
                          Input orientation:                          
 ---------------------------------------------------------------------
 Center     Atomic      Atomic             Coordinates (Angstroms)
 Number     Number       Type             X           Y           Z
 ---------------------------------------------------------------------
      1          6           0       -1.409734    0.512218    2.007327
      2          1           0       -2.484449    0.409622    1.817786
      3          6           0       -0.618609   -0.517887    1.183144
      4          1           0        0.443470   -0.432238    1.428315
      5          6           0       -0.871016   -0.309530   -0.305528
      6          8           0       -2.010997   -0.296034   -0.769106
      7          8           0       -1.208585    0.269937    3.404011
      8          1           0       -0.280530    0.462200    3.619378
      9          6           0       -1.027085   -1.952389    1.534593
     10          1           0       -0.497780   -2.672460    0.900549
     11          1           0       -2.101148   -2.110018    1.385832
     12          1           0       -0.789818   -2.187832    2.577023
     13          6           0        0.282956   -0.161993   -1.238448
     14          6           0        2.376278    0.080663   -3.081926
     15          6           0        0.110179   -0.574788   -2.566755
     16          6           0        1.505842    0.392439   -0.844431
     17          6           0        2.550304    0.508569   -1.766263
     18          6           0        1.155692   -0.457698   -3.483993
     19          1           0       -0.841844   -0.991251   -2.891920
     20          1           0        1.668350    0.764031    0.161914
     21          1           0        3.500121    0.941465   -1.460582
     22          1           0        1.014581   -0.783149   -4.511806
     23          1           0        3.189913    0.174873   -3.797294
     24          6           0       -0.994557    1.952399    1.718996
     25          1           0       -1.530336    2.641273    2.381335
     26          1           0       -1.204787    2.238444    0.684544
     27          1           0        0.073588    2.099134    1.913304
 ---------------------------------------------------------------------
                    Distance matrix (angstroms):
                    1          2          3          4          5
     1  C    0.000000
     2  H    1.096113   0.000000
     3  C    1.538269   2.178165   0.000000
     4  H    2.159077   3.071338   1.093369   0.000000
     5  C    2.512923   2.762029   1.524227   2.179253   0.000000
     6  O    2.953535   2.722888   2.408163   3.297214   1.230709
     7  O    1.431743   2.040454   2.429195   2.669402   3.769670
     8  H    1.968835   2.847061   2.647660   2.474863   4.043405
     9  C    2.538540   2.789839   1.532373   2.117708   2.471718
    10  H    3.492677   3.779868   2.176383   2.486581   2.679061
    11  H    2.782163   2.584974   2.184922   3.048250   2.759653
    12  H    2.828271   3.192958   2.181954   2.433647   3.441469
    13  C    3.722205   4.162431   2.608369   2.685223   1.491227
    14  C    6.357721   6.909562   5.245801   4.933669   4.290169
    15  C    4.941047   5.188964   3.820486   4.011483   2.479164
    16  C    4.080128   4.796885   3.074581   2.640852   2.536263
    17  C    5.470090   6.180932   4.449115   3.940710   3.808997
    18  C    6.138138   6.489355   4.993390   4.963737   3.772551
    19  H    5.156117   5.180919   4.108535   4.541912   2.674887
    20  H    3.597715   4.484780   2.813611   2.129592   2.796321
    21  H    6.026385   6.844386   5.107145   4.424466   4.691052
    22  H    7.074911   7.330050   5.930441   5.977821   4.633850
    23  H    7.413782   7.986401   6.307893   5.934520   5.377566
    24  C    1.526312   2.147020   2.555541   2.799805   3.038138
    25  H    2.165018   2.491623   3.499600   3.774999   4.044894
    26  H    2.184402   2.503270   2.861742   3.225288   2.753873
    27  H    2.174255   3.067104   2.803760   2.603818   3.408394
                    6          7          8          9         10
     6  O    0.000000
     7  O    4.287085   0.000000
     8  H    4.777890   0.971923   0.000000
     9  C    3.003103   2.909708   3.276266   0.000000
    10  H    3.274900   3.928138   4.155156   1.095754   0.000000
    11  H    2.818231   3.245597   3.862601   1.095713   1.767096
    12  H    4.033207   2.626766   2.892844   1.094710   1.769383
    13  C    2.345308   4.895271   4.930071   3.551265   3.389292
    14  C    4.973853   7.413126   7.218841   6.085099   5.630275
    15  C    2.794393   6.172742   6.284603   4.473501   4.097810
    16  C    3.584387   5.043052   4.808490   4.192099   4.056238
    17  C    4.737845   6.396712   6.084480   5.454327   5.149918
    18  C    4.174286   7.318733   7.305260   5.673167   5.182987
    19  H    2.521227   6.431473   6.695117   4.533444   4.162651
    20  H    3.940575   4.362576   3.980363   4.065533   4.128822
    21  H    5.690515   6.803464   6.350512   6.151509   5.883758
    22  H    4.837272   8.289247   8.327326   6.488025   5.928770
    23  H    6.036650   8.438875   8.193506   7.123015   6.616352
    24  C    3.504177   2.390766   2.518329   3.909276   4.722919
    25  H    4.334061   2.602427   2.800558   4.698081   5.612010
    26  H    3.030950   3.357162   3.552821   4.279865   4.966235
    27  H    4.156640   2.685542   2.390740   4.215418   4.911236
                   11         12         13         14         15
    11  H    0.000000
    12  H    1.773295   0.000000
    13  C    4.045441   4.451144   0.000000
    14  C    6.693824   6.869784   2.799873   0.000000
    15  C    4.782243   5.465379   1.401661   2.414585   0.000000
    16  C    4.924098   4.861502   1.399320   2.421002   2.418637
    17  C    6.199089   6.106646   2.422625   1.394403   2.787232
    18  C    6.087065   6.596536   2.427259   1.393313   1.395755
    19  H    4.597461   5.598558   2.164905   3.397265   1.088816
    20  H    4.895635   4.537492   2.176660   3.389787   3.415548
    21  H    6.984828   6.670707   3.408388   2.152384   3.874835
    22  H    6.800770   7.448523   3.411156   2.155214   2.155129
    23  H    7.751184   7.877344   3.887361   1.087487   3.400144
    24  C    4.223598   4.233160   3.853462   6.157498   5.096546
    25  H    4.887905   4.889469   4.924343   7.187877   6.125188
    26  H    4.494930   4.831728   3.416632   5.627286   4.496038
    27  H    4.767039   4.423129   3.884594   5.859089   5.217483
                   16         17         18         19         20
    16  C    0.000000
    17  C    1.397913   0.000000
    18  C    2.795108   2.414376   0.000000
    19  H    3.408584   3.875982   2.150669   0.000000
    20  H    1.084997   2.135643   3.879186   4.325274   0.000000
    21  H    2.158290   1.087654   3.398264   4.963545   2.453439
    22  H    3.882395   3.400734   1.087304   2.472580   4.966371
    23  H    3.406293   2.155351   2.153221   4.293555   4.282241
    24  C    3.905973   5.176651   6.123988   5.472563   3.305721
    25  H    4.968017   6.196984   7.156845   6.440223   4.322204
    26  H    3.618426   4.806207   5.497067   4.832573   3.271383
    27  H    3.545315   4.712030   6.069527   5.786076   2.719031
                   21         22         23         24         25
    21  H    0.000000
    22  H    4.296763   0.000000
    23  H    2.478732   2.482017   0.000000
    24  C    5.597663   7.095263   7.148345   0.000000
    25  H    6.554019   8.106704   8.157164   1.095581   0.000000
    26  H    5.331029   6.407626   6.607464   1.093667   1.774077
    27  H    4.946153   7.104580   6.784186   1.095546   1.756570
                   26         27
    26  H    0.000000
    27  H    1.778623   0.000000
 Stoichiometry    C11H14O2
 Framework group  C1[X(C11H14O2)]
 Deg. of freedom    75
 Full point group                 C1      NOp   1
 Largest Abelian subgroup         C1      NOp   1
 Largest concise Abelian subgroup C1      NOp   1
                         Standard orientation:                         
 ---------------------------------------------------------------------
 Center     Atomic      Atomic             Coordinates (Angstroms)
 Number     Number       Type             X           Y           Z
 ---------------------------------------------------------------------
      1          6           0       -2.568640    0.240858   -0.365891
      2          1           0       -2.934789   -0.587534   -0.983278
      3          6           0       -1.416634   -0.231404    0.537503
      4          1           0       -1.104237    0.595965    1.180406
      5          6           0       -0.261495   -0.753435   -0.308905
      6          8           0       -0.427706   -1.636824   -1.149524
      7          8           0       -3.668132    0.675541    0.441609
      8          1           0       -3.401191    1.479313    0.918398
      9          6           0       -1.862640   -1.359373    1.473949
     10          1           0       -1.018978   -1.724333    2.070369
     11          1           0       -2.261426   -2.211294    0.912000
     12          1           0       -2.637548   -1.016060    2.166800
     13          6           0        1.114594   -0.221341   -0.092080
     14          6           0        3.742860    0.675840    0.263694
     15          6           0        2.197152   -1.063338   -0.381495
     16          6           0        1.357884    1.081156    0.357819
     17          6           0        2.671227    1.524734    0.538179
     18          6           0        3.506996   -0.616875   -0.199531
     19          1           0        2.023055   -2.073158   -0.749564
     20          1           0        0.550919    1.779794    0.552576
     21          1           0        2.860399    2.537817    0.885837
     22          1           0        4.341222   -1.277323   -0.423375
     23          1           0        4.763419    1.024876    0.402480
     24          6           0       -2.174226    1.398315   -1.279323
     25          1           0       -3.044280    1.747261   -1.846370
     26          1           0       -1.394954    1.109817   -1.990386
     27          1           0       -1.817375    2.254302   -0.696086
 ---------------------------------------------------------------------
 Rotational constants (GHZ):      1.6023758      0.4481704      0.4111807
 Standard basis: 6-31G(d,p) (6D, 7F)
 There are   265 symmetry adapted basis functions of A   symmetry.
 Integral buffers will be    131072 words long.
 Raffenetti 2 integral format.
 Two-electron integral symmetry is turned on.
   265 basis functions,   462 primitive gaussians,   265 cartesian basis functions
    48 alpha electrons       48 beta electrons
       nuclear repulsion energy       778.5683784635 Hartrees.
 NAtoms=   27 NActive=   27 NUniq=   27 SFac= 1.00D+00 NAtFMM=   60 NAOKFM=F Big=F
 ------------------------------------------------------------------------------
 Polarizable Continuum Model (PCM)
 =================================
 Model                : C-PCM.
 Atomic radii         : SMD-Coulomb.
 Polarization charges : Total charges.
 Charge compensation  : None.
 Solution method      : Matrix inversion.
 Cavity type          : VdW (van der Waals Surface) (Alpha=1.000).
 Cavity algorithm     : GePol (No added spheres)
                        Default sphere list used, NSphG=   27.
                        Lebedev-Laikov grids with approx.  5.0 points / Ang**2.
                        Smoothing algorithm: Karplus/York (Gamma=1.0000).
                        Polarization charges: spherical gaussians, with
                                              point-specific exponents (IZeta= 3).
                        Self-potential: point-specific (ISelfS= 7).
                        Self-field    : sphere-specific E.n sum rule (ISelfD= 2).
 Solvent              : Chloroform, Eps=   4.711300 Eps(inf)=   2.090627
 ------------------------------------------------------------------------------
 ------------------------------------------------------------------------------
 Atomic radii for non-electrostatic terms: SMD-CDS.
 ------------------------------------------------------------------------------
 Nuclear repulsion after PCM non-electrostatic terms =      778.5618156816 Hartrees.
 One-electron integrals computed using PRISM.
 NBasis=   265 RedAO= T  NBF=   265
 NBsUse=   265 1.00D-06 NBFU=   265
 Harris functional with IExCor=  908 diagonalized for initial guess.
 ExpMin= 1.61D-01 ExpMax= 5.48D+03 ExpMxC= 8.25D+02 IAcc=1 IRadAn=         1 AccDes= 0.00D+00
 HarFok:  IExCor=  908 AccDes= 0.00D+00 IRadAn=         1 IDoV= 1
 ScaDFX=  1.000000  1.000000  1.000000  1.000000
 FoFCou: FMM=F IPFlag=           0 FMFlag=      100000 FMFlg1=           0
         NFxFlg=           0 DoJE=T BraDBF=F KetDBF=T FulRan=T
         Omega=  0.000000  0.000000  1.000000  0.000000  0.000000 ICntrl=     500 IOpCl=  0
         NMat0=    1 NMatS0=    1 NMatT0=    0 NMatD0=    1 NMtDS0=    0 NMtDT0=    0
         I1Cent=           4 NGrid=           0.
 Petite list used in FoFCou.
 Initial guess orbital symmetries:
       Occupied  (A) (A) (A) (A) (A) (A) (A) (A) (A) (A) (A) (A)
                 (A) (A) (A) (A) (A) (A) (A) (A) (A) (A) (A) (A)
                 (A) (A) (A) (A) (A) (A) (A) (A) (A) (A) (A) (A)
                 (A) (A) (A) (A) (A) (A) (A) (A) (A) (A) (A) (A)
       Virtual   (A) (A) (A) (A) (A) (A) (A) (A) (A) (A) (A) (A)
                 (A) (A) (A) (A) (A) (A) (A) (A) (A) (A) (A) (A)
                 (A) (A) (A) (A) (A) (A) (A) (A) (A) (A) (A) (A)
                 (A) (A) (A) (A) (A) (A) (A) (A) (A) (A) (A) (A)
                 (A) (A) (A) (A) (A) (A) (A) (A) (A) (A) (A) (A)
                 (A) (A) (A) (A) (A) (A) (A) (A) (A) (A) (A) (A)
                 (A) (A) (A) (A) (A) (A) (A) (A) (A) (A) (A) (A)
                 (A) (A) (A) (A) (A) (A) (A) (A) (A) (A) (A) (A)
                 (A) (A) (A) (A) (A) (A) (A) (A) (A) (A) (A) (A)
                 (A) (A) (A) (A) (A) (A) (A) (A) (A) (A) (A) (A)
                 (A) (A) (A) (A) (A) (A) (A) (A) (A) (A) (A) (A)
                 (A) (A) (A) (A) (A) (A) (A) (A) (A) (A) (A) (A)
                 (A) (A) (A) (A) (A) (A) (A) (A) (A) (A) (A) (A)
                 (A) (A) (A) (A) (A) (A) (A) (A) (A) (A) (A) (A)
                 (A) (A) (A) (A) (A) (A) (A) (A) (A) (A) (A) (A)
                 (A) (A) (A) (A) (A) (A) (A) (A) (A) (A) (A) (A)
                 (A) (A) (A) (A) (A) (A) (A) (A) (A) (A) (A) (A)
                 (A) (A) (A) (A) (A) (A) (A) (A) (A) (A) (A) (A)
                 (A)
 The electronic state of the initial guess is 1-A.
 Requested convergence on RMS density matrix=1.00D-08 within 128 cycles.
 Requested convergence on MAX density matrix=1.00D-06.
 Requested convergence on             energy=1.00D-06.
 No special actions if energy rises.
 Error on total polarization charges =  0.02747
 SCF Done:  E(RmPW1PW91) =  -577.946203667     A.U. after   12 cycles
             Convg  =    0.6412D-08             -V/T =  2.0093
 SMD-CDS (non-electrostatic) energy       (kcal/mol) =      -4.12
 (included in total energy above)
 Range of M.O.s used for correlation:     1   265
 NBasis=   265 NAE=    48 NBE=    48 NFC=     0 NFV=     0
 NROrb=    265 NOA=    48 NOB=    48 NVA=   217 NVB=   217
 NEqPCM:  Using equilibrium solvation (IEInf=0, Eps=   4.7113, EpsInf=   2.0906)
          Differentiating once with respect to magnetic field using GIAOs.
          Electric field/nuclear overlap derivatives assumed to be zero.
 FoFCou: FMM=F IPFlag=           0 FMFlag=    10101102 FMFlg1=           0
         NFxFlg=    40000000 DoJE=F BraDBF=F KetDBF=T FulRan=T
         Omega=  0.000000  0.000000  1.000000  0.000000  0.000000 ICntrl=    6100 IOpCl=  0
         NMat0=    1 NMatS0=    1 NMatT0=    0 NMatD0=    1 NMtDS0=    0 NMtDT0=    0
         I1Cent=           7 NGrid=        2045.
 Symmetry not used in FoFCou.
          There are     3 degrees of freedom in the 1st order CPHF.  IDoFFX=0.
      3 vectors produced by pass  0 Test12= 3.47D-13 3.33D-08 XBig12= 2.72D+01 1.41D+00.
 AX will form     3 AO Fock derivatives at one time.
      3 vectors produced by pass  1 Test12= 3.47D-13 3.33D-08 XBig12= 1.72D-01 2.56D-01.
      3 vectors produced by pass  2 Test12= 3.47D-13 3.33D-08 XBig12= 7.67D-04 8.35D-03.
      3 vectors produced by pass  3 Test12= 3.47D-13 3.33D-08 XBig12= 3.05D-06 3.68D-04.
      3 vectors produced by pass  4 Test12= 3.47D-13 3.33D-08 XBig12= 1.07D-08 2.50D-05.
      3 vectors produced by pass  5 Test12= 3.47D-13 3.33D-08 XBig12= 1.67D-11 2.05D-06.
      3 vectors produced by pass  6 Test12= 3.47D-13 3.33D-08 XBig12= 7.29D-14 1.05D-07.
 Inverted reduced A of dimension    21 with in-core refinement.
 Calculating GIAO nuclear magnetic shielding tensors.
 SCF GIAO Magnetic shielding tensor (ppm):
      1  C    Isotropic =   124.9017   Anisotropy =    43.3373
   XX=   135.7846   YX=   -19.0828   ZX=   -12.8417
   XY=   -16.8948   YY=   114.7854   ZY=     2.5282
   XZ=   -16.6161   YZ=     6.5445   ZZ=   124.1351
   Eigenvalues:   103.6914   117.2205   153.7932
      2  H    Isotropic =    27.6162   Anisotropy =     5.1878
   XX=    26.5270   YX=     0.2368   ZX=    -0.1703
   XY=     0.2311   YY=    28.8748   ZY=     2.2766
   XZ=     1.5949   YZ=     3.1976   ZZ=    27.4469
   Eigenvalues:    25.1926    26.5813    31.0747
      3  C    Isotropic =   143.6737   Anisotropy =    37.5667
   XX=   155.5364   YX=   -20.8617   ZX=    -0.5954
   XY=   -18.4792   YY=   137.8582   ZY=    -4.6997
   XZ=     0.2835   YZ=    -9.4547   ZZ=   137.6266
   Eigenvalues:   122.6559   139.6471   168.7182
      4  H    Isotropic =    28.2836   Anisotropy =     7.6143
   XX=    30.4225   YX=     2.3621   ZX=     0.4826
   XY=     4.5444   YY=    29.2929   ZY=    -0.4394
   XZ=    -0.0042   YZ=     0.3586   ZZ=    25.1354
   Eigenvalues:    25.1050    26.3861    33.3598
      5  C    Isotropic =   -10.0878   Anisotropy =   177.4768
   XX=   -78.7054   YX=   -31.4941   ZX=    11.3702
   XY=   -28.6010   YY=    35.5211   ZY=   -66.3593
   XZ=    14.2625   YZ=   -89.6438   ZZ=    12.9209
   Eigenvalues:   -86.8818   -51.6117   108.2301
      6  O    Isotropic =  -236.6767   Anisotropy =   943.0533
   XX=  -302.1876   YX=  -127.1270   ZX=    51.0460
   XY=  -116.1472   YY=  -163.2407   ZY=  -531.6339
   XZ=    37.6710   YZ=  -616.2920   ZZ=  -244.6019
   Eigenvalues:  -784.7383  -317.3174   392.0255
      7  O    Isotropic =   276.4176   Anisotropy =    58.7675
   XX=   259.7213   YX=    16.8197   ZX=    -1.3596
   XY=    -0.3342   YY=   291.7592   ZY=    33.0515
   XZ=   -20.5080   YZ=    26.9969   ZZ=   277.7723
   Eigenvalues:   242.8383   270.8185   315.5959
      8  H    Isotropic =    31.2749   Anisotropy =    15.3404
   XX=    28.3066   YX=     0.0131   ZX=    -1.5172
   XY=     0.2057   YY=    36.1012   ZY=     7.9952
   XZ=    -0.9063   YZ=     8.1064   ZZ=    29.4168
   Eigenvalues:    23.7883    28.5346    41.5018
      9  C    Isotropic =   177.8239   Anisotropy =    24.9273
   XX=   167.5241   YX=     7.3307   ZX=    -4.1990
   XY=     6.5425   YY=   185.9954   ZY=    -9.8671
   XZ=    -4.1609   YZ=    -7.1796   ZZ=   179.9521
   Eigenvalues:   165.0645   173.9651   194.4421
     10  H    Isotropic =    30.7268   Anisotropy =     8.5044
   XX=    30.8362   YX=    -1.2325   ZX=     2.9283
   XY=    -1.0258   YY=    29.7924   ZY=    -4.7474
   XZ=     1.7708   YZ=    -4.2087   ZZ=    31.5520
   Eigenvalues:    26.0152    29.7689    36.3965
     11  H    Isotropic =    30.4777   Anisotropy =     9.0745
   XX=    28.1831   YX=     2.6822   ZX=     1.0178
   XY=     3.7115   YY=    35.0297   ZY=     1.9225
   XZ=    -0.4661   YZ=     0.8758   ZZ=    28.2204
   Eigenvalues:    26.8650    28.0407    36.5274
     12  H    Isotropic =    29.9698   Anisotropy =     8.9434
   XX=    29.9719   YX=    -1.8277   ZX=    -4.1174
   XY=    -0.4807   YY=    27.7552   ZY=    -1.0092
   XZ=    -5.3343   YZ=    -1.1040   ZZ=    32.1823
   Eigenvalues:    25.2506    28.7268    35.9320
     13  C    Isotropic =    61.0181   Anisotropy =   161.4889
   XX=    -6.3683   YX=   -17.2069   ZX=    -9.8817
   XY=    -9.4965   YY=    31.4460   ZY=   -50.9792
   XZ=   -20.6971   YZ=   -22.7865   ZZ=   157.9766
   Eigenvalues:   -14.8951    29.2719   168.6774
     14  C    Isotropic =    66.5379   Anisotropy =   181.4080
   XX=   -24.6730   YX=   -23.6747   ZX=   -11.9656
   XY=   -26.5180   YY=    52.9337   ZY=   -48.0728
   XZ=    -7.3551   YZ=   -45.0658   ZZ=   171.3530
   Eigenvalues:   -34.7675    46.9046   187.4766
     15  C    Isotropic =    69.2766   Anisotropy =   178.7030
   XX=    47.8270   YX=    -6.6577   ZX=    -4.6488
   XY=     6.8212   YY=    -3.2689   ZY=   -66.8213
   XZ=   -11.9923   YZ=   -70.6389   ZZ=   163.2718
   Eigenvalues:   -28.0688    47.4868   188.4120
     16  C    Isotropic =    70.8002   Anisotropy =   175.2708
   XX=    12.0986   YX=    40.8274   ZX=     8.5342
   XY=    26.3688   YY=    31.4297   ZY=   -48.0940
   XZ=    -1.7675   YZ=   -59.0787   ZZ=   168.8722
   Eigenvalues:   -20.4691    45.2222   187.6474
     17  C    Isotropic =    70.3759   Anisotropy =   173.8377
   XX=    51.0614   YX=   -11.8143   ZX=    -7.2062
   XY=   -13.7316   YY=    -3.7103   ZY=   -65.4419
   XZ=    -4.8779   YZ=   -65.2327   ZZ=   163.7767
   Eigenvalues:   -28.6576    53.5176   186.2677
     18  C    Isotropic =    69.7942   Anisotropy =   174.7219
   XX=     5.9495   YX=    38.4675   ZX=    10.8374
   XY=    39.2873   YY=    35.8255   ZY=   -52.8012
   XZ=    10.0862   YZ=   -53.0185   ZZ=   167.6077
   Eigenvalues:   -28.9828    52.0901   186.2755
     19  H    Isotropic =    23.3981   Anisotropy =     7.0606
   XX=    27.9504   YX=    -0.4637   ZX=    -0.2189
   XY=    -1.4225   YY=    22.3070   ZY=     1.6296
   XZ=     0.4814   YZ=     1.2823   ZZ=    19.9370
   Eigenvalues:    19.2128    22.8764    28.1052
     20  H    Isotropic =    23.4012   Anisotropy =     8.6852
   XX=    27.1068   YX=     3.5958   ZX=     1.3751
   XY=     2.7466   YY=    23.2392   ZY=     1.5524
   XZ=     0.9385   YZ=     1.1897   ZZ=    19.8576
   Eigenvalues:    19.3714    21.6409    29.1913
     21  H    Isotropic =    23.7833   Anisotropy =     5.3122
   XX=    27.3244   YX=     0.0349   ZX=     0.1401
   XY=    -0.0862   YY=    23.5366   ZY=     1.2916
   XZ=    -0.0673   YZ=     0.8822   ZZ=    20.4889
   Eigenvalues:    20.1407    23.8844    27.3247
     22  H    Isotropic =    23.7509   Anisotropy =     4.6955
   XX=    25.7723   YX=     1.1517   ZX=     0.4785
   XY=     1.3555   YY=    24.6546   ZY=     1.7499
   XZ=     0.2630   YZ=     1.7947   ZZ=    20.8259
   Eigenvalues:    20.1291    24.2424    26.8813
     23  H    Isotropic =    23.6893   Anisotropy =     4.5006
   XX=    24.4595   YX=    -0.8855   ZX=    -0.2454
   XY=    -1.1663   YY=    25.5592   ZY=     1.8914
   XZ=     0.0375   YZ=     1.8660   ZZ=    21.0492
   Eigenvalues:    20.3531    24.0251    26.6897
     24  C    Isotropic =   171.6630   Anisotropy =    34.2834
   XX=   164.2089   YX=     3.1098   ZX=    -8.8112
   XY=     5.9432   YY=   177.2302   ZY=   -19.0790
   XZ=    -6.5790   YZ=   -14.1690   ZZ=   173.5497
   Eigenvalues:   157.1797   163.2906   194.5186
     25  H    Isotropic =    30.2454   Anisotropy =    10.0662
   XX=    30.6813   YX=    -1.4144   ZX=     3.2471
   XY=    -3.0189   YY=    28.8989   ZY=    -3.3797
   XZ=     4.8635   YZ=    -3.3734   ZZ=    31.1561
   Eigenvalues:    26.2576    27.5225    36.9562
     26  H    Isotropic =    30.5500   Anisotropy =     6.4516
   XX=    30.9060   YX=    -1.5955   ZX=    -3.7604
   XY=    -1.1026   YY=    27.8419   ZY=    -1.6448
   XZ=    -1.7148   YZ=    -1.3627   ZZ=    32.9022
   Eigenvalues:    26.3506    30.4484    34.8511
     27  H    Isotropic =    30.7322   Anisotropy =     6.5565
   XX=    29.7296   YX=     1.7431   ZX=     1.2364
   XY=     1.6342   YY=    34.4479   ZY=     1.3640
   XZ=     2.2694   YZ=    -0.6634   ZZ=    28.0192
   Eigenvalues:    26.8724    30.2211    35.1032
 End of Minotr Frequency-dependent properties file   721 does not exist.
 End of Minotr Frequency-dependent properties file   722 does not exist.

 **********************************************************************

            Population analysis using the SCF density.

 **********************************************************************

 Orbital symmetries:
       Occupied  (A) (A) (A) (A) (A) (A) (A) (A) (A) (A) (A) (A)
                 (A) (A) (A) (A) (A) (A) (A) (A) (A) (A) (A) (A)
                 (A) (A) (A) (A) (A) (A) (A) (A) (A) (A) (A) (A)
                 (A) (A) (A) (A) (A) (A) (A) (A) (A) (A) (A) (A)
       Virtual   (A) (A) (A) (A) (A) (A) (A) (A) (A) (A) (A) (A)
                 (A) (A) (A) (A) (A) (A) (A) (A) (A) (A) (A) (A)
                 (A) (A) (A) (A) (A) (A) (A) (A) (A) (A) (A) (A)
                 (A) (A) (A) (A) (A) (A) (A) (A) (A) (A) (A) (A)
                 (A) (A) (A) (A) (A) (A) (A) (A) (A) (A) (A) (A)
                 (A) (A) (A) (A) (A) (A) (A) (A) (A) (A) (A) (A)
                 (A) (A) (A) (A) (A) (A) (A) (A) (A) (A) (A) (A)
                 (A) (A) (A) (A) (A) (A) (A) (A) (A) (A) (A) (A)
                 (A) (A) (A) (A) (A) (A) (A) (A) (A) (A) (A) (A)
                 (A) (A) (A) (A) (A) (A) (A) (A) (A) (A) (A) (A)
                 (A) (A) (A) (A) (A) (A) (A) (A) (A) (A) (A) (A)
                 (A) (A) (A) (A) (A) (A) (A) (A) (A) (A) (A) (A)
                 (A) (A) (A) (A) (A) (A) (A) (A) (A) (A) (A) (A)
                 (A) (A) (A) (A) (A) (A) (A) (A) (A) (A) (A) (A)
                 (A) (A) (A) (A) (A) (A) (A) (A) (A) (A) (A) (A)
                 (A) (A) (A) (A) (A) (A) (A) (A) (A) (A) (A) (A)
                 (A) (A) (A) (A) (A) (A) (A) (A) (A) (A) (A) (A)
                 (A) (A) (A) (A) (A) (A) (A) (A) (A) (A) (A) (A)
                 (A)
 The electronic state is 1-A.
 Alpha  occ. eigenvalues --  -19.22840 -19.22815 -10.33634 -10.29305 -10.26315
 Alpha  occ. eigenvalues --  -10.26168 -10.25862 -10.25836 -10.25652 -10.25540
 Alpha  occ. eigenvalues --  -10.25151 -10.23208 -10.22786  -1.06318  -1.03742
 Alpha  occ. eigenvalues --   -0.88687  -0.82180  -0.78308  -0.77250  -0.74816
 Alpha  occ. eigenvalues --   -0.67324  -0.64719  -0.62886  -0.60937  -0.56113
 Alpha  occ. eigenvalues --   -0.53218  -0.49618  -0.48842  -0.47293  -0.45964
 Alpha  occ. eigenvalues --   -0.45558  -0.44856  -0.43570  -0.42825  -0.41623
 Alpha  occ. eigenvalues --   -0.39973  -0.38965  -0.37483  -0.36655  -0.36608
 Alpha  occ. eigenvalues --   -0.36529  -0.35373  -0.34854  -0.32404  -0.27990
 Alpha  occ. eigenvalues --   -0.26942  -0.26769  -0.25575
 Alpha virt. eigenvalues --   -0.04851  -0.00402   0.04059   0.09318   0.11652
 Alpha virt. eigenvalues --    0.13511   0.14461   0.14660   0.16631   0.17196
 Alpha virt. eigenvalues --    0.17833   0.18611   0.18821   0.19808   0.20435
 Alpha virt. eigenvalues --    0.20507   0.20904   0.21892   0.24517   0.25592
 Alpha virt. eigenvalues --    0.26445   0.27907   0.28471   0.30090   0.31279
 Alpha virt. eigenvalues --    0.32816   0.34472   0.38536   0.41623   0.48116
 Alpha virt. eigenvalues --    0.51908   0.53108   0.54222   0.54858   0.55975
 Alpha virt. eigenvalues --    0.56856   0.57416   0.58873   0.60196   0.60899
 Alpha virt. eigenvalues --    0.61133   0.61973   0.62241   0.62747   0.62923
 Alpha virt. eigenvalues --    0.63729   0.64945   0.66604   0.68743   0.69805
 Alpha virt. eigenvalues --    0.72885   0.73352   0.76652   0.77625   0.79263
 Alpha virt. eigenvalues --    0.80533   0.82296   0.83488   0.83718   0.84509
 Alpha virt. eigenvalues --    0.84706   0.85147   0.86925   0.88344   0.89546
 Alpha virt. eigenvalues --    0.91072   0.91302   0.92898   0.93600   0.94480
 Alpha virt. eigenvalues --    0.95535   0.96444   0.97431   0.97846   0.99218
 Alpha virt. eigenvalues --    1.01597   1.03547   1.04190   1.07440   1.08703
 Alpha virt. eigenvalues --    1.09785   1.10548   1.12762   1.15477   1.19433
 Alpha virt. eigenvalues --    1.20404   1.22900   1.24004   1.26004   1.28940
 Alpha virt. eigenvalues --    1.33197   1.34647   1.36373   1.40446   1.41405
 Alpha virt. eigenvalues --    1.42656   1.42966   1.45056   1.45156   1.48558
 Alpha virt. eigenvalues --    1.49911   1.52672   1.57792   1.59179   1.63461
 Alpha virt. eigenvalues --    1.65988   1.67961   1.71913   1.74710   1.76530
 Alpha virt. eigenvalues --    1.78396   1.80092   1.83235   1.83564   1.84238
 Alpha virt. eigenvalues --    1.85936   1.88132   1.89823   1.91604   1.92915
 Alpha virt. eigenvalues --    1.94171   1.96892   1.97324   1.98550   1.99281
 Alpha virt. eigenvalues --    2.00036   2.02477   2.04003   2.06562   2.06957
 Alpha virt. eigenvalues --    2.07587   2.08209   2.09537   2.10005   2.11531
 Alpha virt. eigenvalues --    2.13419   2.14204   2.15530   2.16534   2.20561
 Alpha virt. eigenvalues --    2.25449   2.26877   2.28686   2.31245   2.32623
 Alpha virt. eigenvalues --    2.33193   2.34583   2.37505   2.38547   2.39786
 Alpha virt. eigenvalues --    2.40468   2.42183   2.42707   2.44287   2.46324
 Alpha virt. eigenvalues --    2.46953   2.50441   2.51570   2.52406   2.55528
 Alpha virt. eigenvalues --    2.56781   2.59865   2.60774   2.61159   2.63991
 Alpha virt. eigenvalues --    2.64584   2.66524   2.68042   2.69227   2.70561
 Alpha virt. eigenvalues --    2.72231   2.73342   2.76364   2.78628   2.79553
 Alpha virt. eigenvalues --    2.81672   2.84858   2.88034   2.88805   2.89798
 Alpha virt. eigenvalues --    2.92384   2.93603   2.93938   2.98787   3.05403
 Alpha virt. eigenvalues --    3.06415   3.07706   3.11354   3.21206   3.22941
 Alpha virt. eigenvalues --    3.23885   3.26059   3.27630   3.32866   3.39155
 Alpha virt. eigenvalues --    3.43046   3.45597   3.47715   3.48634   3.51239
 Alpha virt. eigenvalues --    3.53274   3.56765   3.58025   3.91524   4.02710
 Alpha virt. eigenvalues --    4.13353   4.16208   4.18573   4.24162   4.35738
 Alpha virt. eigenvalues --    4.43953   4.46148   4.50801   4.57167   4.65118
 Alpha virt. eigenvalues --    4.81293   4.86892
          Condensed to atoms (all electrons):
              1          2          3          4          5          6
     1  C    4.758892   0.397959   0.322632  -0.033439  -0.027165   0.000373
     2  H    0.397959   0.568921  -0.047797   0.005385  -0.005626   0.008119
     3  C    0.322632  -0.047797   5.353283   0.376630   0.270300  -0.086355
     4  H   -0.033439   0.005385   0.376630   0.576379  -0.031293   0.003264
     5  C   -0.027165  -0.005626   0.270300  -0.031293   4.653590   0.518218
     6  O    0.000373   0.008119  -0.086355   0.003264   0.518218   8.147837
     7  O    0.230866  -0.035982  -0.049489  -0.000833   0.002968   0.000036
     8  H   -0.030533   0.006357  -0.004716   0.004649  -0.000040   0.000002
     9  C   -0.040813  -0.006135   0.334765  -0.042858  -0.032606  -0.002624
    10  H    0.004543  -0.000042  -0.034483  -0.002782  -0.004069  -0.000120
    11  H   -0.005367   0.004768  -0.035833   0.005128  -0.005850   0.005455
    12  H   -0.006762  -0.000142  -0.030537  -0.004118   0.005165   0.000091
    13  C    0.002292   0.000375  -0.099620  -0.000416   0.311992  -0.091731
    14  C    0.000000   0.000000  -0.000035   0.000005   0.000249  -0.000014
    15  C   -0.000128   0.000001   0.007645   0.000003  -0.036696   0.001740
    16  C   -0.000168  -0.000042  -0.004269   0.000549  -0.037943   0.002636
    17  C    0.000005   0.000000   0.000077   0.000202   0.004076  -0.000077
    18  C    0.000001   0.000000  -0.000079  -0.000026   0.005638   0.000821
    19  H   -0.000008  -0.000001   0.000582  -0.000018  -0.007296   0.010987
    20  H   -0.000597  -0.000001   0.002348   0.002624  -0.006280   0.000025
    21  H    0.000000   0.000000   0.000013  -0.000003  -0.000122   0.000000
    22  H    0.000000   0.000000   0.000002   0.000000  -0.000134   0.000004
    23  H    0.000000   0.000000   0.000000   0.000000   0.000005   0.000000
    24  C    0.366320  -0.047487  -0.066222  -0.007583   0.000743  -0.001913
    25  H   -0.029033  -0.005029   0.005787  -0.000064  -0.000084  -0.000011
    26  H   -0.027953  -0.000795  -0.001438   0.000195   0.003816   0.001288
    27  H   -0.030122   0.004941  -0.007602   0.003600  -0.000511   0.000046
              7          8          9         10         11         12
     1  C    0.230866  -0.030533  -0.040813   0.004543  -0.005367  -0.006762
     2  H   -0.035982   0.006357  -0.006135  -0.000042   0.004768  -0.000142
     3  C   -0.049489  -0.004716   0.334765  -0.034483  -0.035833  -0.030537
     4  H   -0.000833   0.004649  -0.042858  -0.002782   0.005128  -0.004118
     5  C    0.002968  -0.000040  -0.032606  -0.004069  -0.005850   0.005165
     6  O    0.000036   0.000002  -0.002624  -0.000120   0.005455   0.000091
     7  O    8.196010   0.292155  -0.004163   0.000187  -0.000254   0.010554
     8  H    0.292155   0.394775  -0.000745  -0.000039   0.000066   0.000167
     9  C   -0.004163  -0.000745   5.031881   0.383737   0.386676   0.384066
    10  H    0.000187  -0.000039   0.383737   0.564183  -0.028332  -0.028114
    11  H   -0.000254   0.000066   0.386676  -0.028332   0.550660  -0.026233
    12  H    0.010554   0.000167   0.384066  -0.028114  -0.026233   0.546331
    13  C   -0.000058   0.000006   0.002302   0.001648   0.000427  -0.000208
    14  C    0.000000   0.000000   0.000002  -0.000001   0.000000   0.000000
    15  C    0.000000   0.000000  -0.000491  -0.000005  -0.000002   0.000007
    16  C    0.000001  -0.000013  -0.000045   0.000164  -0.000018  -0.000002
    17  C    0.000000   0.000000  -0.000008  -0.000001   0.000000   0.000000
    18  C    0.000000   0.000000   0.000004   0.000000   0.000000   0.000000
    19  H    0.000000   0.000000  -0.000035  -0.000014  -0.000004   0.000001
    20  H   -0.000004  -0.000009  -0.000024  -0.000016   0.000000   0.000009
    21  H    0.000000   0.000000   0.000000   0.000000   0.000000   0.000000
    22  H    0.000000   0.000000   0.000000   0.000000   0.000000   0.000000
    23  H    0.000000   0.000000   0.000000   0.000000   0.000000   0.000000
    24  C   -0.053300  -0.005845   0.005646  -0.000123   0.000015   0.000200
    25  H    0.002124  -0.000696  -0.000145   0.000002  -0.000001  -0.000004
    26  H    0.003974  -0.000014  -0.000062  -0.000004   0.000004  -0.000020
    27  H   -0.002747   0.005336  -0.000026  -0.000001   0.000005   0.000000
             13         14         15         16         17         18
     1  C    0.002292   0.000000  -0.000128  -0.000168   0.000005   0.000001
     2  H    0.000375   0.000000   0.000001  -0.000042   0.000000   0.000000
     3  C   -0.099620  -0.000035   0.007645  -0.004269   0.000077  -0.000079
     4  H   -0.000416   0.000005   0.000003   0.000549   0.000202  -0.000026
     5  C    0.311992   0.000249  -0.036696  -0.037943   0.004076   0.005638
     6  O   -0.091731  -0.000014   0.001740   0.002636  -0.000077   0.000821
     7  O   -0.000058   0.000000   0.000000   0.000001   0.000000   0.000000
     8  H    0.000006   0.000000   0.000000  -0.000013   0.000000   0.000000
     9  C    0.002302   0.000002  -0.000491  -0.000045  -0.000008   0.000004
    10  H    0.001648  -0.000001  -0.000005   0.000164  -0.000001   0.000000
    11  H    0.000427   0.000000  -0.000002  -0.000018   0.000000   0.000000
    12  H   -0.000208   0.000000   0.000007  -0.000002   0.000000   0.000000
    13  C    5.024907  -0.031441   0.505685   0.523106  -0.031157  -0.035359
    14  C   -0.031441   4.862436  -0.046546  -0.049791   0.545466   0.536258
    15  C    0.505685  -0.046546   4.934084  -0.059666  -0.037824   0.513155
    16  C    0.523106  -0.049791  -0.059666   4.935548   0.523494  -0.037811
    17  C   -0.031157   0.545466  -0.037824   0.523494   4.884434  -0.041159
    18  C   -0.035359   0.536258   0.513155  -0.037811  -0.041159   4.900487
    19  H   -0.044265   0.004084   0.380952   0.004619   0.000182  -0.035263
    20  H   -0.037632   0.003950   0.004323   0.378425  -0.035011   0.000232
    21  H    0.003038  -0.036832   0.000655  -0.033480   0.380869   0.003879
    22  H    0.003368  -0.037437  -0.034126   0.000617   0.003906   0.381640
    23  H    0.000446   0.382039   0.004005   0.004234  -0.036811  -0.036858
    24  C   -0.000314   0.000000  -0.000002   0.000051  -0.000004   0.000000
    25  H    0.000010   0.000000   0.000000   0.000013   0.000000   0.000000
    26  H    0.000165   0.000000  -0.000018   0.000169   0.000017  -0.000001
    27  H    0.000060   0.000000   0.000008  -0.000493  -0.000003   0.000000
             19         20         21         22         23         24
     1  C   -0.000008  -0.000597   0.000000   0.000000   0.000000   0.366320
     2  H   -0.000001  -0.000001   0.000000   0.000000   0.000000  -0.047487
     3  C    0.000582   0.002348   0.000013   0.000002   0.000000  -0.066222
     4  H   -0.000018   0.002624  -0.000003   0.000000   0.000000  -0.007583
     5  C   -0.007296  -0.006280  -0.000122  -0.000134   0.000005   0.000743
     6  O    0.010987   0.000025   0.000000   0.000004   0.000000  -0.001913
     7  O    0.000000  -0.000004   0.000000   0.000000   0.000000  -0.053300
     8  H    0.000000  -0.000009   0.000000   0.000000   0.000000  -0.005845
     9  C   -0.000035  -0.000024   0.000000   0.000000   0.000000   0.005646
    10  H   -0.000014  -0.000016   0.000000   0.000000   0.000000  -0.000123
    11  H   -0.000004   0.000000   0.000000   0.000000   0.000000   0.000015
    12  H    0.000001   0.000009   0.000000   0.000000   0.000000   0.000200
    13  C   -0.044265  -0.037632   0.003038   0.003368   0.000446  -0.000314
    14  C    0.004084   0.003950  -0.036832  -0.037437   0.382039   0.000000
    15  C    0.380952   0.004323   0.000655  -0.034126   0.004005  -0.000002
    16  C    0.004619   0.378425  -0.033480   0.000617   0.004234   0.000051
    17  C    0.000182  -0.035011   0.380869   0.003906  -0.036811  -0.000004
    18  C   -0.035263   0.000232   0.003879   0.381640  -0.036858   0.000000
    19  H    0.525996  -0.000111   0.000014  -0.004257  -0.000138   0.000000
    20  H   -0.000111   0.524961  -0.004256   0.000013  -0.000143   0.000777
    21  H    0.000014  -0.004256   0.531654  -0.000145  -0.004521   0.000000
    22  H   -0.004257   0.000013  -0.000145   0.530862  -0.004472   0.000000
    23  H   -0.000138  -0.000143  -0.004521  -0.004472   0.531921   0.000000
    24  C    0.000000   0.000777   0.000000   0.000000   0.000000   5.112680
    25  H    0.000000  -0.000013   0.000000   0.000000   0.000000   0.382150
    26  H   -0.000001  -0.000026   0.000000   0.000000   0.000000   0.362964
    27  H    0.000000   0.001569  -0.000001   0.000000   0.000000   0.379893
             25         26         27
     1  C   -0.029033  -0.027953  -0.030122
     2  H   -0.005029  -0.000795   0.004941
     3  C    0.005787  -0.001438  -0.007602
     4  H   -0.000064   0.000195   0.003600
     5  C   -0.000084   0.003816  -0.000511
     6  O   -0.000011   0.001288   0.000046
     7  O    0.002124   0.003974  -0.002747
     8  H   -0.000696  -0.000014   0.005336
     9  C   -0.000145  -0.000062  -0.000026
    10  H    0.000002  -0.000004  -0.000001
    11  H   -0.000001   0.000004   0.000005
    12  H   -0.000004  -0.000020   0.000000
    13  C    0.000010   0.000165   0.000060
    14  C    0.000000   0.000000   0.000000
    15  C    0.000000  -0.000018   0.000008
    16  C    0.000013   0.000169  -0.000493
    17  C    0.000000   0.000017  -0.000003
    18  C    0.000000  -0.000001   0.000000
    19  H    0.000000  -0.000001   0.000000
    20  H   -0.000013  -0.000026   0.001569
    21  H    0.000000   0.000000  -0.000001
    22  H    0.000000   0.000000   0.000000
    23  H    0.000000   0.000000   0.000000
    24  C    0.382150   0.362964   0.379893
    25  H    0.550926  -0.023474  -0.031648
    26  H   -0.023474   0.560901  -0.025850
    27  H   -0.031648  -0.025850   0.567173
 Mulliken atomic charges:
              1
     1  C    0.148205
     2  H    0.152251
     3  C   -0.205590
     4  H    0.144819
     5  C    0.418955
     6  O   -0.518097
     7  O   -0.592045
     8  H    0.339136
     9  C   -0.398298
    10  H    0.143681
    11  H    0.148688
    12  H    0.149549
    13  C   -0.007627
    14  C   -0.132391
    15  C   -0.136757
    16  C   -0.149883
    17  C   -0.160675
    18  C   -0.155558
    19  H    0.163997
    20  H    0.164868
    21  H    0.159239
    22  H    0.160159
    23  H    0.160293
    24  C   -0.428646
    25  H    0.149190
    26  H    0.146165
    27  H    0.136371
 Sum of Mulliken atomic charges =   0.00000
 Mulliken charges with hydrogens summed into heavy atoms:
              1
     1  C    0.300456
     3  C   -0.060771
     5  C    0.418955
     6  O   -0.518097
     7  O   -0.252909
     9  C    0.043620
    13  C   -0.007627
    14  C    0.027902
    15  C    0.027241
    16  C    0.014985
    17  C   -0.001436
    18  C    0.004602
    24  C    0.003079
 Sum of Mulliken charges with hydrogens summed into heavy atoms =   0.00000
 Electronic spatial extent (au):  <R**2>=           2845.3707
 Charge=              0.0000 electrons
 Dipole moment (field-independent basis, Debye):
    X=              2.7070    Y=              3.5047    Z=              2.2777  Tot=              4.9798
 Quadrupole moment (field-independent basis, Debye-Ang):
   XX=            -75.9542   YY=            -72.3835   ZZ=            -79.0889
   XY=             -3.5769   XZ=             -0.7318   YZ=              0.5267
 Traceless Quadrupole moment (field-independent basis, Debye-Ang):
   XX=             -0.1453   YY=              3.4253   ZZ=             -3.2800
   XY=             -3.5769   XZ=             -0.7318   YZ=              0.5267
 Octapole moment (field-independent basis, Debye-Ang**2):
  XXX=             80.9157  YYY=             15.0446  ZZZ=              2.1207  XYY=             -3.5039
  XXY=              6.6902  XXZ=             -1.3830  XZZ=            -17.9175  YZZ=              5.9694
  YYZ=             12.0328  XYZ=              3.6727
 Hexadecapole moment (field-independent basis, Debye-Ang**3):
 XXXX=          -2685.8806 YYYY=           -613.1917 ZZZZ=           -382.1384 XXXY=             -9.1624
 XXXZ=             14.1451 YYYX=            -24.5618 YYYZ=             21.3869 ZZZX=            -13.6655
 ZZZY=              3.4300 XXYY=           -485.9676 XXZZ=           -515.9509 YYZZ=           -173.0759
 XXYZ=             43.6301 YYXZ=            -10.8720 ZZXY=            -15.0179
 N-N= 7.785618156816D+02 E-N=-2.901508632199D+03  KE= 5.726184308165D+02
 1\1\GINC-COMPUTE-8-9\SP\RmPW1PW91\6-31G(d,p)\C11H14O2\FBRUNO.IQUIR\21-
 Dec-2021\0\\# mPW1PW91/6-31g** scrf=(pcm,solvent=chloroform,smd,dovacu
 um) nmr\\comment\\0,1\C,0,-1.409733582,0.512218107,2.007326766\H,0,-2.
 484448504,0.409622271,1.817785505\C,0,-0.618608603,-0.517887256,1.1831
 44381\H,0,0.443469684,-0.432237688,1.428315326\C,0,-0.871015824,-0.309
 529523,-0.30552782\O,0,-2.010996978,-0.296034263,-0.769106417\O,0,-1.2
 08584583,0.269936696,3.404011065\H,0,-0.280529875,0.462200201,3.619377
 778\C,0,-1.027085445,-1.952389404,1.534592977\H,0,-0.497780469,-2.6724
 6011,0.90054888\H,0,-2.101147557,-2.110018277,1.385832071\H,0,-0.78981
 8422,-2.187831665,2.577023139\C,0,0.282956059,-0.161993399,-1.23844762
 7\C,0,2.376278175,0.080662507,-3.081925753\C,0,0.110178716,-0.57478762
 ,-2.566755339\C,0,1.505842118,0.392439309,-0.844430509\C,0,2.550304057
 ,0.508569241,-1.766262739\C,0,1.155691781,-0.457697816,-3.483993319\H,
 0,-0.841843966,-0.991251417,-2.891920026\H,0,1.668349582,0.764031473,0
 .161914042\H,0,3.500120585,0.941464563,-1.460581876\H,0,1.014580718,-0
 .783149074,-4.511805967\H,0,3.189913278,0.174873279,-3.797293616\C,0,-
 0.994557191,1.952399167,1.718995896\H,0,-1.530335603,2.64127296,2.3813
 34648\H,0,-1.204786533,2.238443991,0.684544362\H,0,0.073588382,2.09913
 3747,1.913304171\\Version=EM64L-G09RevC.01\State=1-A\HF=-577.9462037\R
 MSD=6.412e-09\Dipole=1.9393895,0.2468435,-0.1276542\Quadrupole=-1.5114
 533,-0.3629765,1.8744299,1.5051595,1.4656071,2.5228832\PG=C01 [X(C11H1
 4O2)]\\@


 IT IS IMPOSSIBLE TO MEDITATE ON TIME AND THE MYSTERY 
 OF NATURE WITHOUT AN OVERWHELMING EMOTION AT THE
 LIMITATIONS OF HUMAN INTELLIGENCE.

                                         -- ALFRED NORTH WHITEHEAD
 Job cpu time:  0 days  0 hours 20 minutes 42.7 seconds.
 File lengths (MBytes):  RWF=     81 Int=      0 D2E=      0 Chk=      5 Scr=      1
 Normal termination of Gaussian 09 at Tue Dec 21 08:28:53 2021.
