 Entering Gaussian System, Link 0=g09
 Input=/home/fbruno.iquir/2_val_run/2a_012_MPW_A_SMD.gjc
 Output=/home/fbruno.iquir/2_val_run/2a_012_MPW_A_SMD.log
 Initial command:
 /share/apps/Gaussian09/EM64T.SSE4.2-enabled/g09/l1.exe /tmp/Gau-15121.inp -scrdir=/tmp/
 Entering Link 1 = /share/apps/Gaussian09/EM64T.SSE4.2-enabled/g09/l1.exe PID=     15122.
  
 Copyright (c) 1988,1990,1992,1993,1995,1998,2003,2009,2011,
            Gaussian, Inc.  All Rights Reserved.
  
 This is part of the Gaussian(R) 09 program.  It is based on
 the Gaussian(R) 03 system (copyright 2003, Gaussian, Inc.),
 the Gaussian(R) 98 system (copyright 1998, Gaussian, Inc.),
 the Gaussian(R) 94 system (copyright 1995, Gaussian, Inc.),
 the Gaussian 92(TM) system (copyright 1992, Gaussian, Inc.),
 the Gaussian 90(TM) system (copyright 1990, Gaussian, Inc.),
 the Gaussian 88(TM) system (copyright 1988, Gaussian, Inc.),
 the Gaussian 86(TM) system (copyright 1986, Carnegie Mellon
 University), and the Gaussian 82(TM) system (copyright 1983,
 Carnegie Mellon University). Gaussian is a federally registered
 trademark of Gaussian, Inc.
  
 This software contains proprietary and confidential information,
 including trade secrets, belonging to Gaussian, Inc.
  
 This software is provided under written license and may be
 used, copied, transmitted, or stored only in accord with that
 written license.
  
 The following legend is applicable only to US Government
 contracts under FAR:
  
                    RESTRICTED RIGHTS LEGEND
  
 Use, reproduction and disclosure by the US Government is
 subject to restrictions as set forth in subparagraphs (a)
 and (c) of the Commercial Computer Software - Restricted
 Rights clause in FAR 52.227-19.
  
 Gaussian, Inc.
 340 Quinnipiac St., Bldg. 40, Wallingford CT 06492
  
  
 ---------------------------------------------------------------
 Warning -- This program may not be used in any manner that
 competes with the business of Gaussian, Inc. or will provide
 assistance to any competitor of Gaussian, Inc.  The licensee
 of this program is prohibited from giving any competitor of
 Gaussian, Inc. access to this program.  By using this program,
 the user acknowledges that Gaussian, Inc. is engaged in the
 business of creating and licensing software in the field of
 computational chemistry and represents and warrants to the
 licensee that it is not a competitor of Gaussian, Inc. and that
 it will not use this program in any manner prohibited above.
 ---------------------------------------------------------------
  

 Cite this work as:
 Gaussian 09, Revision C.01,
 M. J. Frisch, G. W. Trucks, H. B. Schlegel, G. E. Scuseria, 
 M. A. Robb, J. R. Cheeseman, G. Scalmani, V. Barone, B. Mennucci, 
 G. A. Petersson, H. Nakatsuji, M. Caricato, X. Li, H. P. Hratchian, 
 A. F. Izmaylov, J. Bloino, G. Zheng, J. L. Sonnenberg, M. Hada, 
 M. Ehara, K. Toyota, R. Fukuda, J. Hasegawa, M. Ishida, T. Nakajima, 
 Y. Honda, O. Kitao, H. Nakai, T. Vreven, J. A. Montgomery, Jr., 
 J. E. Peralta, F. Ogliaro, M. Bearpark, J. J. Heyd, E. Brothers, 
 K. N. Kudin, V. N. Staroverov, T. Keith, R. Kobayashi, J. Normand, 
 K. Raghavachari, A. Rendell, J. C. Burant, S. S. Iyengar, J. Tomasi, 
 M. Cossi, N. Rega, J. M. Millam, M. Klene, J. E. Knox, J. B. Cross, 
 V. Bakken, C. Adamo, J. Jaramillo, R. Gomperts, R. E. Stratmann, 
 O. Yazyev, A. J. Austin, R. Cammi, C. Pomelli, J. W. Ochterski, 
 R. L. Martin, K. Morokuma, V. G. Zakrzewski, G. A. Voth, 
 P. Salvador, J. J. Dannenberg, S. Dapprich, A. D. Daniels, 
 O. Farkas, J. B. Foresman, J. V. Ortiz, J. Cioslowski, 
 and D. J. Fox, Gaussian, Inc., Wallingford CT, 2010.
 
 ******************************************
 Gaussian 09:  EM64L-G09RevC.01 23-Sep-2011
                21-Dec-2021 
 ******************************************
 %nprocshared=4
 Will use up to    4 processors via shared memory.
 -----------------------------------------------------------------
 # mPW1PW91/6-31g** scrf=(pcm,solvent=chloroform,smd,dovacuum) nmr
 -----------------------------------------------------------------
 1/38=1/1;
 2/12=2,17=6,18=5,40=1/2;
 3/5=1,6=6,7=101,11=2,16=1,25=1,30=1,70=32101,72=7,74=-7/1,2,8,3;
 4//1;
 5/5=2,38=5,53=7/2;
 8/6=1,10=90,11=11/1;
 10/13=100,45=16/2;
 6/7=2,8=2,9=2,10=2,28=1/1;
 99/9=1/99;
 -------
 comment
 -------
 Charge =  0 Multiplicity = 1
 Symbolic Z-Matrix:
 6                    -0.42894   0.37752   1.68094 
 1                     0.41267   0.92791   1.24866 
 6                    -0.74983  -0.8562    0.81204 
 1                     0.08523  -1.56494   0.85973 
 6                    -0.92611  -0.44825  -0.65523 
 8                    -2.00908  -0.54896  -1.23337 
 8                    -1.51689   1.29677   1.72275 
 1                    -2.2757    0.87072   2.15673 
 6                    -1.98739  -1.62995   1.28576 
 1                    -2.16287  -2.50065   0.64323 
 1                    -2.89388  -1.01684   1.25204 
 1                    -1.86025  -2.00107   2.30687 
 6                     0.24194   0.07327  -1.43066 
 6                     2.35235   1.08954  -2.96939 
 6                    -0.01692   0.84419  -2.57274 
 6                     1.56886  -0.19587  -1.07334 
 6                     2.61953   0.31507  -1.84136 
 6                     1.0347    1.3529   -3.337 
 1                    -1.04301   1.05533  -2.86954 
 1                     1.81716  -0.80675  -0.212 
 1                     3.64946   0.10535  -1.56207 
 1                     0.82281   1.95294  -4.2185 
 1                     3.17142   1.485    -3.56528 
 6                    -0.04737   0.01401   3.1127 
 1                     0.25515   0.91384   3.66002 
 1                     0.78209  -0.69904   3.13516 
 1                    -0.89467  -0.40631   3.66373 
 
                          Input orientation:                          
 ---------------------------------------------------------------------
 Center     Atomic      Atomic             Coordinates (Angstroms)
 Number     Number       Type             X           Y           Z
 ---------------------------------------------------------------------
      1          6           0       -0.428944    0.377525    1.680938
      2          1           0        0.412670    0.927912    1.248663
      3          6           0       -0.749834   -0.856198    0.812038
      4          1           0        0.085230   -1.564943    0.859734
      5          6           0       -0.926106   -0.448245   -0.655226
      6          8           0       -2.009083   -0.548965   -1.233366
      7          8           0       -1.516895    1.296766    1.722750
      8          1           0       -2.275703    0.870716    2.156730
      9          6           0       -1.987393   -1.629950    1.285757
     10          1           0       -2.162871   -2.500651    0.643234
     11          1           0       -2.893882   -1.016839    1.252037
     12          1           0       -1.860253   -2.001070    2.306871
     13          6           0        0.241939    0.073269   -1.430665
     14          6           0        2.352354    1.089544   -2.969392
     15          6           0       -0.016918    0.844190   -2.572737
     16          6           0        1.568856   -0.195865   -1.073339
     17          6           0        2.619527    0.315066   -1.841356
     18          6           0        1.034699    1.352896   -3.336996
     19          1           0       -1.043015    1.055331   -2.869541
     20          1           0        1.817158   -0.806753   -0.212003
     21          1           0        3.649464    0.105346   -1.562072
     22          1           0        0.822812    1.952944   -4.218499
     23          1           0        3.171418    1.484997   -3.565283
     24          6           0       -0.047371    0.014015    3.112699
     25          1           0        0.255152    0.913841    3.660022
     26          1           0        0.782090   -0.699036    3.135160
     27          1           0       -0.894671   -0.406315    3.663732
 ---------------------------------------------------------------------
                    Distance matrix (angstroms):
                    1          2          3          4          5
     1  C    0.000000
     2  H    1.094578   0.000000
     3  C    1.542734   2.173731   0.000000
     4  H    2.170698   2.544171   1.096325   0.000000
     5  C    2.527197   2.703872   1.533088   2.136567   0.000000
     6  O    3.442149   3.769154   2.421524   3.130404   1.231759
     7  O    1.424917   2.020899   2.460291   3.391309   3.008133
     8  H    1.969806   2.838170   2.668090   3.631616   3.386468
     9  C    2.571943   3.507754   1.534489   2.116953   2.508021
    10  H    3.516707   4.330704   2.174717   2.444663   2.725427
    11  H    2.864285   3.836060   2.194618   3.054412   2.798767
    12  H    2.845725   3.855505   2.185929   2.463598   3.472451
    13  C    3.197613   2.817510   2.622449   2.820323   1.495865
    14  C    5.465177   4.645480   5.263905   5.181540   4.297495
    15  C    4.298987   3.846381   3.858132   4.194784   2.484725
    16  C    3.450511   2.826895   3.060557   2.795048   2.542312
    17  C    4.658716   3.846299   4.445780   4.153671   3.815896
    18  C    5.317261   4.647128   5.027836   5.198829   3.778989
    19  H    4.641483   4.369767   4.158596   4.695345   2.679104
    20  H    3.167130   2.667432   2.764155   2.173257   2.801869
    21  H    5.217720   4.365052   5.090657   4.621555   4.697305
    22  H    6.233153   5.577524   5.972504   6.221576   4.639110
    23  H    6.458478   5.576299   6.326006   6.197376   5.384753
    24  C    1.525673   2.126376   2.558079   2.754368   3.896552
    25  H    2.161572   2.416539   3.500578   3.743642   4.676752
    26  H    2.177234   2.518392   2.787183   2.532384   4.165075
    27  H    2.182379   3.053172   2.890594   3.188265   4.319276
                    6          7          8          9         10
     6  O    0.000000
     7  O    3.519602   0.000000
     8  H    3.685014   0.972444   0.000000
     9  C    2.741347   2.996331   2.663653   0.000000
    10  H    2.711892   4.000377   3.697230   1.096242   0.000000
    11  H    2.679367   2.733210   2.182540   1.094881   1.762588
    12  H    3.829366   3.366721   2.905563   1.093878   1.763193
    13  C    2.343758   3.812410   4.454643   3.905102   4.087692
    14  C    4.971985   6.085247   6.909698   6.658480   6.806454
    15  C    2.775521   4.572304   5.241247   4.989200   5.112293
    16  C    3.598880   4.423564   5.133379   4.502093   4.710037
    17  C    4.747656   5.547664   6.344818   5.897936   6.080525
    18  C    4.160162   5.666993   6.432129   6.276963   6.396601
    19  H    2.486789   4.622985   5.178513   5.036773   5.122370
    20  H    3.968596   4.391352   5.017600   4.170797   4.409234
    21  H    5.705727   6.237051   7.037250   6.549469   6.740759
    22  H    4.815620   6.418975   7.170465   7.143614   7.237766
    23  H    6.034271   7.069583   7.924008   7.736202   7.877287
    24  C    4.801411   2.395185   2.571630   3.131138   4.110613
    25  H    5.586753   2.653262   2.943973   4.139688   5.158158
    26  H    5.186250   3.356107   3.573730   3.457880   4.257735
    27  H    5.024325   2.656136   2.410210   2.888961   3.888185
                   11         12         13         14         15
    11  H    0.000000
    12  H    1.774761   0.000000
    13  C    4.268325   4.763535   0.000000
    14  C    7.055517   7.425423   2.802561   0.000000
    15  C    5.135100   5.941714   1.402018   2.414743   0.000000
    16  C    5.098765   5.142312   1.400294   2.420984   2.417558
    17  C    6.460707   6.529985   2.424883   1.394153   2.786706
    18  C    6.489116   7.175171   2.428994   1.393091   1.395984
    19  H    4.970614   6.066688   2.164698   3.397009   1.088829
    20  H    4.937758   4.614593   2.177358   3.389037   3.415042
    21  H    7.210679   7.054267   3.410209   2.152136   3.874234
    22  H    7.249841   8.087863   3.412127   2.155279   2.154766
    23  H    8.139633   8.482486   3.889913   1.087352   3.400186
    24  C    3.553499   2.827802   4.552952   6.626257   5.745807
    25  H    4.409346   3.847422   5.159634   6.955448   6.239082
    26  H    4.142454   3.059956   4.662078   6.552121   5.966577
    27  H    3.191529   2.305789   5.241638   7.535191   6.420885
                   16         17         18         19         20
    16  C    0.000000
    17  C    1.398146   0.000000
    18  C    2.794302   2.413651   0.000000
    19  H    3.407888   3.875483   2.150338   0.000000
    20  H    1.084776   2.134729   3.878390   4.325558   0.000000
    21  H    2.158360   1.087544   3.397607   4.962993   2.451929
    22  H    3.881494   3.400241   1.087199   2.471175   4.965548
    23  H    3.406360   2.155283   2.152936   4.293031   4.281428
    24  C    4.492122   5.634327   6.675481   6.153279   3.899202
    25  H    5.036067   6.017803   7.053986   6.658862   4.515848
    26  H    4.310875   5.400952   6.794338   6.516536   3.505206
    27  H    5.343510   6.570843   7.471780   6.696423   4.747178
                   21         22         23         24         25
    21  H    0.000000
    22  H    4.296532   0.000000
    23  H    2.478875   2.482260   0.000000
    24  C    5.960572   7.633030   7.557767   0.000000
    25  H    6.280548   7.966999   7.812545   1.095796   0.000000
    26  H    5.561730   7.817350   7.441426   1.094053   1.776096
    27  H    6.944062   8.405083   8.506986   1.094638   1.750691
                   26         27
    26  H    0.000000
    27  H    1.782303   0.000000
 Stoichiometry    C11H14O2
 Framework group  C1[X(C11H14O2)]
 Deg. of freedom    75
 Full point group                 C1      NOp   1
 Largest Abelian subgroup         C1      NOp   1
 Largest concise Abelian subgroup C1      NOp   1
                         Standard orientation:                         
 ---------------------------------------------------------------------
 Center     Atomic      Atomic             Coordinates (Angstroms)
 Number     Number       Type             X           Y           Z
 ---------------------------------------------------------------------
      1          6           0       -1.813907   -0.843478    0.491837
      2          1           0       -0.915219   -1.410389    0.754655
      3          6           0       -1.496855    0.139426   -0.654202
      4          1           0       -1.260720   -0.423629   -1.564772
      5          6           0       -0.270482    0.991341   -0.306914
      6          8           0       -0.350707    2.208439   -0.135253
      7          8           0       -2.209686   -0.165126    1.680782
      8          1           0       -3.042818    0.307806    1.513826
      9          6           0       -2.675129    1.053101   -1.016863
     10          1           0       -2.401098    1.720928   -1.841884
     11          1           0       -2.978419    1.686514   -0.176882
     12          1           0       -3.544097    0.474402   -1.343315
     13          6           0        1.074834    0.348727   -0.185324
     14          6           0        3.636205   -0.753224    0.096509
     15          6           0        2.060415    1.018546    0.553342
     16          6           0        1.388035   -0.872973   -0.793744
     17          6           0        2.665874   -1.421541   -0.648792
     18          6           0        3.335122    0.467635    0.696136
     19          1           0        1.836037    1.973712    1.025425
     20          1           0        0.665446   -1.415479   -1.393988
     21          1           0        2.907186   -2.370684   -1.121705
     22          1           0        4.090773    0.993484    1.274476
     23          1           0        4.629408   -1.181808    0.206959
     24          6           0       -2.898068   -1.853048    0.127089
     25          1           0       -3.022271   -2.579275    0.938223
     26          1           0       -2.644439   -2.397036   -0.787624
     27          1           0       -3.872880   -1.372120   -0.002076
 ---------------------------------------------------------------------
 Rotational constants (GHZ):      1.4251012      0.4915699      0.4329790
 Standard basis: 6-31G(d,p) (6D, 7F)
 There are   265 symmetry adapted basis functions of A   symmetry.
 Integral buffers will be    131072 words long.
 Raffenetti 2 integral format.
 Two-electron integral symmetry is turned on.
   265 basis functions,   462 primitive gaussians,   265 cartesian basis functions
    48 alpha electrons       48 beta electrons
       nuclear repulsion energy       782.4293636865 Hartrees.
 NAtoms=   27 NActive=   27 NUniq=   27 SFac= 1.00D+00 NAtFMM=   60 NAOKFM=F Big=F
 ------------------------------------------------------------------------------
 Polarizable Continuum Model (PCM)
 =================================
 Model                : C-PCM.
 Atomic radii         : SMD-Coulomb.
 Polarization charges : Total charges.
 Charge compensation  : None.
 Solution method      : Matrix inversion.
 Cavity type          : VdW (van der Waals Surface) (Alpha=1.000).
 Cavity algorithm     : GePol (No added spheres)
                        Default sphere list used, NSphG=   27.
                        Lebedev-Laikov grids with approx.  5.0 points / Ang**2.
                        Smoothing algorithm: Karplus/York (Gamma=1.0000).
                        Polarization charges: spherical gaussians, with
                                              point-specific exponents (IZeta= 3).
                        Self-potential: point-specific (ISelfS= 7).
                        Self-field    : sphere-specific E.n sum rule (ISelfD= 2).
 Solvent              : Chloroform, Eps=   4.711300 Eps(inf)=   2.090627
 ------------------------------------------------------------------------------
 ------------------------------------------------------------------------------
 Atomic radii for non-electrostatic terms: SMD-CDS.
 ------------------------------------------------------------------------------
 Nuclear repulsion after PCM non-electrostatic terms =      782.4229479920 Hartrees.
 One-electron integrals computed using PRISM.
 NBasis=   265 RedAO= T  NBF=   265
 NBsUse=   265 1.00D-06 NBFU=   265
 Harris functional with IExCor=  908 diagonalized for initial guess.
 ExpMin= 1.61D-01 ExpMax= 5.48D+03 ExpMxC= 8.25D+02 IAcc=1 IRadAn=         1 AccDes= 0.00D+00
 HarFok:  IExCor=  908 AccDes= 0.00D+00 IRadAn=         1 IDoV= 1
 ScaDFX=  1.000000  1.000000  1.000000  1.000000
 FoFCou: FMM=F IPFlag=           0 FMFlag=      100000 FMFlg1=           0
         NFxFlg=           0 DoJE=T BraDBF=F KetDBF=T FulRan=T
         Omega=  0.000000  0.000000  1.000000  0.000000  0.000000 ICntrl=     500 IOpCl=  0
         NMat0=    1 NMatS0=    1 NMatT0=    0 NMatD0=    1 NMtDS0=    0 NMtDT0=    0
         I1Cent=           4 NGrid=           0.
 Petite list used in FoFCou.
 Initial guess orbital symmetries:
       Occupied  (A) (A) (A) (A) (A) (A) (A) (A) (A) (A) (A) (A)
                 (A) (A) (A) (A) (A) (A) (A) (A) (A) (A) (A) (A)
                 (A) (A) (A) (A) (A) (A) (A) (A) (A) (A) (A) (A)
                 (A) (A) (A) (A) (A) (A) (A) (A) (A) (A) (A) (A)
       Virtual   (A) (A) (A) (A) (A) (A) (A) (A) (A) (A) (A) (A)
                 (A) (A) (A) (A) (A) (A) (A) (A) (A) (A) (A) (A)
                 (A) (A) (A) (A) (A) (A) (A) (A) (A) (A) (A) (A)
                 (A) (A) (A) (A) (A) (A) (A) (A) (A) (A) (A) (A)
                 (A) (A) (A) (A) (A) (A) (A) (A) (A) (A) (A) (A)
                 (A) (A) (A) (A) (A) (A) (A) (A) (A) (A) (A) (A)
                 (A) (A) (A) (A) (A) (A) (A) (A) (A) (A) (A) (A)
                 (A) (A) (A) (A) (A) (A) (A) (A) (A) (A) (A) (A)
                 (A) (A) (A) (A) (A) (A) (A) (A) (A) (A) (A) (A)
                 (A) (A) (A) (A) (A) (A) (A) (A) (A) (A) (A) (A)
                 (A) (A) (A) (A) (A) (A) (A) (A) (A) (A) (A) (A)
                 (A) (A) (A) (A) (A) (A) (A) (A) (A) (A) (A) (A)
                 (A) (A) (A) (A) (A) (A) (A) (A) (A) (A) (A) (A)
                 (A) (A) (A) (A) (A) (A) (A) (A) (A) (A) (A) (A)
                 (A) (A) (A) (A) (A) (A) (A) (A) (A) (A) (A) (A)
                 (A) (A) (A) (A) (A) (A) (A) (A) (A) (A) (A) (A)
                 (A) (A) (A) (A) (A) (A) (A) (A) (A) (A) (A) (A)
                 (A) (A) (A) (A) (A) (A) (A) (A) (A) (A) (A) (A)
                 (A)
 The electronic state of the initial guess is 1-A.
 Requested convergence on RMS density matrix=1.00D-08 within 128 cycles.
 Requested convergence on MAX density matrix=1.00D-06.
 Requested convergence on             energy=1.00D-06.
 No special actions if energy rises.
 Error on total polarization charges =  0.02826
 SCF Done:  E(RmPW1PW91) =  -577.946381493     A.U. after   12 cycles
             Convg  =    0.7185D-08             -V/T =  2.0094
 SMD-CDS (non-electrostatic) energy       (kcal/mol) =      -4.03
 (included in total energy above)
 Range of M.O.s used for correlation:     1   265
 NBasis=   265 NAE=    48 NBE=    48 NFC=     0 NFV=     0
 NROrb=    265 NOA=    48 NOB=    48 NVA=   217 NVB=   217
 NEqPCM:  Using equilibrium solvation (IEInf=0, Eps=   4.7113, EpsInf=   2.0906)
          Differentiating once with respect to magnetic field using GIAOs.
          Electric field/nuclear overlap derivatives assumed to be zero.
 FoFCou: FMM=F IPFlag=           0 FMFlag=    10101102 FMFlg1=           0
         NFxFlg=    40000000 DoJE=F BraDBF=F KetDBF=T FulRan=T
         Omega=  0.000000  0.000000  1.000000  0.000000  0.000000 ICntrl=    6100 IOpCl=  0
         NMat0=    1 NMatS0=    1 NMatT0=    0 NMatD0=    1 NMtDS0=    0 NMtDT0=    0
         I1Cent=           7 NGrid=        2007.
 Symmetry not used in FoFCou.
          There are     3 degrees of freedom in the 1st order CPHF.  IDoFFX=0.
      3 vectors produced by pass  0 Test12= 3.47D-13 3.33D-08 XBig12= 2.32D+01 1.27D+00.
 AX will form     3 AO Fock derivatives at one time.
      3 vectors produced by pass  1 Test12= 3.47D-13 3.33D-08 XBig12= 1.44D-01 2.50D-01.
      3 vectors produced by pass  2 Test12= 3.47D-13 3.33D-08 XBig12= 1.75D-03 1.33D-02.
      3 vectors produced by pass  3 Test12= 3.47D-13 3.33D-08 XBig12= 8.16D-06 6.31D-04.
      3 vectors produced by pass  4 Test12= 3.47D-13 3.33D-08 XBig12= 2.93D-08 4.96D-05.
      3 vectors produced by pass  5 Test12= 3.47D-13 3.33D-08 XBig12= 1.48D-10 4.44D-06.
      1 vectors produced by pass  6 Test12= 3.47D-13 3.33D-08 XBig12= 4.55D-13 1.35D-07.
 Inverted reduced A of dimension    19 with in-core refinement.
 Calculating GIAO nuclear magnetic shielding tensors.
 SCF GIAO Magnetic shielding tensor (ppm):
      1  C    Isotropic =   127.2647   Anisotropy =    44.7472
   XX=   111.5421   YX=     1.8487   ZX=   -13.8570
   XY=    -2.2254   YY=   127.0442   ZY=    19.6310
   XZ=   -16.7408   YZ=    12.6747   ZZ=   143.2077
   Eigenvalues:   103.5012   121.1967   157.0962
      2  H    Isotropic =    27.1731   Anisotropy =     7.5753
   XX=    31.7875   YX=    -0.9568   ZX=     0.2550
   XY=    -0.9610   YY=    25.6809   ZY=     0.2262
   XZ=    -3.4408   YZ=    -0.7819   ZZ=    24.0509
   Eigenvalues:    23.6284    25.6676    32.2233
      3  C    Isotropic =   147.3751   Anisotropy =    24.1914
   XX=   152.5626   YX=     9.2042   ZX=    -0.1731
   XY=    20.6813   YY=   137.3947   ZY=    -5.9335
   XZ=    -0.2168   YZ=    -9.6046   ZZ=   152.1679
   Eigenvalues:   126.5303   152.0922   163.5027
      4  H    Isotropic =    28.0947   Anisotropy =     7.2790
   XX=    29.3544   YX=    -2.6574   ZX=    -1.0575
   XY=    -3.8111   YY=    25.9686   ZY=     1.2229
   XZ=    -1.7603   YZ=     3.7150   ZZ=    28.9611
   Eigenvalues:    23.5926    27.7441    32.9473
      5  C    Isotropic =    -8.6223   Anisotropy =   170.1948
   XX=   -76.2471   YX=    12.8991   ZX=   -29.1189
   XY=    16.5876   YY=   -49.0534   ZY=   -23.0341
   XZ=   -22.0945   YZ=    -5.8283   ZZ=    99.4335
   Eigenvalues:   -84.5329   -46.1750   104.8408
      6  O    Isotropic =  -260.7530   Anisotropy =   963.2140
   XX=  -319.9301   YX=    78.7734   ZX=  -110.7244
   XY=    53.3395   YY=  -815.2012   ZY=  -171.6336
   XZ=  -114.4830   YZ=   -30.0885   ZZ=   352.8722
   Eigenvalues:  -830.1807  -333.4681   381.3897
      7  O    Isotropic =   290.8948   Anisotropy =    47.1457
   XX=   302.0516   YX=    -0.9656   ZX=    28.4281
   XY=    -5.4906   YY=   289.3126   ZY=    31.3676
   XZ=    22.1781   YZ=    11.6929   ZZ=   281.3201
   Eigenvalues:   253.2105   297.1486   322.3253
      8  H    Isotropic =    30.6007   Anisotropy =    14.5881
   XX=    34.9643   YX=    -8.5653   ZX=    -1.4685
   XY=    -7.3580   YY=    27.9430   ZY=    -0.6357
   XZ=    -1.9228   YZ=     0.5440   ZZ=    28.8947
   Eigenvalues:    22.6019    28.8741    40.3260
      9  C    Isotropic =   186.9430   Anisotropy =     8.5949
   XX=   191.6185   YX=    -1.9753   ZX=     2.6156
   XY=    -0.6891   YY=   186.8074   ZY=    -0.5344
   XZ=     2.1727   YZ=    -2.4093   ZZ=   182.4031
   Eigenvalues:   181.5693   186.5866   192.6729
     10  H    Isotropic =    30.5426   Anisotropy =    10.1352
   XX=    27.9409   YX=    -0.2936   ZX=    -0.1884
   XY=    -0.1061   YY=    31.3361   ZY=    -5.0977
   XZ=     1.2901   YZ=    -5.7038   ZZ=    32.3507
   Eigenvalues:    26.3863    27.9421    37.2993
     11  H    Isotropic =    30.3370   Anisotropy =     8.5796
   XX=    28.6464   YX=    -3.4485   ZX=    -1.6033
   XY=    -2.7736   YY=    32.4302   ZY=     2.8997
   XZ=    -1.9085   YZ=     2.9038   ZZ=    29.9345
   Eigenvalues:    26.8892    28.0652    36.0568
     12  H    Isotropic =    30.7264   Anisotropy =     9.1016
   XX=    34.1234   YX=     2.3951   ZX=     4.1243
   XY=     2.1580   YY=    30.1943   ZY=    -0.0490
   XZ=     4.3215   YZ=    -0.6668   ZZ=    27.8613
   Eigenvalues:    25.3374    30.0475    36.7941
     13  C    Isotropic =    63.4980   Anisotropy =   159.0431
   XX=     8.9963   YX=    44.7117   ZX=   -33.1061
   XY=    41.0764   YY=    61.2866   ZY=   -43.1471
   XZ=   -44.4659   YZ=   -60.4764   ZZ=   120.2110
   Eigenvalues:   -15.8410    36.8082   169.5267
     14  C    Isotropic =    66.5440   Anisotropy =   181.0012
   XX=    -8.4073   YX=    49.1120   ZX=   -42.5796
   XY=    49.6942   YY=    66.0304   ZY=   -52.2614
   XZ=   -40.5074   YZ=   -52.5272   ZZ=   142.0091
   Eigenvalues:   -34.3814    46.8020   187.2115
     15  C    Isotropic =    68.6752   Anisotropy =   180.1839
   XX=    60.0314   YX=    31.6593   ZX=   -28.0879
   XY=    25.6972   YY=    22.6218   ZY=   -88.8141
   XZ=   -39.2265   YZ=   -86.4414   ZZ=   123.3724
   Eigenvalues:   -28.8762    46.1040   188.7978
     16  C    Isotropic =    70.6486   Anisotropy =   173.4461
   XX=    30.6570   YX=    -6.6448   ZX=   -62.7099
   XY=     6.3121   YY=    62.3538   ZY=   -73.3132
   XZ=   -55.1066   YZ=   -76.2422   ZZ=   118.9351
   Eigenvalues:   -19.3214    44.9878   186.2794
     17  C    Isotropic =    70.4544   Anisotropy =   173.2980
   XX=    61.4446   YX=    34.7801   ZX=   -25.7980
   XY=    34.7959   YY=    20.8765   ZY=   -84.3420
   XZ=   -23.3662   YZ=   -81.8667   ZZ=   129.0422
   Eigenvalues:   -28.4931    53.8700   185.9864
     18  C    Isotropic =    69.3994   Anisotropy =   175.2311
   XX=    26.7647   YX=    -7.9802   ZX=   -62.5026
   XY=    -7.5087   YY=    63.7424   ZY=   -74.1136
   XZ=   -64.4885   YZ=   -77.3849   ZZ=   117.6913
   Eigenvalues:   -30.0623    52.0405   186.2202
     19  H    Isotropic =    23.1767   Anisotropy =     7.1140
   XX=    26.8346   YX=    -0.2894   ZX=     2.3507
   XY=    -0.3064   YY=    22.5397   ZY=     1.1716
   XZ=     3.4409   YZ=     1.2530   ZZ=    20.1557
   Eigenvalues:    18.6768    22.9339    27.9193
     20  H    Isotropic =    23.4461   Anisotropy =     8.6816
   XX=    27.2401   YX=    -3.7287   ZX=    -0.9002
   XY=    -2.6871   YY=    22.7524   ZY=     1.5115
   XZ=    -1.0117   YZ=     2.0839   ZZ=    20.3458
   Eigenvalues:    19.3047    21.7997    29.2338
     21  H    Isotropic =    23.7768   Anisotropy =     5.2306
   XX=    26.8021   YX=    -0.8378   ZX=     1.5958
   XY=    -0.6571   YY=    22.8525   ZY=     1.3703
   XZ=     1.5319   YZ=     1.7596   ZZ=    21.6758
   Eigenvalues:    20.1507    23.9159    27.2638
     22  H    Isotropic =    23.6794   Anisotropy =     4.7651
   XX=    25.5018   YX=    -1.7467   ZX=     0.8163
   XY=    -1.7138   YY=    24.4980   ZY=     1.7658
   XZ=     0.4546   YZ=     1.6636   ZZ=    21.0386
   Eigenvalues:    20.0291    24.1530    26.8561
     23  H    Isotropic =    23.6823   Anisotropy =     4.4592
   XX=    24.0470   YX=     0.1387   ZX=     1.2848
   XY=     0.2606   YY=    24.6777   ZY=     2.5362
   XZ=     1.4407   YZ=     2.5860   ZZ=    22.3220
   Eigenvalues:    20.3751    24.0166    26.6551
     24  C    Isotropic =   172.6319   Anisotropy =    36.3412
   XX=   170.7911   YX=    20.3917   ZX=     3.9281
   XY=    14.0436   YY=   177.6262   ZY=    15.4823
   XZ=    -1.0140   YZ=    11.8919   ZZ=   169.4784
   Eigenvalues:   152.4673   168.5691   196.8594
     25  H    Isotropic =    30.3079   Anisotropy =     9.5309
   XX=    28.2444   YX=     2.9233   ZX=    -1.3865
   XY=     2.3113   YY=    33.2682   ZY=    -4.0520
   XZ=    -0.7327   YZ=    -3.8590   ZZ=    29.4110
   Eigenvalues:    26.6281    27.6338    36.6618
     26  H    Isotropic =    30.6081   Anisotropy =     9.6543
   XX=    27.7433   YX=     1.5498   ZX=     0.5598
   XY=     0.5955   YY=    32.8300   ZY=     5.2669
   XZ=    -1.2911   YZ=     4.5415   ZZ=    31.2510
   Eigenvalues:    26.3675    28.4125    37.0443
     27  H    Isotropic =    30.5349   Anisotropy =     6.3212
   XX=    34.5980   YX=    -0.1975   ZX=     1.2028
   XY=     1.1191   YY=    30.1460   ZY=    -1.0027
   XZ=     0.8082   YZ=    -1.2272   ZZ=    26.8607
   Eigenvalues:    26.3718    30.4839    34.7490
 End of Minotr Frequency-dependent properties file   721 does not exist.
 End of Minotr Frequency-dependent properties file   722 does not exist.

 **********************************************************************

            Population analysis using the SCF density.

 **********************************************************************

 Orbital symmetries:
       Occupied  (A) (A) (A) (A) (A) (A) (A) (A) (A) (A) (A) (A)
                 (A) (A) (A) (A) (A) (A) (A) (A) (A) (A) (A) (A)
                 (A) (A) (A) (A) (A) (A) (A) (A) (A) (A) (A) (A)
                 (A) (A) (A) (A) (A) (A) (A) (A) (A) (A) (A) (A)
       Virtual   (A) (A) (A) (A) (A) (A) (A) (A) (A) (A) (A) (A)
                 (A) (A) (A) (A) (A) (A) (A) (A) (A) (A) (A) (A)
                 (A) (A) (A) (A) (A) (A) (A) (A) (A) (A) (A) (A)
                 (A) (A) (A) (A) (A) (A) (A) (A) (A) (A) (A) (A)
                 (A) (A) (A) (A) (A) (A) (A) (A) (A) (A) (A) (A)
                 (A) (A) (A) (A) (A) (A) (A) (A) (A) (A) (A) (A)
                 (A) (A) (A) (A) (A) (A) (A) (A) (A) (A) (A) (A)
                 (A) (A) (A) (A) (A) (A) (A) (A) (A) (A) (A) (A)
                 (A) (A) (A) (A) (A) (A) (A) (A) (A) (A) (A) (A)
                 (A) (A) (A) (A) (A) (A) (A) (A) (A) (A) (A) (A)
                 (A) (A) (A) (A) (A) (A) (A) (A) (A) (A) (A) (A)
                 (A) (A) (A) (A) (A) (A) (A) (A) (A) (A) (A) (A)
                 (A) (A) (A) (A) (A) (A) (A) (A) (A) (A) (A) (A)
                 (A) (A) (A) (A) (A) (A) (A) (A) (A) (A) (A) (A)
                 (A) (A) (A) (A) (A) (A) (A) (A) (A) (A) (A) (A)
                 (A) (A) (A) (A) (A) (A) (A) (A) (A) (A) (A) (A)
                 (A) (A) (A) (A) (A) (A) (A) (A) (A) (A) (A) (A)
                 (A) (A) (A) (A) (A) (A) (A) (A) (A) (A) (A) (A)
                 (A)
 The electronic state is 1-A.
 Alpha  occ. eigenvalues --  -19.22928 -19.22682 -10.33444 -10.29647 -10.26239
 Alpha  occ. eigenvalues --  -10.26061 -10.25746 -10.25670 -10.25546 -10.25433
 Alpha  occ. eigenvalues --  -10.25414 -10.23075 -10.22844  -1.06017  -1.03956
 Alpha  occ. eigenvalues --   -0.88544  -0.82079  -0.78189  -0.77115  -0.74518
 Alpha  occ. eigenvalues --   -0.68552  -0.64274  -0.62581  -0.60377  -0.55981
 Alpha  occ. eigenvalues --   -0.53045  -0.49961  -0.48567  -0.47433  -0.46730
 Alpha  occ. eigenvalues --   -0.45448  -0.44883  -0.43305  -0.43252  -0.40598
 Alpha  occ. eigenvalues --   -0.39510  -0.38925  -0.37366  -0.37025  -0.36819
 Alpha  occ. eigenvalues --   -0.36114  -0.35476  -0.34899  -0.32222  -0.28170
 Alpha  occ. eigenvalues --   -0.26929  -0.26712  -0.25460
 Alpha virt. eigenvalues --   -0.04662  -0.00270   0.04315   0.09414   0.11040
 Alpha virt. eigenvalues --    0.13071   0.14676   0.15546   0.16905   0.17253
 Alpha virt. eigenvalues --    0.17478   0.18149   0.18347   0.19659   0.20984
 Alpha virt. eigenvalues --    0.21116   0.21467   0.22947   0.25153   0.26388
 Alpha virt. eigenvalues --    0.26858   0.27583   0.27968   0.30156   0.31477
 Alpha virt. eigenvalues --    0.32757   0.33507   0.37584   0.40295   0.49500
 Alpha virt. eigenvalues --    0.51803   0.53883   0.54241   0.55774   0.56120
 Alpha virt. eigenvalues --    0.56379   0.57253   0.58131   0.60084   0.60849
 Alpha virt. eigenvalues --    0.61174   0.61399   0.62260   0.62667   0.63212
 Alpha virt. eigenvalues --    0.63934   0.64744   0.66276   0.69447   0.70168
 Alpha virt. eigenvalues --    0.70394   0.73974   0.76208   0.79320   0.80549
 Alpha virt. eigenvalues --    0.81237   0.82691   0.83049   0.83911   0.84453
 Alpha virt. eigenvalues --    0.85189   0.85244   0.86995   0.89618   0.89663
 Alpha virt. eigenvalues --    0.90631   0.91839   0.92285   0.93161   0.94373
 Alpha virt. eigenvalues --    0.95954   0.97397   0.97886   0.99664   1.00966
 Alpha virt. eigenvalues --    1.02613   1.03935   1.04883   1.05374   1.08696
 Alpha virt. eigenvalues --    1.10491   1.12026   1.14484   1.15953   1.17837
 Alpha virt. eigenvalues --    1.20155   1.21918   1.25454   1.25974   1.27974
 Alpha virt. eigenvalues --    1.31445   1.34743   1.37784   1.40346   1.41862
 Alpha virt. eigenvalues --    1.42206   1.42994   1.43736   1.46649   1.47954
 Alpha virt. eigenvalues --    1.49514   1.49846   1.56353   1.63885   1.64501
 Alpha virt. eigenvalues --    1.68113   1.68675   1.72484   1.73212   1.76390
 Alpha virt. eigenvalues --    1.78377   1.79546   1.81733   1.83228   1.85152
 Alpha virt. eigenvalues --    1.88207   1.89493   1.89551   1.92214   1.92969
 Alpha virt. eigenvalues --    1.94378   1.94742   1.96687   1.97989   1.98909
 Alpha virt. eigenvalues --    2.00413   2.00838   2.03707   2.04295   2.06744
 Alpha virt. eigenvalues --    2.07276   2.07522   2.07963   2.10196   2.11535
 Alpha virt. eigenvalues --    2.13974   2.14615   2.15160   2.17464   2.19750
 Alpha virt. eigenvalues --    2.26611   2.27471   2.29442   2.31427   2.31894
 Alpha virt. eigenvalues --    2.33863   2.34636   2.37714   2.39112   2.39622
 Alpha virt. eigenvalues --    2.41895   2.42849   2.43292   2.45596   2.46290
 Alpha virt. eigenvalues --    2.47004   2.50187   2.51474   2.52698   2.54175
 Alpha virt. eigenvalues --    2.57974   2.58484   2.59745   2.61268   2.62630
 Alpha virt. eigenvalues --    2.64622   2.65275   2.66483   2.68085   2.72381
 Alpha virt. eigenvalues --    2.74025   2.76323   2.76595   2.76988   2.78684
 Alpha virt. eigenvalues --    2.80983   2.83184   2.85598   2.87362   2.91152
 Alpha virt. eigenvalues --    2.92606   2.93308   2.96019   2.97656   3.05109
 Alpha virt. eigenvalues --    3.06693   3.08031   3.11784   3.21431   3.23433
 Alpha virt. eigenvalues --    3.24522   3.26172   3.27645   3.36061   3.39236
 Alpha virt. eigenvalues --    3.40910   3.45647   3.46804   3.49638   3.52201
 Alpha virt. eigenvalues --    3.53129   3.55016   3.58008   3.90233   3.91562
 Alpha virt. eigenvalues --    4.11177   4.16340   4.18940   4.23056   4.35512
 Alpha virt. eigenvalues --    4.46556   4.48164   4.53881   4.58590   4.67467
 Alpha virt. eigenvalues --    4.78179   4.87185
          Condensed to atoms (all electrons):
              1          2          3          4          5          6
     1  C    4.777945   0.405329   0.316409  -0.025520  -0.038199  -0.000870
     2  H    0.405329   0.573978  -0.054266  -0.000352  -0.008821   0.000059
     3  C    0.316409  -0.054266   5.370530   0.371759   0.305674  -0.089779
     4  H   -0.025520  -0.000352   0.371759   0.555387  -0.030293   0.001413
     5  C   -0.038199  -0.008821   0.305674  -0.030293   4.601022   0.538914
     6  O   -0.000870   0.000059  -0.089779   0.001413   0.538914   8.113247
     7  O    0.237663  -0.038935  -0.054923   0.003142   0.005236  -0.000569
     8  H   -0.030305   0.006184  -0.006931   0.000016  -0.001085   0.000103
     9  C   -0.038753   0.005153   0.318433  -0.040288  -0.043139   0.005335
    10  H    0.004319  -0.000105  -0.029065  -0.003240  -0.004092   0.002850
    11  H   -0.004937   0.000055  -0.034148   0.005240  -0.005588   0.004487
    12  H   -0.004203  -0.000025  -0.031572  -0.003198   0.004637   0.000568
    13  C   -0.002436   0.006530  -0.112828  -0.002945   0.326174  -0.091256
    14  C    0.000003  -0.000005  -0.000018  -0.000003   0.000214  -0.000010
    15  C   -0.000078  -0.000170   0.008158  -0.000029  -0.035184   0.001302
    16  C   -0.003904   0.003805  -0.001317   0.000185  -0.040872   0.003157
    17  C   -0.000115  -0.000069   0.000013   0.000241   0.004271  -0.000083
    18  C    0.000003  -0.000040  -0.000072  -0.000001   0.005498   0.000850
    19  H   -0.000021  -0.000005   0.000668  -0.000011  -0.007272   0.012735
    20  H   -0.000784  -0.000101   0.003592   0.001747  -0.007127   0.000045
    21  H   -0.000003  -0.000001   0.000011  -0.000002  -0.000125   0.000000
    22  H    0.000000   0.000000   0.000002   0.000000  -0.000131   0.000002
    23  H    0.000000   0.000000   0.000000   0.000000   0.000006   0.000000
    24  C    0.362329  -0.046918  -0.057283  -0.004355   0.003755  -0.000087
    25  H   -0.029263  -0.006265   0.005508   0.000010  -0.000076   0.000001
    26  H   -0.028618  -0.000504   0.000588   0.000834   0.000107   0.000002
    27  H   -0.027846   0.004822  -0.008477   0.000161  -0.000083   0.000000
              7          8          9         10         11         12
     1  C    0.237663  -0.030305  -0.038753   0.004319  -0.004937  -0.004203
     2  H   -0.038935   0.006184   0.005153  -0.000105   0.000055  -0.000025
     3  C   -0.054923  -0.006931   0.318433  -0.029065  -0.034148  -0.031572
     4  H    0.003142   0.000016  -0.040288  -0.003240   0.005240  -0.003198
     5  C    0.005236  -0.001085  -0.043139  -0.004092  -0.005588   0.004637
     6  O   -0.000569   0.000103   0.005335   0.002850   0.004487   0.000568
     7  O    8.194185   0.294508  -0.004810   0.000162   0.005106  -0.000050
     8  H    0.294508   0.385556   0.005936  -0.000116   0.003061  -0.000183
     9  C   -0.004810   0.005936   5.054915   0.388282   0.382495   0.381879
    10  H    0.000162  -0.000116   0.388282   0.543411  -0.025789  -0.027272
    11  H    0.005106   0.003061   0.382495  -0.025789   0.555697  -0.029739
    12  H   -0.000050  -0.000183   0.381879  -0.027272  -0.029739   0.564970
    13  C   -0.000332  -0.000029   0.006710   0.000105   0.000091  -0.000057
    14  C    0.000000   0.000000   0.000000   0.000000   0.000000   0.000000
    15  C    0.000059   0.000001  -0.000167  -0.000007   0.000000   0.000001
    16  C   -0.000032  -0.000003   0.000028  -0.000005  -0.000007  -0.000003
    17  C    0.000002   0.000000  -0.000002   0.000000   0.000000   0.000000
    18  C   -0.000001   0.000000   0.000001   0.000000   0.000000   0.000000
    19  H    0.000001   0.000000  -0.000016  -0.000002  -0.000002   0.000000
    20  H    0.000001  -0.000001  -0.000088  -0.000006  -0.000001   0.000004
    21  H    0.000000   0.000000   0.000000   0.000000   0.000000   0.000000
    22  H    0.000000   0.000000   0.000000   0.000000   0.000000   0.000000
    23  H    0.000000   0.000000   0.000000   0.000000   0.000000   0.000000
    24  C   -0.054689  -0.005537  -0.007763   0.000052  -0.000070   0.001674
    25  H    0.001898  -0.000538  -0.000005   0.000000  -0.000021  -0.000030
    26  H    0.004011  -0.000002  -0.000141  -0.000024  -0.000031   0.000193
    27  H   -0.003298   0.004857   0.002241  -0.000059   0.000236   0.001377
             13         14         15         16         17         18
     1  C   -0.002436   0.000003  -0.000078  -0.003904  -0.000115   0.000003
     2  H    0.006530  -0.000005  -0.000170   0.003805  -0.000069  -0.000040
     3  C   -0.112828  -0.000018   0.008158  -0.001317   0.000013  -0.000072
     4  H   -0.002945  -0.000003  -0.000029   0.000185   0.000241  -0.000001
     5  C    0.326174   0.000214  -0.035184  -0.040872   0.004271   0.005498
     6  O   -0.091256  -0.000010   0.001302   0.003157  -0.000083   0.000850
     7  O   -0.000332   0.000000   0.000059  -0.000032   0.000002  -0.000001
     8  H   -0.000029   0.000000   0.000001  -0.000003   0.000000   0.000000
     9  C    0.006710   0.000000  -0.000167   0.000028  -0.000002   0.000001
    10  H    0.000105   0.000000  -0.000007  -0.000005   0.000000   0.000000
    11  H    0.000091   0.000000   0.000000  -0.000007   0.000000   0.000000
    12  H   -0.000057   0.000000   0.000001  -0.000003   0.000000   0.000000
    13  C    5.028193  -0.031217   0.503258   0.519304  -0.029804  -0.036314
    14  C   -0.031217   4.862952  -0.046958  -0.049336   0.544982   0.536332
    15  C    0.503258  -0.046958   4.938572  -0.062803  -0.038356   0.511922
    16  C    0.519304  -0.049336  -0.062803   4.945026   0.521861  -0.037584
    17  C   -0.029804   0.544982  -0.038356   0.521861   4.886880  -0.041032
    18  C   -0.036314   0.536332   0.511922  -0.037584  -0.041032   4.903273
    19  H   -0.044891   0.004140   0.380590   0.004588   0.000154  -0.035590
    20  H   -0.038580   0.004047   0.004361   0.380001  -0.035392   0.000233
    21  H    0.003036  -0.036824   0.000684  -0.033387   0.380658   0.003853
    22  H    0.003232  -0.037486  -0.033687   0.000620   0.003897   0.381595
    23  H    0.000475   0.381948   0.003939   0.004224  -0.036739  -0.036899
    24  C    0.000119   0.000000   0.000017   0.000013   0.000000   0.000000
    25  H   -0.000002   0.000000   0.000000   0.000002   0.000000   0.000000
    26  H   -0.000041   0.000000   0.000000   0.000003  -0.000001   0.000000
    27  H    0.000000   0.000000   0.000000  -0.000002   0.000000   0.000000
             19         20         21         22         23         24
     1  C   -0.000021  -0.000784  -0.000003   0.000000   0.000000   0.362329
     2  H   -0.000005  -0.000101  -0.000001   0.000000   0.000000  -0.046918
     3  C    0.000668   0.003592   0.000011   0.000002   0.000000  -0.057283
     4  H   -0.000011   0.001747  -0.000002   0.000000   0.000000  -0.004355
     5  C   -0.007272  -0.007127  -0.000125  -0.000131   0.000006   0.003755
     6  O    0.012735   0.000045   0.000000   0.000002   0.000000  -0.000087
     7  O    0.000001   0.000001   0.000000   0.000000   0.000000  -0.054689
     8  H    0.000000  -0.000001   0.000000   0.000000   0.000000  -0.005537
     9  C   -0.000016  -0.000088   0.000000   0.000000   0.000000  -0.007763
    10  H   -0.000002  -0.000006   0.000000   0.000000   0.000000   0.000052
    11  H   -0.000002  -0.000001   0.000000   0.000000   0.000000  -0.000070
    12  H    0.000000   0.000004   0.000000   0.000000   0.000000   0.001674
    13  C   -0.044891  -0.038580   0.003036   0.003232   0.000475   0.000119
    14  C    0.004140   0.004047  -0.036824  -0.037486   0.381948   0.000000
    15  C    0.380590   0.004361   0.000684  -0.033687   0.003939   0.000017
    16  C    0.004588   0.380001  -0.033387   0.000620   0.004224   0.000013
    17  C    0.000154  -0.035392   0.380658   0.003897  -0.036739   0.000000
    18  C   -0.035590   0.000233   0.003853   0.381595  -0.036899   0.000000
    19  H    0.525940  -0.000112   0.000014  -0.004276  -0.000138   0.000000
    20  H   -0.000112   0.529140  -0.004309   0.000013  -0.000146   0.000154
    21  H    0.000014  -0.004309   0.532304  -0.000146  -0.004506   0.000000
    22  H   -0.004276   0.000013  -0.000146   0.531034  -0.004471   0.000000
    23  H   -0.000138  -0.000146  -0.004506  -0.004471   0.532685   0.000000
    24  C    0.000000   0.000154   0.000000   0.000000   0.000000   5.096696
    25  H    0.000000  -0.000008   0.000000   0.000000   0.000000   0.383956
    26  H    0.000000   0.000197   0.000000   0.000000   0.000000   0.361673
    27  H    0.000000  -0.000003   0.000000   0.000000   0.000000   0.383795
             25         26         27
     1  C   -0.029263  -0.028618  -0.027846
     2  H   -0.006265  -0.000504   0.004822
     3  C    0.005508   0.000588  -0.008477
     4  H    0.000010   0.000834   0.000161
     5  C   -0.000076   0.000107  -0.000083
     6  O    0.000001   0.000002   0.000000
     7  O    0.001898   0.004011  -0.003298
     8  H   -0.000538  -0.000002   0.004857
     9  C   -0.000005  -0.000141   0.002241
    10  H    0.000000  -0.000024  -0.000059
    11  H   -0.000021  -0.000031   0.000236
    12  H   -0.000030   0.000193   0.001377
    13  C   -0.000002  -0.000041   0.000000
    14  C    0.000000   0.000000   0.000000
    15  C    0.000000   0.000000   0.000000
    16  C    0.000002   0.000003  -0.000002
    17  C    0.000000  -0.000001   0.000000
    18  C    0.000000   0.000000   0.000000
    19  H    0.000000   0.000000   0.000000
    20  H   -0.000008   0.000197  -0.000003
    21  H    0.000000   0.000000   0.000000
    22  H    0.000000   0.000000   0.000000
    23  H    0.000000   0.000000   0.000000
    24  C    0.383956   0.361673   0.383795
    25  H    0.553729  -0.025053  -0.031362
    26  H   -0.025053   0.574475  -0.025488
    27  H   -0.031362  -0.025488   0.557638
 Mulliken atomic charges:
              1
     1  C    0.131851
     2  H    0.150668
     3  C   -0.220667
     4  H    0.170103
     5  C    0.426579
     6  O   -0.502416
     7  O   -0.588335
     8  H    0.344509
     9  C   -0.416236
    10  H    0.150602
    11  H    0.143863
    12  H    0.141030
    13  C   -0.006498
    14  C   -0.132761
    15  C   -0.135425
    16  C   -0.153561
    17  C   -0.161366
    18  C   -0.156027
    19  H    0.163504
    20  H    0.163121
    21  H    0.158743
    22  H    0.159800
    23  H    0.159621
    24  C   -0.417531
    25  H    0.147519
    26  H    0.137820
    27  H    0.141491
 Sum of Mulliken atomic charges =   0.00000
 Mulliken charges with hydrogens summed into heavy atoms:
              1
     1  C    0.282519
     3  C   -0.050564
     5  C    0.426579
     6  O   -0.502416
     7  O   -0.243826
     9  C    0.019259
    13  C   -0.006498
    14  C    0.026860
    15  C    0.028079
    16  C    0.009560
    17  C   -0.002623
    18  C    0.003773
    24  C    0.009298
 Sum of Mulliken charges with hydrogens summed into heavy atoms =   0.00000
 Electronic spatial extent (au):  <R**2>=           2750.6600
 Charge=              0.0000 electrons
 Dipole moment (field-independent basis, Debye):
    X=             -0.1461    Y=             -3.5374    Z=             -1.9380  Tot=              4.0362
 Quadrupole moment (field-independent basis, Debye-Ang):
   XX=            -59.9447   YY=            -80.0937   ZZ=            -79.1024
   XY=             -1.1670   XZ=              4.0810   YZ=              4.7756
 Traceless Quadrupole moment (field-independent basis, Debye-Ang):
   XX=             13.1023   YY=             -7.0468   ZZ=             -6.0555
   XY=             -1.1670   XZ=              4.0810   YZ=              4.7756
 Octapole moment (field-independent basis, Debye-Ang**2):
  XXX=             -5.7727  YYY=            -19.5730  ZZZ=             -5.3290  XYY=              4.8652
  XXY=             -1.1120  XXZ=             16.4370  XZZ=             -2.9135  YZZ=              4.6657
  YYZ=              1.7345  XYZ=              5.1973
 Hexadecapole moment (field-independent basis, Debye-Ang**3):
 XXXX=          -2229.2541 YYYY=           -757.8138 ZZZZ=           -373.7090 XXXY=            -56.1917
 XXXZ=              6.8666 YYYX=             -1.2529 YYYZ=             15.7588 ZZZX=              4.9638
 ZZZY=              7.1846 XXYY=           -514.6268 XXZZ=           -488.7055 YYZZ=           -165.8927
 XXYZ=             35.3324 YYXZ=            -11.3325 ZZXY=             -3.6599
 N-N= 7.824229479920D+02 E-N=-2.909386831395D+03  KE= 5.725751977626D+02
 1\1\GINC-COMPUTE-8-9\SP\RmPW1PW91\6-31G(d,p)\C11H14O2\FBRUNO.IQUIR\21-
 Dec-2021\0\\# mPW1PW91/6-31g** scrf=(pcm,solvent=chloroform,smd,dovacu
 um) nmr\\comment\\0,1\C,0,-0.428943894,0.377524584,1.680937935\H,0,0.4
 12670397,0.927911564,1.248663125\C,0,-0.749834333,-0.85619776,0.812037
 965\H,0,0.085230083,-1.564943099,0.85973421\C,0,-0.926105908,-0.448245
 129,-0.655225702\O,0,-2.009082786,-0.548964918,-1.233366237\O,0,-1.516
 894718,1.296765882,1.722750372\H,0,-2.275703264,0.870715765,2.15672968
 9\C,0,-1.98739336,-1.629950443,1.285756856\H,0,-2.162870682,-2.5006507
 53,0.643234068\H,0,-2.89388241,-1.016839471,1.252036964\H,0,-1.8602525
 78,-2.001069877,2.306871364\C,0,0.241939138,0.07326859,-1.430664884\C,
 0,2.352354459,1.089544141,-2.969391757\C,0,-0.016917524,0.844190344,-2
 .572736547\C,0,1.568855963,-0.195865206,-1.07333926\C,0,2.619527468,0.
 315066342,-1.841355825\C,0,1.034699458,1.352896291,-3.33699582\H,0,-1.
 043014628,1.055330629,-2.869541007\H,0,1.817158101,-0.806753378,-0.212
 003102\H,0,3.649464121,0.105346034,-1.56207181\H,0,0.822812395,1.95294
 3691,-4.218499296\H,0,3.171418027,1.484997432,-3.565283024\C,0,-0.0473
 70922,0.014014736,3.112699483\H,0,0.255151986,0.91384112,3.660021695\H
 ,0,0.782090411,-0.699035931,3.135159619\H,0,-0.894671208,-0.406314985,
 3.663732358\\Version=EM64L-G09RevC.01\State=1-A\HF=-577.9463815\RMSD=7
 .185e-09\Dipole=1.3225645,-0.4573076,0.7505249\Quadrupole=0.1023525,-4
 .078379,3.9760265,0.2852939,-5.5370403,-6.8485935\PG=C01 [X(C11H14O2)]
 \\@


 EXPERIMENTALISTS THINK SILICON IS REALLY FUN TO USE
     ITS PLACE IN NOVEL COMPOUNDS IS CERTAIN TO AMUSE
 THEY SIT ALL DAY IN LABORATORIES MAKING ALL THIS SLUDGE
     "LOADED WITH THE SILICON THEY SAY", TO ME IT LOOKS LIKE FUDGE.
 FOR HAPPY THOUGH THEY BE WITH CRUD, I'D LIKE TO KNOW A LITTLE
      ABOUT THE PI BONDS ON THE EDGE AND SIGMAS IN THE MIDDLE.

 SO LETS DERIVE A WAVEFUNCTION.....6-31G*
     USE AN OPTIMAL GEOMETRY AND SEE WHERE ELECTRONS ARE.
 BUT WHAT OF CORRELATION?  ASKS THE WIRY LITTLE SKEPTIC.
     WE'LL THROW IN PERTURBATION AS AN ELECTRON ANTISEPTIC.
 AND WHEN THE PROGRAM GIVES US ANSWERS IN THEM WE CAN TRUST
     SINCE NOBODY CAN MAKE THE STUFF, WE HAVE NO CHOICE, WE MUST.

 SO THEORY GUYS HAVE GOT IT MADE, IN ROOMS FREE OF POLLUTION.
     INSTEAD OF PROBLEMS WITH THE REFLUX, THEY HAVE ONLY SOLUTIONS.
 AND WHEN THE FEDS ANNOUNCE THE LIST OF CARCINOGENIC TERRORS,
     THE THEORISTS SIT SAFELY AT THEIR TERMINALS FIXING ERRORS.
 IN OTHER WORDS, EXPERIMENTALISTS WILL LIKELY DIE OF CANCER
     FROM WORKING HARD YET FRUITLESSLY...TILL THEORY GIVES THE ANSWER.
          -- THOMAS A. HOLME, 1983
 Job cpu time:  0 days  0 hours 21 minutes 59.6 seconds.
 File lengths (MBytes):  RWF=     80 Int=      0 D2E=      0 Chk=      5 Scr=      1
 Normal termination of Gaussian 09 at Tue Dec 21 09:06:00 2021.
