 Entering Gaussian System, Link 0=g09
 Input=/home/fbruno.iquir/2_val_run/2b_001_MPW_A_SMD.gjc
 Output=/home/fbruno.iquir/2_val_run/2b_001_MPW_A_SMD.log
 Initial command:
 /share/apps/Gaussian09/EM64T.SSE4.2-enabled/g09/l1.exe /tmp/Gau-24711.inp -scrdir=/tmp/
 Entering Link 1 = /share/apps/Gaussian09/EM64T.SSE4.2-enabled/g09/l1.exe PID=     24712.
  
 Copyright (c) 1988,1990,1992,1993,1995,1998,2003,2009,2011,
            Gaussian, Inc.  All Rights Reserved.
  
 This is part of the Gaussian(R) 09 program.  It is based on
 the Gaussian(R) 03 system (copyright 2003, Gaussian, Inc.),
 the Gaussian(R) 98 system (copyright 1998, Gaussian, Inc.),
 the Gaussian(R) 94 system (copyright 1995, Gaussian, Inc.),
 the Gaussian 92(TM) system (copyright 1992, Gaussian, Inc.),
 the Gaussian 90(TM) system (copyright 1990, Gaussian, Inc.),
 the Gaussian 88(TM) system (copyright 1988, Gaussian, Inc.),
 the Gaussian 86(TM) system (copyright 1986, Carnegie Mellon
 University), and the Gaussian 82(TM) system (copyright 1983,
 Carnegie Mellon University). Gaussian is a federally registered
 trademark of Gaussian, Inc.
  
 This software contains proprietary and confidential information,
 including trade secrets, belonging to Gaussian, Inc.
  
 This software is provided under written license and may be
 used, copied, transmitted, or stored only in accord with that
 written license.
  
 The following legend is applicable only to US Government
 contracts under FAR:
  
                    RESTRICTED RIGHTS LEGEND
  
 Use, reproduction and disclosure by the US Government is
 subject to restrictions as set forth in subparagraphs (a)
 and (c) of the Commercial Computer Software - Restricted
 Rights clause in FAR 52.227-19.
  
 Gaussian, Inc.
 340 Quinnipiac St., Bldg. 40, Wallingford CT 06492
  
  
 ---------------------------------------------------------------
 Warning -- This program may not be used in any manner that
 competes with the business of Gaussian, Inc. or will provide
 assistance to any competitor of Gaussian, Inc.  The licensee
 of this program is prohibited from giving any competitor of
 Gaussian, Inc. access to this program.  By using this program,
 the user acknowledges that Gaussian, Inc. is engaged in the
 business of creating and licensing software in the field of
 computational chemistry and represents and warrants to the
 licensee that it is not a competitor of Gaussian, Inc. and that
 it will not use this program in any manner prohibited above.
 ---------------------------------------------------------------
  

 Cite this work as:
 Gaussian 09, Revision C.01,
 M. J. Frisch, G. W. Trucks, H. B. Schlegel, G. E. Scuseria, 
 M. A. Robb, J. R. Cheeseman, G. Scalmani, V. Barone, B. Mennucci, 
 G. A. Petersson, H. Nakatsuji, M. Caricato, X. Li, H. P. Hratchian, 
 A. F. Izmaylov, J. Bloino, G. Zheng, J. L. Sonnenberg, M. Hada, 
 M. Ehara, K. Toyota, R. Fukuda, J. Hasegawa, M. Ishida, T. Nakajima, 
 Y. Honda, O. Kitao, H. Nakai, T. Vreven, J. A. Montgomery, Jr., 
 J. E. Peralta, F. Ogliaro, M. Bearpark, J. J. Heyd, E. Brothers, 
 K. N. Kudin, V. N. Staroverov, T. Keith, R. Kobayashi, J. Normand, 
 K. Raghavachari, A. Rendell, J. C. Burant, S. S. Iyengar, J. Tomasi, 
 M. Cossi, N. Rega, J. M. Millam, M. Klene, J. E. Knox, J. B. Cross, 
 V. Bakken, C. Adamo, J. Jaramillo, R. Gomperts, R. E. Stratmann, 
 O. Yazyev, A. J. Austin, R. Cammi, C. Pomelli, J. W. Ochterski, 
 R. L. Martin, K. Morokuma, V. G. Zakrzewski, G. A. Voth, 
 P. Salvador, J. J. Dannenberg, S. Dapprich, A. D. Daniels, 
 O. Farkas, J. B. Foresman, J. V. Ortiz, J. Cioslowski, 
 and D. J. Fox, Gaussian, Inc., Wallingford CT, 2010.
 
 ******************************************
 Gaussian 09:  EM64L-G09RevC.01 23-Sep-2011
                21-Dec-2021 
 ******************************************
 %nprocshared=4
 Will use up to    4 processors via shared memory.
 -----------------------------------------------------------------
 # mPW1PW91/6-31g** scrf=(pcm,solvent=chloroform,smd,dovacuum) nmr
 -----------------------------------------------------------------
 1/38=1/1;
 2/12=2,17=6,18=5,40=1/2;
 3/5=1,6=6,7=101,11=2,16=1,25=1,30=1,70=32101,72=7,74=-7/1,2,8,3;
 4//1;
 5/5=2,38=5,53=7/2;
 8/6=1,10=90,11=11/1;
 10/13=100,45=16/2;
 6/7=2,8=2,9=2,10=2,28=1/1;
 99/9=1/99;
 -------
 comment
 -------
 Charge =  0 Multiplicity = 1
 Symbolic Z-Matrix:
 6                     0.11962  -0.96883   2.45795 
 1                    -0.1991   -0.53486   3.41328 
 6                    -0.5197   -0.14849   1.31579 
 1                    -0.14651   0.8761    1.41654 
 6                    -0.12714  -0.70537  -0.05153 
 8                     0.04264  -1.91564  -0.21614 
 8                    -0.33751  -2.31933   2.46066 
 1                    -0.16756  -2.67549   1.56165 
 6                    -2.04512  -0.15283   1.42571 
 1                    -2.45559  -1.16109   1.30195 
 1                    -2.50022   0.47596   0.6536 
 1                    -2.36585   0.22956   2.40024 
 6                     0.04792   0.21686  -1.21705 
 6                     0.43194   1.84757  -3.46734 
 6                     0.62069  -0.30367  -2.38713 
 6                    -0.3375    1.56264  -1.18926 
 6                    -0.14376   2.37345  -2.31215 
 6                     0.81311   0.50873  -3.50634 
 1                     0.92217  -1.34893  -2.43421 
 1                    -0.80252   2.00991  -0.31679 
 1                    -0.44689   3.41779  -2.2871 
 1                     1.25859   0.09398  -4.40736 
 1                     0.57973   2.48035  -4.33926 
 6                     1.64461  -0.95752   2.42993 
 1                     2.04009  -1.48823   3.30306 
 1                     2.03452   0.06473   2.44009 
 1                     2.03936  -1.47738   1.55121 
 
                          Input orientation:                          
 ---------------------------------------------------------------------
 Center     Atomic      Atomic             Coordinates (Angstroms)
 Number     Number       Type             X           Y           Z
 ---------------------------------------------------------------------
      1          6           0        0.119616   -0.968829    2.457946
      2          1           0       -0.199096   -0.534858    3.413283
      3          6           0       -0.519701   -0.148488    1.315794
      4          1           0       -0.146514    0.876102    1.416538
      5          6           0       -0.127138   -0.705374   -0.051530
      6          8           0        0.042637   -1.915638   -0.216144
      7          8           0       -0.337515   -2.319326    2.460663
      8          1           0       -0.167563   -2.675486    1.561646
      9          6           0       -2.045117   -0.152834    1.425709
     10          1           0       -2.455591   -1.161087    1.301948
     11          1           0       -2.500225    0.475964    0.653598
     12          1           0       -2.365854    0.229565    2.400241
     13          6           0        0.047921    0.216861   -1.217046
     14          6           0        0.431941    1.847573   -3.467343
     15          6           0        0.620693   -0.303671   -2.387133
     16          6           0       -0.337497    1.562637   -1.189259
     17          6           0       -0.143760    2.373451   -2.312152
     18          6           0        0.813114    0.508734   -3.506342
     19          1           0        0.922165   -1.348928   -2.434215
     20          1           0       -0.802517    2.009912   -0.316785
     21          1           0       -0.446891    3.417787   -2.287101
     22          1           0        1.258589    0.093983   -4.407359
     23          1           0        0.579727    2.480349   -4.339265
     24          6           0        1.644607   -0.957517    2.429934
     25          1           0        2.040091   -1.488229    3.303064
     26          1           0        2.034519    0.064731    2.440095
     27          1           0        2.039359   -1.477383    1.551214
 ---------------------------------------------------------------------
                    Distance matrix (angstroms):
                    1          2          3          4          5
     1  C    0.000000
     2  H    1.096621   0.000000
     3  C    1.544732   2.156741   0.000000
     4  H    2.135212   2.445520   1.095082   0.000000
     5  C    2.535305   3.469753   1.527679   2.157931   0.000000
     6  O    2.837804   3.890724   2.405385   3.239636   1.233151
     7  O    1.425769   2.027552   2.460986   3.367111   2.993362
     8  H    1.948975   2.830520   2.563233   3.554614   2.546629
     9  C    2.533265   2.739377   1.529377   2.159511   2.483180
    10  H    2.829309   3.153041   2.184770   3.081413   2.731534
    11  H    3.493804   3.732669   2.179660   2.506420   2.743047
    12  H    2.759898   2.511063   2.174219   2.512201   3.449223
    13  C    3.862198   4.697451   2.621250   2.721795   1.496526
    14  C    6.568007   7.308707   5.269562   5.013049   4.300916
    15  C    4.916127   5.862621   3.877660   4.055661   2.485086
    16  C    4.463113   5.059845   3.039151   2.701478   2.546085
    17  C    5.830441   6.421988   4.434355   4.018108   3.819666
    18  C    6.183597   7.070705   5.045922   5.028975   3.780721
    19  H    4.972102   6.009423   4.193161   4.573962   2.681862
    20  H    4.174011   4.555588   2.721028   2.172619   2.810565
    21  H    6.486818   6.941123   5.069958   4.501925   4.701114
    22  H    7.039833   7.980146   5.997966   6.041838   4.640308
    23  H    7.636138   8.354642   6.332394   6.019161   5.388242
    24  C    1.525290   2.131867   2.565164   2.756310   3.059464
    25  H    2.161533   2.436190   3.506663   3.732330   4.069773
    26  H    2.176102   2.509112   2.798849   2.542223   3.387332
    27  H    2.183164   3.060447   2.893125   3.214820   2.803301
                    6          7          8          9         10
     6  O    0.000000
     7  O    2.733638   0.000000
     8  H    1.944760   0.981817   0.000000
     9  C    3.187770   2.946306   3.147612   0.000000
    10  H    3.019122   2.677758   2.756070   1.095618   0.000000
    11  H    3.597549   3.969439   4.024612   1.094836   1.761330
    12  H    4.153094   3.258013   3.738321   1.094903   1.774319
    13  C    2.355713   4.484010   4.016620   3.391407   3.809416
    14  C    4.988347   7.286725   6.790302   5.837757   6.335299
    15  C    2.765100   5.336867   4.673298   4.654789   4.879345
    16  C    3.631783   5.328374   5.055496   3.563267   4.255715
    17  C    4.777476   6.696227   6.363855   4.895803   5.558709
    18  C    4.158920   6.702762   6.065105   5.738666   6.049165
    19  H    2.452461   5.146678   4.349042   5.013424   5.040183
    20  H    4.016760   5.164567   5.087694   3.042666   3.925326
    21  H    5.742292   7.447663   7.212410   5.393387   6.154854
    22  H    4.804519   7.452606   6.732971   6.708210   6.925787
    23  H    6.050892   8.373603   7.871584   6.859912   7.368616
    24  C    3.238215   2.405052   2.643729   3.907691   4.257396
    25  H    4.069070   2.655819   3.052189   4.690061   4.931800
    26  H    3.865884   3.363137   3.623483   4.209483   4.791565
    27  H    2.702318   2.680577   2.511188   4.295710   4.512954
                   11         12         13         14         15
    11  H    0.000000
    12  H    1.769047   0.000000
    13  C    3.171670   4.348705   0.000000
    14  C    5.240331   6.698817   2.805446   0.000000
    15  C    4.426512   5.667694   1.402899   2.414608   0.000000
    16  C    3.042100   4.333108   1.400154   2.421341   2.415809
    17  C    4.236633   5.633880   2.426289   1.393716   2.785138
    18  C    5.318307   6.713531   2.431375   1.392589   1.396301
    19  H    4.957578   6.055961   2.167371   3.394892   1.088882
    20  H    2.485327   3.604981   2.179162   3.387662   3.415339
    21  H    4.638773   5.984843   3.411126   2.151950   3.872854
    22  H    6.315685   7.713520   3.414515   2.154543   2.155540
    23  H    6.199383   7.691776   3.892871   1.087425   3.400481
    24  C    4.731793   4.182564   4.150787   6.642060   4.967902
    25  H    5.611791   4.814380   5.225655   7.717003   5.982994
    26  H    4.891277   4.403640   4.164660   6.375312   5.043486
    27  H    5.022858   4.800043   3.807828   6.230974   4.347504
                   16         17         18         19         20
    16  C    0.000000
    17  C    1.398514   0.000000
    18  C    2.793473   2.412232   0.000000
    19  H    3.407913   3.873913   2.147617   0.000000
    20  H    1.085131   2.132513   3.877766   4.328954   0.000000
    21  H    2.158427   1.087729   3.396579   4.961606   2.447595
    22  H    3.880799   3.398889   1.087336   2.467483   4.965052
    23  H    3.406763   2.155005   2.153020   4.290670   4.279282
    24  C    4.835129   6.064733   6.170952   4.933059   4.726365
    25  H    5.928042   7.156286   7.201482   5.846840   5.781066
    26  H    4.587199   5.714800   6.086795   5.195638   4.408276
    27  H    4.733007   5.875417   5.570207   4.141046   4.871028
                   21         22         23         24         25
    21  H    0.000000
    22  H    4.295560   0.000000
    23  H    2.478732   2.481982   0.000000
    24  C    6.765210   6.928437   7.666482   0.000000
    25  H    7.842450   7.909790   8.734270   1.095637   0.000000
    26  H    6.304503   6.891339   7.342435   1.094132   1.776635
    27  H    6.699014   6.211553   7.245130   1.094641   1.751884
                   26         27
    26  H    0.000000
    27  H    1.779957   0.000000
 Stoichiometry    C11H14O2
 Framework group  C1[X(C11H14O2)]
 Deg. of freedom    75
 Full point group                 C1      NOp   1
 Largest Abelian subgroup         C1      NOp   1
 Largest concise Abelian subgroup C1      NOp   1
                         Standard orientation:                         
 ---------------------------------------------------------------------
 Center     Atomic      Atomic             Coordinates (Angstroms)
 Number     Number       Type             X           Y           Z
 ---------------------------------------------------------------------
      1          6           0       -2.705700    0.175109    0.532500
      2          1           0       -3.371935    0.982282    0.859882
      3          6           0       -1.358124    0.800641    0.109479
      4          1           0       -0.950949    1.300428    0.994705
      5          6           0       -0.379094   -0.268826   -0.371709
      6          8           0       -0.780135   -1.269683   -0.970135
      7          8           0       -3.360078   -0.463729   -0.561342
      8          1           0       -2.717470   -1.102772   -0.939024
      9          6           0       -1.556216    1.821896   -1.011588
     10          1           0       -1.937905    1.350415   -1.923946
     11          1           0       -0.612510    2.311106   -1.273803
     12          1           0       -2.263338    2.600645   -0.707712
     13          6           0        1.088865   -0.108406   -0.128911
     14          6           0        3.857011    0.067546    0.291728
     15          6           0        1.921743   -1.207770   -0.385500
     16          6           0        1.659496    1.083434    0.334047
     17          6           0        3.039592    1.167847    0.543935
     18          6           0        3.299226   -1.120244   -0.174460
     19          1           0        1.501244   -2.142835   -0.752239
     20          1           0        1.063260    1.968791    0.529380
     21          1           0        3.479058    2.096444    0.901330
     22          1           0        3.934449   -1.979318   -0.376409
     23          1           0        4.929945    0.137019    0.454460
     24          6           0       -2.576919   -0.815365    1.685275
     25          1           0       -3.568699   -1.166213    1.991375
     26          1           0       -2.089564   -0.356452    2.550727
     27          1           0       -2.013158   -1.707412    1.394304
 ---------------------------------------------------------------------
 Rotational constants (GHZ):      1.7355975      0.4468020      0.4152425
 Standard basis: 6-31G(d,p) (6D, 7F)
 There are   265 symmetry adapted basis functions of A   symmetry.
 Integral buffers will be    131072 words long.
 Raffenetti 2 integral format.
 Two-electron integral symmetry is turned on.
   265 basis functions,   462 primitive gaussians,   265 cartesian basis functions
    48 alpha electrons       48 beta electrons
       nuclear repulsion energy       784.2565553250 Hartrees.
 NAtoms=   27 NActive=   27 NUniq=   27 SFac= 1.00D+00 NAtFMM=   60 NAOKFM=F Big=F
 ------------------------------------------------------------------------------
 Polarizable Continuum Model (PCM)
 =================================
 Model                : C-PCM.
 Atomic radii         : SMD-Coulomb.
 Polarization charges : Total charges.
 Charge compensation  : None.
 Solution method      : Matrix inversion.
 Cavity type          : VdW (van der Waals Surface) (Alpha=1.000).
 Cavity algorithm     : GePol (No added spheres)
                        Default sphere list used, NSphG=   27.
                        Lebedev-Laikov grids with approx.  5.0 points / Ang**2.
                        Smoothing algorithm: Karplus/York (Gamma=1.0000).
                        Polarization charges: spherical gaussians, with
                                              point-specific exponents (IZeta= 3).
                        Self-potential: point-specific (ISelfS= 7).
                        Self-field    : sphere-specific E.n sum rule (ISelfD= 2).
 Solvent              : Chloroform, Eps=   4.711300 Eps(inf)=   2.090627
 ------------------------------------------------------------------------------
 ------------------------------------------------------------------------------
 Atomic radii for non-electrostatic terms: SMD-CDS.
 ------------------------------------------------------------------------------
 Nuclear repulsion after PCM non-electrostatic terms =      784.2499522581 Hartrees.
 One-electron integrals computed using PRISM.
 NBasis=   265 RedAO= T  NBF=   265
 NBsUse=   265 1.00D-06 NBFU=   265
 Harris functional with IExCor=  908 diagonalized for initial guess.
 ExpMin= 1.61D-01 ExpMax= 5.48D+03 ExpMxC= 8.25D+02 IAcc=1 IRadAn=         1 AccDes= 0.00D+00
 HarFok:  IExCor=  908 AccDes= 0.00D+00 IRadAn=         1 IDoV= 1
 ScaDFX=  1.000000  1.000000  1.000000  1.000000
 FoFCou: FMM=F IPFlag=           0 FMFlag=      100000 FMFlg1=           0
         NFxFlg=           0 DoJE=T BraDBF=F KetDBF=T FulRan=T
         Omega=  0.000000  0.000000  1.000000  0.000000  0.000000 ICntrl=     500 IOpCl=  0
         NMat0=    1 NMatS0=    1 NMatT0=    0 NMatD0=    1 NMtDS0=    0 NMtDT0=    0
         I1Cent=           4 NGrid=           0.
 Petite list used in FoFCou.
 Initial guess orbital symmetries:
       Occupied  (A) (A) (A) (A) (A) (A) (A) (A) (A) (A) (A) (A)
                 (A) (A) (A) (A) (A) (A) (A) (A) (A) (A) (A) (A)
                 (A) (A) (A) (A) (A) (A) (A) (A) (A) (A) (A) (A)
                 (A) (A) (A) (A) (A) (A) (A) (A) (A) (A) (A) (A)
       Virtual   (A) (A) (A) (A) (A) (A) (A) (A) (A) (A) (A) (A)
                 (A) (A) (A) (A) (A) (A) (A) (A) (A) (A) (A) (A)
                 (A) (A) (A) (A) (A) (A) (A) (A) (A) (A) (A) (A)
                 (A) (A) (A) (A) (A) (A) (A) (A) (A) (A) (A) (A)
                 (A) (A) (A) (A) (A) (A) (A) (A) (A) (A) (A) (A)
                 (A) (A) (A) (A) (A) (A) (A) (A) (A) (A) (A) (A)
                 (A) (A) (A) (A) (A) (A) (A) (A) (A) (A) (A) (A)
                 (A) (A) (A) (A) (A) (A) (A) (A) (A) (A) (A) (A)
                 (A) (A) (A) (A) (A) (A) (A) (A) (A) (A) (A) (A)
                 (A) (A) (A) (A) (A) (A) (A) (A) (A) (A) (A) (A)
                 (A) (A) (A) (A) (A) (A) (A) (A) (A) (A) (A) (A)
                 (A) (A) (A) (A) (A) (A) (A) (A) (A) (A) (A) (A)
                 (A) (A) (A) (A) (A) (A) (A) (A) (A) (A) (A) (A)
                 (A) (A) (A) (A) (A) (A) (A) (A) (A) (A) (A) (A)
                 (A) (A) (A) (A) (A) (A) (A) (A) (A) (A) (A) (A)
                 (A) (A) (A) (A) (A) (A) (A) (A) (A) (A) (A) (A)
                 (A) (A) (A) (A) (A) (A) (A) (A) (A) (A) (A) (A)
                 (A) (A) (A) (A) (A) (A) (A) (A) (A) (A) (A) (A)
                 (A)
 The electronic state of the initial guess is 1-A.
 Requested convergence on RMS density matrix=1.00D-08 within 128 cycles.
 Requested convergence on MAX density matrix=1.00D-06.
 Requested convergence on             energy=1.00D-06.
 No special actions if energy rises.
 Error on total polarization charges =  0.02904
 SCF Done:  E(RmPW1PW91) =  -577.951696332     A.U. after   12 cycles
             Convg  =    0.6923D-08             -V/T =  2.0094
 SMD-CDS (non-electrostatic) energy       (kcal/mol) =      -4.14
 (included in total energy above)
 Range of M.O.s used for correlation:     1   265
 NBasis=   265 NAE=    48 NBE=    48 NFC=     0 NFV=     0
 NROrb=    265 NOA=    48 NOB=    48 NVA=   217 NVB=   217
 NEqPCM:  Using equilibrium solvation (IEInf=0, Eps=   4.7113, EpsInf=   2.0906)
          Differentiating once with respect to magnetic field using GIAOs.
          Electric field/nuclear overlap derivatives assumed to be zero.
 FoFCou: FMM=F IPFlag=           0 FMFlag=    10101102 FMFlg1=           0
         NFxFlg=    40000000 DoJE=F BraDBF=F KetDBF=T FulRan=T
         Omega=  0.000000  0.000000  1.000000  0.000000  0.000000 ICntrl=    6100 IOpCl=  0
         NMat0=    1 NMatS0=    1 NMatT0=    0 NMatD0=    1 NMtDS0=    0 NMtDT0=    0
         I1Cent=           7 NGrid=        1999.
 Symmetry not used in FoFCou.
          There are     3 degrees of freedom in the 1st order CPHF.  IDoFFX=0.
      3 vectors produced by pass  0 Test12= 3.47D-13 3.33D-08 XBig12= 2.75D+01 1.38D+00.
 AX will form     3 AO Fock derivatives at one time.
      3 vectors produced by pass  1 Test12= 3.47D-13 3.33D-08 XBig12= 1.38D-01 1.76D-01.
      3 vectors produced by pass  2 Test12= 3.47D-13 3.33D-08 XBig12= 6.02D-04 6.68D-03.
      3 vectors produced by pass  3 Test12= 3.47D-13 3.33D-08 XBig12= 1.78D-06 2.67D-04.
      3 vectors produced by pass  4 Test12= 3.47D-13 3.33D-08 XBig12= 8.36D-09 1.56D-05.
      3 vectors produced by pass  5 Test12= 3.47D-13 3.33D-08 XBig12= 1.68D-11 1.45D-06.
      3 vectors produced by pass  6 Test12= 3.47D-13 3.33D-08 XBig12= 5.25D-14 7.61D-08.
 Inverted reduced A of dimension    21 with in-core refinement.
 Calculating GIAO nuclear magnetic shielding tensors.
 SCF GIAO Magnetic shielding tensor (ppm):
      1  C    Isotropic =   123.6387   Anisotropy =    40.1242
   XX=   119.0798   YX=    16.3575   ZX=     9.1951
   XY=    15.8722   YY=   120.5969   ZY=     7.8423
   XZ=    12.3701   YZ=    17.4890   ZZ=   131.2393
   Eigenvalues:   103.6591   116.8687   150.3881
      2  H    Isotropic =    27.7697   Anisotropy =     5.7250
   XX=    27.3987   YX=    -1.5239   ZX=    -0.8781
   XY=    -2.2993   YY=    28.7525   ZY=     1.4053
   XZ=    -2.7950   YZ=     2.2492   ZZ=    27.1578
   Eigenvalues:    25.4373    26.2854    31.5863
      3  C    Isotropic =   150.0800   Anisotropy =    19.4755
   XX=   154.9302   YX=     1.7474   ZX=    -7.0361
   XY=    -9.4655   YY=   143.1404   ZY=    -9.6228
   XZ=    -9.9781   YZ=   -10.4693   ZZ=   152.1694
   Eigenvalues:   133.5992   153.5772   163.0636
      4  H    Isotropic =    28.2338   Anisotropy =     6.5989
   XX=    30.5324   YX=     1.7465   ZX=     1.4946
   XY=     3.7530   YY=    26.2858   ZY=     0.4235
   XZ=     1.6635   YZ=     1.7007   ZZ=    27.8832
   Eigenvalues:    24.9082    27.1602    32.6331
      5  C    Isotropic =   -11.5798   Anisotropy =   175.5676
   XX=   -84.6204   YX=     1.3804   ZX=   -18.7669
   XY=    -1.1584   YY=    -7.4469   ZY=   -67.6813
   XZ=   -19.7664   YZ=   -76.7233   ZZ=    57.3278
   Eigenvalues:   -89.0724   -51.1323   105.4653
      6  O    Isotropic =  -201.2174   Anisotropy =   871.1960
   XX=  -337.6466   YX=   -98.7411   ZX=  -129.7006
   XY=   -72.7381   YY=  -341.5287   ZY=  -406.8718
   XZ=  -141.1491   YZ=  -515.3704   ZZ=    75.5231
   Eigenvalues:  -698.4311  -284.8011   379.5799
      7  O    Isotropic =   296.9173   Anisotropy =    47.4457
   XX=   297.6518   YX=   -27.4384   ZX=   -12.6847
   XY=   -18.0905   YY=   297.3438   ZY=    18.1461
   XZ=    -4.8118   YZ=    10.7934   ZZ=   295.7562
   Eigenvalues:   273.6995   288.5046   328.5477
      8  H    Isotropic =    27.4248   Anisotropy =    19.9813
   XX=    30.3519   YX=    -5.8710   ZX=    -2.8781
   XY=    -7.1270   YY=    28.3293   ZY=     9.2766
   XZ=    -3.3963   YZ=    10.0692   ZZ=    23.5933
   Eigenvalues:    15.8054    25.7234    40.7457
      9  C    Isotropic =   176.9759   Anisotropy =    28.2617
   XX=   171.4434   YX=    -4.6045   ZX=     3.5060
   XY=    -5.3834   YY=   185.0986   ZY=   -11.6163
   XZ=     0.7407   YZ=   -16.2182   ZZ=   174.3857
   Eigenvalues:   164.6322   170.4784   195.8170
     10  H    Isotropic =    29.9055   Anisotropy =     7.3044
   XX=    27.4274   YX=     1.9837   ZX=     2.1156
   XY=     0.8812   YY=    28.7785   ZY=    -0.1514
   XZ=     3.8724   YZ=    -0.0070   ZZ=    33.5105
   Eigenvalues:    25.6155    29.3258    34.7751
     11  H    Isotropic =    30.2468   Anisotropy =     8.0580
   XX=    32.5712   YX=     2.8743   ZX=    -0.9366
   XY=     2.9360   YY=    30.5069   ZY=    -2.5896
   XZ=    -0.1797   YZ=    -4.9255   ZZ=    27.6624
   Eigenvalues:    24.8588    30.2629    35.6189
     12  H    Isotropic =    30.2604   Anisotropy =    10.3501
   XX=    29.7142   YX=    -3.8715   ZX=    -0.8378
   XY=    -4.5932   YY=    34.7397   ZY=    -0.0923
   XZ=     0.7155   YZ=    -0.7875   ZZ=    26.3274
   Eigenvalues:    26.2468    27.3741    37.1605
     13  C    Isotropic =    64.1922   Anisotropy =   158.4471
   XX=    -7.1827   YX=    -5.8682   ZX=   -26.5396
   XY=     1.6315   YY=    43.0348   ZY=   -42.7872
   XZ=   -25.8579   YZ=   -26.2189   ZZ=   156.7246
   Eigenvalues:   -12.3924    35.1455   169.8236
     14  C    Isotropic =    65.2069   Anisotropy =   183.6290
   XX=   -32.0671   YX=     0.7830   ZX=   -28.7055
   XY=    -2.1609   YY=    57.4663   ZY=   -43.3498
   XZ=   -25.9538   YZ=   -42.2114   ZZ=   170.2214
   Eigenvalues:   -36.1625    44.1569   187.6262
     15  C    Isotropic =    69.5891   Anisotropy =   185.5206
   XX=    41.4607   YX=   -18.3481   ZX=   -26.0624
   XY=    -2.8254   YY=    -0.4491   ZY=   -63.8150
   XZ=   -28.6727   YZ=   -66.0423   ZZ=   167.7558
   Eigenvalues:   -27.8993    43.3971   193.2696
     16  C    Isotropic =    69.3697   Anisotropy =   177.2637
   XX=    26.0470   YX=    41.9095   ZX=    -7.5796
   XY=    27.7542   YY=    13.1681   ZY=   -50.7439
   XZ=   -16.6806   YZ=   -52.8401   ZZ=   168.8939
   Eigenvalues:   -21.9510    42.5145   187.5454
     17  C    Isotropic =    69.9313   Anisotropy =   173.7710
   XX=    41.8168   YX=   -23.0651   ZX=   -26.6404
   XY=   -23.7270   YY=     5.4473   ZY=   -61.6708
   XZ=   -25.4988   YZ=   -61.1830   ZZ=   162.5299
   Eigenvalues:   -29.1793    53.1947   185.7787
     18  C    Isotropic =    69.4880   Anisotropy =   174.7144
   XX=    27.7501   YX=    42.6676   ZX=    -6.7417
   XY=    42.1849   YY=    13.2110   ZY=   -51.5731
   XZ=    -7.3297   YZ=   -52.8889   ZZ=   167.5030
   Eigenvalues:   -29.5002    52.0001   185.9643
     19  H    Isotropic =    23.0719   Anisotropy =     7.5145
   XX=    27.3468   YX=    -1.8624   ZX=     0.3762
   XY=    -2.0349   YY=    22.9051   ZY=     1.5297
   XZ=     0.8798   YZ=     1.2550   ZZ=    18.9640
   Eigenvalues:    18.3542    22.7800    28.0816
     20  H    Isotropic =    23.2631   Anisotropy =     9.1481
   XX=    28.2304   YX=     2.5666   ZX=     2.0325
   XY=     1.5951   YY=    21.8944   ZY=     1.2194
   XZ=     1.8801   YZ=     1.1746   ZZ=    19.6646
   Eigenvalues:    19.0128    21.4147    29.3619
     21  H    Isotropic =    23.7407   Anisotropy =     5.1876
   XX=    26.9103   YX=    -0.9428   ZX=     0.5405
   XY=    -1.0154   YY=    23.8042   ZY=     1.1008
   XZ=     0.4671   YZ=     0.9940   ZZ=    20.5076
   Eigenvalues:    20.1166    23.9065    27.1991
     22  H    Isotropic =    23.6871   Anisotropy =     4.8879
   XX=    26.2820   YX=     0.7938   ZX=     1.0221
   XY=     0.9323   YY=    24.1264   ZY=     1.5320
   XZ=     1.0067   YZ=     1.5037   ZZ=    20.6530
   Eigenvalues:    20.0133    24.1023    26.9457
     23  H    Isotropic =    23.6460   Anisotropy =     4.5282
   XX=    23.8993   YX=    -0.4493   ZX=     0.2709
   XY=    -0.7149   YY=    26.0253   ZY=     1.7929
   XZ=     0.4220   YZ=     1.7586   ZZ=    21.0135
   Eigenvalues:    20.3746    23.8987    26.6648
     24  C    Isotropic =   173.1631   Anisotropy =    34.1348
   XX=   161.7457   YX=     4.1389   ZX=     8.3056
   XY=     4.0614   YY=   170.9627   ZY=   -17.6852
   XZ=     6.2416   YZ=   -11.3147   ZZ=   186.7810
   Eigenvalues:   154.5811   168.9886   195.9197
     25  H    Isotropic =    30.3036   Anisotropy =     9.9021
   XX=    32.9030   YX=     2.1362   ZX=    -2.8969
   XY=     3.6558   YY=    28.3229   ZY=    -2.1602
   XZ=    -4.4137   YZ=    -2.5850   ZZ=    29.6850
   Eigenvalues:    26.5290    27.4769    36.9050
     26  H    Isotropic =    30.8608   Anisotropy =     8.6228
   XX=    28.8625   YX=     1.7706   ZX=     2.0165
   XY=     1.6297   YY=    27.5602   ZY=    -0.1542
   XZ=     1.1953   YZ=     1.4628   ZZ=    36.1596
   Eigenvalues:    26.3755    29.5975    36.6093
     27  H    Isotropic =    30.5460   Anisotropy =     5.1029
   XX=    29.7826   YX=    -2.2138   ZX=    -1.3695
   XY=    -1.5073   YY=    33.0666   ZY=    -0.7196
   XZ=    -2.6001   YZ=    -1.9738   ZZ=    28.7888
   Eigenvalues:    26.4899    31.2002    33.9479
 End of Minotr Frequency-dependent properties file   721 does not exist.
 End of Minotr Frequency-dependent properties file   722 does not exist.

 **********************************************************************

            Population analysis using the SCF density.

 **********************************************************************

 Orbital symmetries:
       Occupied  (A) (A) (A) (A) (A) (A) (A) (A) (A) (A) (A) (A)
                 (A) (A) (A) (A) (A) (A) (A) (A) (A) (A) (A) (A)
                 (A) (A) (A) (A) (A) (A) (A) (A) (A) (A) (A) (A)
                 (A) (A) (A) (A) (A) (A) (A) (A) (A) (A) (A) (A)
       Virtual   (A) (A) (A) (A) (A) (A) (A) (A) (A) (A) (A) (A)
                 (A) (A) (A) (A) (A) (A) (A) (A) (A) (A) (A) (A)
                 (A) (A) (A) (A) (A) (A) (A) (A) (A) (A) (A) (A)
                 (A) (A) (A) (A) (A) (A) (A) (A) (A) (A) (A) (A)
                 (A) (A) (A) (A) (A) (A) (A) (A) (A) (A) (A) (A)
                 (A) (A) (A) (A) (A) (A) (A) (A) (A) (A) (A) (A)
                 (A) (A) (A) (A) (A) (A) (A) (A) (A) (A) (A) (A)
                 (A) (A) (A) (A) (A) (A) (A) (A) (A) (A) (A) (A)
                 (A) (A) (A) (A) (A) (A) (A) (A) (A) (A) (A) (A)
                 (A) (A) (A) (A) (A) (A) (A) (A) (A) (A) (A) (A)
                 (A) (A) (A) (A) (A) (A) (A) (A) (A) (A) (A) (A)
                 (A) (A) (A) (A) (A) (A) (A) (A) (A) (A) (A) (A)
                 (A) (A) (A) (A) (A) (A) (A) (A) (A) (A) (A) (A)
                 (A) (A) (A) (A) (A) (A) (A) (A) (A) (A) (A) (A)
                 (A) (A) (A) (A) (A) (A) (A) (A) (A) (A) (A) (A)
                 (A) (A) (A) (A) (A) (A) (A) (A) (A) (A) (A) (A)
                 (A) (A) (A) (A) (A) (A) (A) (A) (A) (A) (A) (A)
                 (A) (A) (A) (A) (A) (A) (A) (A) (A) (A) (A) (A)
                 (A)
 The electronic state is 1-A.
 Alpha  occ. eigenvalues --  -19.24020 -19.21213 -10.34541 -10.28850 -10.26722
 Alpha  occ. eigenvalues --  -10.26484 -10.26141 -10.26090 -10.25846 -10.25732
 Alpha  occ. eigenvalues --  -10.25464 -10.23564 -10.22230  -1.07591  -1.02262
 Alpha  occ. eigenvalues --   -0.88940  -0.82315  -0.78483  -0.77441  -0.74553
 Alpha  occ. eigenvalues --   -0.67590  -0.64541  -0.63107  -0.60915  -0.56678
 Alpha  occ. eigenvalues --   -0.53195  -0.49453  -0.48575  -0.47271  -0.45950
 Alpha  occ. eigenvalues --   -0.45541  -0.44358  -0.44027  -0.43169  -0.42072
 Alpha  occ. eigenvalues --   -0.40482  -0.38585  -0.37707  -0.37479  -0.36749
 Alpha  occ. eigenvalues --   -0.36385  -0.35630  -0.35140  -0.32095  -0.27348
 Alpha  occ. eigenvalues --   -0.27016  -0.26620  -0.26125
 Alpha virt. eigenvalues --   -0.05753  -0.00572   0.04198   0.10383   0.11848
 Alpha virt. eigenvalues --    0.14200   0.15238   0.16101   0.16558   0.16920
 Alpha virt. eigenvalues --    0.17373   0.18680   0.18943   0.19629   0.20277
 Alpha virt. eigenvalues --    0.21103   0.21284   0.22436   0.23513   0.25115
 Alpha virt. eigenvalues --    0.26135   0.27818   0.29114   0.30830   0.31209
 Alpha virt. eigenvalues --    0.32703   0.33684   0.39010   0.40089   0.49573
 Alpha virt. eigenvalues --    0.50381   0.53074   0.53665   0.54536   0.54982
 Alpha virt. eigenvalues --    0.56067   0.57691   0.59946   0.60246   0.60609
 Alpha virt. eigenvalues --    0.61286   0.61750   0.62081   0.62339   0.62984
 Alpha virt. eigenvalues --    0.63534   0.65133   0.67595   0.67914   0.68596
 Alpha virt. eigenvalues --    0.69921   0.72534   0.76571   0.78650   0.80350
 Alpha virt. eigenvalues --    0.81276   0.82370   0.82863   0.83835   0.84110
 Alpha virt. eigenvalues --    0.84605   0.86581   0.87167   0.89078   0.89906
 Alpha virt. eigenvalues --    0.90359   0.92263   0.92521   0.93554   0.94601
 Alpha virt. eigenvalues --    0.95745   0.96244   0.98182   0.98699   0.99899
 Alpha virt. eigenvalues --    1.02155   1.03719   1.04124   1.07240   1.08926
 Alpha virt. eigenvalues --    1.11507   1.12714   1.14127   1.16354   1.20419
 Alpha virt. eigenvalues --    1.21470   1.24442   1.25901   1.28513   1.29669
 Alpha virt. eigenvalues --    1.33697   1.36904   1.37950   1.40541   1.41391
 Alpha virt. eigenvalues --    1.42287   1.42609   1.43518   1.46549   1.46821
 Alpha virt. eigenvalues --    1.50129   1.55668   1.58618   1.61143   1.62462
 Alpha virt. eigenvalues --    1.65740   1.68262   1.69988   1.71789   1.77335
 Alpha virt. eigenvalues --    1.78345   1.80337   1.82335   1.84209   1.84865
 Alpha virt. eigenvalues --    1.86396   1.88191   1.90210   1.90927   1.92241
 Alpha virt. eigenvalues --    1.94019   1.96788   1.97477   1.98026   1.99758
 Alpha virt. eigenvalues --    2.00531   2.02396   2.02500   2.03552   2.06578
 Alpha virt. eigenvalues --    2.08156   2.08979   2.09418   2.10002   2.11617
 Alpha virt. eigenvalues --    2.12951   2.14391   2.16038   2.18257   2.20893
 Alpha virt. eigenvalues --    2.23968   2.28782   2.29806   2.31026   2.31379
 Alpha virt. eigenvalues --    2.33086   2.35929   2.36788   2.37386   2.39148
 Alpha virt. eigenvalues --    2.41414   2.42311   2.43063   2.44520   2.46667
 Alpha virt. eigenvalues --    2.47721   2.48704   2.51278   2.53000   2.55876
 Alpha virt. eigenvalues --    2.56826   2.57998   2.60156   2.62133   2.63205
 Alpha virt. eigenvalues --    2.66090   2.66392   2.68144   2.69280   2.70386
 Alpha virt. eigenvalues --    2.74462   2.75517   2.76410   2.77259   2.79096
 Alpha virt. eigenvalues --    2.81238   2.82784   2.86539   2.88154   2.90583
 Alpha virt. eigenvalues --    2.91798   2.93710   2.96503   2.97781   3.05553
 Alpha virt. eigenvalues --    3.06613   3.08930   3.11296   3.21074   3.23832
 Alpha virt. eigenvalues --    3.24328   3.25954   3.27366   3.35906   3.39158
 Alpha virt. eigenvalues --    3.42779   3.45197   3.47859   3.49290   3.51228
 Alpha virt. eigenvalues --    3.52517   3.55514   3.59665   3.91158   3.96337
 Alpha virt. eigenvalues --    4.11667   4.15990   4.18254   4.23705   4.40179
 Alpha virt. eigenvalues --    4.45604   4.46413   4.50664   4.57357   4.70613
 Alpha virt. eigenvalues --    4.78507   4.87255
          Condensed to atoms (all electrons):
              1          2          3          4          5          6
     1  C    4.757891   0.405299   0.322487  -0.034538  -0.024324   0.004246
     2  H    0.405299   0.591950  -0.045600  -0.001612   0.004767  -0.000034
     3  C    0.322487  -0.045600   5.321844   0.376930   0.303507  -0.086272
     4  H   -0.034538  -0.001612   0.376930   0.566888  -0.040064   0.002866
     5  C   -0.024324   0.004767   0.303507  -0.040064   4.632658   0.492744
     6  O    0.004246  -0.000034  -0.086272   0.002866   0.492744   8.156616
     7  O    0.241393  -0.039794  -0.047085   0.003086  -0.004391  -0.017347
     8  H   -0.032316   0.005591  -0.011754   0.000056   0.000515   0.039259
     9  C   -0.043505  -0.007772   0.331328  -0.032316  -0.040004  -0.001690
    10  H   -0.007178  -0.000431  -0.033440   0.005143  -0.007113   0.002539
    11  H    0.004506  -0.000069  -0.033970  -0.004398  -0.004038  -0.000037
    12  H   -0.004356   0.004447  -0.032001  -0.003719   0.004108  -0.000045
    13  C    0.003977  -0.000187  -0.093518   0.001408   0.324156  -0.082605
    14  C    0.000000   0.000000  -0.000019   0.000003   0.000181  -0.000011
    15  C   -0.000153   0.000003   0.009356  -0.000138  -0.039314   0.000342
    16  C    0.000120   0.000004  -0.006480  -0.000053  -0.037886   0.003433
    17  C   -0.000004   0.000000  -0.000124   0.000117   0.004626  -0.000071
    18  C    0.000001   0.000000  -0.000097  -0.000023   0.005675   0.000910
    19  H   -0.000007   0.000000   0.000587  -0.000017  -0.008647   0.013394
    20  H    0.000065   0.000008   0.003710   0.001197  -0.008143   0.000035
    21  H    0.000000   0.000000   0.000014  -0.000002  -0.000127   0.000000
    22  H    0.000000   0.000000   0.000001   0.000000  -0.000133   0.000003
    23  H    0.000000   0.000000   0.000000   0.000000   0.000006   0.000000
    24  C    0.358442  -0.054315  -0.062869  -0.000044  -0.007852  -0.004589
    25  H   -0.027524  -0.005628   0.005493  -0.000112  -0.000018   0.000074
    26  H   -0.028660   0.000115   0.000180   0.001461   0.000383   0.000122
    27  H   -0.027341   0.004993  -0.010006  -0.000208   0.006668   0.003769
              7          8          9         10         11         12
     1  C    0.241393  -0.032316  -0.043505  -0.007178   0.004506  -0.004356
     2  H   -0.039794   0.005591  -0.007772  -0.000431  -0.000069   0.004447
     3  C   -0.047085  -0.011754   0.331328  -0.033440  -0.033970  -0.032001
     4  H    0.003086   0.000056  -0.032316   0.005143  -0.004398  -0.003719
     5  C   -0.004391   0.000515  -0.040004  -0.007113  -0.004038   0.004108
     6  O   -0.017347   0.039259  -0.001690   0.002539  -0.000037  -0.000045
     7  O    8.225154   0.286129  -0.000897   0.009870   0.000189  -0.000235
     8  H    0.286129   0.371244   0.000006   0.000414  -0.000037  -0.000010
     9  C   -0.000897   0.000006   5.036931   0.385307   0.382502   0.387909
    10  H    0.009870   0.000414   0.385307   0.543110  -0.028343  -0.025625
    11  H    0.000189  -0.000037   0.382502  -0.028343   0.561943  -0.027133
    12  H   -0.000235  -0.000010   0.387909  -0.025625  -0.027133   0.544862
    13  C    0.000063   0.000831  -0.001115   0.000590   0.001983  -0.000131
    14  C    0.000000   0.000000   0.000000   0.000000   0.000000   0.000000
    15  C    0.000007  -0.000019  -0.000236  -0.000005  -0.000061   0.000006
    16  C   -0.000005  -0.000016  -0.001651  -0.000086   0.001195  -0.000007
    17  C    0.000000   0.000000   0.000044   0.000001  -0.000021  -0.000001
    18  C    0.000000   0.000000   0.000003   0.000000  -0.000003   0.000000
    19  H    0.000003  -0.000020  -0.000014  -0.000002  -0.000001   0.000000
    20  H    0.000001  -0.000002  -0.000696  -0.000057   0.001137   0.000145
    21  H    0.000000   0.000000  -0.000001   0.000000  -0.000002   0.000000
    22  H    0.000000   0.000000   0.000000   0.000000   0.000000   0.000000
    23  H    0.000000   0.000000   0.000000   0.000000   0.000000   0.000000
    24  C   -0.056119  -0.003409   0.005905   0.000284  -0.000119  -0.000001
    25  H    0.001617  -0.000248  -0.000145  -0.000001   0.000002  -0.000007
    26  H    0.003944  -0.000057  -0.000134  -0.000015  -0.000007  -0.000002
    27  H   -0.002101   0.003464   0.000028  -0.000007   0.000001   0.000000
             13         14         15         16         17         18
     1  C    0.003977   0.000000  -0.000153   0.000120  -0.000004   0.000001
     2  H   -0.000187   0.000000   0.000003   0.000004   0.000000   0.000000
     3  C   -0.093518  -0.000019   0.009356  -0.006480  -0.000124  -0.000097
     4  H    0.001408   0.000003  -0.000138  -0.000053   0.000117  -0.000023
     5  C    0.324156   0.000181  -0.039314  -0.037886   0.004626   0.005675
     6  O   -0.082605  -0.000011   0.000342   0.003433  -0.000071   0.000910
     7  O    0.000063   0.000000   0.000007  -0.000005   0.000000   0.000000
     8  H    0.000831   0.000000  -0.000019  -0.000016   0.000000   0.000000
     9  C   -0.001115   0.000000  -0.000236  -0.001651   0.000044   0.000003
    10  H    0.000590   0.000000  -0.000005  -0.000086   0.000001   0.000000
    11  H    0.001983   0.000000  -0.000061   0.001195  -0.000021  -0.000003
    12  H   -0.000131   0.000000   0.000006  -0.000007  -0.000001   0.000000
    13  C    5.002918  -0.031070   0.493629   0.522845  -0.029334  -0.034003
    14  C   -0.031070   4.859970  -0.046089  -0.048586   0.543397   0.534562
    15  C    0.493629  -0.046089   4.959054  -0.068314  -0.038524   0.509009
    16  C    0.522845  -0.048586  -0.068314   4.946976   0.522474  -0.037559
    17  C   -0.029334   0.543397  -0.038524   0.522474   4.886976  -0.040830
    18  C   -0.034003   0.534562   0.509009  -0.037559  -0.040830   4.902785
    19  H   -0.043662   0.004135   0.380469   0.004567   0.000138  -0.035489
    20  H   -0.035231   0.004030   0.004382   0.379144  -0.035851   0.000208
    21  H    0.002929  -0.036688   0.000673  -0.032568   0.380955   0.003847
    22  H    0.003020  -0.037066  -0.033673   0.000614   0.003898   0.382169
    23  H    0.000477   0.381959   0.003943   0.004162  -0.036416  -0.036592
    24  C    0.000362   0.000000   0.000023  -0.000038   0.000000   0.000000
    25  H    0.000004   0.000000   0.000000   0.000000   0.000000   0.000000
    26  H   -0.000068   0.000000  -0.000006   0.000008   0.000000   0.000000
    27  H   -0.000458   0.000000   0.000026  -0.000009   0.000000   0.000002
             19         20         21         22         23         24
     1  C   -0.000007   0.000065   0.000000   0.000000   0.000000   0.358442
     2  H    0.000000   0.000008   0.000000   0.000000   0.000000  -0.054315
     3  C    0.000587   0.003710   0.000014   0.000001   0.000000  -0.062869
     4  H   -0.000017   0.001197  -0.000002   0.000000   0.000000  -0.000044
     5  C   -0.008647  -0.008143  -0.000127  -0.000133   0.000006  -0.007852
     6  O    0.013394   0.000035   0.000000   0.000003   0.000000  -0.004589
     7  O    0.000003   0.000001   0.000000   0.000000   0.000000  -0.056119
     8  H   -0.000020  -0.000002   0.000000   0.000000   0.000000  -0.003409
     9  C   -0.000014  -0.000696  -0.000001   0.000000   0.000000   0.005905
    10  H   -0.000002  -0.000057   0.000000   0.000000   0.000000   0.000284
    11  H   -0.000001   0.001137  -0.000002   0.000000   0.000000  -0.000119
    12  H    0.000000   0.000145   0.000000   0.000000   0.000000  -0.000001
    13  C   -0.043662  -0.035231   0.002929   0.003020   0.000477   0.000362
    14  C    0.004135   0.004030  -0.036688  -0.037066   0.381959   0.000000
    15  C    0.380469   0.004382   0.000673  -0.033673   0.003943   0.000023
    16  C    0.004567   0.379144  -0.032568   0.000614   0.004162  -0.000038
    17  C    0.000138  -0.035851   0.380955   0.003898  -0.036416   0.000000
    18  C   -0.035489   0.000208   0.003847   0.382169  -0.036592   0.000000
    19  H    0.522264  -0.000109   0.000013  -0.004174  -0.000137  -0.000005
    20  H   -0.000109   0.521972  -0.004343   0.000013  -0.000143  -0.000008
    21  H    0.000013  -0.004343   0.528283  -0.000145  -0.004441   0.000000
    22  H   -0.004174   0.000013  -0.000145   0.527767  -0.004404   0.000000
    23  H   -0.000137  -0.000143  -0.004441  -0.004404   0.528711   0.000000
    24  C   -0.000005  -0.000008   0.000000   0.000000   0.000000   5.121419
    25  H    0.000000   0.000000   0.000000   0.000000   0.000000   0.381704
    26  H   -0.000001  -0.000010   0.000000   0.000000   0.000000   0.358105
    27  H    0.000028  -0.000001   0.000000   0.000000   0.000000   0.380504
             25         26         27
     1  C   -0.027524  -0.028660  -0.027341
     2  H   -0.005628   0.000115   0.004993
     3  C    0.005493   0.000180  -0.010006
     4  H   -0.000112   0.001461  -0.000208
     5  C   -0.000018   0.000383   0.006668
     6  O    0.000074   0.000122   0.003769
     7  O    0.001617   0.003944  -0.002101
     8  H   -0.000248  -0.000057   0.003464
     9  C   -0.000145  -0.000134   0.000028
    10  H   -0.000001  -0.000015  -0.000007
    11  H    0.000002  -0.000007   0.000001
    12  H   -0.000007  -0.000002   0.000000
    13  C    0.000004  -0.000068  -0.000458
    14  C    0.000000   0.000000   0.000000
    15  C    0.000000  -0.000006   0.000026
    16  C    0.000000   0.000008  -0.000009
    17  C    0.000000   0.000000   0.000000
    18  C    0.000000   0.000000   0.000002
    19  H    0.000000  -0.000001   0.000028
    20  H    0.000000  -0.000010  -0.000001
    21  H    0.000000   0.000000   0.000000
    22  H    0.000000   0.000000   0.000000
    23  H    0.000000   0.000000   0.000000
    24  C    0.381704   0.358105   0.380504
    25  H    0.556892  -0.025446  -0.030129
    26  H   -0.025446   0.583250  -0.025417
    27  H   -0.030129  -0.025417   0.555929
 Mulliken atomic charges:
              1
     1  C    0.131479
     2  H    0.138265
     3  C   -0.212202
     4  H    0.158090
     5  C    0.442062
     6  O   -0.527651
     7  O   -0.603482
     8  H    0.340377
     9  C   -0.399785
    10  H    0.155046
    11  H    0.144781
    12  H    0.151798
    13  C   -0.007808
    14  C   -0.128705
    15  C   -0.134390
    16  C   -0.152283
    17  C   -0.161451
    18  C   -0.154573
    19  H    0.166688
    20  H    0.168546
    21  H    0.161603
    22  H    0.162110
    23  H    0.162875
    24  C   -0.417380
    25  H    0.143473
    26  H    0.132254
    27  H    0.140266
 Sum of Mulliken atomic charges =   0.00000
 Mulliken charges with hydrogens summed into heavy atoms:
              1
     1  C    0.269744
     3  C   -0.054112
     5  C    0.442062
     6  O   -0.527651
     7  O   -0.263105
     9  C    0.051839
    13  C   -0.007808
    14  C    0.034170
    15  C    0.032297
    16  C    0.016263
    17  C    0.000152
    18  C    0.007537
    24  C   -0.001388
 Sum of Mulliken charges with hydrogens summed into heavy atoms =   0.00000
 Electronic spatial extent (au):  <R**2>=           2822.4655
 Charge=              0.0000 electrons
 Dipole moment (field-independent basis, Debye):
    X=              4.3208    Y=              2.4823    Z=              2.1426  Tot=              5.4242
 Quadrupole moment (field-independent basis, Debye-Ang):
   XX=            -77.5460   YY=            -71.2387   ZZ=            -78.8873
   XY=             -3.5269   XZ=             -3.2815   YZ=              1.3966
 Traceless Quadrupole moment (field-independent basis, Debye-Ang):
   XX=             -1.6554   YY=              4.6520   ZZ=             -2.9966
   XY=             -3.5269   XZ=             -3.2815   YZ=              1.3966
 Octapole moment (field-independent basis, Debye-Ang**2):
  XXX=             86.6386  YYY=             -1.3586  ZZZ=             -5.9952  XYY=              3.0102
  XXY=              3.7674  XXZ=             19.3812  XZZ=            -13.3304  YZZ=              0.8567
  YYZ=              0.4584  XYZ=              6.3534
 Hexadecapole moment (field-independent basis, Debye-Ang**3):
 XXXX=          -2677.7826 YYYY=           -570.2695 ZZZZ=           -372.6381 XXXY=            -32.8858
 XXXZ=            -18.2491 YYYX=              2.0906 YYYZ=             19.6782 ZZZX=             10.5015
 ZZZY=              8.0204 XXYY=           -503.2988 XXZZ=           -536.8164 YYZZ=           -163.4361
 XXYZ=             28.2078 YYXZ=              5.6439 ZZXY=              6.9933
 N-N= 7.842499522581D+02 E-N=-2.912826295371D+03  KE= 5.725945887525D+02
 1\1\GINC-COMPUTE-8-7\SP\RmPW1PW91\6-31G(d,p)\C11H14O2\FBRUNO.IQUIR\21-
 Dec-2021\0\\# mPW1PW91/6-31g** scrf=(pcm,solvent=chloroform,smd,dovacu
 um) nmr\\comment\\0,1\C,0,0.11961594,-0.968829267,2.457946192\H,0,-0.1
 99096199,-0.534858232,3.413283245\C,0,-0.519701167,-0.148488445,1.3157
 93874\H,0,-0.146513966,0.876102064,1.416537648\C,0,-0.127137785,-0.705
 373751,-0.051530495\O,0,0.042637071,-1.915638118,-0.216144207\O,0,-0.3
 37514853,-2.319325592,2.460663319\H,0,-0.167563372,-2.675486128,1.5616
 46429\C,0,-2.04511746,-0.152834409,1.425709425\H,0,-2.455591474,-1.161
 086528,1.301948446\H,0,-2.500224781,0.475964151,0.653598446\H,0,-2.365
 853901,0.229564589,2.400240717\C,0,0.047921108,0.216860958,-1.21704607
 7\C,0,0.43194114,1.847573097,-3.467343033\C,0,0.620692987,-0.303671354
 ,-2.387132988\C,0,-0.337497049,1.56263668,-1.189259157\C,0,-0.14375974
 ,2.373450562,-2.312152459\C,0,0.813114166,0.508734275,-3.506341972\H,0
 ,0.922165421,-1.348928096,-2.434214598\H,0,-0.802517327,2.009912375,-0
 .31678523\H,0,-0.446891397,3.417787034,-2.287100596\H,0,1.258588819,0.
 093982719,-4.407359339\H,0,0.579727103,2.480349394,-4.339264657\C,0,1.
 644607109,-0.957516852,2.429934145\H,0,2.04009122,-1.488228822,3.30306
 4416\H,0,2.034519384,0.06473058,2.440094586\H,0,2.039359003,-1.4773828
 86,1.551213918\\Version=EM64L-G09RevC.01\State=1-A\HF=-577.9516963\RMS
 D=6.923e-09\Dipole=0.1154578,1.9275186,-0.9085436\Quadrupole=-0.870214
 2,-1.4064582,2.2766724,-2.6295571,-1.175324,3.2971061\PG=C01 [X(C11H14
 O2)]\\@


  THE LARGE PRINT GIVETH,
  AND THE SMALL PRINT TAKETH AWAY.

                     -- TOM WAITS
 Job cpu time:  0 days  0 hours 20 minutes 10.8 seconds.
 File lengths (MBytes):  RWF=     79 Int=      0 D2E=      0 Chk=      5 Scr=      1
 Normal termination of Gaussian 09 at Tue Dec 21 08:44:37 2021.
