 Entering Gaussian System, Link 0=g09
 Input=/home/fbruno.iquir/2_val_run/2b_005_MPW_A_SMD.gjc
 Output=/home/fbruno.iquir/2_val_run/2b_005_MPW_A_SMD.log
 Initial command:
 /share/apps/Gaussian09/EM64T.SSE4.2-enabled/g09/l1.exe /tmp/Gau-9598.inp -scrdir=/tmp/
 Entering Link 1 = /share/apps/Gaussian09/EM64T.SSE4.2-enabled/g09/l1.exe PID=      9599.
  
 Copyright (c) 1988,1990,1992,1993,1995,1998,2003,2009,2011,
            Gaussian, Inc.  All Rights Reserved.
  
 This is part of the Gaussian(R) 09 program.  It is based on
 the Gaussian(R) 03 system (copyright 2003, Gaussian, Inc.),
 the Gaussian(R) 98 system (copyright 1998, Gaussian, Inc.),
 the Gaussian(R) 94 system (copyright 1995, Gaussian, Inc.),
 the Gaussian 92(TM) system (copyright 1992, Gaussian, Inc.),
 the Gaussian 90(TM) system (copyright 1990, Gaussian, Inc.),
 the Gaussian 88(TM) system (copyright 1988, Gaussian, Inc.),
 the Gaussian 86(TM) system (copyright 1986, Carnegie Mellon
 University), and the Gaussian 82(TM) system (copyright 1983,
 Carnegie Mellon University). Gaussian is a federally registered
 trademark of Gaussian, Inc.
  
 This software contains proprietary and confidential information,
 including trade secrets, belonging to Gaussian, Inc.
  
 This software is provided under written license and may be
 used, copied, transmitted, or stored only in accord with that
 written license.
  
 The following legend is applicable only to US Government
 contracts under FAR:
  
                    RESTRICTED RIGHTS LEGEND
  
 Use, reproduction and disclosure by the US Government is
 subject to restrictions as set forth in subparagraphs (a)
 and (c) of the Commercial Computer Software - Restricted
 Rights clause in FAR 52.227-19.
  
 Gaussian, Inc.
 340 Quinnipiac St., Bldg. 40, Wallingford CT 06492
  
  
 ---------------------------------------------------------------
 Warning -- This program may not be used in any manner that
 competes with the business of Gaussian, Inc. or will provide
 assistance to any competitor of Gaussian, Inc.  The licensee
 of this program is prohibited from giving any competitor of
 Gaussian, Inc. access to this program.  By using this program,
 the user acknowledges that Gaussian, Inc. is engaged in the
 business of creating and licensing software in the field of
 computational chemistry and represents and warrants to the
 licensee that it is not a competitor of Gaussian, Inc. and that
 it will not use this program in any manner prohibited above.
 ---------------------------------------------------------------
  

 Cite this work as:
 Gaussian 09, Revision C.01,
 M. J. Frisch, G. W. Trucks, H. B. Schlegel, G. E. Scuseria, 
 M. A. Robb, J. R. Cheeseman, G. Scalmani, V. Barone, B. Mennucci, 
 G. A. Petersson, H. Nakatsuji, M. Caricato, X. Li, H. P. Hratchian, 
 A. F. Izmaylov, J. Bloino, G. Zheng, J. L. Sonnenberg, M. Hada, 
 M. Ehara, K. Toyota, R. Fukuda, J. Hasegawa, M. Ishida, T. Nakajima, 
 Y. Honda, O. Kitao, H. Nakai, T. Vreven, J. A. Montgomery, Jr., 
 J. E. Peralta, F. Ogliaro, M. Bearpark, J. J. Heyd, E. Brothers, 
 K. N. Kudin, V. N. Staroverov, T. Keith, R. Kobayashi, J. Normand, 
 K. Raghavachari, A. Rendell, J. C. Burant, S. S. Iyengar, J. Tomasi, 
 M. Cossi, N. Rega, J. M. Millam, M. Klene, J. E. Knox, J. B. Cross, 
 V. Bakken, C. Adamo, J. Jaramillo, R. Gomperts, R. E. Stratmann, 
 O. Yazyev, A. J. Austin, R. Cammi, C. Pomelli, J. W. Ochterski, 
 R. L. Martin, K. Morokuma, V. G. Zakrzewski, G. A. Voth, 
 P. Salvador, J. J. Dannenberg, S. Dapprich, A. D. Daniels, 
 O. Farkas, J. B. Foresman, J. V. Ortiz, J. Cioslowski, 
 and D. J. Fox, Gaussian, Inc., Wallingford CT, 2010.
 
 ******************************************
 Gaussian 09:  EM64L-G09RevC.01 23-Sep-2011
                21-Dec-2021 
 ******************************************
 %nprocshared=4
 Will use up to    4 processors via shared memory.
 -----------------------------------------------------------------
 # mPW1PW91/6-31g** scrf=(pcm,solvent=chloroform,smd,dovacuum) nmr
 -----------------------------------------------------------------
 1/38=1/1;
 2/12=2,17=6,18=5,40=1/2;
 3/5=1,6=6,7=101,11=2,16=1,25=1,30=1,70=32101,72=7,74=-7/1,2,8,3;
 4//1;
 5/5=2,38=5,53=7/2;
 8/6=1,10=90,11=11/1;
 10/13=100,45=16/2;
 6/7=2,8=2,9=2,10=2,28=1/1;
 99/9=1/99;
 -------
 comment
 -------
 Charge =  0 Multiplicity = 1
 Symbolic Z-Matrix:
 6                     0.38121  -0.97759   2.32336 
 1                     1.46289  -1.10159   2.1909 
 6                    -0.18327  -0.11947   1.16993 
 1                     0.13012   0.90917   1.38352 
 6                     0.43247  -0.53635  -0.16479 
 8                     0.90786  -1.66037  -0.33057 
 8                     0.20154  -0.24503   3.54359 
 1                     0.60121  -0.77271   4.25727 
 6                    -1.70959  -0.15212   1.08758 
 1                    -2.07371  -1.133     0.76325 
 1                    -2.08485   0.5777    0.36328 
 1                    -2.16178   0.0839    2.05627 
 6                     0.45407   0.42396  -1.31686 
 6                     0.54867   2.12336  -3.55065 
 6                     0.90156  -0.0501   -2.55993 
 6                     0.05865   1.76286  -1.20664 
 6                     0.10566   2.60691  -2.32117 
 6                     0.94756   0.79487  -3.67094 
 1                     1.21816  -1.08596  -2.67135 
 1                    -0.29023   2.18488  -0.26973 
 1                    -0.20343   3.64561  -2.22825 
 1                     1.29573   0.41369  -4.62777 
 1                     0.58452   2.78245  -4.41466 
 6                    -0.26035  -2.35154   2.49857 
 1                     0.2576   -2.90699   3.28877 
 1                    -0.2193   -2.94772   1.58363 
 1                    -1.30296  -2.26881   2.8234 
 
                          Input orientation:                          
 ---------------------------------------------------------------------
 Center     Atomic      Atomic             Coordinates (Angstroms)
 Number     Number       Type             X           Y           Z
 ---------------------------------------------------------------------
      1          6           0        0.381210   -0.977593    2.323358
      2          1           0        1.462888   -1.101591    2.190899
      3          6           0       -0.183268   -0.119474    1.169928
      4          1           0        0.130122    0.909171    1.383521
      5          6           0        0.432467   -0.536350   -0.164788
      6          8           0        0.907863   -1.660374   -0.330572
      7          8           0        0.201540   -0.245028    3.543592
      8          1           0        0.601209   -0.772714    4.257268
      9          6           0       -1.709595   -0.152122    1.087583
     10          1           0       -2.073714   -1.132999    0.763246
     11          1           0       -2.084851    0.577699    0.363277
     12          1           0       -2.161779    0.083896    2.056268
     13          6           0        0.454068    0.423956   -1.316859
     14          6           0        0.548672    2.123360   -3.550650
     15          6           0        0.901558   -0.050097   -2.559933
     16          6           0        0.058655    1.762863   -1.206635
     17          6           0        0.105662    2.606909   -2.321165
     18          6           0        0.947557    0.794872   -3.670941
     19          1           0        1.218156   -1.085960   -2.671355
     20          1           0       -0.290230    2.184880   -0.269725
     21          1           0       -0.203431    3.645606   -2.228251
     22          1           0        1.295733    0.413690   -4.627770
     23          1           0        0.584516    2.782450   -4.414662
     24          6           0       -0.260348   -2.351537    2.498568
     25          1           0        0.257598   -2.906989    3.288767
     26          1           0       -0.219302   -2.947718    1.583635
     27          1           0       -1.302958   -2.268805    2.823398
 ---------------------------------------------------------------------
                    Distance matrix (angstroms):
                    1          2          3          4          5
     1  C    0.000000
     2  H    1.096789   0.000000
     3  C    1.544475   2.171811   0.000000
     4  H    2.122785   2.543872   1.096332   0.000000
     5  C    2.527487   2.632589   1.527868   2.139673   0.000000
     6  O    2.790501   2.641611   2.411730   3.185209   1.231632
     7  O    1.434540   2.038253   2.407929   2.450139   3.726966
     8  H    1.957137   2.262859   3.251737   3.362898   4.431582
     9  C    2.565152   3.490478   1.528895   2.144407   2.510874
    10  H    2.912860   3.814018   2.183211   3.067914   2.738280
    11  H    3.513162   4.329741   2.180081   2.461072   2.803006
    12  H    2.768554   3.815981   2.177490   2.527148   3.471009
    13  C    3.901388   3.955929   2.624047   2.762684   1.499974
    14  C    6.644390   6.648420   5.277300   5.098577   4.307160
    15  C    4.997753   4.898075   3.885038   4.131118   2.488616
    16  C    4.480513   4.660494   3.041344   2.728151   2.551776
    17  C    5.873344   5.996145   4.438961   4.075244   3.825813
    18  C    6.276464   6.182500   5.054582   5.121411   3.785575
    19  H    5.065508   4.868434   4.201611   4.648266   2.683702
    20  H    4.144412   4.464189   2.719208   2.130107   2.817516
    21  H    6.514056   6.696371   5.071869   4.543593   4.706485
    22  H    7.147741   6.987007   6.007080   6.143271   4.643923
    23  H    7.718819   7.713025   6.340213   6.110203   5.394347
    24  C    1.526440   2.150946   2.598717   3.468142   3.296720
    25  H    2.160987   2.432592   3.529034   4.267234   4.192559
    26  H    2.188424   2.570354   2.858569   3.877852   3.049013
    27  H    2.180296   3.067955   2.933819   3.771803   3.865534
                    6          7          8          9         10
     6  O    0.000000
     7  O    4.184644   0.000000
     8  H    4.682975   0.973407   0.000000
     9  C    3.337225   3.113366   3.971379   0.000000
    10  H    3.219373   3.700757   4.415112   1.095398   0.000000
    11  H    3.800886   4.002358   4.919522   1.094566   1.756868
    12  H    4.261711   2.811690   3.634871   1.094772   1.777778
    13  C    2.350133   4.912768   5.703031   3.285520   3.625000
    14  C    4.981422   7.487191   8.327880   5.638332   6.007535
    15  C    2.750106   6.146628   6.861969   4.486970   4.590037
    16  C    3.634171   5.159138   6.047955   3.472364   4.100420
    17  C    4.776578   6.522125   7.412368   4.746259   5.315090
    18  C    4.145826   7.327170   8.089115   5.531799   5.701471
    19  H    2.430123   6.353443   6.963085   4.855243   4.757636
    20  H    4.028041   4.548371   5.480483   3.052615   3.905914
    21  H    5.743657   6.972461   7.888660   5.261751   5.939872
    22  H    4.787285   8.270570   8.990763   6.482083   6.542818
    23  H    6.043429   8.523268   9.372398   6.644498   7.014817
    24  C    3.137907   2.396413   2.515549   2.988080   2.790067
    25  H    3.882848   2.674717   2.368795   4.037864   3.867856
    26  H    2.567478   3.364977   3.542908   3.206618   2.721229
    27  H    3.899416   2.622568   2.814271   2.767446   2.475551
                   11         12         13         14         15
    11  H    0.000000
    12  H    1.765213   0.000000
    13  C    3.048377   4.282088   0.000000
    14  C    4.964205   6.553128   2.808335   0.000000
    15  C    4.225863   5.541777   1.403641   2.414531   0.000000
    16  C    2.909271   4.289032   1.400419   2.421669   2.414275
    17  C    4.015255   5.537942   2.428024   1.393453   2.783907
    18  C    5.051492   6.555484   2.433683   1.392286   1.396577
    19  H    4.783994   5.928148   2.167565   3.394275   1.088881
    20  H    2.490861   3.650626   2.179753   3.387036   3.414752
    21  H    4.434841   5.905760   3.412033   2.152123   3.871593
    22  H    6.030406   7.532564   3.416232   2.154358   2.155556
    23  H    5.900437   7.529758   3.895625   1.087291   3.400567
    24  C    4.058165   3.121282   4.771922   7.567844   5.677595
    25  H    5.117480   4.039534   5.687318   8.495102   6.540934
    26  H    4.171104   3.631430   4.498275   7.257169   5.178966
    27  H    3.842673   2.619402   5.242121   7.959155   6.225979
                   16         17         18         19         20
    16  C    0.000000
    17  C    1.398856   0.000000
    18  C    2.792840   2.411257   0.000000
    19  H    3.406705   3.872668   2.147073   0.000000
    20  H    1.085182   2.131489   3.877178   4.329139   0.000000
    21  H    2.158034   1.087687   3.396000   4.960340   2.444806
    22  H    3.880051   3.398074   1.087221   2.466278   4.964368
    23  H    3.406982   2.154727   2.152995   4.290130   4.278174
    24  C    5.546043   6.924593   7.030062   5.524107   5.314454
    25  H    6.485040   7.867496   7.913113   6.305701   6.236194
    26  H    5.482011   6.797570   6.555845   4.861827   5.457430
    27  H    5.860846   7.226571   7.525116   6.160150   5.516189
                   21         22         23         24         25
    21  H    0.000000
    22  H    4.295401   0.000000
    23  H    2.479172   2.482392   0.000000
    24  C    7.636216   7.800806   8.652420   0.000000
    25  H    8.578260   8.647323   9.582245   1.095997   0.000000
    26  H    7.615948   7.223292   8.334298   1.092804   1.771036
    27  H    7.855469   8.334800   9.025922   1.095168   1.749051
                   26         27
    26  H    0.000000
    27  H    1.781080   0.000000
 Stoichiometry    C11H14O2
 Framework group  C1[X(C11H14O2)]
 Deg. of freedom    75
 Full point group                 C1      NOp   1
 Largest Abelian subgroup         C1      NOp   1
 Largest concise Abelian subgroup C1      NOp   1
                         Standard orientation:                         
 ---------------------------------------------------------------------
 Center     Atomic      Atomic             Coordinates (Angstroms)
 Number     Number       Type             X           Y           Z
 ---------------------------------------------------------------------
      1          6           0       -2.645559    0.051930   -0.540680
      2          1           0       -2.457718    0.628163   -1.454801
      3          6           0       -1.306859   -0.480287    0.016125
      4          1           0       -1.016834   -1.305504   -0.644819
      5          6           0       -0.223779    0.594496   -0.062354
      6          8           0       -0.508096    1.792108   -0.104870
      7          8           0       -3.439970   -1.078188   -0.927524
      8          1           0       -4.261130   -0.731915   -1.319076
      9          6           0       -1.421039   -1.020622    1.441791
     10          1           0       -1.597128   -0.215830    2.163733
     11          1           0       -0.500080   -1.524663    1.751389
     12          1           0       -2.236507   -1.746399    1.524164
     13          6           0        1.224637    0.204744   -0.072645
     14          6           0        3.968636   -0.392663   -0.090481
     15          6           0        2.181871    1.229060   -0.004191
     16          6           0        1.660773   -1.123490   -0.154819
     17          6           0        3.028175   -1.418372   -0.162348
     18          6           0        3.546409    0.931734   -0.012022
     19          1           0        1.869044    2.270265    0.056582
     20          1           0        0.966002   -1.954869   -0.215820
     21          1           0        3.359633   -2.452372   -0.225930
     22          1           0        4.276590    1.735433    0.042299
     23          1           0        5.030676   -0.625531   -0.097246
     24          6           0       -3.470095    0.901003    0.423287
     25          1           0       -4.358245    1.289538   -0.088024
     26          1           0       -2.905410    1.751405    0.813373
     27          1           0       -3.843377    0.305725    1.263347
 ---------------------------------------------------------------------
 Rotational constants (GHZ):      1.9216689      0.4132891      0.3711507
 Standard basis: 6-31G(d,p) (6D, 7F)
 There are   265 symmetry adapted basis functions of A   symmetry.
 Integral buffers will be    131072 words long.
 Raffenetti 2 integral format.
 Two-electron integral symmetry is turned on.
   265 basis functions,   462 primitive gaussians,   265 cartesian basis functions
    48 alpha electrons       48 beta electrons
       nuclear repulsion energy       773.0242600823 Hartrees.
 NAtoms=   27 NActive=   27 NUniq=   27 SFac= 1.00D+00 NAtFMM=   60 NAOKFM=F Big=F
 ------------------------------------------------------------------------------
 Polarizable Continuum Model (PCM)
 =================================
 Model                : C-PCM.
 Atomic radii         : SMD-Coulomb.
 Polarization charges : Total charges.
 Charge compensation  : None.
 Solution method      : Matrix inversion.
 Cavity type          : VdW (van der Waals Surface) (Alpha=1.000).
 Cavity algorithm     : GePol (No added spheres)
                        Default sphere list used, NSphG=   27.
                        Lebedev-Laikov grids with approx.  5.0 points / Ang**2.
                        Smoothing algorithm: Karplus/York (Gamma=1.0000).
                        Polarization charges: spherical gaussians, with
                                              point-specific exponents (IZeta= 3).
                        Self-potential: point-specific (ISelfS= 7).
                        Self-field    : sphere-specific E.n sum rule (ISelfD= 2).
 Solvent              : Chloroform, Eps=   4.711300 Eps(inf)=   2.090627
 ------------------------------------------------------------------------------
 ------------------------------------------------------------------------------
 Atomic radii for non-electrostatic terms: SMD-CDS.
 ------------------------------------------------------------------------------
 Nuclear repulsion after PCM non-electrostatic terms =      773.0176957459 Hartrees.
 One-electron integrals computed using PRISM.
 NBasis=   265 RedAO= T  NBF=   265
 NBsUse=   265 1.00D-06 NBFU=   265
 Harris functional with IExCor=  908 diagonalized for initial guess.
 ExpMin= 1.61D-01 ExpMax= 5.48D+03 ExpMxC= 8.25D+02 IAcc=1 IRadAn=         1 AccDes= 0.00D+00
 HarFok:  IExCor=  908 AccDes= 0.00D+00 IRadAn=         1 IDoV= 1
 ScaDFX=  1.000000  1.000000  1.000000  1.000000
 FoFCou: FMM=F IPFlag=           0 FMFlag=      100000 FMFlg1=           0
         NFxFlg=           0 DoJE=T BraDBF=F KetDBF=T FulRan=T
         Omega=  0.000000  0.000000  1.000000  0.000000  0.000000 ICntrl=     500 IOpCl=  0
         NMat0=    1 NMatS0=    1 NMatT0=    0 NMatD0=    1 NMtDS0=    0 NMtDT0=    0
         I1Cent=           4 NGrid=           0.
 Petite list used in FoFCou.
 Initial guess orbital symmetries:
       Occupied  (A) (A) (A) (A) (A) (A) (A) (A) (A) (A) (A) (A)
                 (A) (A) (A) (A) (A) (A) (A) (A) (A) (A) (A) (A)
                 (A) (A) (A) (A) (A) (A) (A) (A) (A) (A) (A) (A)
                 (A) (A) (A) (A) (A) (A) (A) (A) (A) (A) (A) (A)
       Virtual   (A) (A) (A) (A) (A) (A) (A) (A) (A) (A) (A) (A)
                 (A) (A) (A) (A) (A) (A) (A) (A) (A) (A) (A) (A)
                 (A) (A) (A) (A) (A) (A) (A) (A) (A) (A) (A) (A)
                 (A) (A) (A) (A) (A) (A) (A) (A) (A) (A) (A) (A)
                 (A) (A) (A) (A) (A) (A) (A) (A) (A) (A) (A) (A)
                 (A) (A) (A) (A) (A) (A) (A) (A) (A) (A) (A) (A)
                 (A) (A) (A) (A) (A) (A) (A) (A) (A) (A) (A) (A)
                 (A) (A) (A) (A) (A) (A) (A) (A) (A) (A) (A) (A)
                 (A) (A) (A) (A) (A) (A) (A) (A) (A) (A) (A) (A)
                 (A) (A) (A) (A) (A) (A) (A) (A) (A) (A) (A) (A)
                 (A) (A) (A) (A) (A) (A) (A) (A) (A) (A) (A) (A)
                 (A) (A) (A) (A) (A) (A) (A) (A) (A) (A) (A) (A)
                 (A) (A) (A) (A) (A) (A) (A) (A) (A) (A) (A) (A)
                 (A) (A) (A) (A) (A) (A) (A) (A) (A) (A) (A) (A)
                 (A) (A) (A) (A) (A) (A) (A) (A) (A) (A) (A) (A)
                 (A) (A) (A) (A) (A) (A) (A) (A) (A) (A) (A) (A)
                 (A) (A) (A) (A) (A) (A) (A) (A) (A) (A) (A) (A)
                 (A) (A) (A) (A) (A) (A) (A) (A) (A) (A) (A) (A)
                 (A)
 The electronic state of the initial guess is 1-A.
 Requested convergence on RMS density matrix=1.00D-08 within 128 cycles.
 Requested convergence on MAX density matrix=1.00D-06.
 Requested convergence on             energy=1.00D-06.
 No special actions if energy rises.
 Error on total polarization charges =  0.02761
 SCF Done:  E(RmPW1PW91) =  -577.945225090     A.U. after   12 cycles
             Convg  =    0.6337D-08             -V/T =  2.0094
 SMD-CDS (non-electrostatic) energy       (kcal/mol) =      -4.12
 (included in total energy above)
 Range of M.O.s used for correlation:     1   265
 NBasis=   265 NAE=    48 NBE=    48 NFC=     0 NFV=     0
 NROrb=    265 NOA=    48 NOB=    48 NVA=   217 NVB=   217
 NEqPCM:  Using equilibrium solvation (IEInf=0, Eps=   4.7113, EpsInf=   2.0906)
          Differentiating once with respect to magnetic field using GIAOs.
          Electric field/nuclear overlap derivatives assumed to be zero.
 FoFCou: FMM=F IPFlag=           0 FMFlag=    10101102 FMFlg1=           0
         NFxFlg=    40000000 DoJE=F BraDBF=F KetDBF=T FulRan=T
         Omega=  0.000000  0.000000  1.000000  0.000000  0.000000 ICntrl=    6100 IOpCl=  0
         NMat0=    1 NMatS0=    1 NMatT0=    0 NMatD0=    1 NMtDS0=    0 NMtDT0=    0
         I1Cent=           7 NGrid=        2022.
 Symmetry not used in FoFCou.
          There are     3 degrees of freedom in the 1st order CPHF.  IDoFFX=0.
      3 vectors produced by pass  0 Test12= 3.47D-13 3.33D-08 XBig12= 3.07D+01 1.13D+00.
 AX will form     3 AO Fock derivatives at one time.
      3 vectors produced by pass  1 Test12= 3.47D-13 3.33D-08 XBig12= 1.17D-01 2.24D-01.
      3 vectors produced by pass  2 Test12= 3.47D-13 3.33D-08 XBig12= 9.04D-04 1.05D-02.
      3 vectors produced by pass  3 Test12= 3.47D-13 3.33D-08 XBig12= 3.38D-06 4.31D-04.
      3 vectors produced by pass  4 Test12= 3.47D-13 3.33D-08 XBig12= 1.39D-08 2.10D-05.
      3 vectors produced by pass  5 Test12= 3.47D-13 3.33D-08 XBig12= 2.31D-11 1.38D-06.
      3 vectors produced by pass  6 Test12= 3.47D-13 3.33D-08 XBig12= 9.28D-14 7.24D-08.
 Inverted reduced A of dimension    21 with in-core refinement.
 Calculating GIAO nuclear magnetic shielding tensors.
 SCF GIAO Magnetic shielding tensor (ppm):
      1  C    Isotropic =   127.9395   Anisotropy =    52.5179
   XX=   131.9332   YX=    19.4046   ZX=     8.5949
   XY=    21.2956   YY=   143.2114   ZY=    14.7775
   XZ=     6.4353   YZ=    11.9754   ZZ=   108.6739
   Eigenvalues:   104.0830   116.7841   162.9515
      2  H    Isotropic =    27.2785   Anisotropy =     4.4822
   XX=    26.3958   YX=     1.9338   ZX=    -1.3929
   XY=     2.0498   YY=    27.3642   ZY=    -2.7750
   XZ=     1.6448   YZ=    -1.4073   ZZ=    28.0755
   Eigenvalues:    24.2448    27.3240    30.2667
      3  C    Isotropic =   150.1881   Anisotropy =    32.4034
   XX=   166.1482   YX=     6.7239   ZX=     4.3540
   XY=    14.1617   YY=   137.8817   ZY=     1.4573
   XZ=    11.2019   YZ=    -1.1355   ZZ=   146.5342
   Eigenvalues:   133.9700   144.8039   171.7903
      4  H    Isotropic =    27.8544   Anisotropy =     7.4344
   XX=    30.9896   YX=    -2.1326   ZX=    -0.9121
   XY=    -3.6506   YY=    25.9716   ZY=     2.2744
   XZ=    -0.1318   YZ=     3.4490   ZZ=    26.6021
   Eigenvalues:    22.9533    27.7993    32.8107
      5  C    Isotropic =    -5.9900   Anisotropy =   168.3849
   XX=   -83.7902   YX=     9.9122   ZX=     2.6012
   XY=     8.3199   YY=   -40.0648   ZY=     2.7517
   XZ=     4.9916   YZ=    10.2411   ZZ=   105.8851
   Eigenvalues:   -85.6461   -38.5905   106.2666
      6  O    Isotropic =  -229.6971   Anisotropy =   927.5549
   XX=  -346.5518   YX=   139.0078   ZX=     5.6465
   XY=   100.4766   YY=  -727.4240   ZY=    42.2182
   XZ=    -1.1880   YZ=    85.8486   ZZ=   384.8845
   Eigenvalues:  -765.1699  -312.5942   388.6729
      7  O    Isotropic =   278.7381   Anisotropy =    71.4707
   XX=   314.1869   YX=    -7.4964   ZX=    34.5165
   XY=   -19.1872   YY=   272.5398   ZY=    25.1980
   XZ=    26.5213   YZ=    32.3307   ZZ=   249.4878
   Eigenvalues:   218.7287   291.1005   326.3853
      8  H    Isotropic =    30.7544   Anisotropy =    18.4124
   XX=    38.2387   YX=    -2.7950   ZX=     9.1233
   XY=    -0.8732   YY=    27.6626   ZY=     0.3600
   XZ=     8.4002   YZ=     0.2091   ZZ=    26.3619
   Eigenvalues:    21.5117    27.7221    43.0293
      9  C    Isotropic =   182.5367   Anisotropy =    16.6309
   XX=   180.7374   YX=    -1.8468   ZX=    -3.7050
   XY=    -1.8303   YY=   178.8619   ZY=    -6.7578
   XZ=    -6.6105   YZ=    -9.0607   ZZ=   188.0108
   Eigenvalues:   172.1252   181.8610   193.6240
     10  H    Isotropic =    30.5831   Anisotropy =     7.8613
   XX=    28.1503   YX=    -2.0522   ZX=     0.0003
   XY=    -2.0313   YY=    29.5800   ZY=     2.8362
   XZ=    -2.0969   YZ=     2.7617   ZZ=    34.0190
   Eigenvalues:    26.5964    29.3290    35.8240
     11  H    Isotropic =    30.3380   Anisotropy =     8.6006
   XX=    33.4480   YX=    -3.5413   ZX=     1.3355
   XY=    -3.8753   YY=    28.3126   ZY=    -2.1894
   XZ=    -0.1996   YZ=    -4.4174   ZZ=    29.2535
   Eigenvalues:    24.6774    30.2648    36.0718
     12  H    Isotropic =    30.0703   Anisotropy =     9.1963
   XX=    30.8999   YX=     3.5555   ZX=    -0.4235
   XY=     3.4252   YY=    31.1955   ZY=    -3.4521
   XZ=    -1.9617   YZ=    -4.1788   ZZ=    28.1153
   Eigenvalues:    25.3137    28.6960    36.2011
     13  C    Isotropic =    65.3600   Anisotropy =   157.8431
   XX=   -10.0604   YX=    15.7727   ZX=    -1.1710
   XY=    12.3526   YY=    35.9828   ZY=    -6.2702
   XZ=    -2.5168   YZ=    -8.2794   ZZ=   170.1577
   Eigenvalues:   -14.0159    39.5073   170.5887
     14  C    Isotropic =    65.9763   Anisotropy =   182.3640
   XX=   -31.1490   YX=    16.6485   ZX=    -0.7032
   XY=    18.7124   YY=    42.0316   ZY=    -8.8315
   XZ=    -0.4182   YZ=    -8.1319   ZZ=   187.0463
   Eigenvalues:   -35.2049    45.5815   187.5523
     15  C    Isotropic =    69.1786   Anisotropy =   185.4452
   XX=    41.3544   YX=    19.1147   ZX=     0.1291
   XY=     5.3562   YY=   -25.6517   ZY=   -13.6383
   XZ=    -2.5085   YZ=   -15.1616   ZZ=   191.8331
   Eigenvalues:   -28.7021    43.4291   192.8087
     16  C    Isotropic =    69.4240   Anisotropy =   175.4331
   XX=    16.5327   YX=   -39.3012   ZX=    -4.7747
   XY=   -22.2775   YY=     6.2785   ZY=   -12.0311
   XZ=    -2.5015   YZ=   -13.5124   ZZ=   185.4609
   Eigenvalues:   -20.5197    42.4124   186.3794
     17  C    Isotropic =    70.0375   Anisotropy =   173.0545
   XX=    46.1940   YX=    24.3433   ZX=     0.1539
   XY=    24.1335   YY=   -20.7720   ZY=   -12.8734
   XZ=     0.6448   YZ=   -11.3067   ZZ=   184.6906
   Eigenvalues:   -29.2563    53.9617   185.4072
     18  C    Isotropic =    69.5201   Anisotropy =   174.1525
   XX=    17.1255   YX=   -41.2329   ZX=    -3.8526
   XY=   -40.0265   YY=     6.7164   ZY=   -11.3967
   XZ=    -4.3917   YZ=   -13.8910   ZZ=   184.7183
   Eigenvalues:   -29.7376    52.6761   185.6217
     19  H    Isotropic =    23.0477   Anisotropy =     7.4052
   XX=    27.7456   YX=     1.0477   ZX=     0.0708
   XY=     1.0416   YY=    23.3032   ZY=     0.0099
   XZ=     0.3812   YZ=     0.1113   ZZ=    18.0942
   Eigenvalues:    18.0887    23.0699    27.9845
     20  H    Isotropic =    23.2184   Anisotropy =     9.3390
   XX=    27.8772   YX=    -3.6693   ZX=    -0.9153
   XY=    -2.4517   YY=    22.7850   ZY=     0.5307
   XZ=    -1.0736   YZ=     0.7631   ZZ=    18.9930
   Eigenvalues:    18.8504    21.3605    29.4444
     21  H    Isotropic =    23.7465   Anisotropy =     5.2751
   XX=    27.1894   YX=     0.4495   ZX=    -0.0481
   XY=     0.5438   YY=    23.9233   ZY=     0.2558
   XZ=    -0.0621   YZ=     0.4193   ZZ=    20.1269
   Eigenvalues:    20.0957    23.8806    27.2632
     22  H    Isotropic =    23.7032   Anisotropy =     4.8743
   XX=    26.0729   YX=    -1.2561   ZX=    -0.0665
   XY=    -1.3337   YY=    25.0242   ZY=     0.2362
   XZ=    -0.2308   YZ=     0.1168   ZZ=    20.0124
   Eigenvalues:    20.0043    24.1525    26.9527
     23  H    Isotropic =    23.6844   Anisotropy =     4.5320
   XX=    24.1799   YX=     0.6241   ZX=     0.0294
   XY=     0.8644   YY=    26.4616   ZY=     0.3630
   XZ=     0.0404   YZ=     0.4078   ZZ=    20.4117
   Eigenvalues:    20.3872    23.9603    26.7058
     24  C    Isotropic =   174.3739   Anisotropy =    31.1435
   XX=   174.2794   YX=    -6.9601   ZX=   -11.7977
   XY=    -1.7413   YY=   179.1547   ZY=    15.8963
   XZ=    -6.0473   YZ=    16.4964   ZZ=   169.6877
   Eigenvalues:   156.2489   171.7366   195.1363
     25  H    Isotropic =    30.5490   Anisotropy =     9.3990
   XX=    33.5800   YX=    -4.1333   ZX=     2.4963
   XY=    -4.2915   YY=    30.1805   ZY=    -0.5836
   XZ=     1.2031   YZ=    -0.6147   ZZ=    27.8865
   Eigenvalues:    26.8834    27.9486    36.8149
     26  H    Isotropic =    29.9923   Anisotropy =     9.2994
   XX=    29.2745   YX=     0.6397   ZX=     0.5615
   XY=     1.8828   YY=    34.3677   ZY=     3.6803
   XZ=     0.0476   YZ=     4.1317   ZZ=    26.3348
   Eigenvalues:    24.7403    29.0448    36.1920
     27  H    Isotropic =    30.4588   Anisotropy =     6.2342
   XX=    31.1929   YX=    -0.5006   ZX=    -2.9785
   XY=    -1.2907   YY=    28.3597   ZY=    -1.4814
   XZ=    -2.9836   YZ=    -2.2415   ZZ=    31.8238
   Eigenvalues:    26.4826    30.2790    34.6149
 End of Minotr Frequency-dependent properties file   721 does not exist.
 End of Minotr Frequency-dependent properties file   722 does not exist.

 **********************************************************************

            Population analysis using the SCF density.

 **********************************************************************

 Orbital symmetries:
       Occupied  (A) (A) (A) (A) (A) (A) (A) (A) (A) (A) (A) (A)
                 (A) (A) (A) (A) (A) (A) (A) (A) (A) (A) (A) (A)
                 (A) (A) (A) (A) (A) (A) (A) (A) (A) (A) (A) (A)
                 (A) (A) (A) (A) (A) (A) (A) (A) (A) (A) (A) (A)
       Virtual   (A) (A) (A) (A) (A) (A) (A) (A) (A) (A) (A) (A)
                 (A) (A) (A) (A) (A) (A) (A) (A) (A) (A) (A) (A)
                 (A) (A) (A) (A) (A) (A) (A) (A) (A) (A) (A) (A)
                 (A) (A) (A) (A) (A) (A) (A) (A) (A) (A) (A) (A)
                 (A) (A) (A) (A) (A) (A) (A) (A) (A) (A) (A) (A)
                 (A) (A) (A) (A) (A) (A) (A) (A) (A) (A) (A) (A)
                 (A) (A) (A) (A) (A) (A) (A) (A) (A) (A) (A) (A)
                 (A) (A) (A) (A) (A) (A) (A) (A) (A) (A) (A) (A)
                 (A) (A) (A) (A) (A) (A) (A) (A) (A) (A) (A) (A)
                 (A) (A) (A) (A) (A) (A) (A) (A) (A) (A) (A) (A)
                 (A) (A) (A) (A) (A) (A) (A) (A) (A) (A) (A) (A)
                 (A) (A) (A) (A) (A) (A) (A) (A) (A) (A) (A) (A)
                 (A) (A) (A) (A) (A) (A) (A) (A) (A) (A) (A) (A)
                 (A) (A) (A) (A) (A) (A) (A) (A) (A) (A) (A) (A)
                 (A) (A) (A) (A) (A) (A) (A) (A) (A) (A) (A) (A)
                 (A) (A) (A) (A) (A) (A) (A) (A) (A) (A) (A) (A)
                 (A) (A) (A) (A) (A) (A) (A) (A) (A) (A) (A) (A)
                 (A) (A) (A) (A) (A) (A) (A) (A) (A) (A) (A) (A)
                 (A)
 The electronic state is 1-A.
 Alpha  occ. eigenvalues --  -19.22931 -19.22349 -10.33819 -10.28926 -10.26395
 Alpha  occ. eigenvalues --  -10.26157 -10.25865 -10.25758 -10.25590 -10.25486
 Alpha  occ. eigenvalues --  -10.25441 -10.23491 -10.22154  -1.06353  -1.03260
 Alpha  occ. eigenvalues --   -0.88608  -0.82226  -0.78293  -0.77143  -0.73748
 Alpha  occ. eigenvalues --   -0.67992  -0.65175  -0.62681  -0.59766  -0.55269
 Alpha  occ. eigenvalues --   -0.53042  -0.50817  -0.48269  -0.47169  -0.46313
 Alpha  occ. eigenvalues --   -0.45053  -0.44097  -0.43517  -0.43035  -0.41605
 Alpha  occ. eigenvalues --   -0.39320  -0.38874  -0.38354  -0.36899  -0.36691
 Alpha  occ. eigenvalues --   -0.35576  -0.35387  -0.34720  -0.32009  -0.27135
 Alpha  occ. eigenvalues --   -0.26851  -0.26669  -0.25997
 Alpha virt. eigenvalues --   -0.05155  -0.00314   0.04720   0.09830   0.11201
 Alpha virt. eigenvalues --    0.13174   0.14966   0.16948   0.17083   0.17357
 Alpha virt. eigenvalues --    0.17956   0.18193   0.18617   0.19154   0.20006
 Alpha virt. eigenvalues --    0.21046   0.21682   0.21850   0.23078   0.25008
 Alpha virt. eigenvalues --    0.26220   0.27847   0.29255   0.31157   0.31461
 Alpha virt. eigenvalues --    0.33659   0.34395   0.39775   0.40035   0.50509
 Alpha virt. eigenvalues --    0.51506   0.52578   0.53062   0.54503   0.55441
 Alpha virt. eigenvalues --    0.56427   0.58204   0.59085   0.60281   0.60724
 Alpha virt. eigenvalues --    0.61365   0.61808   0.62344   0.63099   0.64620
 Alpha virt. eigenvalues --    0.65118   0.65994   0.67834   0.69447   0.69900
 Alpha virt. eigenvalues --    0.70850   0.75253   0.75697   0.77947   0.78693
 Alpha virt. eigenvalues --    0.81377   0.82845   0.83476   0.83736   0.84106
 Alpha virt. eigenvalues --    0.84887   0.85065   0.86819   0.88660   0.90058
 Alpha virt. eigenvalues --    0.91363   0.91682   0.91812   0.92983   0.94196
 Alpha virt. eigenvalues --    0.95216   0.96556   0.97438   0.99341   1.00644
 Alpha virt. eigenvalues --    1.02786   1.03465   1.05010   1.06343   1.07180
 Alpha virt. eigenvalues --    1.10572   1.12506   1.13533   1.15565   1.19613
 Alpha virt. eigenvalues --    1.21461   1.23760   1.25889   1.28470   1.30718
 Alpha virt. eigenvalues --    1.31709   1.34320   1.38832   1.40750   1.42185
 Alpha virt. eigenvalues --    1.42369   1.44123   1.45042   1.45494   1.48644
 Alpha virt. eigenvalues --    1.50168   1.53515   1.59473   1.60703   1.62645
 Alpha virt. eigenvalues --    1.65079   1.67589   1.73105   1.75174   1.76550
 Alpha virt. eigenvalues --    1.78093   1.79118   1.81557   1.82514   1.85225
 Alpha virt. eigenvalues --    1.87862   1.89172   1.89810   1.91352   1.93339
 Alpha virt. eigenvalues --    1.94630   1.96350   1.97230   1.98121   1.98705
 Alpha virt. eigenvalues --    1.99751   2.01479   2.02143   2.06665   2.06988
 Alpha virt. eigenvalues --    2.07436   2.09326   2.09746   2.10418   2.11117
 Alpha virt. eigenvalues --    2.14718   2.15896   2.16759   2.17929   2.22650
 Alpha virt. eigenvalues --    2.24257   2.25799   2.29216   2.31026   2.32386
 Alpha virt. eigenvalues --    2.33364   2.36316   2.38336   2.39132   2.40063
 Alpha virt. eigenvalues --    2.41403   2.42399   2.42914   2.43670   2.46599
 Alpha virt. eigenvalues --    2.48142   2.50368   2.51507   2.51955   2.53923
 Alpha virt. eigenvalues --    2.57554   2.58892   2.59985   2.60332   2.64362
 Alpha virt. eigenvalues --    2.64635   2.67644   2.68095   2.70711   2.72360
 Alpha virt. eigenvalues --    2.73821   2.75593   2.75918   2.76076   2.80454
 Alpha virt. eigenvalues --    2.81225   2.83408   2.86603   2.87670   2.89588
 Alpha virt. eigenvalues --    2.92216   2.93608   2.96565   2.97211   3.03700
 Alpha virt. eigenvalues --    3.06801   3.07752   3.14621   3.21259   3.23143
 Alpha virt. eigenvalues --    3.26035   3.26370   3.27653   3.37074   3.39464
 Alpha virt. eigenvalues --    3.42812   3.45719   3.49087   3.49896   3.50948
 Alpha virt. eigenvalues --    3.52604   3.53405   3.55722   3.91369   3.99082
 Alpha virt. eigenvalues --    4.09329   4.16098   4.18616   4.21350   4.34196
 Alpha virt. eigenvalues --    4.44798   4.46497   4.54555   4.62322   4.69435
 Alpha virt. eigenvalues --    4.75806   4.87441
          Condensed to atoms (all electrons):
              1          2          3          4          5          6
     1  C    4.775534   0.407068   0.318956  -0.043985  -0.021923   0.003569
     2  H    0.407068   0.619022  -0.064267  -0.003238   0.004745   0.003596
     3  C    0.318956  -0.064267   5.340122   0.377656   0.283323  -0.089813
     4  H   -0.043985  -0.003238   0.377656   0.560214  -0.028620   0.002591
     5  C   -0.021923   0.004745   0.283323  -0.028620   4.600423   0.531522
     6  O    0.003569   0.003596  -0.089813   0.002591   0.531522   8.120305
     7  O    0.212481  -0.039864  -0.048935   0.005999   0.001506   0.000098
     8  H   -0.026762  -0.004763   0.006844  -0.000152  -0.000205   0.000012
     9  C   -0.036094   0.005292   0.328802  -0.038356  -0.035817  -0.001467
    10  H   -0.006731  -0.000007  -0.034753   0.005034  -0.004825   0.001502
    11  H    0.004914  -0.000121  -0.030943  -0.005597  -0.004495  -0.000023
    12  H   -0.005149   0.000250  -0.033372  -0.003581   0.004050  -0.000063
    13  C    0.005447   0.000588  -0.106490  -0.003252   0.325700  -0.087204
    14  C    0.000000   0.000000  -0.000022  -0.000002   0.000188  -0.000012
    15  C   -0.000158  -0.000025   0.009264  -0.000169  -0.036658  -0.000317
    16  C    0.000084   0.000013  -0.003297   0.000902  -0.040741   0.003867
    17  C   -0.000005   0.000000   0.000000   0.000241   0.004460  -0.000078
    18  C    0.000001   0.000000  -0.000062  -0.000008   0.005497   0.001013
    19  H   -0.000012  -0.000004   0.000641  -0.000017  -0.008629   0.015422
    20  H   -0.000016   0.000003   0.004237   0.001212  -0.008237   0.000038
    21  H    0.000000   0.000000   0.000013  -0.000001  -0.000124   0.000000
    22  H    0.000000   0.000000   0.000001   0.000000  -0.000131   0.000003
    23  H    0.000000   0.000000   0.000000   0.000000   0.000007   0.000000
    24  C    0.345357  -0.056075  -0.037951   0.006080  -0.005142  -0.005409
    25  H   -0.030001  -0.006481   0.005061  -0.000125   0.000009   0.000150
    26  H   -0.022582   0.001801  -0.005023  -0.000107   0.001075   0.010399
    27  H   -0.028725   0.005472  -0.010406  -0.000067   0.000496   0.000114
              7          8          9         10         11         12
     1  C    0.212481  -0.026762  -0.036094  -0.006731   0.004914  -0.005149
     2  H   -0.039864  -0.004763   0.005292  -0.000007  -0.000121   0.000250
     3  C   -0.048935   0.006844   0.328802  -0.034753  -0.030943  -0.033372
     4  H    0.005999  -0.000152  -0.038356   0.005034  -0.005597  -0.003581
     5  C    0.001506  -0.000205  -0.035817  -0.004825  -0.004495   0.004050
     6  O    0.000098   0.000012  -0.001467   0.001502  -0.000023  -0.000063
     7  O    8.231139   0.291884  -0.001740   0.000082  -0.000046   0.006299
     8  H    0.291884   0.389896  -0.000042  -0.000004   0.000008  -0.000295
     9  C   -0.001740  -0.000042   5.039140   0.389210   0.383967   0.388653
    10  H    0.000082  -0.000004   0.389210   0.551174  -0.029657  -0.026847
    11  H   -0.000046   0.000008   0.383967  -0.029657   0.556060  -0.026555
    12  H    0.006299  -0.000295   0.388653  -0.026847  -0.026555   0.537445
    13  C   -0.000042   0.000005  -0.000094   0.000111   0.003151  -0.000115
    14  C    0.000000   0.000000   0.000000   0.000000   0.000002   0.000000
    15  C    0.000000   0.000000  -0.000317  -0.000021  -0.000098   0.000009
    16  C   -0.000002   0.000000  -0.002910  -0.000004   0.002274   0.000037
    17  C    0.000000   0.000000  -0.000022   0.000006  -0.000059  -0.000001
    18  C    0.000000   0.000000   0.000003  -0.000001  -0.000010   0.000000
    19  H    0.000000   0.000000  -0.000022  -0.000007  -0.000001   0.000000
    20  H   -0.000018   0.000000  -0.000812  -0.000047   0.000900   0.000123
    21  H    0.000000   0.000000  -0.000002   0.000000  -0.000003   0.000000
    22  H    0.000000   0.000000   0.000000   0.000000   0.000000   0.000000
    23  H    0.000000   0.000000   0.000000   0.000000   0.000000   0.000000
    24  C   -0.056038  -0.003060  -0.011948   0.002843   0.000170  -0.001807
    25  H   -0.001707   0.004247   0.000105  -0.000013  -0.000003  -0.000058
    26  H    0.003995  -0.000036  -0.000055   0.001080  -0.000018   0.000078
    27  H    0.000755  -0.000512   0.003486  -0.000278  -0.000012   0.001513
             13         14         15         16         17         18
     1  C    0.005447   0.000000  -0.000158   0.000084  -0.000005   0.000001
     2  H    0.000588   0.000000  -0.000025   0.000013   0.000000   0.000000
     3  C   -0.106490  -0.000022   0.009264  -0.003297   0.000000  -0.000062
     4  H   -0.003252  -0.000002  -0.000169   0.000902   0.000241  -0.000008
     5  C    0.325700   0.000188  -0.036658  -0.040741   0.004460   0.005497
     6  O   -0.087204  -0.000012  -0.000317   0.003867  -0.000078   0.001013
     7  O   -0.000042   0.000000   0.000000  -0.000002   0.000000   0.000000
     8  H    0.000005   0.000000   0.000000   0.000000   0.000000   0.000000
     9  C   -0.000094   0.000000  -0.000317  -0.002910  -0.000022   0.000003
    10  H    0.000111   0.000000  -0.000021  -0.000004   0.000006  -0.000001
    11  H    0.003151   0.000002  -0.000098   0.002274  -0.000059  -0.000010
    12  H   -0.000115   0.000000   0.000009   0.000037  -0.000001   0.000000
    13  C    5.027050  -0.031092   0.495430   0.518579  -0.028543  -0.036171
    14  C   -0.031092   4.862090  -0.046237  -0.048938   0.544322   0.534585
    15  C    0.495430  -0.046237   4.961060  -0.070403  -0.038086   0.508865
    16  C    0.518579  -0.048938  -0.070403   4.957150   0.519981  -0.036935
    17  C   -0.028543   0.544322  -0.038086   0.519981   4.889385  -0.041453
    18  C   -0.036171   0.534585   0.508865  -0.036935  -0.041453   4.906028
    19  H   -0.043694   0.004164   0.378899   0.004697   0.000128  -0.035751
    20  H   -0.036255   0.004060   0.004396   0.378970  -0.035672   0.000230
    21  H    0.002886  -0.036842   0.000665  -0.032717   0.380797   0.003885
    22  H    0.003071  -0.037462  -0.033884   0.000621   0.003916   0.382173
    23  H    0.000492   0.381840   0.003902   0.004172  -0.036545  -0.036797
    24  C   -0.000235   0.000000   0.000007  -0.000006   0.000000   0.000000
    25  H    0.000003   0.000000   0.000000   0.000000   0.000000   0.000000
    26  H    0.000176   0.000000  -0.000006  -0.000003   0.000000   0.000000
    27  H    0.000007   0.000000   0.000000   0.000000   0.000000   0.000000
             19         20         21         22         23         24
     1  C   -0.000012  -0.000016   0.000000   0.000000   0.000000   0.345357
     2  H   -0.000004   0.000003   0.000000   0.000000   0.000000  -0.056075
     3  C    0.000641   0.004237   0.000013   0.000001   0.000000  -0.037951
     4  H   -0.000017   0.001212  -0.000001   0.000000   0.000000   0.006080
     5  C   -0.008629  -0.008237  -0.000124  -0.000131   0.000007  -0.005142
     6  O    0.015422   0.000038   0.000000   0.000003   0.000000  -0.005409
     7  O    0.000000  -0.000018   0.000000   0.000000   0.000000  -0.056038
     8  H    0.000000   0.000000   0.000000   0.000000   0.000000  -0.003060
     9  C   -0.000022  -0.000812  -0.000002   0.000000   0.000000  -0.011948
    10  H   -0.000007  -0.000047   0.000000   0.000000   0.000000   0.002843
    11  H   -0.000001   0.000900  -0.000003   0.000000   0.000000   0.000170
    12  H    0.000000   0.000123   0.000000   0.000000   0.000000  -0.001807
    13  C   -0.043694  -0.036255   0.002886   0.003071   0.000492  -0.000235
    14  C    0.004164   0.004060  -0.036842  -0.037462   0.381840   0.000000
    15  C    0.378899   0.004396   0.000665  -0.033884   0.003902   0.000007
    16  C    0.004697   0.378970  -0.032717   0.000621   0.004172  -0.000006
    17  C    0.000128  -0.035672   0.380797   0.003916  -0.036545   0.000000
    18  C   -0.035751   0.000230   0.003885   0.382173  -0.036797   0.000000
    19  H    0.524724  -0.000110   0.000013  -0.004239  -0.000138   0.000001
    20  H   -0.000110   0.524993  -0.004372   0.000013  -0.000145  -0.000004
    21  H    0.000013  -0.004372   0.530562  -0.000147  -0.004463   0.000000
    22  H   -0.004239   0.000013  -0.000147   0.530470  -0.004427   0.000000
    23  H   -0.000138  -0.000145  -0.004463  -0.004427   0.531381   0.000000
    24  C    0.000001  -0.000004   0.000000   0.000000   0.000000   5.133206
    25  H    0.000000   0.000000   0.000000   0.000000   0.000000   0.381569
    26  H   -0.000004   0.000000   0.000000   0.000000   0.000000   0.353952
    27  H    0.000000   0.000000   0.000000   0.000000   0.000000   0.379844
             25         26         27
     1  C   -0.030001  -0.022582  -0.028725
     2  H   -0.006481   0.001801   0.005472
     3  C    0.005061  -0.005023  -0.010406
     4  H   -0.000125  -0.000107  -0.000067
     5  C    0.000009   0.001075   0.000496
     6  O    0.000150   0.010399   0.000114
     7  O   -0.001707   0.003995   0.000755
     8  H    0.004247  -0.000036  -0.000512
     9  C    0.000105  -0.000055   0.003486
    10  H   -0.000013   0.001080  -0.000278
    11  H   -0.000003  -0.000018  -0.000012
    12  H   -0.000058   0.000078   0.001513
    13  C    0.000003   0.000176   0.000007
    14  C    0.000000   0.000000   0.000000
    15  C    0.000000  -0.000006   0.000000
    16  C    0.000000  -0.000003   0.000000
    17  C    0.000000   0.000000   0.000000
    18  C    0.000000   0.000000   0.000000
    19  H    0.000000  -0.000004   0.000000
    20  H    0.000000   0.000000   0.000000
    21  H    0.000000   0.000000   0.000000
    22  H    0.000000   0.000000   0.000000
    23  H    0.000000   0.000000   0.000000
    24  C    0.381569   0.353952   0.379844
    25  H    0.570852  -0.023746  -0.033379
    26  H   -0.023746   0.555630  -0.024006
    27  H   -0.033379  -0.024006   0.564847
 Mulliken atomic charges:
              1
     1  C    0.148729
     2  H    0.126996
     3  C   -0.209586
     4  H    0.167346
     5  C    0.432547
     6  O   -0.509816
     7  O   -0.605847
     8  H    0.342934
     9  C   -0.408960
    10  H    0.152152
    11  H    0.146194
    12  H    0.159384
    13  C   -0.009511
    14  C   -0.130645
    15  C   -0.136118
    16  C   -0.155391
    17  C   -0.162772
    18  C   -0.155091
    19  H    0.163937
    20  H    0.166512
    21  H    0.159849
    22  H    0.160022
    23  H    0.160722
    24  C   -0.425355
    25  H    0.133516
    26  H    0.147399
    27  H    0.140852
 Sum of Mulliken atomic charges =   0.00000
 Mulliken charges with hydrogens summed into heavy atoms:
              1
     1  C    0.275725
     3  C   -0.042240
     5  C    0.432547
     6  O   -0.509816
     7  O   -0.262913
     9  C    0.048770
    13  C   -0.009511
    14  C    0.030077
    15  C    0.027819
    16  C    0.011121
    17  C   -0.002923
    18  C    0.004931
    24  C   -0.003588
 Sum of Mulliken charges with hydrogens summed into heavy atoms =   0.00000
 Electronic spatial extent (au):  <R**2>=           3026.4922
 Charge=              0.0000 electrons
 Dipole moment (field-independent basis, Debye):
    X=              1.1516    Y=             -1.6425    Z=              0.0199  Tot=              2.0061
 Quadrupole moment (field-independent basis, Debye-Ang):
   XX=            -59.1055   YY=            -78.5814   ZZ=            -77.5809
   XY=             -3.1077   XZ=              2.2127   YZ=             -0.4953
 Traceless Quadrupole moment (field-independent basis, Debye-Ang):
   XX=             12.6504   YY=             -6.8255   ZZ=             -5.8249
   XY=             -3.1077   XZ=              2.2127   YZ=             -0.4953
 Octapole moment (field-independent basis, Debye-Ang**2):
  XXX=            -11.9501  YYY=             -9.8842  ZZZ=             -4.9446  XYY=             20.1034
  XXY=             12.2405  XXZ=            -19.0784  XZZ=            -23.8831  YZZ=              1.9494
  YYZ=              1.5701  XYZ=              5.1628
 Hexadecapole moment (field-independent basis, Debye-Ang**3):
 XXXX=          -2546.1877 YYYY=           -588.7261 ZZZZ=           -255.1878 XXXY=            -21.6238
 XXXZ=            112.9283 YYYX=              4.0523 YYYZ=              5.4052 ZZZX=             27.4107
 ZZZY=              1.9347 XXYY=           -597.1267 XXZZ=           -559.3163 YYZZ=           -148.0430
 XXYZ=             -1.9720 YYXZ=             -4.0643 ZZXY=              4.2253
 N-N= 7.730176957459D+02 E-N=-2.890742394117D+03  KE= 5.725675351372D+02
 1\1\GINC-COMPUTE-8-4\SP\RmPW1PW91\6-31G(d,p)\C11H14O2\FBRUNO.IQUIR\21-
 Dec-2021\0\\# mPW1PW91/6-31g** scrf=(pcm,solvent=chloroform,smd,dovacu
 um) nmr\\comment\\0,1\C,0,0.381210192,-0.97759318,2.323357605\H,0,1.46
 2887558,-1.101590557,2.190899081\C,0,-0.18326751,-0.119473924,1.169927
 959\H,0,0.130122279,0.909170613,1.383521094\C,0,0.432466657,-0.5363497
 36,-0.164787651\O,0,0.907862999,-1.660374376,-0.330571953\O,0,0.201540
 082,-0.245028384,3.543591878\H,0,0.601209271,-0.772714397,4.257267856\
 C,0,-1.709594525,-0.152121999,1.087582727\H,0,-2.073714016,-1.13299917
 5,0.763245553\H,0,-2.08485061,0.577698621,0.363276849\H,0,-2.161778717
 ,0.083896308,2.056267622\C,0,0.454067909,0.423956331,-1.316858769\C,0,
 0.548672125,2.123359754,-3.550650157\C,0,0.901557627,-0.050096658,-2.5
 59933089\C,0,0.058654952,1.762863276,-1.206635468\C,0,0.105661978,2.60
 6909271,-2.321165021\C,0,0.947557433,0.794871903,-3.670940786\H,0,1.21
 8156118,-1.085959818,-2.67135471\H,0,-0.290230401,2.184880235,-0.26972
 5252\H,0,-0.203430917,3.645606377,-2.228251166\H,0,1.295733392,0.41368
 9593,-4.627770156\H,0,0.584516413,2.782449958,-4.414662274\C,0,-0.2603
 48213,-2.351537161,2.498568168\H,0,0.257597529,-2.906989085,3.28876701
 2\H,0,-0.219302002,-2.94771839,1.583634752\H,0,-1.302957601,-2.2688053
 99,2.823398295\\Version=EM64L-G09RevC.01\State=1-A\HF=-577.9452251\RMS
 D=6.337e-09\Dipole=-0.2086105,0.7409075,-0.1744725\Quadrupole=-4.55131
 51,-1.228266,5.7795811,-0.194092,0.8215914,-6.7924301\PG=C01 [X(C11H14
 O2)]\\@


 THE MOST INCOMPREHENSIBLE THING ABOUT THE WORLD
 IS THAT IT IS COMPREHENSIBLE. -- A. EINSTEIN
 Job cpu time:  0 days  0 hours 19 minutes  3.4 seconds.
 File lengths (MBytes):  RWF=     80 Int=      0 D2E=      0 Chk=      5 Scr=      1
 Normal termination of Gaussian 09 at Tue Dec 21 09:25:52 2021.
