 Entering Gaussian System, Link 0=g09
 Input=/home/fbruno.iquir/2_val_run/2b_011_MPW_A_SMD.gjc
 Output=/home/fbruno.iquir/2_val_run/2b_011_MPW_A_SMD.log
 Initial command:
 /share/apps/Gaussian09/EM64T.SSE4.2-enabled/g09/l1.exe /tmp/Gau-52278.inp -scrdir=/tmp/
 Entering Link 1 = /share/apps/Gaussian09/EM64T.SSE4.2-enabled/g09/l1.exe PID=     52279.
  
 Copyright (c) 1988,1990,1992,1993,1995,1998,2003,2009,2011,
            Gaussian, Inc.  All Rights Reserved.
  
 This is part of the Gaussian(R) 09 program.  It is based on
 the Gaussian(R) 03 system (copyright 2003, Gaussian, Inc.),
 the Gaussian(R) 98 system (copyright 1998, Gaussian, Inc.),
 the Gaussian(R) 94 system (copyright 1995, Gaussian, Inc.),
 the Gaussian 92(TM) system (copyright 1992, Gaussian, Inc.),
 the Gaussian 90(TM) system (copyright 1990, Gaussian, Inc.),
 the Gaussian 88(TM) system (copyright 1988, Gaussian, Inc.),
 the Gaussian 86(TM) system (copyright 1986, Carnegie Mellon
 University), and the Gaussian 82(TM) system (copyright 1983,
 Carnegie Mellon University). Gaussian is a federally registered
 trademark of Gaussian, Inc.
  
 This software contains proprietary and confidential information,
 including trade secrets, belonging to Gaussian, Inc.
  
 This software is provided under written license and may be
 used, copied, transmitted, or stored only in accord with that
 written license.
  
 The following legend is applicable only to US Government
 contracts under FAR:
  
                    RESTRICTED RIGHTS LEGEND
  
 Use, reproduction and disclosure by the US Government is
 subject to restrictions as set forth in subparagraphs (a)
 and (c) of the Commercial Computer Software - Restricted
 Rights clause in FAR 52.227-19.
  
 Gaussian, Inc.
 340 Quinnipiac St., Bldg. 40, Wallingford CT 06492
  
  
 ---------------------------------------------------------------
 Warning -- This program may not be used in any manner that
 competes with the business of Gaussian, Inc. or will provide
 assistance to any competitor of Gaussian, Inc.  The licensee
 of this program is prohibited from giving any competitor of
 Gaussian, Inc. access to this program.  By using this program,
 the user acknowledges that Gaussian, Inc. is engaged in the
 business of creating and licensing software in the field of
 computational chemistry and represents and warrants to the
 licensee that it is not a competitor of Gaussian, Inc. and that
 it will not use this program in any manner prohibited above.
 ---------------------------------------------------------------
  

 Cite this work as:
 Gaussian 09, Revision C.01,
 M. J. Frisch, G. W. Trucks, H. B. Schlegel, G. E. Scuseria, 
 M. A. Robb, J. R. Cheeseman, G. Scalmani, V. Barone, B. Mennucci, 
 G. A. Petersson, H. Nakatsuji, M. Caricato, X. Li, H. P. Hratchian, 
 A. F. Izmaylov, J. Bloino, G. Zheng, J. L. Sonnenberg, M. Hada, 
 M. Ehara, K. Toyota, R. Fukuda, J. Hasegawa, M. Ishida, T. Nakajima, 
 Y. Honda, O. Kitao, H. Nakai, T. Vreven, J. A. Montgomery, Jr., 
 J. E. Peralta, F. Ogliaro, M. Bearpark, J. J. Heyd, E. Brothers, 
 K. N. Kudin, V. N. Staroverov, T. Keith, R. Kobayashi, J. Normand, 
 K. Raghavachari, A. Rendell, J. C. Burant, S. S. Iyengar, J. Tomasi, 
 M. Cossi, N. Rega, J. M. Millam, M. Klene, J. E. Knox, J. B. Cross, 
 V. Bakken, C. Adamo, J. Jaramillo, R. Gomperts, R. E. Stratmann, 
 O. Yazyev, A. J. Austin, R. Cammi, C. Pomelli, J. W. Ochterski, 
 R. L. Martin, K. Morokuma, V. G. Zakrzewski, G. A. Voth, 
 P. Salvador, J. J. Dannenberg, S. Dapprich, A. D. Daniels, 
 O. Farkas, J. B. Foresman, J. V. Ortiz, J. Cioslowski, 
 and D. J. Fox, Gaussian, Inc., Wallingford CT, 2010.
 
 ******************************************
 Gaussian 09:  EM64L-G09RevC.01 23-Sep-2011
                21-Dec-2021 
 ******************************************
 %nprocshared=4
 Will use up to    4 processors via shared memory.
 -----------------------------------------------------------------
 # mPW1PW91/6-31g** scrf=(pcm,solvent=chloroform,smd,dovacuum) nmr
 -----------------------------------------------------------------
 1/38=1/1;
 2/12=2,17=6,18=5,40=1/2;
 3/5=1,6=6,7=101,11=2,16=1,25=1,30=1,70=32101,72=7,74=-7/1,2,8,3;
 4//1;
 5/5=2,38=5,53=7/2;
 8/6=1,10=90,11=11/1;
 10/13=100,45=16/2;
 6/7=2,8=2,9=2,10=2,28=1/1;
 99/9=1/99;
 -------
 comment
 -------
 Charge =  0 Multiplicity = 1
 Symbolic Z-Matrix:
 6                     0.42186  -0.97989   1.86164 
 1                     0.54664  -2.00577   1.49608 
 6                    -0.6542   -0.24211   1.04251 
 1                    -0.48488   0.839     1.0752 
 6                    -0.58017  -0.73369  -0.40459 
 8                    -1.04772  -1.8281   -0.72677 
 8                     1.67901  -0.32169   1.65367 
 1                     1.80588   0.33498   2.36011 
 6                    -2.08442  -0.48413   1.53708 
 1                    -2.30489  -1.55354   1.62788 
 1                    -2.81399  -0.05574   0.84031 
 1                    -2.24921  -0.01541   2.51249 
 6                     0.03074   0.1242   -1.46574 
 6                     1.10091   1.66939  -3.54823 
 6                     0.90988   1.17536  -1.18557 
 6                    -0.29627  -0.15278  -2.80176 
 6                     0.23418   0.61843  -3.83795 
 6                     1.44105   1.94551  -2.22502 
 1                     1.22026   1.40318  -0.17154 
 1                    -0.96938  -0.97409  -3.04194 
 1                    -0.02705   0.39419  -4.86908 
 1                     2.12984   2.75662  -2.0011 
 1                     1.51865   2.26761  -4.35422 
 6                     0.15844  -1.03673   3.36447 
 1                     1.02237  -1.46373   3.88598 
 1                    -0.71654  -1.64891   3.60075 
 1                     0.009    -0.03216   3.77533 
 
                          Input orientation:                          
 ---------------------------------------------------------------------
 Center     Atomic      Atomic             Coordinates (Angstroms)
 Number     Number       Type             X           Y           Z
 ---------------------------------------------------------------------
      1          6           0        0.421858   -0.979893    1.861636
      2          1           0        0.546636   -2.005768    1.496081
      3          6           0       -0.654201   -0.242115    1.042515
      4          1           0       -0.484881    0.839001    1.075198
      5          6           0       -0.580167   -0.733687   -0.404590
      6          8           0       -1.047717   -1.828099   -0.726771
      7          8           0        1.679011   -0.321694    1.653672
      8          1           0        1.805877    0.334975    2.360112
      9          6           0       -2.084417   -0.484134    1.537079
     10          1           0       -2.304885   -1.553544    1.627883
     11          1           0       -2.813993   -0.055739    0.840310
     12          1           0       -2.249214   -0.015411    2.512487
     13          6           0        0.030740    0.124204   -1.465739
     14          6           0        1.100913    1.669388   -3.548235
     15          6           0        0.909881    1.175361   -1.185566
     16          6           0       -0.296271   -0.152776   -2.801759
     17          6           0        0.234185    0.618433   -3.837945
     18          6           0        1.441047    1.945515   -2.225022
     19          1           0        1.220261    1.403181   -0.171541
     20          1           0       -0.969379   -0.974091   -3.041941
     21          1           0       -0.027054    0.394191   -4.869079
     22          1           0        2.129840    2.756622   -2.001096
     23          1           0        1.518655    2.267610   -4.354220
     24          6           0        0.158444   -1.036730    3.364470
     25          1           0        1.022368   -1.463733    3.885983
     26          1           0       -0.716539   -1.648913    3.600749
     27          1           0        0.009003   -0.032156    3.775330
 ---------------------------------------------------------------------
                    Distance matrix (angstroms):
                    1          2          3          4          5
     1  C    0.000000
     2  H    1.096184   0.000000
     3  C    1.540513   2.181331   0.000000
     4  H    2.179228   3.055140   1.094783   0.000000
     5  C    2.490070   2.549593   1.530110   2.161527   0.000000
     6  O    3.094989   2.741277   2.408438   3.267614   1.232940
     7  O    1.434193   2.035489   2.413240   2.522751   3.083840
     8  H    1.973034   2.794873   2.849750   2.674438   3.805104
     9  C    2.575370   3.039653   1.532542   2.126626   2.468830
    10  H    2.796220   2.890164   2.187981   3.056493   2.788864
    11  H    3.516802   3.940365   2.177229   2.506092   2.645632
    12  H    2.913496   3.579299   2.180890   2.430781   3.436710
    13  C    3.527524   3.684468   2.625770   2.689453   1.495065
    14  C    6.061889   6.265709   5.273447   4.957863   4.299221
    15  C    3.764137   4.176453   3.069190   2.677601   2.544530
    16  C    4.790311   4.755576   3.861934   4.006243   2.482836
    17  C    5.922423   5.952805   5.034745   4.970380   3.778800
    18  C    5.128112   5.500838   4.455624   3.978068   3.818037
    19  H    3.232692   3.854305   2.773903   2.186359   2.803936
    20  H    5.097121   4.894518   4.161479   4.524696   2.676733
    21  H    6.884196   6.826725   5.978723   5.978451   4.637855
    22  H    5.639100   6.116955   5.099693   4.469633   4.698428
    23  H    7.098317   7.309761   6.335990   5.961011   5.386318
    24  C    1.526803   2.140235   2.585205   3.028697   3.852687
    25  H    2.166263   2.496348   3.519737   3.933815   4.637899
    26  H    2.183586   2.480440   2.920194   3.552716   4.110836
    27  H    2.175058   3.062542   2.819965   2.879852   4.279135
                    6          7          8          9         10
     6  O    0.000000
     7  O    3.920563   0.000000
     8  H    4.727656   0.972813   0.000000
     9  C    2.829489   3.768737   4.059890   0.000000
    10  H    2.683327   4.170078   4.582688   1.095668   0.000000
    11  H    2.952412   4.573771   4.879104   1.096034   1.767168
    12  H    3.901568   4.032658   4.073052   1.094660   1.775241
    13  C    2.349601   3.556170   4.222874   3.723020   4.223798
    14  C    4.980932   5.599860   6.098048   6.375296   6.984192
    15  C    3.614340   3.300607   3.752450   4.374076   5.069234
    16  C    2.770731   4.876591   5.594804   4.704549   5.061463
    17  C    4.160312   5.755799   6.400506   5.956715   6.406219
    18  C    4.762233   4.499015   4.873437   5.699606   6.412511
    19  H    3.986624   2.552850   2.809497   4.171599   4.940324
    20  H    2.468902   5.430320   6.212718   4.738227   4.891482
    21  H    4.810305   6.780076   7.458172   6.785503   7.154907
    22  H    5.721926   4.799646   4.998946   6.386012   7.170342
    23  H    6.043135   6.544080   6.992841   7.433817   8.062644
    24  C    4.338127   2.397964   2.367350   2.945360   3.057912
    25  H    5.069075   2.592036   2.485462   4.016102   4.022151
    26  H    4.343871   3.360250   3.440578   2.736153   2.534589
    27  H    4.960946   2.715546   2.316545   3.097815   3.504316
                   11         12         13         14         15
    11  H    0.000000
    12  H    1.765440   0.000000
    13  C    3.666435   4.587370   0.000000
    14  C    6.128774   7.127008   2.805290   0.000000
    15  C    4.414410   5.007336   1.398684   2.421314   0.000000
    16  C    4.428657   5.663397   1.403069   2.414462   2.414711
    17  C    5.624231   6.848140   2.431670   1.392715   2.793180
    18  C    5.613078   6.317219   2.425418   1.393854   1.398480
    19  H    4.407664   4.610170   2.173866   3.389273   1.084658
    20  H    4.395207   5.780028   2.165849   3.395647   3.405567
    21  H    6.369190   7.719669   3.414521   2.154778   3.880250
    22  H    6.358022   6.872606   3.409172   2.152767   2.157261
    23  H    7.152128   8.158474   3.892481   1.087194   3.406463
    24  C    4.021083   2.750598   4.969406   7.483102   5.114766
    25  H    5.096689   3.832412   5.669726   8.067850   5.718224
    26  H    3.815434   2.490328   5.419563   8.088400   5.790559
    27  H    4.072371   2.587392   5.243445   7.597507   5.184608
                   16         17         18         19         20
    16  C    0.000000
    17  C    1.396363   0.000000
    18  C    2.784551   2.412299   0.000000
    19  H    3.411585   3.876944   2.135336   0.000000
    20  H    1.088724   2.149028   3.873191   4.322631   0.000000
    21  H    2.155333   1.087091   3.398965   4.963942   2.469535
    22  H    3.871907   3.396965   1.087415   2.450797   4.960517
    23  H    3.400347   2.153181   2.154821   4.281481   4.291971
    24  C    6.245840   7.390541   6.463844   4.425381   6.505230
    25  H    6.941420   8.038391   7.010182   4.972108   7.225160
    26  H    6.588411   7.834469   7.177374   5.224619   6.681665
    27  H    6.585274   7.644340   6.478129   4.370941   6.951234
                   21         22         23         24         25
    21  H    0.000000
    22  H    4.296347   0.000000
    23  H    2.482740   2.479893   0.000000
    24  C    8.359023   6.860410   8.505705   0.000000
    25  H    9.011342   7.327728   9.059259   1.095752   0.000000
    26  H    8.740002   7.674065   9.144221   1.093705   1.771849
    27  H    8.654991   6.755910   8.582398   1.095585   1.757431
                   26         27
    26  H    0.000000
    27  H    1.780672   0.000000
 Stoichiometry    C11H14O2
 Framework group  C1[X(C11H14O2)]
 Deg. of freedom    75
 Full point group                 C1      NOp   1
 Largest Abelian subgroup         C1      NOp   1
 Largest concise Abelian subgroup C1      NOp   1
                         Standard orientation:                         
 ---------------------------------------------------------------------
 Center     Atomic      Atomic             Coordinates (Angstroms)
 Number     Number       Type             X           Y           Z
 ---------------------------------------------------------------------
      1          6           0        2.298006    0.486916   -0.508427
      2          1           0        2.275521   -0.031439   -1.474046
      3          6           0        1.451613   -0.271815    0.531346
      4          1           0        1.101745    0.411854    1.311563
      5          6           0        0.252360   -0.895654   -0.185490
      6          8           0        0.380919   -1.916584   -0.864693
      7          8           0        1.700874    1.772515   -0.726554
      8          1           0        2.125186    2.416237   -0.133301
      9          6           0        2.205067   -1.404636    1.236831
     10          1           0        2.673872   -2.086528    0.518685
     11          1           0        1.522917   -1.997696    1.856703
     12          1           0        2.985362   -1.009485    1.895068
     13          6           0       -1.110066   -0.296320   -0.044733
     14          6           0       -3.719203    0.706537    0.192621
     15          6           0       -1.324795    1.025166    0.360091
     16          6           0       -2.216578   -1.106171   -0.342015
     17          6           0       -3.515282   -0.607655   -0.220867
     18          6           0       -2.626309    1.522742    0.479359
     19          1           0       -0.499992    1.699137    0.564899
     20          1           0       -2.070693   -2.133951   -0.670201
     21          1           0       -4.364526   -1.245087   -0.453746
     22          1           0       -2.786335    2.553272    0.787372
     23          1           0       -4.729606    1.097657    0.282639
     24          6           0        3.757564    0.701781   -0.115171
     25          1           0        4.255816    1.351480   -0.843393
     26          1           0        4.309163   -0.241535   -0.069503
     27          1           0        3.832970    1.203300    0.855962
 ---------------------------------------------------------------------
 Rotational constants (GHZ):      1.5738510      0.4770496      0.4053628
 Standard basis: 6-31G(d,p) (6D, 7F)
 There are   265 symmetry adapted basis functions of A   symmetry.
 Integral buffers will be    131072 words long.
 Raffenetti 2 integral format.
 Two-electron integral symmetry is turned on.
   265 basis functions,   462 primitive gaussians,   265 cartesian basis functions
    48 alpha electrons       48 beta electrons
       nuclear repulsion energy       779.7896135743 Hartrees.
 NAtoms=   27 NActive=   27 NUniq=   27 SFac= 1.00D+00 NAtFMM=   60 NAOKFM=F Big=F
 ------------------------------------------------------------------------------
 Polarizable Continuum Model (PCM)
 =================================
 Model                : C-PCM.
 Atomic radii         : SMD-Coulomb.
 Polarization charges : Total charges.
 Charge compensation  : None.
 Solution method      : Matrix inversion.
 Cavity type          : VdW (van der Waals Surface) (Alpha=1.000).
 Cavity algorithm     : GePol (No added spheres)
                        Default sphere list used, NSphG=   27.
                        Lebedev-Laikov grids with approx.  5.0 points / Ang**2.
                        Smoothing algorithm: Karplus/York (Gamma=1.0000).
                        Polarization charges: spherical gaussians, with
                                              point-specific exponents (IZeta= 3).
                        Self-potential: point-specific (ISelfS= 7).
                        Self-field    : sphere-specific E.n sum rule (ISelfD= 2).
 Solvent              : Chloroform, Eps=   4.711300 Eps(inf)=   2.090627
 ------------------------------------------------------------------------------
 ------------------------------------------------------------------------------
 Atomic radii for non-electrostatic terms: SMD-CDS.
 ------------------------------------------------------------------------------
 Nuclear repulsion after PCM non-electrostatic terms =      779.7828230542 Hartrees.
 One-electron integrals computed using PRISM.
 NBasis=   265 RedAO= T  NBF=   265
 NBsUse=   265 1.00D-06 NBFU=   265
 Harris functional with IExCor=  908 diagonalized for initial guess.
 ExpMin= 1.61D-01 ExpMax= 5.48D+03 ExpMxC= 8.25D+02 IAcc=1 IRadAn=         1 AccDes= 0.00D+00
 HarFok:  IExCor=  908 AccDes= 0.00D+00 IRadAn=         1 IDoV= 1
 ScaDFX=  1.000000  1.000000  1.000000  1.000000
 FoFCou: FMM=F IPFlag=           0 FMFlag=      100000 FMFlg1=           0
         NFxFlg=           0 DoJE=T BraDBF=F KetDBF=T FulRan=T
         Omega=  0.000000  0.000000  1.000000  0.000000  0.000000 ICntrl=     500 IOpCl=  0
         NMat0=    1 NMatS0=    1 NMatT0=    0 NMatD0=    1 NMtDS0=    0 NMtDT0=    0
         I1Cent=           4 NGrid=           0.
 Petite list used in FoFCou.
 Initial guess orbital symmetries:
       Occupied  (A) (A) (A) (A) (A) (A) (A) (A) (A) (A) (A) (A)
                 (A) (A) (A) (A) (A) (A) (A) (A) (A) (A) (A) (A)
                 (A) (A) (A) (A) (A) (A) (A) (A) (A) (A) (A) (A)
                 (A) (A) (A) (A) (A) (A) (A) (A) (A) (A) (A) (A)
       Virtual   (A) (A) (A) (A) (A) (A) (A) (A) (A) (A) (A) (A)
                 (A) (A) (A) (A) (A) (A) (A) (A) (A) (A) (A) (A)
                 (A) (A) (A) (A) (A) (A) (A) (A) (A) (A) (A) (A)
                 (A) (A) (A) (A) (A) (A) (A) (A) (A) (A) (A) (A)
                 (A) (A) (A) (A) (A) (A) (A) (A) (A) (A) (A) (A)
                 (A) (A) (A) (A) (A) (A) (A) (A) (A) (A) (A) (A)
                 (A) (A) (A) (A) (A) (A) (A) (A) (A) (A) (A) (A)
                 (A) (A) (A) (A) (A) (A) (A) (A) (A) (A) (A) (A)
                 (A) (A) (A) (A) (A) (A) (A) (A) (A) (A) (A) (A)
                 (A) (A) (A) (A) (A) (A) (A) (A) (A) (A) (A) (A)
                 (A) (A) (A) (A) (A) (A) (A) (A) (A) (A) (A) (A)
                 (A) (A) (A) (A) (A) (A) (A) (A) (A) (A) (A) (A)
                 (A) (A) (A) (A) (A) (A) (A) (A) (A) (A) (A) (A)
                 (A) (A) (A) (A) (A) (A) (A) (A) (A) (A) (A) (A)
                 (A) (A) (A) (A) (A) (A) (A) (A) (A) (A) (A) (A)
                 (A) (A) (A) (A) (A) (A) (A) (A) (A) (A) (A) (A)
                 (A) (A) (A) (A) (A) (A) (A) (A) (A) (A) (A) (A)
                 (A) (A) (A) (A) (A) (A) (A) (A) (A) (A) (A) (A)
                 (A)
 The electronic state of the initial guess is 1-A.
 Requested convergence on RMS density matrix=1.00D-08 within 128 cycles.
 Requested convergence on MAX density matrix=1.00D-06.
 Requested convergence on             energy=1.00D-06.
 No special actions if energy rises.
 Error on total polarization charges =  0.02860
 SCF Done:  E(RmPW1PW91) =  -577.943352010     A.U. after   12 cycles
             Convg  =    0.6912D-08             -V/T =  2.0093
 SMD-CDS (non-electrostatic) energy       (kcal/mol) =      -4.26
 (included in total energy above)
 Range of M.O.s used for correlation:     1   265
 NBasis=   265 NAE=    48 NBE=    48 NFC=     0 NFV=     0
 NROrb=    265 NOA=    48 NOB=    48 NVA=   217 NVB=   217
 NEqPCM:  Using equilibrium solvation (IEInf=0, Eps=   4.7113, EpsInf=   2.0906)
          Differentiating once with respect to magnetic field using GIAOs.
          Electric field/nuclear overlap derivatives assumed to be zero.
 FoFCou: FMM=F IPFlag=           0 FMFlag=    10101102 FMFlg1=           0
         NFxFlg=    40000000 DoJE=F BraDBF=F KetDBF=T FulRan=T
         Omega=  0.000000  0.000000  1.000000  0.000000  0.000000 ICntrl=    6100 IOpCl=  0
         NMat0=    1 NMatS0=    1 NMatT0=    0 NMatD0=    1 NMtDS0=    0 NMtDT0=    0
         I1Cent=           7 NGrid=        2008.
 Symmetry not used in FoFCou.
          There are     3 degrees of freedom in the 1st order CPHF.  IDoFFX=0.
      3 vectors produced by pass  0 Test12= 3.47D-13 3.33D-08 XBig12= 2.89D+01 1.14D+00.
 AX will form     3 AO Fock derivatives at one time.
      3 vectors produced by pass  1 Test12= 3.47D-13 3.33D-08 XBig12= 1.48D-01 2.10D-01.
      3 vectors produced by pass  2 Test12= 3.47D-13 3.33D-08 XBig12= 1.03D-03 1.06D-02.
      3 vectors produced by pass  3 Test12= 3.47D-13 3.33D-08 XBig12= 4.12D-06 4.38D-04.
      3 vectors produced by pass  4 Test12= 3.47D-13 3.33D-08 XBig12= 1.40D-08 2.53D-05.
      3 vectors produced by pass  5 Test12= 3.47D-13 3.33D-08 XBig12= 2.63D-11 1.85D-06.
      2 vectors produced by pass  6 Test12= 3.47D-13 3.33D-08 XBig12= 1.35D-13 1.10D-07.
 Inverted reduced A of dimension    20 with in-core refinement.
 Calculating GIAO nuclear magnetic shielding tensors.
 SCF GIAO Magnetic shielding tensor (ppm):
      1  C    Isotropic =   125.3459   Anisotropy =    49.8064
   XX=   116.6914   YX=    -9.8072   ZX=    -3.6991
   XY=   -15.3504   YY=   151.4309   ZY=   -14.3731
   XZ=    -6.1948   YZ=   -14.4558   ZZ=   107.9153
   Eigenvalues:    99.0919   118.3956   158.5501
      2  H    Isotropic =    27.6253   Anisotropy =     3.9902
   XX=    26.2881   YX=    -0.0390   ZX=    -0.3292
   XY=     1.1179   YY=    27.9574   ZY=     2.4477
   XZ=    -1.0039   YZ=     1.4642   ZZ=    28.6304
   Eigenvalues:    25.4538    27.1366    30.2854
      3  C    Isotropic =   145.0308   Anisotropy =    27.7475
   XX=   146.1737   YX=    12.2967   ZX=    -4.3411
   XY=    11.0950   YY=   147.5020   ZY=    -7.3467
   XZ=     0.3960   YZ=   -16.6995   ZZ=   141.4166
   Eigenvalues:   129.5499   142.0134   163.5291
      4  H    Isotropic =    28.0294   Anisotropy =     7.8643
   XX=    30.1722   YX=    -3.1914   ZX=    -0.4443
   XY=    -4.7756   YY=    28.0337   ZY=    -0.2025
   XZ=    -0.2712   YZ=     1.1593   ZZ=    25.8822
   Eigenvalues:    24.9491    25.8667    33.2722
      5  C    Isotropic =   -11.5350   Anisotropy =   176.6045
   XX=   -80.7526   YX=    36.6349   ZX=   -15.2788
   XY=    30.7774   YY=     3.2112   ZY=   -67.7488
   XZ=   -20.5087   YZ=   -80.2688   ZZ=    42.9363
   Eigenvalues:   -93.3169   -47.4894   106.2013
      6  O    Isotropic =  -226.2636   Anisotropy =   928.7131
   XX=  -297.5439   YX=   102.6526   ZX=   -85.7790
   XY=   101.2091   YY=  -366.5176   ZY=  -507.7752
   XZ=   -72.9278   YZ=  -558.0377   ZZ=   -14.7292
   Eigenvalues:  -754.7477  -316.9215   392.8785
      7  O    Isotropic =   265.8863   Anisotropy =    42.7519
   XX=   268.4639   YX=    -9.0001   ZX=    21.2770
   XY=   -11.0737   YY=   288.8128   ZY=    10.9605
   XZ=     6.7019   YZ=    17.5869   ZZ=   240.3821
   Eigenvalues:   229.6742   273.5971   294.3876
      8  H    Isotropic =    30.5143   Anisotropy =    14.3838
   XX=    27.9453   YX=     2.6578   ZX=     3.2164
   XY=     2.4656   YY=    37.0546   ZY=     5.6891
   XZ=     3.3449   YZ=     4.2076   ZZ=    26.5431
   Eigenvalues:    23.3918    28.0477    40.1036
      9  C    Isotropic =   179.9975   Anisotropy =    16.1146
   XX=   179.2676   YX=    -1.2596   ZX=     5.8880
   XY=    -2.1406   YY=   185.5925   ZY=    -7.2046
   XZ=     6.9005   YZ=    -6.2589   ZZ=   175.1325
   Eigenvalues:   169.1227   180.1293   190.7406
     10  H    Isotropic =    30.3344   Anisotropy =     8.5904
   XX=    29.3212   YX=    -3.1921   ZX=    -1.5992
   XY=    -3.2549   YY=    33.4999   ZY=     2.7641
   XZ=    -0.4559   YZ=     1.8657   ZZ=    28.1821
   Eigenvalues:    27.2546    27.6873    36.0614
     11  H    Isotropic =    30.9086   Anisotropy =     9.6073
   XX=    29.9402   YX=     1.6701   ZX=    -2.2182
   XY=     1.6096   YY=    31.7094   ZY=    -5.4702
   XZ=    -0.6764   YZ=    -5.0558   ZZ=    31.0763
   Eigenvalues:    26.1189    29.2935    37.3135
     12  H    Isotropic =    30.6722   Anisotropy =     8.4104
   XX=    31.6271   YX=     1.8694   ZX=     4.4388
   XY=     0.5697   YY=    28.8730   ZY=    -0.9571
   XZ=     4.9548   YZ=    -0.7409   ZZ=    31.5166
   Eigenvalues:    26.1023    29.6353    36.2791
     13  C    Isotropic =    61.9610   Anisotropy =   161.1145
   XX=    -5.6034   YX=    19.8774   ZX=     1.8776
   XY=    14.5183   YY=    31.0376   ZY=   -45.6780
   XZ=    10.5172   YZ=   -24.5072   ZZ=   160.4489
   Eigenvalues:   -14.6254    31.1378   169.3707
     14  C    Isotropic =    66.6142   Anisotropy =   181.2897
   XX=   -22.9127   YX=    28.3279   ZX=     2.5034
   XY=    31.2308   YY=    48.0333   ZY=   -43.3069
   XZ=    -2.4555   YZ=   -39.7518   ZZ=   174.7219
   Eigenvalues:   -34.8032    47.1717   187.4739
     15  C    Isotropic =    68.1148   Anisotropy =   181.1549
   XX=     6.9811   YX=   -35.6141   ZX=   -16.1461
   XY=   -19.4507   YY=    26.1246   ZY=   -46.6937
   XZ=    -3.4307   YZ=   -60.4808   ZZ=   171.2386
   Eigenvalues:   -21.4922    36.9519   188.8847
     16  C    Isotropic =    68.9572   Anisotropy =   180.9540
   XX=    45.5152   YX=     7.4786   ZX=    -2.0129
   XY=    -7.4146   YY=    -7.6781   ZY=   -62.0588
   XZ=     4.4239   YZ=   -65.2786   ZZ=   169.0344
   Eigenvalues:   -28.2301    45.5084   189.5932
     17  C    Isotropic =    70.3702   Anisotropy =   172.9857
   XX=     5.0824   YX=   -36.7223   ZX=   -17.3792
   XY=   -36.5722   YY=    36.5417   ZY=   -48.7794
   XZ=   -16.9391   YZ=   -49.0872   ZZ=   169.4864
   Eigenvalues:   -28.1902    53.6068   185.6940
     18  C    Isotropic =    70.3910   Anisotropy =   172.9869
   XX=    52.9178   YX=    12.8710   ZX=     0.3684
   XY=    13.2098   YY=    -8.9874   ZY=   -59.5229
   XZ=    -1.8176   YZ=   -59.8733   ZZ=   167.2424
   Eigenvalues:   -29.1381    54.5954   185.7156
     19  H    Isotropic =    22.9510   Anisotropy =     9.7248
   XX=    27.6842   YX=    -3.2194   ZX=    -1.6278
   XY=    -2.7189   YY=    22.4335   ZY=     1.6888
   XZ=    -1.5666   YZ=     1.4089   ZZ=    18.7351
   Eigenvalues:    18.1395    21.2792    29.4342
     20  H    Isotropic =    23.1830   Anisotropy =     7.2877
   XX=    27.9893   YX=     0.2021   ZX=     0.5610
   XY=     0.8074   YY=    22.4185   ZY=     1.7112
   XZ=    -0.3549   YZ=     1.3358   ZZ=    19.1411
   Eigenvalues:    18.5415    22.9660    28.0414
     21  H    Isotropic =    23.7428   Anisotropy =     4.7521
   XX=    25.6855   YX=    -1.2537   ZX=    -0.1931
   XY=    -1.4174   YY=    24.9536   ZY=     1.5994
   XZ=    -0.0643   YZ=     1.6775   ZZ=    20.5894
   Eigenvalues:    20.0258    24.2918    26.9109
     22  H    Isotropic =    23.7640   Anisotropy =     5.5595
   XX=    27.4615   YX=    -0.1017   ZX=     0.1711
   XY=    -0.0505   YY=    23.4779   ZY=     1.1772
   XZ=     0.3160   YZ=     0.8024   ZZ=    20.3525
   Eigenvalues:    20.0566    23.7650    27.4703
     23  H    Isotropic =    23.7067   Anisotropy =     4.5608
   XX=    24.5423   YX=     0.9092   ZX=     0.4220
   XY=     1.1765   YY=    25.6250   ZY=     1.7486
   XZ=     0.0987   YZ=     1.8133   ZZ=    20.9529
   Eigenvalues:    20.3495    24.0234    26.7473
     24  C    Isotropic =   173.4188   Anisotropy =    29.7883
   XX=   190.9347   YX=    -2.5366   ZX=     8.4774
   XY=     6.2668   YY=   171.3584   ZY=    -0.1475
   XZ=     9.1797   YZ=    -0.9749   ZZ=   157.9632
   Eigenvalues:   155.6842   171.2945   193.2776
     25  H    Isotropic =    30.3457   Anisotropy =     9.6024
   XX=    32.4082   YX=     3.2190   ZX=    -3.5622
   XY=     2.8296   YY=    29.1635   ZY=    -3.0345
   XZ=    -3.1734   YZ=    -2.3826   ZZ=    29.4654
   Eigenvalues:    26.5950    27.6948    36.7473
     26  H    Isotropic =    30.1792   Anisotropy =     8.6536
   XX=    33.4459   YX=    -3.8561   ZX=    -0.7548
   XY=    -2.7693   YY=    31.5618   ZY=    -0.7329
   XZ=    -0.6560   YZ=    -1.3471   ZZ=    25.5299
   Eigenvalues:    25.1288    29.4605    35.9483
     27  H    Isotropic =    30.7008   Anisotropy =     7.0277
   XX=    30.5528   YX=     2.7497   ZX=     2.6283
   XY=     1.7460   YY=    29.5496   ZY=     2.4871
   XZ=     1.8027   YZ=     2.1917   ZZ=    32.0001
   Eigenvalues:    27.6589    29.0576    35.3860
 End of Minotr Frequency-dependent properties file   721 does not exist.
 End of Minotr Frequency-dependent properties file   722 does not exist.

 **********************************************************************

            Population analysis using the SCF density.

 **********************************************************************

 Orbital symmetries:
       Occupied  (A) (A) (A) (A) (A) (A) (A) (A) (A) (A) (A) (A)
                 (A) (A) (A) (A) (A) (A) (A) (A) (A) (A) (A) (A)
                 (A) (A) (A) (A) (A) (A) (A) (A) (A) (A) (A) (A)
                 (A) (A) (A) (A) (A) (A) (A) (A) (A) (A) (A) (A)
       Virtual   (A) (A) (A) (A) (A) (A) (A) (A) (A) (A) (A) (A)
                 (A) (A) (A) (A) (A) (A) (A) (A) (A) (A) (A) (A)
                 (A) (A) (A) (A) (A) (A) (A) (A) (A) (A) (A) (A)
                 (A) (A) (A) (A) (A) (A) (A) (A) (A) (A) (A) (A)
                 (A) (A) (A) (A) (A) (A) (A) (A) (A) (A) (A) (A)
                 (A) (A) (A) (A) (A) (A) (A) (A) (A) (A) (A) (A)
                 (A) (A) (A) (A) (A) (A) (A) (A) (A) (A) (A) (A)
                 (A) (A) (A) (A) (A) (A) (A) (A) (A) (A) (A) (A)
                 (A) (A) (A) (A) (A) (A) (A) (A) (A) (A) (A) (A)
                 (A) (A) (A) (A) (A) (A) (A) (A) (A) (A) (A) (A)
                 (A) (A) (A) (A) (A) (A) (A) (A) (A) (A) (A) (A)
                 (A) (A) (A) (A) (A) (A) (A) (A) (A) (A) (A) (A)
                 (A) (A) (A) (A) (A) (A) (A) (A) (A) (A) (A) (A)
                 (A) (A) (A) (A) (A) (A) (A) (A) (A) (A) (A) (A)
                 (A) (A) (A) (A) (A) (A) (A) (A) (A) (A) (A) (A)
                 (A) (A) (A) (A) (A) (A) (A) (A) (A) (A) (A) (A)
                 (A) (A) (A) (A) (A) (A) (A) (A) (A) (A) (A) (A)
                 (A) (A) (A) (A) (A) (A) (A) (A) (A) (A) (A) (A)
                 (A)
 The electronic state is 1-A.
 Alpha  occ. eigenvalues --  -19.22931 -19.22537 -10.33307 -10.29701 -10.25977
 Alpha  occ. eigenvalues --  -10.25642 -10.25621 -10.25531 -10.25298 -10.25254
 Alpha  occ. eigenvalues --  -10.25080 -10.23232 -10.23220  -1.05920  -1.03864
 Alpha  occ. eigenvalues --   -0.88325  -0.82129  -0.78177  -0.76889  -0.74268
 Alpha  occ. eigenvalues --   -0.68339  -0.64715  -0.62407  -0.60145  -0.55754
 Alpha  occ. eigenvalues --   -0.52987  -0.49709  -0.49125  -0.46745  -0.46322
 Alpha  occ. eigenvalues --   -0.45276  -0.44863  -0.43120  -0.42930  -0.41332
 Alpha  occ. eigenvalues --   -0.39289  -0.38624  -0.38534  -0.37580  -0.36161
 Alpha  occ. eigenvalues --   -0.35748  -0.35015  -0.34408  -0.32609  -0.27959
 Alpha  occ. eigenvalues --   -0.26690  -0.26467  -0.25517
 Alpha virt. eigenvalues --   -0.04825  -0.00022   0.04673   0.10049   0.12017
 Alpha virt. eigenvalues --    0.12398   0.14068   0.16440   0.16877   0.16991
 Alpha virt. eigenvalues --    0.17607   0.18052   0.19019   0.19602   0.19832
 Alpha virt. eigenvalues --    0.20458   0.21375   0.22444   0.23317   0.25349
 Alpha virt. eigenvalues --    0.26908   0.28338   0.29041   0.30826   0.31460
 Alpha virt. eigenvalues --    0.32578   0.33588   0.37866   0.41003   0.49486
 Alpha virt. eigenvalues --    0.52936   0.53835   0.54535   0.55391   0.56079
 Alpha virt. eigenvalues --    0.57592   0.57897   0.58868   0.59795   0.60435
 Alpha virt. eigenvalues --    0.61090   0.61507   0.62098   0.62372   0.62905
 Alpha virt. eigenvalues --    0.63741   0.66405   0.67141   0.68479   0.71095
 Alpha virt. eigenvalues --    0.71255   0.74309   0.77499   0.78641   0.79880
 Alpha virt. eigenvalues --    0.80265   0.82628   0.83224   0.83794   0.84691
 Alpha virt. eigenvalues --    0.85226   0.85624   0.88039   0.88326   0.88994
 Alpha virt. eigenvalues --    0.89670   0.91938   0.92206   0.92750   0.94317
 Alpha virt. eigenvalues --    0.95278   0.96394   0.97250   0.99238   1.00741
 Alpha virt. eigenvalues --    1.01992   1.03612   1.04029   1.05682   1.07920
 Alpha virt. eigenvalues --    1.10754   1.12212   1.13733   1.16312   1.17482
 Alpha virt. eigenvalues --    1.20325   1.21674   1.25304   1.28448   1.32319
 Alpha virt. eigenvalues --    1.34398   1.36661   1.39211   1.40825   1.41461
 Alpha virt. eigenvalues --    1.42336   1.42581   1.44358   1.45381   1.46685
 Alpha virt. eigenvalues --    1.50274   1.52698   1.52972   1.59029   1.62887
 Alpha virt. eigenvalues --    1.65640   1.69514   1.74053   1.75264   1.76375
 Alpha virt. eigenvalues --    1.78414   1.80741   1.82626   1.86524   1.87753
 Alpha virt. eigenvalues --    1.88663   1.89241   1.90139   1.92319   1.92437
 Alpha virt. eigenvalues --    1.94981   1.95605   1.98169   1.98409   1.99705
 Alpha virt. eigenvalues --    2.00636   2.02186   2.03961   2.04474   2.06605
 Alpha virt. eigenvalues --    2.07123   2.07804   2.08713   2.10223   2.11198
 Alpha virt. eigenvalues --    2.13607   2.15577   2.17431   2.20785   2.22237
 Alpha virt. eigenvalues --    2.25482   2.27419   2.29230   2.30753   2.32269
 Alpha virt. eigenvalues --    2.34547   2.36169   2.38720   2.39182   2.40022
 Alpha virt. eigenvalues --    2.41380   2.42495   2.43144   2.44774   2.46623
 Alpha virt. eigenvalues --    2.47187   2.49608   2.51844   2.52233   2.55079
 Alpha virt. eigenvalues --    2.57021   2.59246   2.60255   2.60864   2.62999
 Alpha virt. eigenvalues --    2.65613   2.66240   2.67458   2.69157   2.70761
 Alpha virt. eigenvalues --    2.72597   2.74737   2.76312   2.79073   2.80066
 Alpha virt. eigenvalues --    2.80946   2.84290   2.85756   2.88022   2.90990
 Alpha virt. eigenvalues --    2.92907   2.93628   2.94411   2.96818   3.03072
 Alpha virt. eigenvalues --    3.06864   3.08389   3.11038   3.21590   3.22750
 Alpha virt. eigenvalues --    3.24529   3.26378   3.28310   3.34724   3.40088
 Alpha virt. eigenvalues --    3.43677   3.45503   3.46375   3.49044   3.50679
 Alpha virt. eigenvalues --    3.53552   3.55492   3.55761   3.91880   3.98951
 Alpha virt. eigenvalues --    4.12525   4.16469   4.18875   4.23752   4.34428
 Alpha virt. eigenvalues --    4.45524   4.46403   4.52723   4.56692   4.64746
 Alpha virt. eigenvalues --    4.82688   4.87836
          Condensed to atoms (all electrons):
              1          2          3          4          5          6
     1  C    4.763361   0.402794   0.309195  -0.029948  -0.026216  -0.005899
     2  H    0.402794   0.576253  -0.070906   0.004737  -0.002029   0.006167
     3  C    0.309195  -0.070906   5.352857   0.381596   0.297173  -0.089047
     4  H   -0.029948   0.004737   0.381596   0.564264  -0.035062   0.003050
     5  C   -0.026216  -0.002029   0.297173  -0.035062   4.617177   0.525999
     6  O   -0.005899   0.006167  -0.089047   0.003050   0.525999   8.140863
     7  O    0.239462  -0.038102  -0.066164  -0.004345   0.003850   0.000040
     8  H   -0.033742   0.005864  -0.000254   0.002362  -0.000385  -0.000006
     9  C   -0.031058   0.002753   0.308989  -0.039886  -0.035397  -0.000878
    10  H   -0.004112   0.002510  -0.034817   0.004949  -0.006627   0.007162
    11  H    0.003921  -0.000178  -0.028946  -0.002555  -0.004994   0.000293
    12  H   -0.006331  -0.000105  -0.030222  -0.004061   0.004966   0.000359
    13  C    0.000471   0.002312  -0.101845   0.001500   0.320942  -0.091548
    14  C    0.000000   0.000000  -0.000025   0.000007   0.000125  -0.000016
    15  C   -0.000342  -0.000212  -0.004753   0.000778  -0.037485   0.003293
    16  C   -0.000034  -0.000058   0.008661  -0.000272  -0.039095   0.000969
    17  C    0.000002  -0.000001  -0.000077  -0.000027   0.005986   0.000943
    18  C    0.000004   0.000001  -0.000048   0.000077   0.004490  -0.000073
    19  H   -0.001146   0.000140   0.000876   0.001855  -0.007112   0.000035
    20  H   -0.000001  -0.000004   0.000610  -0.000026  -0.008317   0.013086
    21  H    0.000000   0.000000   0.000002   0.000000  -0.000130   0.000004
    22  H    0.000000   0.000000   0.000012  -0.000005  -0.000117   0.000000
    23  H    0.000000   0.000000   0.000000   0.000000   0.000006   0.000000
    24  C    0.366362  -0.045062  -0.047847  -0.003074   0.003132  -0.000009
    25  H   -0.030875  -0.005710   0.005924  -0.000123  -0.000101   0.000000
    26  H   -0.024497  -0.002045  -0.002137   0.000145  -0.000140  -0.000002
    27  H   -0.030881   0.005112  -0.008245   0.002072   0.000094  -0.000004
              7          8          9         10         11         12
     1  C    0.239462  -0.033742  -0.031058  -0.004112   0.003921  -0.006331
     2  H   -0.038102   0.005864   0.002753   0.002510  -0.000178  -0.000105
     3  C   -0.066164  -0.000254   0.308989  -0.034817  -0.028946  -0.030222
     4  H   -0.004345   0.002362  -0.039886   0.004949  -0.002555  -0.004061
     5  C    0.003850  -0.000385  -0.035397  -0.006627  -0.004994   0.004966
     6  O    0.000040  -0.000006  -0.000878   0.007162   0.000293   0.000359
     7  O    8.192346   0.294808   0.003349   0.000000  -0.000064   0.000016
     8  H    0.294808   0.389616  -0.000148   0.000011   0.000001   0.000003
     9  C    0.003349  -0.000148   5.050629   0.387005   0.384309   0.385121
    10  H    0.000000   0.000011   0.387005   0.547559  -0.026939  -0.028387
    11  H   -0.000064   0.000001   0.384309  -0.026939   0.557408  -0.028947
    12  H    0.000016   0.000003   0.385121  -0.028387  -0.028947   0.560983
    13  C   -0.001161   0.000158   0.005399   0.000371   0.000366  -0.000102
    14  C    0.000002   0.000000   0.000001   0.000000   0.000000   0.000000
    15  C   -0.005702  -0.000059   0.000022  -0.000015   0.000028  -0.000006
    16  C    0.000010   0.000000  -0.000333  -0.000007  -0.000006   0.000003
    17  C   -0.000001   0.000000   0.000001   0.000000   0.000001   0.000000
    18  C    0.000124  -0.000014  -0.000002   0.000000   0.000001   0.000000
    19  H    0.018910  -0.000029   0.000162  -0.000001  -0.000028   0.000006
    20  H    0.000001   0.000000  -0.000028  -0.000004  -0.000012   0.000000
    21  H    0.000000   0.000000   0.000000   0.000000   0.000000   0.000000
    22  H   -0.000007   0.000000   0.000000   0.000000   0.000000   0.000000
    23  H    0.000000   0.000000   0.000000   0.000000   0.000000   0.000000
    24  C   -0.048215  -0.007144  -0.008151  -0.002126   0.000256   0.002788
    25  H    0.001476  -0.000375   0.000150  -0.000034  -0.000003   0.000008
    26  H    0.003544   0.000195   0.000770   0.001348   0.000066  -0.000612
    27  H   -0.002825   0.005363  -0.000548   0.000226  -0.000069   0.000804
             13         14         15         16         17         18
     1  C    0.000471   0.000000  -0.000342  -0.000034   0.000002   0.000004
     2  H    0.002312   0.000000  -0.000212  -0.000058  -0.000001   0.000001
     3  C   -0.101845  -0.000025  -0.004753   0.008661  -0.000077  -0.000048
     4  H    0.001500   0.000007   0.000778  -0.000272  -0.000027   0.000077
     5  C    0.320942   0.000125  -0.037485  -0.039095   0.005986   0.004490
     6  O   -0.091548  -0.000016   0.003293   0.000969   0.000943  -0.000073
     7  O   -0.001161   0.000002  -0.005702   0.000010  -0.000001   0.000124
     8  H    0.000158   0.000000  -0.000059   0.000000   0.000000  -0.000014
     9  C    0.005399   0.000001   0.000022  -0.000333   0.000001  -0.000002
    10  H    0.000371   0.000000  -0.000015  -0.000007   0.000000   0.000000
    11  H    0.000366   0.000000   0.000028  -0.000006   0.000001   0.000001
    12  H   -0.000102   0.000000  -0.000006   0.000003   0.000000   0.000000
    13  C    5.035090  -0.032397   0.518223   0.495455  -0.033351  -0.029436
    14  C   -0.032397   4.865506  -0.047701  -0.045080   0.534349   0.542657
    15  C    0.518223  -0.047701   4.962066  -0.063518  -0.038780   0.515718
    16  C    0.495455  -0.045080  -0.063518   4.958642   0.506997  -0.038881
    17  C   -0.033351   0.534349  -0.038780   0.506997   4.908694  -0.041032
    18  C   -0.029436   0.542657   0.515718  -0.038881  -0.041032   4.896009
    19  H   -0.039103   0.004285   0.366188   0.005026   0.000056  -0.035734
    20  H   -0.043827   0.004135   0.004890   0.379864  -0.036272   0.000166
    21  H    0.003199  -0.037645   0.000600  -0.034207   0.381975   0.003931
    22  H    0.003074  -0.037494  -0.033241   0.000621   0.003951   0.381123
    23  H    0.000439   0.381808   0.004154   0.004006  -0.036980  -0.036870
    24  C   -0.000191   0.000000   0.000005   0.000003   0.000000   0.000000
    25  H    0.000001   0.000000   0.000001   0.000000   0.000000   0.000000
    26  H   -0.000003   0.000000   0.000000   0.000000   0.000000   0.000000
    27  H    0.000006   0.000000  -0.000008   0.000000   0.000000   0.000000
             19         20         21         22         23         24
     1  C   -0.001146  -0.000001   0.000000   0.000000   0.000000   0.366362
     2  H    0.000140  -0.000004   0.000000   0.000000   0.000000  -0.045062
     3  C    0.000876   0.000610   0.000002   0.000012   0.000000  -0.047847
     4  H    0.001855  -0.000026   0.000000  -0.000005   0.000000  -0.003074
     5  C   -0.007112  -0.008317  -0.000130  -0.000117   0.000006   0.003132
     6  O    0.000035   0.013086   0.000004   0.000000   0.000000  -0.000009
     7  O    0.018910   0.000001   0.000000  -0.000007   0.000000  -0.048215
     8  H   -0.000029   0.000000   0.000000   0.000000   0.000000  -0.007144
     9  C    0.000162  -0.000028   0.000000   0.000000   0.000000  -0.008151
    10  H   -0.000001  -0.000004   0.000000   0.000000   0.000000  -0.002126
    11  H   -0.000028  -0.000012   0.000000   0.000000   0.000000   0.000256
    12  H    0.000006   0.000000   0.000000   0.000000   0.000000   0.002788
    13  C   -0.039103  -0.043827   0.003199   0.003074   0.000439  -0.000191
    14  C    0.004285   0.004135  -0.037645  -0.037494   0.381808   0.000000
    15  C    0.366188   0.004890   0.000600  -0.033241   0.004154   0.000005
    16  C    0.005026   0.379864  -0.034207   0.000621   0.004006   0.000003
    17  C    0.000056  -0.036272   0.381975   0.003951  -0.036980   0.000000
    18  C   -0.035734   0.000166   0.003931   0.381123  -0.036870   0.000000
    19  H    0.533437  -0.000102   0.000012  -0.004600  -0.000136   0.000136
    20  H   -0.000102   0.528410  -0.004285   0.000014  -0.000139   0.000000
    21  H    0.000012  -0.004285   0.533011  -0.000147  -0.004471   0.000000
    22  H   -0.004600   0.000014  -0.000147   0.534198  -0.004512   0.000000
    23  H   -0.000136  -0.000139  -0.004471  -0.004512   0.534057   0.000000
    24  C    0.000136   0.000000   0.000000   0.000000   0.000000   5.102206
    25  H   -0.000006   0.000000   0.000000   0.000000   0.000000   0.383619
    26  H   -0.000007   0.000000   0.000000   0.000000   0.000000   0.368978
    27  H    0.000017   0.000000   0.000000   0.000000   0.000000   0.380861
             25         26         27
     1  C   -0.030875  -0.024497  -0.030881
     2  H   -0.005710  -0.002045   0.005112
     3  C    0.005924  -0.002137  -0.008245
     4  H   -0.000123   0.000145   0.002072
     5  C   -0.000101  -0.000140   0.000094
     6  O    0.000000  -0.000002  -0.000004
     7  O    0.001476   0.003544  -0.002825
     8  H   -0.000375   0.000195   0.005363
     9  C    0.000150   0.000770  -0.000548
    10  H   -0.000034   0.001348   0.000226
    11  H   -0.000003   0.000066  -0.000069
    12  H    0.000008  -0.000612   0.000804
    13  C    0.000001  -0.000003   0.000006
    14  C    0.000000   0.000000   0.000000
    15  C    0.000001   0.000000  -0.000008
    16  C    0.000000   0.000000   0.000000
    17  C    0.000000   0.000000   0.000000
    18  C    0.000000   0.000000   0.000000
    19  H   -0.000006  -0.000007   0.000017
    20  H    0.000000   0.000000   0.000000
    21  H    0.000000   0.000000   0.000000
    22  H    0.000000   0.000000   0.000000
    23  H    0.000000   0.000000   0.000000
    24  C    0.383619   0.368978   0.380861
    25  H    0.551566  -0.023955  -0.033804
    26  H   -0.023955   0.550710  -0.025291
    27  H   -0.033804  -0.025291   0.563397
 Mulliken atomic charges:
              1
     1  C    0.139510
     2  H    0.155769
     3  C   -0.180563
     4  H    0.151991
     5  C    0.419267
     6  O   -0.514783
     7  O   -0.591351
     8  H    0.343777
     9  C   -0.412233
    10  H    0.151928
    11  H    0.146091
    12  H    0.143717
    13  C   -0.014044
    14  C   -0.132517
    15  C   -0.144143
    16  C   -0.138766
    17  C   -0.156433
    18  C   -0.162211
    19  H    0.156862
    20  H    0.161841
    21  H    0.158151
    22  H    0.157131
    23  H    0.158639
    24  C   -0.446530
    25  H    0.152241
    26  H    0.152933
    27  H    0.143725
 Sum of Mulliken atomic charges =   0.00000
 Mulliken charges with hydrogens summed into heavy atoms:
              1
     1  C    0.295280
     3  C   -0.028572
     5  C    0.419267
     6  O   -0.514783
     7  O   -0.247574
     9  C    0.029503
    13  C   -0.014044
    14  C    0.026122
    15  C    0.012719
    16  C    0.023074
    17  C    0.001718
    18  C   -0.005080
    24  C    0.002370
 Sum of Mulliken charges with hydrogens summed into heavy atoms =   0.00000
 Electronic spatial extent (au):  <R**2>=           2833.0246
 Charge=              0.0000 electrons
 Dipole moment (field-independent basis, Debye):
    X=              0.8149    Y=              2.7831    Z=              3.0948  Tot=              4.2411
 Quadrupole moment (field-independent basis, Debye-Ang):
   XX=            -58.9850   YY=            -75.6571   ZZ=            -80.3666
   XY=              3.2478   XZ=              2.7987   YZ=              2.0797
 Traceless Quadrupole moment (field-independent basis, Debye-Ang):
   XX=             12.6846   YY=             -3.9875   ZZ=             -8.6971
   XY=              3.2478   XZ=              2.7987   YZ=              2.0797
 Octapole moment (field-independent basis, Debye-Ang**2):
  XXX=             -7.9594  YYY=             28.2294  ZZZ=             -3.0719  XYY=             -0.2497
  XXY=             11.7279  XXZ=             -0.9735  XZZ=             11.5732  YZZ=              0.1650
  YYZ=             13.6437  XYZ=             -2.8800
 Hexadecapole moment (field-independent basis, Debye-Ang**3):
 XXXX=          -2458.6509 YYYY=           -679.8827 ZZZZ=           -265.5160 XXXY=             25.8084
 XXXZ=             -2.8151 YYYX=             40.8101 YYYZ=             12.2292 ZZZX=             -0.5778
 ZZZY=              0.6754 XXYY=           -515.1186 XXZZ=           -526.9409 YYZZ=           -174.0911
 XXYZ=             28.1945 YYXZ=              6.5444 ZZXY=              3.9806
 N-N= 7.797828230542D+02 E-N=-2.904377687773D+03  KE= 5.726013431653D+02
 1\1\GINC-COMPUTE-8-13\SP\RmPW1PW91\6-31G(d,p)\C11H14O2\FBRUNO.IQUIR\21
 -Dec-2021\0\\# mPW1PW91/6-31g** scrf=(pcm,solvent=chloroform,smd,dovac
 uum) nmr\\comment\\0,1\C,0,0.421857986,-0.979892779,1.861636057\H,0,0.
 546635807,-2.005767651,1.496081109\C,0,-0.654200967,-0.242114639,1.042
 514599\H,0,-0.484880681,0.839001207,1.075197512\C,0,-0.580167167,-0.73
 3686978,-0.404589742\O,0,-1.047717237,-1.828098808,-0.726771334\O,0,1.
 679011427,-0.321693561,1.653672026\H,0,1.805876862,0.334975466,2.36011
 15\C,0,-2.084417072,-0.484134162,1.537079137\H,0,-2.304885251,-1.55354
 4107,1.627882519\H,0,-2.813993048,-0.05573873,0.840310104\H,0,-2.24921
 4296,-0.01541065,2.512487262\C,0,0.030739746,0.124203649,-1.465738624\
 C,0,1.100913143,1.669387591,-3.548234633\C,0,0.909880515,1.175361243,-
 1.185565582\C,0,-0.296270894,-0.152775512,-2.801758805\C,0,0.234184781
 ,0.618433017,-3.837945343\C,0,1.441047443,1.945514963,-2.225022409\H,0
 ,1.220261473,1.403180581,-0.171541062\H,0,-0.969378776,-0.97409093,-3.
 041941038\H,0,-0.02705405,0.394190616,-4.86907869\H,0,2.129839506,2.75
 6621877,-2.001096391\H,0,1.51865466,2.267610259,-4.354220352\C,0,0.158
 444174,-1.03673008,3.364470209\H,0,1.022367879,-1.463733009,3.88598333
 2\H,0,-0.716539286,-1.648912937,3.600748919\H,0,0.009003325,-0.0321559
 37,3.775329718\\Version=EM64L-G09RevC.01\State=1-A\HF=-577.943352\RMSD
 =6.912e-09\Dipole=0.1581756,1.41636,0.8678235\Quadrupole=-5.4487647,-4
 .5427997,9.9915643,2.0809423,-0.7878934,-1.5131766\PG=C01 [X(C11H14O2)
 ]\\@


 AND ALL THIS SCIENCE I DON'T UNDERSTAND
 IT'S JUST MY JOB FIVE DAYS A WEEK

                           -- ELTON JOHN, "ROCKET MAN"
 Job cpu time:  0 days  0 hours 21 minutes 34.8 seconds.
 File lengths (MBytes):  RWF=     80 Int=      0 D2E=      0 Chk=      5 Scr=      1
 Normal termination of Gaussian 09 at Tue Dec 21 10:27:49 2021.
