 Entering Gaussian System, Link 0=g09
 Input=/home/fbruno.iquir/2_val_run/2b_010_MPW_A_SMD.gjc
 Output=/home/fbruno.iquir/2_val_run/2b_010_MPW_A_SMD.log
 Initial command:
 /share/apps/Gaussian09/EM64T.SSE4.2-enabled/g09/l1.exe /tmp/Gau-54526.inp -scrdir=/tmp/
 Entering Link 1 = /share/apps/Gaussian09/EM64T.SSE4.2-enabled/g09/l1.exe PID=     54527.
  
 Copyright (c) 1988,1990,1992,1993,1995,1998,2003,2009,2011,
            Gaussian, Inc.  All Rights Reserved.
  
 This is part of the Gaussian(R) 09 program.  It is based on
 the Gaussian(R) 03 system (copyright 2003, Gaussian, Inc.),
 the Gaussian(R) 98 system (copyright 1998, Gaussian, Inc.),
 the Gaussian(R) 94 system (copyright 1995, Gaussian, Inc.),
 the Gaussian 92(TM) system (copyright 1992, Gaussian, Inc.),
 the Gaussian 90(TM) system (copyright 1990, Gaussian, Inc.),
 the Gaussian 88(TM) system (copyright 1988, Gaussian, Inc.),
 the Gaussian 86(TM) system (copyright 1986, Carnegie Mellon
 University), and the Gaussian 82(TM) system (copyright 1983,
 Carnegie Mellon University). Gaussian is a federally registered
 trademark of Gaussian, Inc.
  
 This software contains proprietary and confidential information,
 including trade secrets, belonging to Gaussian, Inc.
  
 This software is provided under written license and may be
 used, copied, transmitted, or stored only in accord with that
 written license.
  
 The following legend is applicable only to US Government
 contracts under FAR:
  
                    RESTRICTED RIGHTS LEGEND
  
 Use, reproduction and disclosure by the US Government is
 subject to restrictions as set forth in subparagraphs (a)
 and (c) of the Commercial Computer Software - Restricted
 Rights clause in FAR 52.227-19.
  
 Gaussian, Inc.
 340 Quinnipiac St., Bldg. 40, Wallingford CT 06492
  
  
 ---------------------------------------------------------------
 Warning -- This program may not be used in any manner that
 competes with the business of Gaussian, Inc. or will provide
 assistance to any competitor of Gaussian, Inc.  The licensee
 of this program is prohibited from giving any competitor of
 Gaussian, Inc. access to this program.  By using this program,
 the user acknowledges that Gaussian, Inc. is engaged in the
 business of creating and licensing software in the field of
 computational chemistry and represents and warrants to the
 licensee that it is not a competitor of Gaussian, Inc. and that
 it will not use this program in any manner prohibited above.
 ---------------------------------------------------------------
  

 Cite this work as:
 Gaussian 09, Revision C.01,
 M. J. Frisch, G. W. Trucks, H. B. Schlegel, G. E. Scuseria, 
 M. A. Robb, J. R. Cheeseman, G. Scalmani, V. Barone, B. Mennucci, 
 G. A. Petersson, H. Nakatsuji, M. Caricato, X. Li, H. P. Hratchian, 
 A. F. Izmaylov, J. Bloino, G. Zheng, J. L. Sonnenberg, M. Hada, 
 M. Ehara, K. Toyota, R. Fukuda, J. Hasegawa, M. Ishida, T. Nakajima, 
 Y. Honda, O. Kitao, H. Nakai, T. Vreven, J. A. Montgomery, Jr., 
 J. E. Peralta, F. Ogliaro, M. Bearpark, J. J. Heyd, E. Brothers, 
 K. N. Kudin, V. N. Staroverov, T. Keith, R. Kobayashi, J. Normand, 
 K. Raghavachari, A. Rendell, J. C. Burant, S. S. Iyengar, J. Tomasi, 
 M. Cossi, N. Rega, J. M. Millam, M. Klene, J. E. Knox, J. B. Cross, 
 V. Bakken, C. Adamo, J. Jaramillo, R. Gomperts, R. E. Stratmann, 
 O. Yazyev, A. J. Austin, R. Cammi, C. Pomelli, J. W. Ochterski, 
 R. L. Martin, K. Morokuma, V. G. Zakrzewski, G. A. Voth, 
 P. Salvador, J. J. Dannenberg, S. Dapprich, A. D. Daniels, 
 O. Farkas, J. B. Foresman, J. V. Ortiz, J. Cioslowski, 
 and D. J. Fox, Gaussian, Inc., Wallingford CT, 2010.
 
 ******************************************
 Gaussian 09:  EM64L-G09RevC.01 23-Sep-2011
                21-Dec-2021 
 ******************************************
 %nprocshared=4
 Will use up to    4 processors via shared memory.
 -----------------------------------------------------------------
 # mPW1PW91/6-31g** scrf=(pcm,solvent=chloroform,smd,dovacuum) nmr
 -----------------------------------------------------------------
 1/38=1/1;
 2/12=2,17=6,18=5,40=1/2;
 3/5=1,6=6,7=101,11=2,16=1,25=1,30=1,70=32101,72=7,74=-7/1,2,8,3;
 4//1;
 5/5=2,38=5,53=7/2;
 8/6=1,10=90,11=11/1;
 10/13=100,45=16/2;
 6/7=2,8=2,9=2,10=2,28=1/1;
 99/9=1/99;
 -------
 comment
 -------
 Charge =  0 Multiplicity = 1
 Symbolic Z-Matrix:
 6                     0.35835  -1.01149   2.38137 
 1                     1.4458   -1.13576   2.3079 
 6                    -0.1587   -0.14166   1.21244 
 1                     0.14124   0.88662   1.44713 
 6                     0.51686  -0.5389   -0.10079 
 8                     1.09857  -1.61633  -0.2281 
 8                     0.10274  -0.32426   3.61415 
 1                     0.76143   0.38692   3.69292 
 6                    -1.68139  -0.18058   1.07164 
 1                    -2.02605  -1.15507   0.709 
 1                    -2.0364    0.56531   0.3539 
 1                    -2.17141   0.02812   2.02818 
 6                     0.48007   0.3905   -1.27637 
 6                     0.46868   2.03503  -3.55109 
 6                     0.88442  -0.10999  -2.52347 
 6                     0.07776   1.72842  -1.18114 
 6                     0.07096   2.54504  -2.31666 
 6                     0.87686   0.70785  -3.6553 
 1                     1.20804  -1.14512  -2.62144 
 1                    -0.23331   2.16992  -0.24012 
 1                    -0.244     3.58311  -2.23725 
 1                     1.19097   0.30689  -4.61591 
 1                     0.46289   2.67273  -4.43182 
 6                    -0.27811  -2.39281   2.50076 
 1                     0.19903  -2.95236   3.31353 
 1                    -0.17641  -2.97535   1.58156 
 1                    -1.33889  -2.32678   2.76499 
 
                          Input orientation:                          
 ---------------------------------------------------------------------
 Center     Atomic      Atomic             Coordinates (Angstroms)
 Number     Number       Type             X           Y           Z
 ---------------------------------------------------------------------
      1          6           0        0.358349   -1.011490    2.381372
      2          1           0        1.445796   -1.135757    2.307898
      3          6           0       -0.158696   -0.141659    1.212439
      4          1           0        0.141237    0.886617    1.447131
      5          6           0        0.516860   -0.538901   -0.100785
      6          8           0        1.098567   -1.616327   -0.228099
      7          8           0        0.102739   -0.324261    3.614145
      8          1           0        0.761432    0.386919    3.692919
      9          6           0       -1.681389   -0.180581    1.071645
     10          1           0       -2.026050   -1.155072    0.709005
     11          1           0       -2.036400    0.565313    0.353899
     12          1           0       -2.171410    0.028116    2.028175
     13          6           0        0.480071    0.390497   -1.276371
     14          6           0        0.468682    2.035031   -3.551091
     15          6           0        0.884416   -0.109988   -2.523471
     16          6           0        0.077764    1.728423   -1.181143
     17          6           0        0.070964    2.545039   -2.316665
     18          6           0        0.876862    0.707852   -3.655299
     19          1           0        1.208041   -1.145122   -2.621438
     20          1           0       -0.233313    2.169921   -0.240116
     21          1           0       -0.244002    3.583111   -2.237255
     22          1           0        1.190967    0.306886   -4.615907
     23          1           0        0.462892    2.672734   -4.431821
     24          6           0       -0.278110   -2.392814    2.500756
     25          1           0        0.199032   -2.952364    3.313527
     26          1           0       -0.176409   -2.975348    1.581561
     27          1           0       -1.338892   -2.326777    2.764988
 ---------------------------------------------------------------------
                    Distance matrix (angstroms):
                    1          2          3          4          5
     1  C    0.000000
     2  H    1.096987   0.000000
     3  C    1.546075   2.182351   0.000000
     4  H    2.126677   2.555933   1.096536   0.000000
     5  C    2.531713   2.649701   1.529292   2.137578   0.000000
     6  O    2.779045   2.604380   2.414644   3.160318   1.231032
     7  O    1.434347   2.041718   2.422785   2.482671   3.744099
     8  H    1.959127   2.169143   2.697927   2.382835   3.912691
     9  C    2.562485   3.495708   1.529684   2.145196   2.517000
    10  H    2.915954   3.822374   2.183452   3.067646   2.738945
    11  H    3.511664   4.340212   2.182355   2.457742   2.818717
    12  H    2.757755   3.810122   2.178364   2.534358   3.475742
    13  C    3.919116   4.013610   2.624002   2.788979   1.499045
    14  C    6.669901   6.733231   5.274732   5.138900   4.304887
    15  C    5.014672   4.970862   3.878931   4.160674   2.487663
    16  C    4.503040   4.716826   3.046695   2.760523   2.549654
    17  C    5.899410   6.068361   4.441358   4.113570   3.823562
    18  C    6.298126   6.267559   5.048655   5.158284   3.783987
    19  H    5.076213   4.935075   4.192078   4.671112   2.683081
    20  H    4.164570   4.498810   2.731096   2.152663   2.814230
    21  H    6.542546   6.766207   5.077556   4.581942   4.704721
    22  H    7.168911   7.077092   5.999366   6.180490   4.642854
    23  H    7.746227   7.803494   6.337574   6.152702   5.392158
    24  C    1.525578   2.142251   2.596483   3.469963   3.291959
    25  H    2.159002   2.421936   3.527408   4.269023   4.193251
    26  H    2.186870   2.557969   2.857684   3.877337   3.040918
    27  H    2.181231   3.062997   2.928825   3.775372   3.853956
                    6          7          8          9         10
     6  O    0.000000
     7  O    4.174201   0.000000
     8  H    4.415998   0.972552   0.000000
     9  C    3.388046   3.109351   3.627741   0.000000
    10  H    3.294564   3.696191   4.364806   1.095414   0.000000
    11  H    3.863456   3.999558   4.359901   1.094326   1.756682
    12  H    4.299735   2.794857   3.391411   1.094817   1.777997
    13  C    2.347074   4.956854   4.977250   3.242101   3.551217
    14  C    4.977092   7.552534   7.434894   5.558905   5.877828
    15  C    2.753843   6.190901   6.237430   4.417374   4.473467
    16  C    3.624595   5.216217   5.101324   3.437146   4.038965
    17  C    4.768128   6.588505   6.422564   4.688324   5.219479
    18  C    4.146886   7.383044   7.356129   5.447748   5.562781
    19  H    2.441739   6.385765   6.512888   4.787275   4.642337
    20  H    4.013692   4.603173   4.431408   3.056550   3.894908
    21  H    5.733529   7.044620   6.811278   5.213471   5.857177
    22  H    4.791675   8.325644   8.320306   6.390329   6.390712
    23  H    6.039156   8.593559   8.445441   6.559533   6.875683
    24  C    3.153542   2.379831   3.198252   2.984213   2.792431
    25  H    3.890665   2.646993   3.407498   4.030484   3.868435
    26  H    2.597569   3.352251   4.079487   3.214919   2.737870
    27  H    3.924859   2.609490   3.554794   2.755154   2.464172
                   11         12         13         14         15
    11  H    0.000000
    12  H    1.763522   0.000000
    13  C    3.003492   4.252258   0.000000
    14  C    4.866667   6.490455   2.806951   0.000000
    15  C    4.155292   5.484034   1.403295   2.414528   0.000000
    16  C    2.859872   4.271949   1.400345   2.421462   2.415012
    17  C    3.936014   5.499161   2.427268   1.393591   2.784536
    18  C    4.957931   6.485051   2.432582   1.392435   1.396407
    19  H    4.722776   5.866522   2.167319   3.394743   1.088960
    20  H    2.485707   3.672695   2.179241   3.387262   3.414822
    21  H    4.362782   5.877651   3.411798   2.151891   3.872238
    22  H    5.931412   7.451652   3.415387   2.154534   2.155469
    23  H    5.795756   7.460904   3.894324   1.087374   3.400444
    24  C    4.055995   3.109473   4.752720   7.535806   5.639647
    25  H    5.111811   4.019253   5.685145   8.489394   6.528354
    26  H    4.183659   3.633221   4.464040   7.201677   5.117316
    27  H    3.829367   2.604132   5.198537   7.885781   6.150207
                   16         17         18         19         20
    16  C    0.000000
    17  C    1.398684   0.000000
    18  C    2.793129   2.411778   0.000000
    19  H    3.407233   3.873386   2.147570   0.000000
    20  H    1.084998   2.131983   3.877320   4.328707   0.000000
    21  H    2.158419   1.087705   3.396219   4.961069   2.446586
    22  H    3.880412   3.398566   1.087292   2.467088   4.964577
    23  H    3.406898   2.154947   2.152932   4.290542   4.278774
    24  C    5.537836   6.907372   6.988928   5.477432   5.322870
    25  H    6.490496   7.870001   7.900707   6.285542   6.249249
    26  H    5.461007   6.762546   6.488454   4.788698   5.458529
    27  H    5.832968   7.179518   7.438993   6.074271   5.520258
                   21         22         23         24         25
    21  H    0.000000
    22  H    4.295436   0.000000
    23  H    2.478831   2.482180   0.000000
    24  C    7.626375   7.751998   8.617974   0.000000
    25  H    8.586030   8.630329   9.576104   1.096065   0.000000
    26  H    7.589552   7.145025   8.274677   1.092982   1.772341
    27  H    7.819719   8.234925   8.946261   1.095188   1.748561
                   26         27
    26  H    0.000000
    27  H    1.781155   0.000000
 Stoichiometry    C11H14O2
 Framework group  C1[X(C11H14O2)]
 Deg. of freedom    75
 Full point group                 C1      NOp   1
 Largest Abelian subgroup         C1      NOp   1
 Largest concise Abelian subgroup C1      NOp   1
                         Standard orientation:                         
 ---------------------------------------------------------------------
 Center     Atomic      Atomic             Coordinates (Angstroms)
 Number     Number       Type             X           Y           Z
 ---------------------------------------------------------------------
      1          6           0       -2.683110    0.063002   -0.498278
      2          1           0       -2.551964    0.637530   -1.423534
      3          6           0       -1.319138   -0.473838   -0.006616
      4          1           0       -1.061178   -1.300583   -0.679179
      5          6           0       -0.234012    0.595422   -0.140476
      6          8           0       -0.513825    1.786173   -0.279242
      7          8           0       -3.527327   -1.051285   -0.819231
      8          1           0       -3.224913   -1.409650   -1.671275
      9          6           0       -1.374095   -1.013677    1.423589
     10          1           0       -1.499056   -0.205907    2.152852
     11          1           0       -0.450764   -1.537282    1.689758
     12          1           0       -2.198491   -1.723651    1.545794
     13          6           0        1.213263    0.206778   -0.101954
     14          6           0        3.954888   -0.391075   -0.030967
     15          6           0        2.165738    1.229290    0.026493
     16          6           0        1.651925   -1.119237   -0.203072
     17          6           0        3.018567   -1.414490   -0.165201
     18          6           0        3.529497    0.931408    0.063667
     19          1           0        1.849528    2.268736    0.099949
     20          1           0        0.959666   -1.947087   -0.315607
     21          1           0        3.353644   -2.446402   -0.242560
     22          1           0        4.256890    1.733140    0.165295
     23          1           0        5.016656   -0.623934   -0.002549
     24          6           0       -3.445681    0.926530    0.501820
     25          1           0       -4.362110    1.309669    0.038441
     26          1           0       -2.855596    1.780218    0.844786
     27          1           0       -3.770134    0.345429    1.371585
 ---------------------------------------------------------------------
 Rotational constants (GHZ):      1.9231840      0.4151138      0.3723869
 Standard basis: 6-31G(d,p) (6D, 7F)
 There are   265 symmetry adapted basis functions of A   symmetry.
 Integral buffers will be    131072 words long.
 Raffenetti 2 integral format.
 Two-electron integral symmetry is turned on.
   265 basis functions,   462 primitive gaussians,   265 cartesian basis functions
    48 alpha electrons       48 beta electrons
       nuclear repulsion energy       773.7520018929 Hartrees.
 NAtoms=   27 NActive=   27 NUniq=   27 SFac= 1.00D+00 NAtFMM=   60 NAOKFM=F Big=F
 ------------------------------------------------------------------------------
 Polarizable Continuum Model (PCM)
 =================================
 Model                : C-PCM.
 Atomic radii         : SMD-Coulomb.
 Polarization charges : Total charges.
 Charge compensation  : None.
 Solution method      : Matrix inversion.
 Cavity type          : VdW (van der Waals Surface) (Alpha=1.000).
 Cavity algorithm     : GePol (No added spheres)
                        Default sphere list used, NSphG=   27.
                        Lebedev-Laikov grids with approx.  5.0 points / Ang**2.
                        Smoothing algorithm: Karplus/York (Gamma=1.0000).
                        Polarization charges: spherical gaussians, with
                                              point-specific exponents (IZeta= 3).
                        Self-potential: point-specific (ISelfS= 7).
                        Self-field    : sphere-specific E.n sum rule (ISelfD= 2).
 Solvent              : Chloroform, Eps=   4.711300 Eps(inf)=   2.090627
 ------------------------------------------------------------------------------
 ------------------------------------------------------------------------------
 Atomic radii for non-electrostatic terms: SMD-CDS.
 ------------------------------------------------------------------------------
 Nuclear repulsion after PCM non-electrostatic terms =      773.7454045303 Hartrees.
 One-electron integrals computed using PRISM.
 NBasis=   265 RedAO= T  NBF=   265
 NBsUse=   265 1.00D-06 NBFU=   265
 Harris functional with IExCor=  908 diagonalized for initial guess.
 ExpMin= 1.61D-01 ExpMax= 5.48D+03 ExpMxC= 8.25D+02 IAcc=1 IRadAn=         1 AccDes= 0.00D+00
 HarFok:  IExCor=  908 AccDes= 0.00D+00 IRadAn=         1 IDoV= 1
 ScaDFX=  1.000000  1.000000  1.000000  1.000000
 FoFCou: FMM=F IPFlag=           0 FMFlag=      100000 FMFlg1=           0
         NFxFlg=           0 DoJE=T BraDBF=F KetDBF=T FulRan=T
         Omega=  0.000000  0.000000  1.000000  0.000000  0.000000 ICntrl=     500 IOpCl=  0
         NMat0=    1 NMatS0=    1 NMatT0=    0 NMatD0=    1 NMtDS0=    0 NMtDT0=    0
         I1Cent=           4 NGrid=           0.
 Petite list used in FoFCou.
 Initial guess orbital symmetries:
       Occupied  (A) (A) (A) (A) (A) (A) (A) (A) (A) (A) (A) (A)
                 (A) (A) (A) (A) (A) (A) (A) (A) (A) (A) (A) (A)
                 (A) (A) (A) (A) (A) (A) (A) (A) (A) (A) (A) (A)
                 (A) (A) (A) (A) (A) (A) (A) (A) (A) (A) (A) (A)
       Virtual   (A) (A) (A) (A) (A) (A) (A) (A) (A) (A) (A) (A)
                 (A) (A) (A) (A) (A) (A) (A) (A) (A) (A) (A) (A)
                 (A) (A) (A) (A) (A) (A) (A) (A) (A) (A) (A) (A)
                 (A) (A) (A) (A) (A) (A) (A) (A) (A) (A) (A) (A)
                 (A) (A) (A) (A) (A) (A) (A) (A) (A) (A) (A) (A)
                 (A) (A) (A) (A) (A) (A) (A) (A) (A) (A) (A) (A)
                 (A) (A) (A) (A) (A) (A) (A) (A) (A) (A) (A) (A)
                 (A) (A) (A) (A) (A) (A) (A) (A) (A) (A) (A) (A)
                 (A) (A) (A) (A) (A) (A) (A) (A) (A) (A) (A) (A)
                 (A) (A) (A) (A) (A) (A) (A) (A) (A) (A) (A) (A)
                 (A) (A) (A) (A) (A) (A) (A) (A) (A) (A) (A) (A)
                 (A) (A) (A) (A) (A) (A) (A) (A) (A) (A) (A) (A)
                 (A) (A) (A) (A) (A) (A) (A) (A) (A) (A) (A) (A)
                 (A) (A) (A) (A) (A) (A) (A) (A) (A) (A) (A) (A)
                 (A) (A) (A) (A) (A) (A) (A) (A) (A) (A) (A) (A)
                 (A) (A) (A) (A) (A) (A) (A) (A) (A) (A) (A) (A)
                 (A) (A) (A) (A) (A) (A) (A) (A) (A) (A) (A) (A)
                 (A) (A) (A) (A) (A) (A) (A) (A) (A) (A) (A) (A)
                 (A)
 The electronic state of the initial guess is 1-A.
 Requested convergence on RMS density matrix=1.00D-08 within 128 cycles.
 Requested convergence on MAX density matrix=1.00D-06.
 Requested convergence on             energy=1.00D-06.
 No special actions if energy rises.
 Error on total polarization charges =  0.02739
 SCF Done:  E(RmPW1PW91) =  -577.945597268     A.U. after   12 cycles
             Convg  =    0.6789D-08             -V/T =  2.0094
 SMD-CDS (non-electrostatic) energy       (kcal/mol) =      -4.14
 (included in total energy above)
 Range of M.O.s used for correlation:     1   265
 NBasis=   265 NAE=    48 NBE=    48 NFC=     0 NFV=     0
 NROrb=    265 NOA=    48 NOB=    48 NVA=   217 NVB=   217
 NEqPCM:  Using equilibrium solvation (IEInf=0, Eps=   4.7113, EpsInf=   2.0906)
          Differentiating once with respect to magnetic field using GIAOs.
          Electric field/nuclear overlap derivatives assumed to be zero.
 FoFCou: FMM=F IPFlag=           0 FMFlag=    10101102 FMFlg1=           0
         NFxFlg=    40000000 DoJE=F BraDBF=F KetDBF=T FulRan=T
         Omega=  0.000000  0.000000  1.000000  0.000000  0.000000 ICntrl=    6100 IOpCl=  0
         NMat0=    1 NMatS0=    1 NMatT0=    0 NMatD0=    1 NMtDS0=    0 NMtDT0=    0
         I1Cent=           7 NGrid=        2012.
 Symmetry not used in FoFCou.
          There are     3 degrees of freedom in the 1st order CPHF.  IDoFFX=0.
      3 vectors produced by pass  0 Test12= 3.47D-13 3.33D-08 XBig12= 3.03D+01 1.29D+00.
 AX will form     3 AO Fock derivatives at one time.
      3 vectors produced by pass  1 Test12= 3.47D-13 3.33D-08 XBig12= 1.12D-01 2.13D-01.
      3 vectors produced by pass  2 Test12= 3.47D-13 3.33D-08 XBig12= 9.71D-04 1.02D-02.
      3 vectors produced by pass  3 Test12= 3.47D-13 3.33D-08 XBig12= 3.62D-06 3.95D-04.
      3 vectors produced by pass  4 Test12= 3.47D-13 3.33D-08 XBig12= 1.50D-08 1.96D-05.
      3 vectors produced by pass  5 Test12= 3.47D-13 3.33D-08 XBig12= 2.52D-11 1.44D-06.
      3 vectors produced by pass  6 Test12= 3.47D-13 3.33D-08 XBig12= 1.14D-13 9.23D-08.
 Inverted reduced A of dimension    21 with in-core refinement.
 Calculating GIAO nuclear magnetic shielding tensors.
 SCF GIAO Magnetic shielding tensor (ppm):
      1  C    Isotropic =   127.6629   Anisotropy =    52.4774
   XX=   135.3636   YX=    18.1328   ZX=     9.3540
   XY=    20.1459   YY=   144.6397   ZY=    11.8130
   XZ=     7.4377   YZ=     8.7531   ZZ=   102.9855
   Eigenvalues:   100.0299   120.3110   162.6479
      2  H    Isotropic =    27.1624   Anisotropy =     4.4905
   XX=    25.8813   YX=     2.0259   ZX=    -0.7893
   XY=     1.6190   YY=    27.7730   ZY=    -2.7499
   XZ=     1.4578   YZ=    -1.3766   ZZ=    27.8328
   Eigenvalues:    24.1822    27.1488    30.1560
      3  C    Isotropic =   145.7014   Anisotropy =    38.1862
   XX=   166.1707   YX=     6.6749   ZX=     4.5596
   XY=    12.3413   YY=   132.1465   ZY=     4.1328
   XZ=    11.6420   YZ=     5.0556   ZZ=   138.7872
   Eigenvalues:   128.9306   137.0148   171.1589
      4  H    Isotropic =    28.1747   Anisotropy =     6.8037
   XX=    31.0928   YX=    -2.1395   ZX=    -0.5733
   XY=    -3.0868   YY=    26.2242   ZY=     2.3344
   XZ=    -0.1231   YZ=     3.5541   ZZ=    27.2070
   Eigenvalues:    23.2960    28.5175    32.7105
      5  C    Isotropic =    -6.9924   Anisotropy =   170.5548
   XX=   -83.1765   YX=     9.6201   ZX=    -0.6961
   XY=    11.0219   YY=   -41.7548   ZY=    14.7035
   XZ=     2.9925   YZ=    25.5054   ZZ=   103.9541
   Eigenvalues:   -85.6729   -42.0151   106.7108
      6  O    Isotropic =  -235.0108   Anisotropy =   928.8888
   XX=  -344.4855   YX=   140.1444   ZX=   -16.0059
   XY=    98.6093   YY=  -721.4504   ZY=   126.7626
   XZ=   -25.9824   YZ=   194.4340   ZZ=   360.9035
   Eigenvalues:  -778.5911  -310.6897   384.2484
      7  O    Isotropic =   288.2970   Anisotropy =   105.5594
   XX=   270.4952   YX=   -18.2707   ZX=    -8.9856
   XY=     3.6609   YY=   301.7715   ZY=    61.6359
   XZ=    -8.3976   YZ=    58.0799   ZZ=   292.6245
   Eigenvalues:   237.1040   269.1171   358.6700
      8  H    Isotropic =    30.5155   Anisotropy =    18.9633
   XX=    25.7972   YX=     1.9936   ZX=    -2.0194
   XY=     0.0044   YY=    28.5465   ZY=    10.2116
   XZ=    -1.4227   YZ=     8.3369   ZZ=    37.2027
   Eigenvalues:    21.8425    26.5462    43.1577
      9  C    Isotropic =   182.5688   Anisotropy =    15.5193
   XX=   182.4522   YX=    -2.1140   ZX=    -3.1265
   XY=    -2.6296   YY=   177.6417   ZY=    -6.4724
   XZ=    -6.1452   YZ=    -9.4670   ZZ=   187.6123
   Eigenvalues:   171.4616   183.3297   192.9149
     10  H    Isotropic =    30.6087   Anisotropy =     7.8264
   XX=    28.1906   YX=    -1.8381   ZX=     0.3804
   XY=    -1.8768   YY=    29.5897   ZY=     3.1395
   XZ=    -1.7556   YZ=     2.8321   ZZ=    34.0458
   Eigenvalues:    26.6695    29.3303    35.8263
     11  H    Isotropic =    30.3563   Anisotropy =     8.7365
   XX=    33.8248   YX=    -3.6851   ZX=     1.1374
   XY=    -3.9102   YY=    28.4076   ZY=    -2.0029
   XZ=    -0.6892   YZ=    -4.2289   ZZ=    28.8365
   Eigenvalues:    24.6498    30.2384    36.1806
     12  H    Isotropic =    30.0226   Anisotropy =     8.8499
   XX=    31.0266   YX=     3.3769   ZX=    -0.4868
   XY=     3.1170   YY=    30.9287   ZY=    -3.4065
   XZ=    -2.0357   YZ=    -4.1427   ZZ=    28.1126
   Eigenvalues:    25.3370    28.8083    35.9226
     13  C    Isotropic =    64.9897   Anisotropy =   158.4069
   XX=    -9.9132   YX=    16.5004   ZX=    -8.2462
   XY=    12.8261   YY=    36.2140   ZY=    -8.1029
   XZ=   -11.3370   YZ=   -17.5668   ZZ=   168.6683
   Eigenvalues:   -14.3688    38.7437   170.5944
     14  C    Isotropic =    66.1858   Anisotropy =   181.9473
   XX=   -30.6052   YX=    17.0581   ZX=    -8.6873
   XY=    19.0081   YY=    42.9900   ZY=   -11.5632
   XZ=    -7.3935   YZ=   -11.2027   ZZ=   186.1726
   Eigenvalues:   -34.9127    45.9861   187.4840
     15  C    Isotropic =    69.2481   Anisotropy =   183.9928
   XX=    42.4897   YX=    19.8446   ZX=    -5.0219
   XY=     6.7368   YY=   -24.3674   ZY=   -18.9651
   XZ=   -10.9249   YZ=   -19.6472   ZZ=   189.6220
   Eigenvalues:   -28.3232    44.1576   191.9099
     16  C    Isotropic =    69.7091   Anisotropy =   174.6892
   XX=    17.8085   YX=   -38.2892   ZX=   -12.4466
   XY=   -21.7798   YY=     7.5074   ZY=   -18.4362
   XZ=   -10.7723   YZ=   -18.5551   ZZ=   183.8114
   Eigenvalues:   -20.1096    43.0684   186.1685
     17  C    Isotropic =    70.1937   Anisotropy =   173.0789
   XX=    46.3779   YX=    24.7947   ZX=    -4.6925
   XY=    24.8444   YY=   -19.8351   ZY=   -17.2169
   XZ=    -3.5882   YZ=   -15.0747   ZZ=   184.0382
   Eigenvalues:   -29.0308    54.0322   185.5796
     18  C    Isotropic =    69.4816   Anisotropy =   174.3758
   XX=    17.6824   YX=   -40.2910   ZX=   -11.2007
   XY=   -39.3087   YY=     7.3666   ZY=   -17.3363
   XZ=   -12.2116   YZ=   -20.2677   ZZ=   183.3957
   Eigenvalues:   -29.8488    52.5614   185.7321
     19  H    Isotropic =    23.1199   Anisotropy =     7.3199
   XX=    27.6936   YX=     1.0562   ZX=     0.4334
   XY=     1.0996   YY=    23.3268   ZY=    -0.0288
   XZ=     1.0165   YZ=     0.2117   ZZ=    18.3394
   Eigenvalues:    18.2835    23.0765    27.9999
     20  H    Isotropic =    23.3100   Anisotropy =     9.1681
   XX=    27.8552   YX=    -3.6420   ZX=    -0.8412
   XY=    -2.4323   YY=    22.8756   ZY=     0.5163
   XZ=    -1.0681   YZ=     0.8255   ZZ=    19.1991
   Eigenvalues:    19.0535    21.4543    29.4220
     21  H    Isotropic =    23.7695   Anisotropy =     5.2344
   XX=    27.1832   YX=     0.4148   ZX=     0.2073
   XY=     0.5322   YY=    23.9271   ZY=     0.3523
   XZ=     0.1464   YZ=     0.6134   ZZ=    20.1981
   Eigenvalues:    20.1347    23.9146    27.2591
     22  H    Isotropic =    23.7147   Anisotropy =     4.8527
   XX=    26.0879   YX=    -1.2470   ZX=     0.1337
   XY=    -1.3319   YY=    25.0159   ZY=     0.2674
   XZ=    -0.1169   YZ=     0.1229   ZZ=    20.0402
   Eigenvalues:    20.0320    24.1623    26.9498
     23  H    Isotropic =    23.6968   Anisotropy =     4.5168
   XX=    24.1919   YX=     0.5978   ZX=     0.1838
   XY=     0.8231   YY=    26.4455   ZY=     0.5268
   XZ=     0.2547   YZ=     0.5919   ZZ=    20.4531
   Eigenvalues:    20.3951    23.9874    26.7080
     24  C    Isotropic =   178.0253   Anisotropy =    25.3841
   XX=   178.3869   YX=    -4.4014   ZX=    -9.2252
   XY=    -1.4022   YY=   181.9538   ZY=    12.6996
   XZ=    -5.2824   YZ=    14.7711   ZZ=   173.7352
   Eigenvalues:   162.3599   176.7679   194.9481
     25  H    Isotropic =    30.3554   Anisotropy =    10.2267
   XX=    33.9699   YX=    -4.4981   ZX=     2.4858
   XY=    -4.5831   YY=    29.6734   ZY=    -0.5714
   XZ=     1.0617   YZ=    -0.5087   ZZ=    27.4230
   Eigenvalues:    26.4397    27.4533    37.1732
     26  H    Isotropic =    30.2249   Anisotropy =     9.0402
   XX=    29.6198   YX=     1.2340   ZX=     0.5628
   XY=     1.8683   YY=    34.5319   ZY=     3.2872
   XZ=    -0.3479   YZ=     3.9288   ZZ=    26.5230
   Eigenvalues:    25.0893    29.3336    36.2517
     27  H    Isotropic =    30.5584   Anisotropy =     6.6186
   XX=    30.7949   YX=    -0.8269   ZX=    -3.2089
   XY=    -1.4742   YY=    28.5031   ZY=    -1.5524
   XZ=    -3.1722   YZ=    -2.1647   ZZ=    32.3771
   Eigenvalues:    26.3152    30.3892    34.9708
 End of Minotr Frequency-dependent properties file   721 does not exist.
 End of Minotr Frequency-dependent properties file   722 does not exist.

 **********************************************************************

            Population analysis using the SCF density.

 **********************************************************************

 Orbital symmetries:
       Occupied  (A) (A) (A) (A) (A) (A) (A) (A) (A) (A) (A) (A)
                 (A) (A) (A) (A) (A) (A) (A) (A) (A) (A) (A) (A)
                 (A) (A) (A) (A) (A) (A) (A) (A) (A) (A) (A) (A)
                 (A) (A) (A) (A) (A) (A) (A) (A) (A) (A) (A) (A)
       Virtual   (A) (A) (A) (A) (A) (A) (A) (A) (A) (A) (A) (A)
                 (A) (A) (A) (A) (A) (A) (A) (A) (A) (A) (A) (A)
                 (A) (A) (A) (A) (A) (A) (A) (A) (A) (A) (A) (A)
                 (A) (A) (A) (A) (A) (A) (A) (A) (A) (A) (A) (A)
                 (A) (A) (A) (A) (A) (A) (A) (A) (A) (A) (A) (A)
                 (A) (A) (A) (A) (A) (A) (A) (A) (A) (A) (A) (A)
                 (A) (A) (A) (A) (A) (A) (A) (A) (A) (A) (A) (A)
                 (A) (A) (A) (A) (A) (A) (A) (A) (A) (A) (A) (A)
                 (A) (A) (A) (A) (A) (A) (A) (A) (A) (A) (A) (A)
                 (A) (A) (A) (A) (A) (A) (A) (A) (A) (A) (A) (A)
                 (A) (A) (A) (A) (A) (A) (A) (A) (A) (A) (A) (A)
                 (A) (A) (A) (A) (A) (A) (A) (A) (A) (A) (A) (A)
                 (A) (A) (A) (A) (A) (A) (A) (A) (A) (A) (A) (A)
                 (A) (A) (A) (A) (A) (A) (A) (A) (A) (A) (A) (A)
                 (A) (A) (A) (A) (A) (A) (A) (A) (A) (A) (A) (A)
                 (A) (A) (A) (A) (A) (A) (A) (A) (A) (A) (A) (A)
                 (A) (A) (A) (A) (A) (A) (A) (A) (A) (A) (A) (A)
                 (A) (A) (A) (A) (A) (A) (A) (A) (A) (A) (A) (A)
                 (A)
 The electronic state is 1-A.
 Alpha  occ. eigenvalues --  -19.22921 -19.22491 -10.33706 -10.28901 -10.26368
 Alpha  occ. eigenvalues --  -10.26180 -10.25875 -10.25773 -10.25627 -10.25508
 Alpha  occ. eigenvalues --  -10.25252 -10.23459 -10.22171  -1.06357  -1.03343
 Alpha  occ. eigenvalues --   -0.88633  -0.82080  -0.78303  -0.77181  -0.74036
 Alpha  occ. eigenvalues --   -0.67813  -0.64825  -0.62627  -0.59512  -0.55665
 Alpha  occ. eigenvalues --   -0.52574  -0.51489  -0.48321  -0.48252  -0.46581
 Alpha  occ. eigenvalues --   -0.45216  -0.44104  -0.43177  -0.41902  -0.40820
 Alpha  occ. eigenvalues --   -0.39367  -0.38795  -0.38098  -0.36926  -0.36762
 Alpha  occ. eigenvalues --   -0.35656  -0.35338  -0.34709  -0.32328  -0.27950
 Alpha  occ. eigenvalues --   -0.26967  -0.26670  -0.25465
 Alpha virt. eigenvalues --   -0.05048  -0.00346   0.04605   0.09627   0.11214
 Alpha virt. eigenvalues --    0.13079   0.14592   0.16697   0.17223   0.17384
 Alpha virt. eigenvalues --    0.17475   0.18436   0.19013   0.19771   0.20031
 Alpha virt. eigenvalues --    0.20944   0.21458   0.21932   0.23188   0.24802
 Alpha virt. eigenvalues --    0.26042   0.28547   0.29040   0.31313   0.31430
 Alpha virt. eigenvalues --    0.33886   0.34582   0.39668   0.40285   0.50751
 Alpha virt. eigenvalues --    0.51549   0.52057   0.52927   0.54406   0.55401
 Alpha virt. eigenvalues --    0.56519   0.58267   0.58706   0.60336   0.60600
 Alpha virt. eigenvalues --    0.61181   0.61898   0.62290   0.63032   0.64522
 Alpha virt. eigenvalues --    0.65193   0.66181   0.68321   0.69754   0.70060
 Alpha virt. eigenvalues --    0.71215   0.74592   0.75901   0.77305   0.78781
 Alpha virt. eigenvalues --    0.81673   0.82721   0.83724   0.83741   0.84298
 Alpha virt. eigenvalues --    0.84867   0.85096   0.86777   0.89030   0.90227
 Alpha virt. eigenvalues --    0.91252   0.91482   0.91798   0.92325   0.92995
 Alpha virt. eigenvalues --    0.95268   0.96269   0.97193   0.99435   1.01136
 Alpha virt. eigenvalues --    1.01761   1.03252   1.04936   1.06179   1.09345
 Alpha virt. eigenvalues --    1.11315   1.12854   1.13610   1.13850   1.19591
 Alpha virt. eigenvalues --    1.21936   1.24437   1.26031   1.27934   1.29879
 Alpha virt. eigenvalues --    1.32550   1.34507   1.37161   1.40275   1.40955
 Alpha virt. eigenvalues --    1.42241   1.42458   1.44469   1.45694   1.49147
 Alpha virt. eigenvalues --    1.51959   1.54854   1.58721   1.60638   1.62456
 Alpha virt. eigenvalues --    1.64195   1.67565   1.73597   1.74550   1.76211
 Alpha virt. eigenvalues --    1.78789   1.79844   1.81612   1.82198   1.84542
 Alpha virt. eigenvalues --    1.87604   1.88022   1.90129   1.91522   1.93829
 Alpha virt. eigenvalues --    1.94860   1.96123   1.96672   1.97807   1.98766
 Alpha virt. eigenvalues --    1.99242   2.01736   2.02166   2.04323   2.07267
 Alpha virt. eigenvalues --    2.07482   2.08313   2.09277   2.10171   2.12110
 Alpha virt. eigenvalues --    2.14374   2.16535   2.17388   2.18839   2.22907
 Alpha virt. eigenvalues --    2.24887   2.26212   2.29396   2.31211   2.33216
 Alpha virt. eigenvalues --    2.33502   2.37194   2.38701   2.39565   2.40154
 Alpha virt. eigenvalues --    2.41560   2.42063   2.42449   2.44539   2.46153
 Alpha virt. eigenvalues --    2.47046   2.48399   2.50393   2.52109   2.53942
 Alpha virt. eigenvalues --    2.58702   2.58956   2.60246   2.60443   2.63182
 Alpha virt. eigenvalues --    2.64650   2.67698   2.69575   2.70590   2.73122
 Alpha virt. eigenvalues --    2.74446   2.75141   2.75920   2.76656   2.80496
 Alpha virt. eigenvalues --    2.81065   2.83477   2.86582   2.87958   2.90055
 Alpha virt. eigenvalues --    2.92318   2.93745   2.96837   2.99223   3.04142
 Alpha virt. eigenvalues --    3.05836   3.06830   3.13045   3.21194   3.23284
 Alpha virt. eigenvalues --    3.25842   3.26169   3.27578   3.38628   3.40162
 Alpha virt. eigenvalues --    3.42841   3.45623   3.47256   3.49619   3.50597
 Alpha virt. eigenvalues --    3.52634   3.53379   3.55006   3.91346   3.99001
 Alpha virt. eigenvalues --    4.08955   4.16110   4.18683   4.21049   4.35023
 Alpha virt. eigenvalues --    4.44819   4.46324   4.54305   4.60914   4.69178
 Alpha virt. eigenvalues --    4.75615   4.87278
          Condensed to atoms (all electrons):
              1          2          3          4          5          6
     1  C    4.798583   0.407682   0.302429  -0.042901  -0.021522   0.003752
     2  H    0.407682   0.606429  -0.068556  -0.001966   0.005321   0.005035
     3  C    0.302429  -0.068556   5.413006   0.378829   0.248833  -0.089796
     4  H   -0.042901  -0.001966   0.378829   0.563239  -0.026026   0.002303
     5  C   -0.021522   0.005321   0.248833  -0.026026   4.640617   0.534507
     6  O    0.003752   0.005035  -0.089796   0.002303   0.534507   8.117009
     7  O    0.204133  -0.035877  -0.050127   0.002214   0.002963   0.000108
     8  H   -0.023626  -0.008050  -0.002688   0.004762  -0.000273   0.000022
     9  C   -0.034939   0.005010   0.326096  -0.037651  -0.033356  -0.000894
    10  H   -0.006701  -0.000012  -0.034904   0.005076  -0.004387   0.001136
    11  H    0.004608  -0.000125  -0.029930  -0.005781  -0.005580  -0.000016
    12  H   -0.005464   0.000294  -0.034350  -0.003170   0.004618  -0.000067
    13  C    0.005098   0.000479  -0.102290  -0.004515   0.313206  -0.088927
    14  C    0.000000   0.000000  -0.000020  -0.000003   0.000172  -0.000012
    15  C   -0.000130  -0.000018   0.008810  -0.000127  -0.035759   0.000444
    16  C    0.000064   0.000008  -0.003049   0.001100  -0.041716   0.003651
    17  C   -0.000004   0.000000  -0.000027   0.000252   0.004521  -0.000079
    18  C    0.000001   0.000000  -0.000068  -0.000003   0.005490   0.000979
    19  H   -0.000010  -0.000003   0.000639  -0.000015  -0.008358   0.014837
    20  H   -0.000040   0.000000   0.003972   0.001352  -0.008574   0.000038
    21  H    0.000000   0.000000   0.000013  -0.000001  -0.000123   0.000000
    22  H    0.000000   0.000000   0.000001   0.000000  -0.000131   0.000003
    23  H    0.000000   0.000000   0.000000   0.000000   0.000007   0.000000
    24  C    0.358699  -0.045701  -0.048410   0.005050  -0.004290  -0.005286
    25  H   -0.028145  -0.006402   0.005431  -0.000134  -0.000033   0.000138
    26  H   -0.027978  -0.000449  -0.001665   0.000055   0.000413   0.009859
    27  H   -0.028206   0.005328  -0.010249  -0.000047   0.000536   0.000103
              7          8          9         10         11         12
     1  C    0.204133  -0.023626  -0.034939  -0.006701   0.004608  -0.005464
     2  H   -0.035877  -0.008050   0.005010  -0.000012  -0.000125   0.000294
     3  C   -0.050127  -0.002688   0.326096  -0.034904  -0.029930  -0.034350
     4  H    0.002214   0.004762  -0.037651   0.005076  -0.005781  -0.003170
     5  C    0.002963  -0.000273  -0.033356  -0.004387  -0.005580   0.004618
     6  O    0.000108   0.000022  -0.000894   0.001136  -0.000016  -0.000067
     7  O    8.232429   0.290180  -0.003973   0.000083  -0.000078   0.008657
     8  H    0.290180   0.390978  -0.000134   0.000002   0.000002  -0.000216
     9  C   -0.003973  -0.000134   5.040391   0.390168   0.384300   0.385196
    10  H    0.000083   0.000002   0.390168   0.549909  -0.029706  -0.026767
    11  H   -0.000078   0.000002   0.384300  -0.029706   0.557525  -0.027117
    12  H    0.008657  -0.000216   0.385196  -0.026767  -0.027117   0.541705
    13  C   -0.000078   0.000000   0.000090  -0.000038   0.003643  -0.000157
    14  C    0.000000   0.000000   0.000000   0.000000   0.000004   0.000000
    15  C    0.000000   0.000000  -0.000356  -0.000019  -0.000091   0.000011
    16  C    0.000003  -0.000004  -0.003328   0.000014   0.002569   0.000066
    17  C    0.000000   0.000000  -0.000053   0.000008  -0.000060  -0.000001
    18  C    0.000000   0.000000   0.000003  -0.000001  -0.000016   0.000000
    19  H    0.000000   0.000000  -0.000027  -0.000009  -0.000001   0.000000
    20  H   -0.000020  -0.000011  -0.000874  -0.000046   0.000895   0.000098
    21  H    0.000000   0.000000  -0.000002   0.000000  -0.000003   0.000000
    22  H    0.000000   0.000000   0.000000   0.000000   0.000000   0.000000
    23  H    0.000000   0.000000   0.000000   0.000000   0.000000   0.000000
    24  C   -0.056595   0.006830  -0.009264   0.002888   0.000194  -0.001844
    25  H    0.002490  -0.000060   0.000088  -0.000016  -0.000003  -0.000082
    26  H    0.002927  -0.000244  -0.000844   0.001043  -0.000021   0.000001
    27  H   -0.000124  -0.000077   0.003373  -0.000285  -0.000012   0.001675
             13         14         15         16         17         18
     1  C    0.005098   0.000000  -0.000130   0.000064  -0.000004   0.000001
     2  H    0.000479   0.000000  -0.000018   0.000008   0.000000   0.000000
     3  C   -0.102290  -0.000020   0.008810  -0.003049  -0.000027  -0.000068
     4  H   -0.004515  -0.000003  -0.000127   0.001100   0.000252  -0.000003
     5  C    0.313206   0.000172  -0.035759  -0.041716   0.004521   0.005490
     6  O   -0.088927  -0.000012   0.000444   0.003651  -0.000079   0.000979
     7  O   -0.000078   0.000000   0.000000   0.000003   0.000000   0.000000
     8  H    0.000000   0.000000   0.000000  -0.000004   0.000000   0.000000
     9  C    0.000090   0.000000  -0.000356  -0.003328  -0.000053   0.000003
    10  H   -0.000038   0.000000  -0.000019   0.000014   0.000008  -0.000001
    11  H    0.003643   0.000004  -0.000091   0.002569  -0.000060  -0.000016
    12  H   -0.000157   0.000000   0.000011   0.000066  -0.000001   0.000000
    13  C    5.034617  -0.031410   0.497063   0.519600  -0.028383  -0.036186
    14  C   -0.031410   4.862629  -0.046265  -0.048880   0.544248   0.535078
    15  C    0.497063  -0.046265   4.955341  -0.067841  -0.038512   0.509782
    16  C    0.519600  -0.048880  -0.067841   4.954164   0.520191  -0.037226
    17  C   -0.028383   0.544248  -0.038512   0.520191   4.889747  -0.041238
    18  C   -0.036186   0.535078   0.509782  -0.037226  -0.041238   4.905117
    19  H   -0.043864   0.004159   0.379157   0.004682   0.000133  -0.035680
    20  H   -0.036531   0.004089   0.004404   0.379318  -0.035858   0.000225
    21  H    0.002926  -0.036858   0.000665  -0.032861   0.380698   0.003885
    22  H    0.003131  -0.037461  -0.033969   0.000615   0.003927   0.382058
    23  H    0.000488   0.381875   0.003914   0.004185  -0.036601  -0.036805
    24  C   -0.000319   0.000000   0.000007  -0.000003   0.000000   0.000000
    25  H    0.000005   0.000000   0.000000   0.000000   0.000000   0.000000
    26  H    0.000173   0.000000  -0.000005  -0.000004   0.000000   0.000000
    27  H    0.000008   0.000000   0.000000   0.000000   0.000000   0.000000
             19         20         21         22         23         24
     1  C   -0.000010  -0.000040   0.000000   0.000000   0.000000   0.358699
     2  H   -0.000003   0.000000   0.000000   0.000000   0.000000  -0.045701
     3  C    0.000639   0.003972   0.000013   0.000001   0.000000  -0.048410
     4  H   -0.000015   0.001352  -0.000001   0.000000   0.000000   0.005050
     5  C   -0.008358  -0.008574  -0.000123  -0.000131   0.000007  -0.004290
     6  O    0.014837   0.000038   0.000000   0.000003   0.000000  -0.005286
     7  O    0.000000  -0.000020   0.000000   0.000000   0.000000  -0.056595
     8  H    0.000000  -0.000011   0.000000   0.000000   0.000000   0.006830
     9  C   -0.000027  -0.000874  -0.000002   0.000000   0.000000  -0.009264
    10  H   -0.000009  -0.000046   0.000000   0.000000   0.000000   0.002888
    11  H   -0.000001   0.000895  -0.000003   0.000000   0.000000   0.000194
    12  H    0.000000   0.000098   0.000000   0.000000   0.000000  -0.001844
    13  C   -0.043864  -0.036531   0.002926   0.003131   0.000488  -0.000319
    14  C    0.004159   0.004089  -0.036858  -0.037461   0.381875   0.000000
    15  C    0.379157   0.004404   0.000665  -0.033969   0.003914   0.000007
    16  C    0.004682   0.379318  -0.032861   0.000615   0.004185  -0.000003
    17  C    0.000133  -0.035858   0.380698   0.003927  -0.036601   0.000000
    18  C   -0.035680   0.000225   0.003885   0.382058  -0.036805   0.000000
    19  H    0.525143  -0.000111   0.000014  -0.004247  -0.000138   0.000001
    20  H   -0.000111   0.527258  -0.004380   0.000013  -0.000145  -0.000002
    21  H    0.000014  -0.004380   0.531182  -0.000146  -0.004477   0.000000
    22  H   -0.004247   0.000013  -0.000146   0.530652  -0.004441   0.000000
    23  H   -0.000138  -0.000145  -0.004477  -0.004441   0.531628   0.000000
    24  C    0.000001  -0.000002   0.000000   0.000000   0.000000   5.075307
    25  H    0.000000   0.000000   0.000000   0.000000   0.000000   0.378824
    26  H   -0.000004   0.000000   0.000000   0.000000   0.000000   0.373796
    27  H    0.000000   0.000000   0.000000   0.000000   0.000000   0.380859
             25         26         27
     1  C   -0.028145  -0.027978  -0.028206
     2  H   -0.006402  -0.000449   0.005328
     3  C    0.005431  -0.001665  -0.010249
     4  H   -0.000134   0.000055  -0.000047
     5  C   -0.000033   0.000413   0.000536
     6  O    0.000138   0.009859   0.000103
     7  O    0.002490   0.002927  -0.000124
     8  H   -0.000060  -0.000244  -0.000077
     9  C    0.000088  -0.000844   0.003373
    10  H   -0.000016   0.001043  -0.000285
    11  H   -0.000003  -0.000021  -0.000012
    12  H   -0.000082   0.000001   0.001675
    13  C    0.000005   0.000173   0.000008
    14  C    0.000000   0.000000   0.000000
    15  C    0.000000  -0.000005   0.000000
    16  C    0.000000  -0.000004   0.000000
    17  C    0.000000   0.000000   0.000000
    18  C    0.000000   0.000000   0.000000
    19  H    0.000000  -0.000004   0.000000
    20  H    0.000000   0.000000   0.000000
    21  H    0.000000   0.000000   0.000000
    22  H    0.000000   0.000000   0.000000
    23  H    0.000000   0.000000   0.000000
    24  C    0.378824   0.373796   0.380859
    25  H    0.563769  -0.023692  -0.031678
    26  H   -0.023692   0.541767  -0.025622
    27  H   -0.031678  -0.025622   0.563989
 Mulliken atomic charges:
              1
     1  C    0.134619
     2  H    0.131576
     3  C   -0.211932
     4  H    0.158111
     5  C    0.428926
     6  O   -0.508847
     7  O   -0.599312
     8  H    0.342607
     9  C   -0.409020
    10  H    0.152565
    11  H    0.144802
    12  H    0.156915
    13  C   -0.007828
    14  C   -0.131346
    15  C   -0.136507
    16  C   -0.155319
    17  C   -0.162908
    18  C   -0.155393
    19  H    0.163702
    20  H    0.164929
    21  H    0.159469
    22  H    0.159996
    23  H    0.160512
    24  C   -0.410742
    25  H    0.139500
    26  H    0.150496
    27  H    0.140431
 Sum of Mulliken atomic charges =   0.00000
 Mulliken charges with hydrogens summed into heavy atoms:
              1
     1  C    0.266195
     3  C   -0.053821
     5  C    0.428926
     6  O   -0.508847
     7  O   -0.256706
     9  C    0.045262
    13  C   -0.007828
    14  C    0.029166
    15  C    0.027196
    16  C    0.009609
    17  C   -0.003439
    18  C    0.004602
    24  C    0.019684
 Sum of Mulliken charges with hydrogens summed into heavy atoms =   0.00000
 Electronic spatial extent (au):  <R**2>=           3013.6249
 Charge=              0.0000 electrons
 Dipole moment (field-independent basis, Debye):
    X=              2.9910    Y=             -2.8012    Z=             -0.6330  Tot=              4.1465
 Quadrupole moment (field-independent basis, Debye-Ang):
   XX=            -74.7223   YY=            -75.5645   ZZ=            -74.7871
   XY=             -0.7638   XZ=              2.4716   YZ=              3.7675
 Traceless Quadrupole moment (field-independent basis, Debye-Ang):
   XX=              0.3024   YY=             -0.5399   ZZ=              0.2375
   XY=             -0.7638   XZ=              2.4716   YZ=              3.7675
 Octapole moment (field-independent basis, Debye-Ang**2):
  XXX=             78.2218  YYY=            -14.8262  ZZZ=            -12.1854  XYY=             11.2773
  XXY=             11.7340  XXZ=             -4.2244  XZZ=            -28.9222  YZZ=             -5.1007
  YYZ=             -3.5545  XYZ=             -3.2412
 Hexadecapole moment (field-independent basis, Debye-Ang**3):
 XXXX=          -3001.1123 YYYY=           -582.5239 ZZZZ=           -242.1673 XXXY=            -52.4116
 XXXZ=             24.1038 YYYX=             20.0432 YYYZ=             19.7768 ZZZX=             40.5345
 ZZZY=             14.4133 XXYY=           -571.4302 XXZZ=           -555.1512 YYZZ=           -137.2225
 XXYZ=             18.2738 YYXZ=             14.1989 ZZXY=             23.3608
 N-N= 7.737454045303D+02 E-N=-2.892064181892D+03  KE= 5.725727294679D+02
 1\1\GINC-COMPUTE-8-2\SP\RmPW1PW91\6-31G(d,p)\C11H14O2\FBRUNO.IQUIR\21-
 Dec-2021\0\\# mPW1PW91/6-31g** scrf=(pcm,solvent=chloroform,smd,dovacu
 um) nmr\\comment\\0,1\C,0,0.358349439,-1.011490164,2.381372194\H,0,1.4
 45796106,-1.135757409,2.307897992\C,0,-0.158695785,-0.141658741,1.2124
 38672\H,0,0.141236812,0.886616859,1.447130933\C,0,0.516860384,-0.53890
 0673,-0.100785457\O,0,1.098566925,-1.616327389,-0.228099205\O,0,0.1027
 38932,-0.324260678,3.614145009\H,0,0.76143159,0.386919138,3.692918888\
 C,0,-1.681389195,-0.180580867,1.071644873\H,0,-2.02604958,-1.155071756
 ,0.709004985\H,0,-2.036399759,0.565313309,0.353898654\H,0,-2.171409966
 ,0.028116424,2.028175185\C,0,0.480070781,0.39049728,-1.276370852\C,0,0
 .468682047,2.035031353,-3.55109065\C,0,0.884416208,-0.109987511,-2.523
 470549\C,0,0.077764445,1.728423302,-1.181142779\C,0,0.070963773,2.5450
 39016,-2.316664688\C,0,0.876861861,0.707851679,-3.655299054\H,0,1.2080
 40621,-1.145121539,-2.621438051\H,0,-0.233313237,2.169921101,-0.240115
 841\H,0,-0.24400218,3.583111164,-2.237254968\H,0,1.190967301,0.3068860
 43,-4.615906983\H,0,0.462891704,2.672733506,-4.431820693\C,0,-0.278110
 286,-2.392814202,2.500756372\H,0,0.199031914,-2.952364401,3.313527459\
 H,0,-0.176408511,-2.975347704,1.581560589\H,0,-1.338892343,-2.32677713
 8,2.764987968\\Version=EM64L-G09RevC.01\State=1-A\HF=-577.9455973\RMSD
 =6.789e-09\Dipole=-0.0967919,1.5110054,-0.6072735\Quadrupole=-2.403921
 9,1.2229573,1.1809645,1.1470288,2.335382,0.7497893\PG=C01 [X(C11H14O2)
 ]\\@


 THE WISE MAN HAS THE POWER TO REASON AWAY
 WHAT A FOOL BELIEVES.
                     - DOOBIE BROTHERS
 Job cpu time:  0 days  0 hours 14 minutes 17.1 seconds.
 File lengths (MBytes):  RWF=     80 Int=      0 D2E=      0 Chk=      5 Scr=      1
 Normal termination of Gaussian 09 at Tue Dec 21 09:29:04 2021.
